<event>
 7    1  0.6078244E-006  0.9219301E+02  0.7818608E-02  0.1356557E+00
          2   -1    0    0  502    0  0.00000000000E+00  0.00000000000E+00  0.86182210808E+03  0.86182210808E+03  0.00000000000E+00 0. -1.
          1   -1    0    0  501    0 -0.00000000000E+00 -0.00000000000E+00 -0.73968472131E+02  0.73968472131E+02  0.00000000000E+00 0. -1.
         25    2    1    2    0    0 -0.81595516673E+02  0.48552242323E+02  0.12383847932E+03  0.19994091275E+03  0.12500100422E+03 0.  0.
          2    1    1    2  501    0 -0.11487143433E+02 -0.53538147684E+02 -0.97919380993E+01  0.55625262008E+02  0.00000000000E+00 0. -1.
          1    1    1    2  502    0  0.93082660105E+02  0.49859053612E+01  0.67380709473E+03  0.68022440545E+03  0.00000000000E+00 0. -1.
         22    1    3    3    0    0 -0.10402722662E+03  0.70407133083E+02  0.97283496869E+02  0.15888016563E+03  0.00000000000E+00 0. -1.
         22    1    3    3    0    0  0.22431709948E+02 -0.21854890760E+02  0.26554982446E+02  0.41060747120E+02  0.00000000000E+00 0. -1.
</event>
<event>
 7    1  0.6078244E-006  0.8720952E+02  0.7818608E-02  0.1335975E+00
          2   -1    0    0  502    0  0.00000000000E+00  0.00000000000E+00  0.19159847085E+03  0.19159847085E+03  0.00000000000E+00 0. -1.
          1   -1    0    0  501    0 -0.00000000000E+00 -0.00000000000E+00 -0.16316121240E+04  0.16316121240E+04  0.00000000000E+00 0. -1.
         25    2    1    2    0    0  0.13808030057E+03 -0.52945881847E+02 -0.48061270968E+03  0.51815455969E+03  0.12500454074E+03 0.  0.
          2    1    1    2  501    0 -0.69537782170E+02  0.44451482583E+02 -0.11237539661E+04  0.11267805526E+04  0.00000000000E+00 0. -1.
          1    1    1    2  502    0 -0.68542518399E+02  0.84943992640E+01  0.16435302260E+03  0.17827548257E+03  0.00000000000E+00 0. -1.
         22    1    3    3    0    0 -0.19729042890E+02 -0.25485019407E+02 -0.10438692226E+03  0.10924903151E+03  0.00000000000E+00 0.  1.
         22    1    3    3    0    0  0.15780934346E+03 -0.27460862440E+02 -0.37622578742E+03  0.40890552817E+03  0.00000000000E+00 0.  1.
</event>
<event>
 7    1  0.6078244E-006  0.6544347E+02  0.7818608E-02  0.1420891E+00
          2   -1    0    0  502    0  0.00000000000E+00  0.00000000000E+00  0.29659675928E+04  0.29659675928E+04  0.00000000000E+00 0. -1.
          1   -1    0    0  501    0 -0.00000000000E+00 -0.00000000000E+00 -0.17031102180E+03  0.17031102180E+03  0.00000000000E+00 0. -1.
         25    2    1    2    0    0 -0.29016314105E+02 -0.10368288295E+03  0.43133492553E+02  0.17052057088E+03  0.12499872084E+03 0.  0.
          2    1    1    2  501    0  0.19559891944E+02  0.58724167627E+02 -0.97433391964E+02  0.11543129171E+03  0.00000000000E+00 0. -1.
          1    1    1    2  502    0  0.94564221606E+01  0.44958715327E+02  0.28499564704E+04  0.28503267520E+04  0.00000000000E+00 0. -1.
         22    1    3    3    0    0 -0.35104404895E+02 -0.61504893966E+02  0.85098926978E+02  0.11071133003E+03  0.00000000000E+00 0.  1.
         22    1    3    3    0    0  0.60880907906E+01 -0.42177988988E+02 -0.41965434424E+02  0.59809240849E+02  0.00000000000E+00 0.  1.
</event>
<event>
 7    1  0.6078244E-006  0.3052214E+02  0.7818608E-02  0.1601630E+00
          2   -1    0    0  502    0  0.00000000000E+00  0.00000000000E+00  0.19340082941E+04  0.19340082941E+04  0.00000000000E+00 0. -1.
          1   -1    0    0  501    0 -0.00000000000E+00 -0.00000000000E+00 -0.19109468870E+03  0.19109468870E+03  0.00000000000E+00 0. -1.
         25    2    1    2    0    0 -0.21231681765E+02 -0.54679975896E+02  0.67346249632E+03  0.68747194448E+03  0.12500102568E+03 0.  0.
          2    1    1    2  501    0  0.97726146801E+01  0.27160355879E+02 -0.18277999018E+03  0.18504516675E+03  0.00000000000E+00 0. -1.
          1    1    1    2  502    0  0.11459067085E+02  0.27519620017E+02  0.12522310992E+04  0.12525858716E+04  0.00000000000E+00 0. -1.
         22    1    3    3    0    0 -0.73270887542E+02 -0.26857643476E+02  0.34125242423E+03  0.35006167031E+03  0.00000000000E+00 0. -1.
         22    1    3    3    0    0  0.52039205777E+02 -0.27822332421E+02  0.33221007209E+03  0.33741027417E+03  0.00000000000E+00 0. -1.
</event>
<event>
 7    1  0.6078244E-006  0.5344837E+02  0.7818608E-02  0.1459440E+00
          2   -1    0    0  502    0  0.00000000000E+00  0.00000000000E+00  0.46584179664E+02  0.46584179664E+02  0.00000000000E+00 0. -1.
          1   -1    0    0  501    0 -0.00000000000E+00 -0.00000000000E+00 -0.68151887296E+03  0.68151887296E+03  0.00000000000E+00 0. -1.
         25    2    1    2    0    0  0.32422161241E+02  0.14196008844E+02 -0.10932719216E+03  0.16979432742E+03  0.12499982189E+03 0.  0.
          2    1    1    2  501    0 -0.49158056554E+02  0.24515624447E+02 -0.51059595217E+03  0.51354236120E+03  0.00000000000E+00 0. -1.
          1    1    1    2  502    0  0.16735895313E+02 -0.38711633291E+02 -0.15011548963E+02  0.44766364005E+02  0.00000000000E+00 0. -1.
         22    1    3    3    0    0  0.51744883308E+02 -0.33731871375E+02 -0.17125927127E+02  0.64098903851E+02  0.00000000000E+00 0.  1.
         22    1    3    3    0    0 -0.19322722067E+02  0.47927880219E+02 -0.92201265034E+02  0.10569542357E+03  0.00000000000E+00 0.  1.
</event>
<event>
 7    1  0.6078244E-006  0.5372997E+02  0.7818608E-02  0.1524361E+00
          2   -1    0    0  502    0  0.00000000000E+00  0.00000000000E+00  0.13474044105E+04  0.13474044105E+04  0.00000000000E+00 0. -1.
          1   -1    0    0  501    0 -0.00000000000E+00 -0.00000000000E+00 -0.14080732036E+03  0.14080732036E+03  0.00000000000E+00 0. -1.
         25    2    1    2    0    0 -0.38287937707E+02 -0.50845760760E+02  0.60437667711E+03  0.62044137401E+03  0.12500029273E+03 0.  0.
          2    1    1    2  501    0 -0.83504187443E+01  0.25377256013E+02 -0.13045903324E+03  0.13316641457E+03  0.00000000000E+00 0. -1.
          1    1    1    2  502    0  0.46638356451E+02  0.25468504747E+02  0.73267944622E+03  0.73460394223E+03  0.00000000000E+00 0. -1.
         22    1    3    3    0    0  0.37876145718E+02 -0.45444713824E+02  0.18689430416E+03  0.19603393930E+03  0.00000000000E+00 0. -1.
         22    1    3    3    0    0 -0.76164083425E+02 -0.54010469368E+01  0.41748237295E+03  0.42440743471E+03  0.00000000000E+00 0. -1.
</event>
<event>
 7    1  0.6078244E-006  0.1495089E+03  0.7818608E-02  0.1312383E+00
          2   -1    0    0  502    0  0.00000000000E+00  0.00000000000E+00  0.60995314348E+03  0.60995314348E+03  0.00000000000E+00 0. -1.
          1   -1    0    0  501    0 -0.00000000000E+00 -0.00000000000E+00 -0.12388971993E+03  0.12388971993E+03  0.00000000000E+00 0. -1.
         25    2    1    2    0    0 -0.13129363141E+03 -0.86724800720E+02  0.18226631546E+03  0.27131235317E+03  0.12502069639E+03 0.  0.
          2    1    1    2  501    0  0.92011836411E+02  0.11712719243E+03 -0.57170394293E+01  0.14905583446E+03  0.00000000000E+00 0. -1.
          1    1    1    2  502    0  0.39281795002E+02 -0.30402391713E+02  0.30951414752E+03  0.31347467578E+03  0.00000000000E+00 0. -1.
         22    1    3    3    0    0 -0.91642780483E+02 -0.10013101088E+03  0.72606558906E+02  0.15393612621E+03  0.00000000000E+00 0. -1.
         22    1    3    3    0    0 -0.39650850931E+02  0.13406210163E+02  0.10965975655E+03  0.11737622697E+03  0.00000000000E+00 0. -1.
</event>
<event>
 7    1  0.6078244E-006  0.4255497E+02  0.7818608E-02  0.1523327E+00
          2   -1    0    0  502    0  0.00000000000E+00  0.00000000000E+00  0.61944385006E+02  0.61944385006E+02  0.00000000000E+00 0. -1.
          1   -1    0    0  501    0 -0.00000000000E+00 -0.00000000000E+00 -0.19168806262E+03  0.19168806262E+03  0.00000000000E+00 0. -1.
         25    2    1    2    0    0  0.60678054314E+01  0.13242712300E+02 -0.99065090906E+02  0.16016018811E+03  0.12500082371E+03 0.  0.
          2    1    1    2  501    0  0.24423210526E+02  0.23602317434E+02 -0.30496749921E+02  0.45646624809E+02  0.00000000000E+00 0. -1.
          1    1    1    2  502    0 -0.30491015957E+02 -0.36845029735E+02 -0.18183678406E+00  0.47825634704E+02  0.00000000000E+00 0. -1.
         22    1    3    3    0    0  0.48618957231E+02  0.34145218016E+02 -0.95688545587E+02  0.11263212984E+03  0.00000000000E+00 0.  1.
         22    1    3    3    0    0 -0.42551151800E+02 -0.20902505715E+02 -0.33765453190E+01  0.47528058271E+02  0.00000000000E+00 0.  1.
</event>
<event>
 7    1  0.6078244E-006  0.8380084E+02  0.7818608E-02  0.1474124E+00
          2   -1    0    0  502    0  0.00000000000E+00  0.00000000000E+00  0.12619772875E+03  0.12619772875E+03  0.00000000000E+00 0. -1.
          1   -1    0    0  501    0 -0.00000000000E+00 -0.00000000000E+00 -0.59886911657E+03  0.59886911657E+03  0.00000000000E+00 0. -1.
         25    2    1    2    0    0 -0.49121707783E+01 -0.98450540955E+02 -0.24031322061E+02  0.16099293845E+03  0.12499833341E+03 0.  0.
          2    1    1    2  501    0 -0.12556613512E+02  0.20689659864E+02 -0.47839127289E+03  0.47900306946E+03  0.00000000000E+00 0. -1.
          1    1    1    2  502    0  0.17468784290E+02  0.77760881090E+02  0.29751207131E+02  0.85070837414E+02  0.00000000000E+00 0. -1.
         22    1    3    3    0    0 -0.39037417584E+02 -0.19799683230E+01  0.26144124096E+02  0.47025051525E+02  0.00000000000E+00 0.  1.
         22    1    3    3    0    0  0.34125246806E+02 -0.96470572632E+02 -0.50175446157E+02  0.11396788693E+03  0.00000000000E+00 0.  1.
</event>
<event>
 7    1  0.6078244E-006  0.7284246E+02  0.7818608E-02  0.1379941E+00
          2   -1    0    0  502    0  0.00000000000E+00  0.00000000000E+00  0.65339126444E+03  0.65339126444E+03  0.00000000000E+00 0. -1.
          1   -1    0    0  501    0 -0.00000000000E+00 -0.00000000000E+00 -0.14410240538E+03  0.14410240538E+03  0.00000000000E+00 0. -1.
         25    2    1    2    0    0  0.20715145934E+02  0.73631551830E+02 -0.26627532447E+02  0.14894450367E+03  0.12499886797E+03 0.  0.
          2    1    1    2  501    0 -0.56277763218E+02 -0.95140416712E+01 -0.38902429336E+02  0.69073168670E+02  0.00000000000E+00 0. -1.
          1    1    1    2  502    0  0.35562617284E+02 -0.64117510159E+02  0.57481882084E+03  0.57947599747E+03  0.00000000000E+00 0. -1.
         22    1    3    3    0    0  0.53459225982E+02  0.14692404525E+02 -0.52854961630E+02  0.76598972332E+02  0.00000000000E+00 0. -1.
         22    1    3    3    0    0 -0.32744080048E+02  0.58939147305E+02  0.26227429184E+02  0.72345531339E+02  0.00000000000E+00 0. -1.
</event>
<event>
 7    1  0.6078244E-006  0.5125970E+02  0.7818608E-02  0.1439020E+00
          2   -1    0    0  502    0  0.00000000000E+00  0.00000000000E+00  0.12476273600E+04  0.12476273600E+04  0.00000000000E+00 0. -1.
          1   -1    0    0  501    0 -0.00000000000E+00 -0.00000000000E+00 -0.53597411980E+02  0.53597411980E+02  0.00000000000E+00 0. -1.
         25    2    1    2    0    0  0.22600518037E+02 -0.11940219794E+02  0.26472362633E+03  0.29386559037E+03  0.12500013841E+03 0.  0.
          2    1    1    2  501    0  0.69090294226E+01  0.53686255676E+02 -0.19232106563E+02  0.57444082888E+02  0.00000000000E+00 0. -1.
          1    1    1    2  502    0 -0.29509547460E+02 -0.41746035882E+02  0.94853842827E+03  0.94991509874E+03  0.00000000000E+00 0. -1.
         22    1    3    3    0    0  0.91450758130E+01  0.51691053904E+02  0.63478182106E+02  0.82371579254E+02  0.00000000000E+00 0.  1.
         22    1    3    3    0    0  0.13455442224E+02 -0.63631273697E+02  0.20124544422E+03  0.21149401111E+03  0.00000000000E+00 0.  1.
</event>
<event>
 7    1  0.6078244E-006  0.1449545E+03  0.7818608E-02  0.1288693E+00
          2   -1    0    0  502    0  0.00000000000E+00  0.00000000000E+00  0.38802721922E+03  0.38802721922E+03  0.00000000000E+00 0. -1.
          1   -1    0    0  501    0 -0.00000000000E+00 -0.00000000000E+00 -0.11976598606E+04  0.11976598606E+04  0.00000000000E+00 0. -1.
         25    2    1    2    0    0 -0.83622656074E+02 -0.17604762416E+02 -0.80050270350E+01  0.15164053959E+03  0.12501238547E+03 0.  0.
          2    1    1    2  501    0  0.14676202065E+03  0.26229720593E+02 -0.11095894286E+04  0.11195605338E+04  0.00000000000E+00 0. -1.
          1    1    1    2  502    0 -0.63139364580E+02 -0.86249581769E+01  0.30796181417E+03  0.31448600645E+03  0.00000000000E+00 0. -1.
         22    1    3    3    0    0 -0.38476812854E+02 -0.59778542795E+02  0.32081612099E+02  0.77994673798E+02  0.00000000000E+00 0.  1.
         22    1    3    3    0    0 -0.45145843220E+02  0.42173780379E+02 -0.40086639134E+02  0.73645865794E+02  0.00000000000E+00 0.  1.
</event>
<event>
 7    1  0.6078244E-006  0.7479703E+02  0.7818608E-02  0.1392058E+00
          2   -1    0    0  502    0  0.00000000000E+00  0.00000000000E+00  0.79201571041E+03  0.79201571041E+03  0.00000000000E+00 0. -1.
          1   -1    0    0  501    0 -0.00000000000E+00 -0.00000000000E+00 -0.59457465263E+03  0.59457465263E+03  0.00000000000E+00 0. -1.
         25    2    1    2    0    0  0.10113942612E+03  0.52986517466E+02  0.20830271281E+03  0.26842561740E+03  0.12500214943E+03 0.  0.
          2    1    1    2  501    0 -0.30162492768E+02 -0.40376314532E+02 -0.56103224863E+03  0.56329140483E+03  0.00000000000E+00 0. -1.
          1    1    1    2  502    0 -0.70976933351E+02 -0.12610202934E+02  0.55017059360E+03  0.55487334081E+03  0.00000000000E+00 0. -1.
         22    1    3    3    0    0  0.28982237455E+02 -0.41226174196E+02  0.68672323787E+02  0.85178962080E+02  0.00000000000E+00 0.  1.
         22    1    3    3    0    0  0.72157188663E+02  0.94212691661E+02  0.13963038903E+03  0.18324665532E+03  0.00000000000E+00 0.  1.
</event>
<event>
 7    1  0.6078244E-006  0.1922071E+03  0.7818608E-02  0.1332861E+00
          2   -1    0    0  502    0  0.00000000000E+00  0.00000000000E+00  0.11584756695E+04  0.11584756695E+04  0.00000000000E+00 0. -1.
          1   -1    0    0  501    0 -0.00000000000E+00 -0.00000000000E+00 -0.68598197027E+03  0.68598197027E+03  0.00000000000E+00 0. -1.
         25    2    1    2    0    0  0.61038300599E+02  0.18447190778E+03  0.13683689368E+03  0.26852325861E+03  0.12499938417E+03 0.  0.
          2    1    1    2  501    0 -0.29312812980E+02 -0.18998851264E+03 -0.60495882060E+03  0.63476771386E+03  0.00000000000E+00 0. -1.
          1    1    1    2  502    0 -0.31725487619E+02  0.55166048525E+01  0.94061562610E+03  0.94116666726E+03  0.00000000000E+00 0. -1.
         22    1    3    3    0    0  0.91983348610E+02  0.14711393759E+03  0.72728766073E+02  0.18813006264E+03  0.00000000000E+00 0. -1.
         22    1    3    3    0    0 -0.30945048011E+02  0.37357970197E+02  0.64108127609E+02  0.80393195976E+02  0.00000000000E+00 0. -1.
</event>
<event>
 7    1  0.6078244E-006  0.9223737E+02  0.7818608E-02  0.1398038E+00
          2   -1    0    0  502    0  0.00000000000E+00  0.00000000000E+00  0.52880166103E+03  0.52880166103E+03  0.00000000000E+00 0. -1.
          1   -1    0    0  501    0 -0.00000000000E+00 -0.00000000000E+00 -0.43149469295E+03  0.43149469295E+03  0.00000000000E+00 0. -1.
         25    2    1    2    0    0  0.10368672682E+02  0.94235726303E+02  0.39777851962E+02  0.16184788228E+03  0.12499831202E+03 0.  0.
          2    1    1    2  501    0 -0.38506901206E+02 -0.59636802306E+01 -0.36439476632E+03  0.36647222630E+03  0.00000000000E+00 0. -1.
          1    1    1    2  502    0  0.28138228524E+02 -0.88272046072E+02  0.42192388243E+03  0.43197624540E+03  0.00000000000E+00 0. -1.
         22    1    3    3    0    0  0.33215146616E+02 -0.19681248336E+02 -0.12577310398E+01  0.38628737853E+02  0.00000000000E+00 0.  1.
         22    1    3    3    0    0 -0.22846473934E+02  0.11391697464E+03  0.41035583002E+02  0.12321914443E+03  0.00000000000E+00 0.  1.
</event>
<event>
 7    1  0.6078244E-006  0.1851785E+03  0.7818608E-02  0.1231256E+00
          2   -1    0    0  502    0  0.00000000000E+00  0.00000000000E+00  0.27469430526E+03  0.27469430526E+03  0.00000000000E+00 0. -1.
          1   -1    0    0  501    0 -0.00000000000E+00 -0.00000000000E+00 -0.80353783956E+03  0.80353783956E+03  0.00000000000E+00 0. -1.
         25    2    1    2    0    0 -0.82313552842E+01 -0.15364939318E+03 -0.10987824351E+03  0.22665806755E+03  0.12499903981E+03 0.  0.
          2    1    1    2  501    0  0.93829890504E+02  0.17295093863E+03 -0.61021564952E+03  0.64115459481E+03  0.00000000000E+00 0. -1.
          1    1    1    2  502    0 -0.85598535219E+02 -0.19301545457E+02  0.19125035873E+03  0.21041948247E+03  0.00000000000E+00 0. -1.
         22    1    3    3    0    0  0.54844348898E+02 -0.10181378492E+03 -0.53366782048E+02  0.12736546955E+03  0.00000000000E+00 0. -1.
         22    1    3    3    0    0 -0.63075704182E+02 -0.51835608253E+02 -0.56511461465E+02  0.99292598002E+02  0.00000000000E+00 0. -1.
</event>
<event>
 7    1  0.6078244E-006  0.1219321E+03  0.7818608E-02  0.1328667E+00
          2   -1    0    0  502    0  0.00000000000E+00  0.00000000000E+00  0.26488176778E+04  0.26488176778E+04  0.00000000000E+00 0. -1.
          1   -1    0    0  501    0 -0.00000000000E+00 -0.00000000000E+00 -0.57644711919E+02  0.57644711919E+02  0.00000000000E+00 0. -1.
         25    2    1    2    0    0  0.12474038609E+03  0.72695762922E+02  0.12715539136E+04  0.12858147962E+04  0.12500198889E+03 0.  0.
          2    1    1    2  501    0 -0.10486487853E+02 -0.51611632008E+02 -0.33586089519E+02  0.62464008799E+02  0.00000000000E+00 0. -1.
          1    1    1    2  502    0 -0.11425389824E+03 -0.21084130914E+02  0.13532051418E+04  0.13581835847E+04  0.00000000000E+00 0. -1.
         22    1    3    3    0    0  0.50889702947E+02 -0.28792928707E+02  0.58208896780E+03  0.58501825702E+03  0.00000000000E+00 0.  1.
         22    1    3    3    0    0  0.73850683143E+02  0.10148869163E+03  0.68946494579E+03  0.70079653923E+03  0.00000000000E+00 0.  1.
</event>
<event>
 7    1  0.6078244E-006  0.8034990E+02  0.7818608E-02  0.1415267E+00
          2   -1    0    0  502    0  0.00000000000E+00  0.00000000000E+00  0.14543090040E+04  0.14543090040E+04  0.00000000000E+00 0. -1.
          1   -1    0    0  501    0 -0.00000000000E+00 -0.00000000000E+00 -0.43161217096E+02  0.43161217096E+02  0.00000000000E+00 0. -1.
         25    2    1    2    0    0 -0.19622686184E+01  0.10575029796E+03  0.75339351140E+03  0.77098232608E+03  0.12499995237E+03 0.  0.
          2    1    1    2  501    0  0.25786330863E+02 -0.74774412651E+02  0.12530966906E+02  0.80082287544E+02  0.00000000000E+00 0. -1.
          1    1    1    2  502    0 -0.23824062244E+02 -0.30975885314E+02  0.64522330863E+03  0.64640560751E+03  0.00000000000E+00 0. -1.
         22    1    3    3    0    0 -0.30488182631E+02  0.45177019274E+02  0.97656251581E+02  0.11183575378E+03  0.00000000000E+00 0.  1.
         22    1    3    3    0    0  0.28525914012E+02  0.60573278690E+02  0.65573725982E+03  0.65914657231E+03  0.00000000000E+00 0.  1.
</event>
<event>
 7    1  0.1264117E-005  0.3856315E+02  0.7818608E-02  0.1600861E+00
          2   -1    0    0  502    0  0.00000000000E+00  0.00000000000E+00  0.19852719355E+04  0.19852719355E+04  0.00000000000E+00 0. -1.
          1   -1    0    0  501    0 -0.00000000000E+00 -0.00000000000E+00 -0.90239316175E+03  0.90239316175E+03  0.00000000000E+00 0. -1.
         25    2    1    2    0    0  0.20668217526E+01  0.60267739747E+02 -0.53163349741E+03  0.54945041787E+03  0.12500045569E+03 0.  0.
          2    1    1    2  501    0 -0.66080558185E+01 -0.21980285542E+02 -0.36129897756E+03  0.36202727872E+03  0.00000000000E+00 0. -1.
          1    1    1    2  502    0  0.45412340659E+01 -0.38287454205E+02  0.19758112487E+04  0.19761874006E+04  0.00000000000E+00 0. -1.
         22    1    3    3    0    0  0.72024979449E+01  0.28903293080E+02 -0.17935271164E+02  0.34769962313E+02  0.00000000000E+00 0. -1.
         22    1    3    3    0    0 -0.51356761923E+01  0.31364446668E+02 -0.51369822624E+03  0.51468045555E+03  0.00000000000E+00 0. -1.
</event>
<event>
 7    1  0.1790085E-005  0.8775505E+02  0.7818608E-02  0.1335842E+00
          2   -1    0    0  502    0  0.00000000000E+00  0.00000000000E+00  0.23643199750E+04  0.23643199750E+04  0.00000000000E+00 0. -1.
          1   -1    0    0  501    0 -0.00000000000E+00 -0.00000000000E+00 -0.15016578028E+04  0.15016578028E+04  0.00000000000E+00 0. -1.
         25    2    1    2    0    0 -0.17786005512E+02 -0.58806051697E+02 -0.28244306741E+03  0.31492059367E+03  0.12500560099E+03 0.  0.
          2    1    1    2  501    0  0.67317334685E+02 -0.13798254317E+02 -0.12011711848E+04  0.12031351672E+04  0.00000000000E+00 0. -1.
          1    1    1    2  502    0 -0.49531329173E+02  0.72604306015E+02  0.23462764244E+04  0.23479220169E+04  0.00000000000E+00 0. -1.
         22    1    3    3    0    0 -0.51914714946E+02  0.97312470564E+01 -0.61398202801E+02  0.80991197697E+02  0.00000000000E+00 0.  1.
         22    1    3    3    0    0  0.34128709434E+02 -0.68537298754E+02 -0.22104486461E+03  0.23392939597E+03  0.00000000000E+00 0.  1.
</event>
<event>
 7    1  0.6078244E-006  0.6426911E+02  0.7818608E-02  0.1393535E+00
          2   -1    0    0  502    0  0.00000000000E+00  0.00000000000E+00  0.12706896760E+04  0.12706896760E+04  0.00000000000E+00 0. -1.
          1   -1    0    0  501    0 -0.00000000000E+00 -0.00000000000E+00 -0.59618368535E+03  0.59618368535E+03  0.00000000000E+00 0. -1.
         25    2    1    2    0    0  0.96577566824E+02 -0.25512956199E+02  0.16572739686E+03  0.23036746550E+03  0.12500184696E+03 0.  0.
          2    1    1    2  501    0 -0.42965749381E+02  0.47552864526E+02 -0.56125560561E+03  0.56490281056E+03  0.00000000000E+00 0. -1.
          1    1    1    2  502    0 -0.53611817443E+02 -0.22039908328E+02  0.10700341994E+04  0.10716030853E+04  0.00000000000E+00 0. -1.
         22    1    3    3    0    0  0.60478685193E+02  0.40047860909E+02  0.36910858579E+02  0.81387431506E+02  0.00000000000E+00 0. -1.
         22    1    3    3    0    0  0.36098881630E+02 -0.65560817107E+02  0.12881653828E+03  0.14898003400E+03  0.00000000000E+00 0. -1.
</event>
<event>
 7    1  0.6078244E-006  0.6215680E+02  0.7818608E-02  0.1437456E+00
          2   -1    0    0  502    0  0.00000000000E+00  0.00000000000E+00  0.11779779550E+04  0.11779779550E+04  0.00000000000E+00 0. -1.
          1   -1    0    0  501    0 -0.00000000000E+00 -0.00000000000E+00 -0.65384966823E+03  0.65384966823E+03  0.00000000000E+00 0. -1.
         25    2    1    2    0    0  0.24408083035E+02  0.19666280459E+02  0.13653805668E+02  0.12959204889E+03  0.12500062249E+03 0.  0.
          2    1    1    2  501    0 -0.10168373530E+02  0.41427347399E+02 -0.59422614666E+03  0.59575526377E+03  0.00000000000E+00 0. -1.
          1    1    1    2  502    0 -0.14239709506E+02 -0.61093627858E+02  0.11047006278E+04  0.11064803106E+04  0.00000000000E+00 0. -1.
         22    1    3    3    0    0  0.72779911279E+02 -0.41970254587E+01  0.19152285322E+02  0.75374667771E+02  0.00000000000E+00 0. -1.
         22    1    3    3    0    0 -0.48371828244E+02  0.23863305917E+02 -0.54984796539E+01  0.54217381120E+02  0.00000000000E+00 0. -1.
</event>
<event>
 7    1  0.6078244E-006  0.7052696E+02  0.7818608E-02  0.1474886E+00
          2   -1    0    0  502    0  0.00000000000E+00  0.00000000000E+00  0.83928512488E+03  0.83928512488E+03  0.00000000000E+00 0. -1.
          1   -1    0    0  501    0 -0.00000000000E+00 -0.00000000000E+00 -0.45319470630E+03  0.45319470630E+03  0.00000000000E+00 0. -1.
         25    2    1    2    0    0 -0.28270681749E+02 -0.65672551875E+02 -0.12723278292E+03  0.19215168492E+03  0.12498789322E+03 0.  0.
          2    1    1    2  501    0 -0.22927057346E+02  0.17099471862E+02 -0.29125739649E+03  0.29265835527E+03  0.00000000000E+00 0. -1.
          1    1    1    2  502    0  0.51197739094E+02  0.48573080013E+02  0.80458059800E+03  0.80766979098E+03  0.00000000000E+00 0. -1.
         22    1    3    3    0    0  0.27656434730E+02 -0.12910449523E+01 -0.98256238488E+02  0.10208248420E+03  0.00000000000E+00 0.  1.
         22    1    3    3    0    0 -0.55927116478E+02 -0.64381506923E+02 -0.28976544433E+02  0.90069200721E+02  0.00000000000E+00 0.  1.
</event>
<event>
 7    1  0.6078244E-006  0.5726545E+02  0.7818608E-02  0.1435271E+00
          2   -1    0    0  502    0  0.00000000000E+00  0.00000000000E+00  0.22722510108E+03  0.22722510108E+03  0.00000000000E+00 0. -1.
          1   -1    0    0  501    0 -0.00000000000E+00 -0.00000000000E+00 -0.10887021196E+04  0.10887021196E+04  0.00000000000E+00 0. -1.
         25    2    1    2    0    0 -0.99369766472E+02 -0.22421771501E+02 -0.11366548119E+03  0.19728457110E+03  0.12499709618E+03 0.  0.
          2    1    1    2  501    0  0.43467538396E+02  0.18051553292E+02 -0.92837791488E+03  0.92957024388E+03  0.00000000000E+00 0. -1.
          1    1    1    2  502    0  0.55902228076E+02  0.43702182090E+01  0.18056637754E+03  0.18907240573E+03  0.00000000000E+00 0. -1.
         22    1    3    3    0    0  0.98920644422E-01  0.33443617134E+02  0.36533038157E+01  0.33642710073E+02  0.00000000000E+00 0. -1.
         22    1    3    3    0    0 -0.99468687116E+02 -0.55865388635E+02 -0.11731878501E+03  0.16364186102E+03  0.00000000000E+00 0. -1.
</event>
<event>
 7    1  0.6078244E-006  0.1819558E+03  0.7818608E-02  0.1290562E+00
          2   -1    0    0  502    0  0.00000000000E+00  0.00000000000E+00  0.37553206979E+04  0.37553206979E+04  0.00000000000E+00 0. -1.
          1   -1    0    0  501    0 -0.00000000000E+00 -0.00000000000E+00 -0.46659091322E+02  0.46659091322E+02  0.00000000000E+00 0. -1.
         25    2    1    2    0    0  0.11173580384E+03  0.83335355347E+02  0.34559907016E+03  0.39305609304E+03  0.12499881468E+03 0.  0.
          2    1    1    2  501    0  0.26213232033E+02  0.42443140635E+02  0.10261957551E+02  0.50929966555E+02  0.00000000000E+00 0. -1.
          1    1    1    2  502    0 -0.13794903587E+03 -0.12577849598E+03  0.33528005789E+04  0.33579937296E+04  0.00000000000E+00 0. -1.
         22    1    3    3    0    0  0.11682357811E+02  0.82260452527E+02  0.19812710669E+03  0.21484322177E+03  0.00000000000E+00 0. -1.
         22    1    3    3    0    0  0.10005344603E+03  0.10749028201E+01  0.14747196347E+03  0.17821287127E+03  0.00000000000E+00 0. -1.
</event>
<event>
 7    1  0.6078244E-006  0.5136093E+02  0.7818608E-02  0.1455328E+00
          2   -1    0    0  502    0  0.00000000000E+00  0.00000000000E+00  0.12261901765E+03  0.12261901765E+03  0.00000000000E+00 0. -1.
          1   -1    0    0  501    0 -0.00000000000E+00 -0.00000000000E+00 -0.16823361430E+04  0.16823361430E+04  0.00000000000E+00 0. -1.
         25    2    1    2    0    0 -0.10421574873E+02 -0.26145119875E+02 -0.75647512048E+02  0.14879423249E+03  0.12500000411E+03 0.  0.
          2    1    1    2  501    0  0.51340594889E+02  0.68875032153E+01 -0.15637143704E+04  0.15645721225E+04  0.00000000000E+00 0. -1.
          1    1    1    2  502    0 -0.40919020016E+02  0.19257616660E+02  0.79644757056E+02  0.91588805675E+02  0.00000000000E+00 0. -1.
         22    1    3    3    0    0 -0.44796077595E+02 -0.51502996932E+02 -0.79133338899E+01  0.68715850530E+02  0.00000000000E+00 0.  1.
         22    1    3    3    0    0  0.34374502722E+02  0.25357877056E+02 -0.67734178158E+02  0.80078381958E+02  0.00000000000E+00 0.  1.
</event>
<event>
 7    1  0.6078244E-006  0.6561552E+02  0.7818608E-02  0.1401141E+00
          2   -1    0    0  502    0  0.00000000000E+00  0.00000000000E+00  0.18206545905E+03  0.18206545905E+03  0.00000000000E+00 0. -1.
          1   -1    0    0  501    0 -0.00000000000E+00 -0.00000000000E+00 -0.51105019082E+03  0.51105019082E+03  0.00000000000E+00 0. -1.
         25    2    1    2    0    0  0.13062295527E+02 -0.10479159529E+02 -0.11190697790E+02  0.12660793976E+03  0.12499560930E+03 0.  0.
          2    1    1    2  501    0 -0.66349660550E+02  0.14584953821E+02 -0.43363926446E+03  0.43892825156E+03  0.00000000000E+00 0. -1.
          1    1    1    2  502    0  0.53287365023E+02 -0.41057942922E+01  0.11584523048E+03  0.12757945855E+03  0.00000000000E+00 0. -1.
         22    1    3    3    0    0  0.15149694910E+02  0.55180373696E+02  0.89033454256E+01  0.57910762876E+02  0.00000000000E+00 0.  1.
         22    1    3    3    0    0 -0.20873993832E+01 -0.65659533225E+02 -0.20094043216E+02  0.68697176887E+02  0.00000000000E+00 0.  1.
</event>
<event>
 7    1  0.6078244E-006  0.9949812E+02  0.7818608E-02  0.1425309E+00
          2   -1    0    0  502    0  0.00000000000E+00  0.00000000000E+00  0.14348030526E+04  0.14348030526E+04  0.00000000000E+00 0. -1.
          1   -1    0    0  501    0 -0.00000000000E+00 -0.00000000000E+00 -0.93414412984E+03  0.93414412984E+03  0.00000000000E+00 0. -1.
         25    2    1    2    0    0  0.10431392936E+03  0.53393018863E+02  0.82054386332E+03  0.83824140615E+03  0.12499685206E+03 0.  0.
          2    1    1    2  501    0 -0.16236213029E+02 -0.24285448834E+02 -0.92150918812E+03  0.92197211532E+03  0.00000000000E+00 0. -1.
          1    1    1    2  502    0 -0.88077716327E+02 -0.29107570029E+02  0.60162424760E+03  0.60873366101E+03  0.00000000000E+00 0. -1.
         22    1    3    3    0    0  0.13219216826E+03  0.40146530897E+02  0.61013267173E+03  0.62557844464E+03  0.00000000000E+00 0. -1.
         22    1    3    3    0    0 -0.27878238907E+02  0.13246487967E+02  0.21041119160E+03  0.21266296151E+03  0.00000000000E+00 0. -1.
</event>
<event>
 7    1  0.6078244E-006  0.9840729E+02  0.7818608E-02  0.1360191E+00
          2   -1    0    0  502    0  0.00000000000E+00  0.00000000000E+00  0.29129204769E+03  0.29129204769E+03  0.00000000000E+00 0. -1.
          1   -1    0    0  501    0 -0.00000000000E+00 -0.00000000000E+00 -0.78228276213E+03  0.78228276213E+03  0.00000000000E+00 0. -1.
         25    2    1    2    0    0 -0.10707397647E+03 -0.10089777472E+03  0.10006987330E+03  0.21745004109E+03  0.12500137379E+03 0.  0.
          2    1    1    2  501    0  0.70007761575E+02  0.67710678832E+02 -0.71550508764E+03  0.72210342275E+03  0.00000000000E+00 0. -1.
          1    1    1    2  502    0  0.37066214892E+02  0.33187095886E+02  0.12444449990E+03  0.13402134597E+03  0.00000000000E+00 0. -1.
         22    1    3    3    0    0 -0.73902418784E+02 -0.11857413694E+03  0.37844823971E+02  0.14475366715E+03  0.00000000000E+00 0. -1.
         22    1    3    3    0    0 -0.33171557683E+02  0.17676362219E+02  0.62225049324E+02  0.72696373938E+02  0.00000000000E+00 0. -1.
</event>
<event>
 7    1  0.6078244E-006  0.6260355E+02  0.7818608E-02  0.1396647E+00
          2   -1    0    0  502    0  0.00000000000E+00  0.00000000000E+00  0.12568657523E+03  0.12568657523E+03  0.00000000000E+00 0. -1.
          1   -1    0    0  501    0 -0.00000000000E+00 -0.00000000000E+00 -0.18884794508E+04  0.18884794508E+04  0.00000000000E+00 0. -1.
         25    2    1    2    0    0  0.10248617707E+03 -0.61197706543E+02 -0.74789088472E+03  0.76760274153E+03  0.12499847030E+03 0.  0.
          2    1    1    2  501    0 -0.52779879622E+02  0.24164995618E+02 -0.11216354193E+04  0.11231365351E+04  0.00000000000E+00 0. -1.
          1    1    1    2  502    0 -0.49706297452E+02  0.37032710925E+02  0.10673342851E+03  0.12342674932E+03  0.00000000000E+00 0. -1.
         22    1    3    3    0    0  0.65376521799E+02  0.19216464120E+02 -0.17311014670E+03  0.18603893406E+03  0.00000000000E+00 0.  1.
         22    1    3    3    0    0  0.37109655275E+02 -0.80414170663E+02 -0.57478073802E+03  0.58156380747E+03  0.00000000000E+00 0.  1.
</event>
<event>
 7    1  0.6078244E-006  0.3580088E+02  0.7818608E-02  0.1623519E+00
          2   -1    0    0  502    0  0.00000000000E+00  0.00000000000E+00  0.20175496570E+03  0.20175496570E+03  0.00000000000E+00 0. -1.
          1   -1    0    0  501    0 -0.00000000000E+00 -0.00000000000E+00 -0.83984575593E+03  0.83984575593E+03  0.00000000000E+00 0. -1.
         25    2    1    2    0    0  0.16329018501E-01  0.15126783904E+02 -0.17053487096E+01  0.12592310216E+03  0.12499959834E+03 0.  0.
          2    1    1    2  501    0 -0.40951076136E+01  0.21226534505E+02 -0.77348221772E+03  0.77378425727E+03  0.00000000000E+00 0. -1.
          1    1    1    2  502    0  0.40787785951E+01 -0.36353318409E+02  0.13709677619E+03  0.14189336220E+03  0.00000000000E+00 0. -1.
         22    1    3    3    0    0 -0.57717763669E+01 -0.51072493766E+02  0.21251224908E+02  0.55617691268E+02  0.00000000000E+00 0. -1.
         22    1    3    3    0    0  0.57881053854E+01  0.66199277670E+02 -0.22956573617E+02  0.70305410889E+02  0.00000000000E+00 0. -1.
</event>
<event>
 7    1  0.6078244E-006  0.5594118E+02  0.7818608E-02  0.1491890E+00
          2   -1    0    0  502    0  0.00000000000E+00  0.00000000000E+00  0.12757853530E+04  0.12757853530E+04  0.00000000000E+00 0. -1.
          1   -1    0    0  501    0 -0.00000000000E+00 -0.00000000000E+00 -0.61432197316E+02  0.61432197316E+02  0.00000000000E+00 0. -1.
         25    2    1    2    0    0  0.23970603612E+02  0.24349831701E+02  0.31033234824E+03  0.33629902003E+03  0.12499344130E+03 0.  0.
          2    1    1    2  501    0 -0.15440881903E+02 -0.55187582825E+02 -0.31132855011E+02  0.65217672399E+02  0.00000000000E+00 0. -1.
          1    1    1    2  502    0 -0.85297217091E+01  0.30837751124E+02  0.93515366247E+03  0.93570085791E+03  0.00000000000E+00 0. -1.
         22    1    3    3    0    0 -0.33390588461E+02  0.35275016766E+02  0.24009667767E+03  0.24496055362E+03  0.00000000000E+00 0. -1.
         22    1    3    3    0    0  0.57361192073E+02 -0.10925185065E+02  0.70235670574E+02  0.91338466407E+02  0.00000000000E+00 0. -1.
</event>
<event>
 7    1  0.6078244E-006  0.1563055E+03  0.7818608E-02  0.1216434E+00
          2   -1    0    0  502    0  0.00000000000E+00  0.00000000000E+00  0.14393466121E+04  0.14393466121E+04  0.00000000000E+00 0. -1.
          1   -1    0    0  501    0 -0.00000000000E+00 -0.00000000000E+00 -0.14058846269E+04  0.14058846269E+04  0.00000000000E+00 0. -1.
         25    2    1    2    0    0 -0.60231617923E+02  0.31275080419E+02 -0.11838020975E+03  0.18505370508E+03  0.12500008500E+03 0.  0.
          2    1    1    2  501    0 -0.91938595350E+02 -0.79187108254E+02 -0.12466871880E+04  0.12525782404E+04  0.00000000000E+00 0. -1.
          1    1    1    2  502    0  0.15217021327E+03  0.47912027835E+02  0.13985293830E+04  0.14075992936E+04  0.00000000000E+00 0. -1.
         22    1    3    3    0    0  0.12898442012E+02  0.59461482979E+02 -0.33237244006E+02  0.69330744648E+02  0.00000000000E+00 0.  1.
         22    1    3    3    0    0 -0.73130059935E+02 -0.28186402560E+02 -0.85142965745E+02  0.11572296043E+03  0.00000000000E+00 0.  1.
</event>
<event>
 7    1  0.6078244E-006  0.1771650E+03  0.7818608E-02  0.1187477E+00
          2   -1    0    0  502    0  0.00000000000E+00  0.00000000000E+00  0.37236451675E+03  0.37236451675E+03  0.00000000000E+00 0. -1.
          1   -1    0    0  501    0 -0.00000000000E+00 -0.00000000000E+00 -0.61401228051E+03  0.61401228051E+03  0.00000000000E+00 0. -1.
         25    2    1    2    0    0  0.12608290326E+03  0.75665062694E+02 -0.23478040882E+03  0.30392321453E+03  0.12500151902E+03 0.  0.
          2    1    1    2  501    0 -0.88747929288E+02 -0.21729131490E+03 -0.28433737931E+03  0.36869968234E+03  0.00000000000E+00 0. -1.
          1    1    1    2  502    0 -0.37334973972E+02  0.14162625221E+03  0.27747002436E+03  0.31375390040E+03  0.00000000000E+00 0. -1.
         22    1    3    3    0    0  0.62532206082E+02  0.50991646316E+02 -0.21977565597E+03  0.23411912299E+03  0.00000000000E+00 0.  1.
         22    1    3    3    0    0  0.63550697178E+02  0.24673416378E+02 -0.15004752845E+02  0.69804091538E+02  0.00000000000E+00 0.  1.
</event>
<event>
 7    1  0.6078244E-006  0.8852784E+02  0.7818608E-02  0.1312740E+00
          2   -1    0    0  502    0  0.00000000000E+00  0.00000000000E+00  0.40422858858E+03  0.40422858858E+03  0.00000000000E+00 0. -1.
          1   -1    0    0  501    0 -0.00000000000E+00 -0.00000000000E+00 -0.14970920071E+03  0.14970920071E+03  0.00000000000E+00 0. -1.
         25    2    1    2    0    0 -0.19663164939E+02  0.27799231832E+02  0.79747873316E+02  0.15213270758E+03  0.12500080028E+03 0.  0.
          2    1    1    2  501    0  0.94817072679E+02  0.18988248644E+02 -0.84137473237E+02  0.12817934803E+03  0.00000000000E+00 0. -1.
          1    1    1    2  502    0 -0.75153907740E+02 -0.46787480476E+02  0.25890898779E+03  0.27362573369E+03  0.00000000000E+00 0. -1.
         22    1    3    3    0    0  0.27643836752E+02  0.10114647060E+02 -0.23189508465E+02  0.37473205073E+02  0.00000000000E+00 0. -1.
         22    1    3    3    0    0 -0.47307001691E+02  0.17684584772E+02  0.10293738178E+03  0.11465950251E+03  0.00000000000E+00 0. -1.
</event>
<event>
 7    1  0.6078244E-006  0.1432446E+03  0.7818608E-02  0.1299381E+00
          2   -1    0    0  502    0  0.00000000000E+00  0.00000000000E+00  0.14591778869E+04  0.14591778869E+04  0.00000000000E+00 0. -1.
          1   -1    0    0  501    0 -0.00000000000E+00 -0.00000000000E+00 -0.16002238738E+03  0.16002238738E+03  0.00000000000E+00 0. -1.
         25    2    1    2    0    0 -0.10551513013E+03  0.48111093874E+01  0.51112546996E+03  0.53668438157E+03  0.12499715964E+03 0.  0.
          2    1    1    2  501    0  0.14002604510E+03  0.42278076720E+02 -0.10973381103E+03  0.18285578569E+03  0.00000000000E+00 0. -1.
          1    1    1    2  502    0 -0.34510914971E+02 -0.47089186108E+02  0.89776384059E+03  0.89966010702E+03  0.00000000000E+00 0. -1.
         22    1    3    3    0    0 -0.74259818746E+02  0.60837034428E+02  0.35834387506E+03  0.37097978143E+03  0.00000000000E+00 0. -1.
         22    1    3    3    0    0 -0.31255311381E+02 -0.56025925041E+02  0.15278159491E+03  0.16570460014E+03  0.00000000000E+00 0. -1.
</event>
<event>
 7    1  0.6078244E-006  0.9158780E+02  0.7818608E-02  0.1343978E+00
          2   -1    0    0  502    0  0.00000000000E+00  0.00000000000E+00  0.82013653111E+03  0.82013653111E+03  0.00000000000E+00 0. -1.
          1   -1    0    0  501    0 -0.00000000000E+00 -0.00000000000E+00 -0.28094838422E+03  0.28094838422E+03  0.00000000000E+00 0. -1.
         25    2    1    2    0    0 -0.14341731302E+02 -0.29651658993E+02  0.18665759772E+03  0.22704758585E+03  0.12499856526E+03 0.  0.
          2    1    1    2  501    0  0.31722228464E+02  0.88498778116E+02 -0.25067223142E+03  0.26772168592E+03  0.00000000000E+00 0. -1.
          1    1    1    2  502    0 -0.17380497162E+02 -0.58847119123E+02  0.60320278059E+03  0.60631564356E+03  0.00000000000E+00 0. -1.
         22    1    3    3    0    0 -0.11140477899E+02  0.48877737958E+02  0.62757179318E+02  0.80321896589E+02  0.00000000000E+00 0.  1.
         22    1    3    3    0    0 -0.32012534031E+01 -0.78529396952E+02  0.12390041841E+03  0.14672568927E+03  0.00000000000E+00 0.  1.
</event>
<event>
 7    1  0.6078244E-006  0.1250236E+03  0.7818608E-02  0.1416561E+00
          2   -1    0    0  502    0  0.00000000000E+00  0.00000000000E+00  0.54191414875E+03  0.54191414875E+03  0.00000000000E+00 0. -1.
          1   -1    0    0  501    0 -0.00000000000E+00 -0.00000000000E+00 -0.26285266154E+03  0.26285266154E+03  0.00000000000E+00 0. -1.
         25    2    1    2    0    0 -0.93273372970E+02  0.62846805398E+02 -0.11655650404E+03  0.20459761062E+03  0.12500048233E+03 0.  0.
          2    1    1    2  501    0 -0.21743135305E+02 -0.12061277317E+02 -0.92673157633E+02  0.95950781597E+02  0.00000000000E+00 0. -1.
          1    1    1    2  502    0  0.11501650828E+03 -0.50785528081E+02  0.48829114889E+03  0.50421841807E+03  0.00000000000E+00 0. -1.
         22    1    3    3    0    0 -0.71656353506E+02  0.97017843587E+02 -0.11075474060E+03  0.16374891614E+03  0.00000000000E+00 0. -1.
         22    1    3    3    0    0 -0.21617019464E+02 -0.34171038188E+02 -0.58017634383E+01  0.40848694476E+02  0.00000000000E+00 0. -1.
</event>
<event>
 7    1  0.6078244E-006  0.1368845E+03  0.7818608E-02  0.1382955E+00
          2   -1    0    0  502    0  0.00000000000E+00  0.00000000000E+00  0.38955003184E+04  0.38955003184E+04  0.00000000000E+00 0. -1.
          1   -1    0    0  501    0 -0.00000000000E+00 -0.00000000000E+00 -0.56844908544E+02  0.56844908544E+02  0.00000000000E+00 0. -1.
         25    2    1    2    0    0 -0.16504676515E+03 -0.45987201600E+01  0.36816372926E+03  0.42241125384E+03  0.12500061168E+03 0.  0.
          2    1    1    2  501    0  0.29549802326E+02  0.22720946880E+01 -0.20676348181E+02  0.36136748690E+02  0.00000000000E+00 0. -1.
          1    1    1    2  502    0  0.13549696283E+03  0.23266254720E+01  0.34911680288E+04  0.34937972245E+04  0.00000000000E+00 0. -1.
         22    1    3    3    0    0 -0.15124032704E+03  0.26620803874E+02  0.35319956948E+03  0.38513924703E+03  0.00000000000E+00 0.  1.
         22    1    3    3    0    0 -0.13806438111E+02 -0.31219524034E+02  0.14964159780E+02  0.37272006816E+02  0.00000000000E+00 0.  1.
</event>
<event>
 7    1  0.6078244E-006  0.5074440E+02  0.7818608E-02  0.1471085E+00
          2   -1    0    0  502    0  0.00000000000E+00  0.00000000000E+00  0.17135648019E+03  0.17135648019E+03  0.00000000000E+00 0. -1.
          1   -1    0    0  501    0 -0.00000000000E+00 -0.00000000000E+00 -0.11450883697E+04  0.11450883697E+04  0.00000000000E+00 0. -1.
         25    2    1    2    0    0 -0.23561804043E+02 -0.44936143917E+01 -0.28752520972E+03  0.31443721350E+03  0.12499865529E+03 0.  0.
          2    1    1    2  501    0 -0.15324906476E+02  0.37860053005E+02 -0.83944062568E+03  0.84043369781E+03  0.00000000000E+00 0. -1.
          1    1    1    2  502    0  0.38886710519E+02 -0.33366438613E+02  0.15323394585E+03  0.16157393862E+03  0.00000000000E+00 0. -1.
         22    1    3    3    0    0  0.10554616357E+01  0.32272043850E+02 -0.10578037699E+02  0.33977841237E+02  0.00000000000E+00 0. -1.
         22    1    3    3    0    0 -0.24617265679E+02 -0.36765658242E+02 -0.27694717203E+03  0.28045937226E+03  0.00000000000E+00 0. -1.
</event>
<event>
 7    1  0.6078244E-006  0.9267088E+02  0.7818608E-02  0.1296763E+00
          2   -1    0    0  502    0  0.00000000000E+00  0.00000000000E+00  0.39467205696E+03  0.39467205696E+03  0.00000000000E+00 0. -1.
          1   -1    0    0  501    0 -0.00000000000E+00 -0.00000000000E+00 -0.19455202856E+03  0.19455202856E+03  0.00000000000E+00 0. -1.
         25    2    1    2    0    0 -0.15667905925E+02 -0.60596435361E+01  0.32734291324E+02  0.13028864448E+03  0.12498557715E+03 0.  0.
          2    1    1    2  501    0 -0.92419535099E+02  0.25214534646E+01 -0.12022572837E+03  0.15166395075E+03  0.00000000000E+00 0. -1.
          1    1    1    2  502    0  0.10808744102E+03  0.35381900714E+01  0.28761146544E+03  0.30727149030E+03  0.00000000000E+00 0. -1.
         22    1    3    3    0    0  0.48372629884E+02  0.47253184500E+01 -0.13649166211E+02  0.50483063443E+02  0.00000000000E+00 0.  1.
         22    1    3    3    0    0 -0.64040535809E+02 -0.10784961986E+02  0.46383457535E+02  0.79805581037E+02  0.00000000000E+00 0.  1.
</event>
<event>
 7    1  0.6078244E-006  0.6067427E+02  0.7818608E-02  0.1416582E+00
          2   -1    0    0  502    0  0.00000000000E+00  0.00000000000E+00  0.87963229456E+03  0.87963229456E+03  0.00000000000E+00 0. -1.
          1   -1    0    0  501    0 -0.00000000000E+00 -0.00000000000E+00 -0.36206976010E+03  0.36206976010E+03  0.00000000000E+00 0. -1.
         25    2    1    2    0    0 -0.79366032725E+02 -0.55359241406E+02  0.10062086474E+03  0.18738424633E+03  0.12499873836E+03 0.  0.
          2    1    1    2  501    0  0.19986809036E+02  0.47166414660E+02 -0.31539707021E+03  0.31953005352E+03  0.00000000000E+00 0. -1.
          1    1    1    2  502    0  0.59379223688E+02  0.81928267463E+01  0.73233873994E+03  0.73478775481E+03  0.00000000000E+00 0. -1.
         22    1    3    3    0    0 -0.25169018223E+01  0.86260968149E+01  0.85827238106E+02  0.86296344893E+02  0.00000000000E+00 0.  1.
         22    1    3    3    0    0 -0.76849130902E+02 -0.63985338221E+02  0.14793626631E+02  0.10108790144E+03  0.00000000000E+00 0.  1.
</event>
<event>
 7    1  0.6078244E-006  0.7765859E+02  0.7818608E-02  0.1347003E+00
          2   -1    0    0  502    0  0.00000000000E+00  0.00000000000E+00  0.15658488124E+04  0.15658488124E+04  0.00000000000E+00 0. -1.
          1   -1    0    0  501    0 -0.00000000000E+00 -0.00000000000E+00 -0.23695888421E+03  0.23695888421E+03  0.00000000000E+00 0. -1.
         25    2    1    2    0    0  0.20279066097E+02  0.95037380007E+02  0.18147621135E+03  0.24083212519E+03  0.12499261226E+03 0.  0.
          2    1    1    2  501    0 -0.63693980043E+02 -0.30242893032E+02 -0.20012434308E+03  0.21218225271E+03  0.00000000000E+00 0. -1.
          1    1    1    2  502    0  0.43414913946E+02 -0.64794486975E+02  0.13475380599E+04  0.13497933187E+04  0.00000000000E+00 0. -1.
         22    1    3    3    0    0 -0.21895360920E+02  0.12533055816E+02 -0.10762124768E+02  0.27428227202E+02  0.00000000000E+00 0.  1.
         22    1    3    3    0    0  0.42174427017E+02  0.82504324191E+02  0.19223833612E+03  0.21340389799E+03  0.00000000000E+00 0.  1.
</event>
<event>
 7    1  0.6078244E-006  0.2251464E+03  0.7818608E-02  0.1232270E+00
          2   -1    0    0  502    0  0.00000000000E+00  0.00000000000E+00  0.23563024181E+04  0.23563024181E+04  0.00000000000E+00 0. -1.
          1   -1    0    0  501    0 -0.00000000000E+00 -0.00000000000E+00 -0.32075102253E+03  0.32075102253E+03  0.00000000000E+00 0. -1.
         25    2    1    2    0    0 -0.82205959245E+02 -0.17003413642E+03  0.50817387934E+03  0.55635897237E+03  0.12500074882E+03 0.  0.
          2    1    1    2  501    0  0.15362528552E+03  0.16949608367E+03 -0.25173596757E+03  0.34014797971E+03  0.00000000000E+00 0. -1.
          1    1    1    2  502    0 -0.71419326274E+02  0.53805274559E+00  0.17791134838E+04  0.17805464886E+04  0.00000000000E+00 0. -1.
         22    1    3    3    0    0 -0.39140182713E+02 -0.77523858325E+02  0.86723104900E+02  0.12273059698E+03  0.00000000000E+00 0.  1.
         22    1    3    3    0    0 -0.43065776532E+02 -0.92510278092E+02  0.42145077444E+03  0.43362837538E+03  0.00000000000E+00 0.  1.
</event>
<event>
 7    1  0.6078244E-006  0.2279369E+02  0.7818608E-02  0.1717798E+00
          2   -1    0    0  502    0  0.00000000000E+00  0.00000000000E+00  0.34453642641E+02  0.34453642641E+02  0.00000000000E+00 0. -1.
          1   -1    0    0  501    0 -0.00000000000E+00 -0.00000000000E+00 -0.22963197732E+03  0.22963197732E+03  0.00000000000E+00 0. -1.
         25    2    1    2    0    0  0.17039741969E+02 -0.61527330199E+01 -0.11969004007E+03  0.17400769038E+03  0.12499904675E+03 0.  0.
          2    1    1    2  501    0 -0.19319951868E+02 -0.13918666092E+02 -0.60218809931E+02  0.64755655162E+02  0.00000000000E+00 0. -1.
          1    1    1    2  502    0  0.22802098990E+01  0.20071399112E+02 -0.15269484680E+02  0.25322274422E+02  0.00000000000E+00 0. -1.
         22    1    3    3    0    0  0.63062254924E+02  0.19488312227E+02 -0.36185704937E+02  0.75273152926E+02  0.00000000000E+00 0.  1.
         22    1    3    3    0    0 -0.46022512956E+02 -0.25641045246E+02 -0.83504335129E+02  0.98734537450E+02  0.00000000000E+00 0.  1.
</event>
<event>
 7    1  0.6078244E-006  0.7881797E+02  0.7818608E-02  0.1398983E+00
          2   -1    0    0  502    0  0.00000000000E+00  0.00000000000E+00  0.98071354738E+03  0.98071354738E+03  0.00000000000E+00 0. -1.
          1   -1    0    0  501    0 -0.00000000000E+00 -0.00000000000E+00 -0.17831574411E+03  0.17831574411E+03  0.00000000000E+00 0. -1.
         25    2    1    2    0    0 -0.37667164661E+02  0.55789220868E+02 -0.79686067631E+02  0.16280831625E+03  0.12500170402E+03 0.  0.
          2    1    1    2  501    0 -0.36146461093E+02 -0.27237007797E+02 -0.46138248152E+02  0.64630946039E+02  0.00000000000E+00 0. -1.
          1    1    1    2  502    0  0.73813625754E+02 -0.28552213071E+02  0.92822211905E+03  0.93159002920E+03  0.00000000000E+00 0. -1.
         22    1    3    3    0    0 -0.16232293017E+02 -0.38877647796E+02 -0.39512529299E+02  0.57759837312E+02  0.00000000000E+00 0. -1.
         22    1    3    3    0    0 -0.21434871644E+02  0.94666868664E+02 -0.40173538332E+02  0.10504847894E+03  0.00000000000E+00 0. -1.
</event>
<event>
 7    1  0.6078244E-006  0.5191067E+02  0.7818608E-02  0.1528282E+00
          2   -1    0    0  502    0  0.00000000000E+00  0.00000000000E+00  0.13380236938E+04  0.13380236938E+04  0.00000000000E+00 0. -1.
          1   -1    0    0  501    0 -0.00000000000E+00 -0.00000000000E+00 -0.55552904853E+03  0.55552904853E+03  0.00000000000E+00 0. -1.
         25    2    1    2    0    0  0.74390942766E+02  0.25004226892E+02 -0.18736389083E+03  0.23851842787E+03  0.12500635631E+03 0.  0.
          2    1    1    2  501    0 -0.26398842044E+02 -0.53857846238E+01 -0.34154512203E+03  0.34260615277E+03  0.00000000000E+00 0. -1.
          1    1    1    2  502    0 -0.47992100722E+02 -0.19618442269E+02  0.13114036582E+04  0.13124281617E+04  0.00000000000E+00 0. -1.
         22    1    3    3    0    0  0.17424281528E+02 -0.50223472820E+02 -0.63849003623E+02  0.83082477530E+02  0.00000000000E+00 0.  1.
         22    1    3    3    0    0  0.56966661238E+02  0.75227699712E+02 -0.12351488721E+03  0.15543595034E+03  0.00000000000E+00 0.  1.
</event>
<event>
 7    1  0.6078244E-006  0.9395321E+02  0.7818608E-02  0.1348968E+00
          2   -1    0    0  502    0  0.00000000000E+00  0.00000000000E+00  0.52085014119E+03  0.52085014119E+03  0.00000000000E+00 0. -1.
          1   -1    0    0  501    0 -0.00000000000E+00 -0.00000000000E+00 -0.54105269373E+03  0.54105269373E+03  0.00000000000E+00 0. -1.
         25    2    1    2    0    0  0.12868795821E+03  0.48016496399E+02 -0.25887625934E+03  0.31860390113E+03  0.12500141461E+03 0.  0.
          2    1    1    2  501    0 -0.35342318612E+02 -0.45113816823E+02 -0.24452852799E+03  0.25115440859E+03  0.00000000000E+00 0. -1.
          1    1    1    2  502    0 -0.93345639595E+02 -0.29026795757E+01  0.48320223479E+03  0.49214452520E+03  0.00000000000E+00 0. -1.
         22    1    3    3    0    0  0.96607746916E+02  0.65588261706E+02 -0.94528157499E+02  0.15023464779E+03  0.00000000000E+00 0.  1.
         22    1    3    3    0    0  0.32080211291E+02 -0.17571765306E+02 -0.16434810184E+03  0.16836925334E+03  0.00000000000E+00 0.  1.
</event>
<event>
 7    1  0.6078244E-006  0.1065774E+03  0.7818608E-02  0.1325233E+00
          2   -1    0    0  502    0  0.00000000000E+00  0.00000000000E+00  0.87315914849E+03  0.87315914849E+03  0.00000000000E+00 0. -1.
          1   -1    0    0  501    0 -0.00000000000E+00 -0.00000000000E+00 -0.14296466307E+03  0.14296466307E+03  0.00000000000E+00 0. -1.
         25    2    1    2    0    0  0.11288741330E+03  0.97017802240E+02  0.18311010020E+03  0.26704000856E+03  0.12500014138E+03 0.  0.
          2    1    1    2  501    0 -0.51340837238E+02 -0.88666517277E+02 -0.73058770640E+02  0.12583805792E+03  0.00000000000E+00 0. -1.
          1    1    1    2  502    0 -0.61546576060E+02 -0.83512849635E+01  0.62014315586E+03  0.62324574507E+03  0.00000000000E+00 0. -1.
         22    1    3    3    0    0  0.25362678055E+02  0.44703515806E+02  0.15196602346E+03  0.16042238638E+03  0.00000000000E+00 0.  1.
         22    1    3    3    0    0  0.87524735243E+02  0.52314286434E+02  0.31144076736E+02  0.10661762218E+03  0.00000000000E+00 0.  1.
</event>
<event>
 7    1  0.6078244E-006  0.7389391E+02  0.7818608E-02  0.1374384E+00
          2   -1    0    0  502    0  0.00000000000E+00  0.00000000000E+00  0.33602503324E+02  0.33602503324E+02  0.00000000000E+00 0. -1.
          1   -1    0    0  501    0 -0.00000000000E+00 -0.00000000000E+00 -0.63193708936E+03  0.63193708936E+03  0.00000000000E+00 0. -1.
         25    2    1    2    0    0  0.25587351137E+01  0.30938194315E+02 -0.38252181340E+03  0.40362296527E+03  0.12499936547E+03 0.  0.
          2    1    1    2  501    0 -0.20655073759E+02  0.55142360345E+02 -0.10557383164E+03  0.12088484563E+03  0.00000000000E+00 0. -1.
          1    1    1    2  502    0  0.18096338645E+02 -0.86080554660E+02 -0.11023894099E+03  0.14103178179E+03  0.00000000000E+00 0. -1.
         22    1    3    3    0    0  0.44522038435E+02  0.23573847558E+02 -0.60202983849E+02  0.78500557064E+02  0.00000000000E+00 0.  1.
         22    1    3    3    0    0 -0.41963303321E+02  0.73643467568E+01 -0.32231882955E+03  0.32512240820E+03  0.00000000000E+00 0.  1.
</event>
<event>
 7    1  0.6078244E-006  0.1627479E+03  0.7818608E-02  0.1382272E+00
          2   -1    0    0  502    0  0.00000000000E+00  0.00000000000E+00  0.75093576174E+03  0.75093576174E+03  0.00000000000E+00 0. -1.
          1   -1    0    0  501    0 -0.00000000000E+00 -0.00000000000E+00 -0.24040670193E+03  0.24040670193E+03  0.00000000000E+00 0. -1.
         25    2    1    2    0    0  0.14688734935E+03  0.10307347001E+03  0.30757335168E+03  0.37739546194E+03  0.12500373760E+03 0.  0.
          2    1    1    2  501    0 -0.15293248198E+02 -0.19859941663E+02 -0.18980422155E+03  0.19145219571E+03  0.00000000000E+00 0. -1.
          1    1    1    2  502    0 -0.13159410115E+03 -0.83213528346E+02  0.39275992968E+03  0.42249480602E+03  0.00000000000E+00 0. -1.
         22    1    3    3    0    0 -0.22702924043E+02  0.14414457481E+02  0.30539361536E+02  0.40692160763E+02  0.00000000000E+00 0. -1.
         22    1    3    3    0    0  0.16959027339E+03  0.88659012528E+02  0.27703399014E+03  0.33670330118E+03  0.00000000000E+00 0. -1.
</event>
<event>
 7    1  0.6078244E-006  0.9072925E+02  0.7818608E-02  0.1349017E+00
          2   -1    0    0  502    0  0.00000000000E+00  0.00000000000E+00  0.23425870323E+04  0.23425870323E+04  0.00000000000E+00 0. -1.
          1   -1    0    0  501    0 -0.00000000000E+00 -0.00000000000E+00 -0.63436719691E+02  0.63436719691E+02  0.00000000000E+00 0. -1.
         25    2    1    2    0    0 -0.10591378602E+01 -0.76770366387E+02  0.53313416619E+03  0.55294827435E+03  0.12499977608E+03 0.  0.
          2    1    1    2  501    0  0.59272268001E+02  0.23881783211E+01 -0.35450890615E+02  0.69106228338E+02  0.00000000000E+00 0. -1.
          1    1    1    2  502    0 -0.58213130141E+02  0.74382188066E+02  0.17814670370E+04  0.17839692493E+04  0.00000000000E+00 0. -1.
         22    1    3    3    0    0  0.25546542765E+02 -0.95185262089E+02  0.26257607009E+03  0.28046221234E+03  0.00000000000E+00 0. -1.
         22    1    3    3    0    0 -0.26605680625E+02  0.18414895702E+02  0.27055809610E+03  0.27248606201E+03  0.00000000000E+00 0. -1.
</event>
<event>
 7    1  0.6078244E-006  0.7199125E+02  0.7818608E-02  0.1390843E+00
          2   -1    0    0  502    0  0.00000000000E+00  0.00000000000E+00  0.30934548315E+04  0.30934548315E+04  0.00000000000E+00 0. -1.
          1   -1    0    0  501    0 -0.00000000000E+00 -0.00000000000E+00 -0.10148177001E+03  0.10148177001E+03  0.00000000000E+00 0. -1.
         25    2    1    2    0    0  0.67641499836E+02  0.27136155520E+02  0.13803044412E+04  0.13878695528E+04  0.12501920534E+03 0.  0.
          2    1    1    2  501    0 -0.30939816164E+02 -0.65199671637E+02 -0.83903323625E+02  0.11067085037E+03  0.00000000000E+00 0. -1.
          1    1    1    2  502    0 -0.36701683672E+02  0.38063516117E+02  0.16955719439E+04  0.16963961984E+04  0.00000000000E+00 0. -1.
         22    1    3    3    0    0 -0.61921122965E+01  0.16699062446E+02  0.10087103598E+04  0.10088675784E+04  0.00000000000E+00 0.  1.
         22    1    3    3    0    0  0.73833612133E+02  0.10437093074E+02  0.37159408143E+03  0.37900197433E+03  0.00000000000E+00 0.  1.
</event>
<event>
 7    1  0.6078244E-006  0.9061632E+02  0.7818608E-02  0.1328920E+00
          2   -1    0    0  502    0  0.00000000000E+00  0.00000000000E+00  0.33100417850E+03  0.33100417850E+03  0.00000000000E+00 0. -1.
          1   -1    0    0  501    0 -0.00000000000E+00 -0.00000000000E+00 -0.82251655168E+03  0.82251655168E+03  0.00000000000E+00 0. -1.
         25    2    1    2    0    0  0.13764229080E+03  0.71694130531E+01  0.82556165850E+02  0.20356465512E+03  0.12500499027E+03 0.  0.
          2    1    1    2  501    0 -0.77928044346E+02 -0.45037376491E+02 -0.75258386287E+03  0.75794697442E+03  0.00000000000E+00 0. -1.
          1    1    1    2  502    0 -0.59714246451E+02  0.37867963438E+02  0.17851532384E+03  0.19200910064E+03  0.00000000000E+00 0. -1.
         22    1    3    3    0    0  0.22986027422E+02  0.36172261832E+02 -0.19748216869E+02  0.47188791595E+02  0.00000000000E+00 0. -1.
         22    1    3    3    0    0  0.11465626338E+03 -0.29002848779E+02  0.10230438272E+03  0.15637586352E+03  0.00000000000E+00 0. -1.
</event>
<event>
 7    1  0.6078244E-006  0.4264530E+02  0.7818608E-02  0.1513113E+00
          2   -1    0    0  502    0  0.00000000000E+00  0.00000000000E+00  0.10704541130E+03  0.10704541130E+03  0.00000000000E+00 0. -1.
          1   -1    0    0  501    0 -0.00000000000E+00 -0.00000000000E+00 -0.27725826016E+04  0.27725826016E+04  0.00000000000E+00 0. -1.
         25    2    1    2    0    0 -0.38370640075E+00 -0.25120794886E+02 -0.28338824018E+03  0.31075483205E+03  0.12501387684E+03 0.  0.
          2    1    1    2  501    0 -0.35884899911E+02  0.23768645599E+02 -0.24717893707E+04  0.24721641062E+04  0.00000000000E+00 0. -1.
          1    1    1    2  502    0  0.36268606312E+02  0.13521492870E+01  0.89640420633E+02  0.96709074666E+02  0.00000000000E+00 0. -1.
         22    1    3    3    0    0 -0.25210703497E+02 -0.24584501952E+02 -0.28374282371E+03  0.28591951195E+03  0.00000000000E+00 0.  1.
         22    1    3    3    0    0  0.24826997096E+02 -0.53629293420E+00  0.35458352945E+00  0.24835320099E+02  0.00000000000E+00 0.  1.
</event>
<event>
 7    1  0.6078244E-006  0.1016080E+03  0.7818608E-02  0.1296219E+00
          2   -1    0    0  502    0  0.00000000000E+00  0.00000000000E+00  0.17229482564E+04  0.17229482564E+04  0.00000000000E+00 0. -1.
          1   -1    0    0  501    0 -0.00000000000E+00 -0.00000000000E+00 -0.41802348304E+02  0.41802348304E+02  0.00000000000E+00 0. -1.
         25    2    1    2    0    0 -0.26740259340E+02  0.17144886715E+01  0.86375463839E+03  0.87315661887E+03  0.12494968903E+03 0.  0.
          2    1    1    2  501    0  0.99012210416E+02 -0.45975312139E+02  0.50930082491E+02  0.12046169698E+03  0.00000000000E+00 0. -1.
          1    1    1    2  502    0 -0.72271951076E+02  0.44260823468E+02  0.76646118718E+03  0.77113228882E+03  0.00000000000E+00 0. -1.
         22    1    3    3    0    0  0.12017864582E+02 -0.54180799052E+02  0.50241328288E+03  0.50546918291E+03  0.00000000000E+00 0. -1.
         22    1    3    3    0    0 -0.38758123923E+02  0.55895287724E+02  0.36134135551E+03  0.36768743596E+03  0.00000000000E+00 0. -1.
</event>
<event>
 7    1  0.6078244E-006  0.1095468E+03  0.7818608E-02  0.1359172E+00
          2   -1    0    0  502    0  0.00000000000E+00  0.00000000000E+00  0.87526364235E+03  0.87526364235E+03  0.00000000000E+00 0. -1.
          1   -1    0    0  501    0 -0.00000000000E+00 -0.00000000000E+00 -0.25596007365E+03  0.25596007365E+03  0.00000000000E+00 0. -1.
         25    2    1    2    0    0 -0.91614755045E+02  0.17080276296E+02 -0.13899135743E+02  0.15652407481E+03  0.12498640262E+03 0.  0.
          2    1    1    2  501    0  0.97663661094E+02 -0.61750233498E+02 -0.15047817716E+03  0.18972338769E+03  0.00000000000E+00 0. -1.
          1    1    1    2  502    0 -0.60489060491E+01  0.44669957202E+02  0.78368088161E+03  0.78497625349E+03  0.00000000000E+00 0. -1.
         22    1    3    3    0    0 -0.13169339650E+02 -0.44514862653E+02  0.20872714578E+02  0.50898671080E+02  0.00000000000E+00 0. -1.
         22    1    3    3    0    0 -0.78445415395E+02  0.61595138949E+02 -0.34771850321E+02  0.10562540373E+03  0.00000000000E+00 0. -1.
</event>
<event>
 7    1  0.6078244E-006  0.7199328E+02  0.7818608E-02  0.1419239E+00
          2   -1    0    0  502    0  0.00000000000E+00  0.00000000000E+00  0.47763756383E+03  0.47763756383E+03  0.00000000000E+00 0. -1.
          1   -1    0    0  501    0 -0.00000000000E+00 -0.00000000000E+00 -0.14098100115E+03  0.14098100115E+03  0.00000000000E+00 0. -1.
         25    2    1    2    0    0 -0.71213586356E+02  0.22199802291E+02  0.20894673242E+02  0.14706032541E+03  0.12500378329E+03 0.  0.
          2    1    1    2  501    0  0.25305907552E+02  0.33891501816E+02 -0.68507412160E+02  0.80512659708E+02  0.00000000000E+00 0. -1.
          1    1    1    2  502    0  0.45907678804E+02 -0.56091304107E+02  0.38426930160E+03  0.39104557985E+03  0.00000000000E+00 0. -1.
         22    1    3    3    0    0  0.30848213718E+02  0.19533839158E+02  0.26019411476E+02  0.44835175202E+02  0.00000000000E+00 0.  1.
         22    1    3    3    0    0 -0.10206180007E+03  0.26659631335E+01 -0.51247382337E+01  0.10222515021E+03  0.00000000000E+00 0.  1.
</event>
<event>
 7    1  0.6078244E-006  0.2935400E+02  0.7818608E-02  0.1622522E+00
          2   -1    0    0  502    0  0.00000000000E+00  0.00000000000E+00  0.49309440279E+03  0.49309440279E+03  0.00000000000E+00 0. -1.
          1   -1    0    0  501    0 -0.00000000000E+00 -0.00000000000E+00 -0.39573430967E+03  0.39573430967E+03  0.00000000000E+00 0. -1.
         25    2    1    2    0    0  0.63947064341E+01  0.18996879710E+02 -0.13771368726E+03  0.18705936358E+03  0.12499748852E+03 0.  0.
          2    1    1    2  501    0 -0.29505678916E+02 -0.59898675722E+01 -0.23199892835E+03  0.23394436595E+03  0.00000000000E+00 0. -1.
          1    1    1    2  502    0  0.23110972482E+02 -0.13007012137E+02  0.46707270873E+03  0.46782498293E+03  0.00000000000E+00 0. -1.
         22    1    3    3    0    0 -0.53209851351E+02  0.36396311531E+02 -0.72356547355E+02  0.96909492409E+02  0.00000000000E+00 0. -1.
         22    1    3    3    0    0  0.59604557785E+02 -0.17399431821E+02 -0.65357139902E+02  0.90149871174E+02  0.00000000000E+00 0. -1.
</event>
<event>
 7    1  0.6078244E-006  0.1669618E+03  0.7818608E-02  0.1248177E+00
          2   -1    0    0  502    0  0.00000000000E+00  0.00000000000E+00  0.53416599576E+02  0.53416599576E+02  0.00000000000E+00 0. -1.
          1   -1    0    0  501    0 -0.00000000000E+00 -0.00000000000E+00 -0.16648787116E+04  0.16648787116E+04  0.00000000000E+00 0. -1.
         25    2    1    2    0    0  0.45102745791E+02 -0.10352994586E+03 -0.48619612249E+03  0.51455238168E+03  0.12499910639E+03 0.  0.
          2    1    1    2  501    0  0.43911514899E+02 -0.69192755216E+02 -0.91026409956E+03  0.91394561625E+03  0.00000000000E+00 0. -1.
          1    1    1    2  502    0 -0.89014260690E+02  0.17272270108E+03 -0.21500188998E+03  0.28979731325E+03  0.00000000000E+00 0. -1.
         22    1    3    3    0    0  0.33167732249E+02  0.88399023663E+01 -0.25411042311E+03  0.25641830955E+03  0.00000000000E+00 0. -1.
         22    1    3    3    0    0  0.11935013542E+02 -0.11236984823E+03 -0.23208569938E+03  0.25813407213E+03  0.00000000000E+00 0. -1.
</event>
<event>
 7    1  0.6078244E-006  0.5477940E+02  0.7818608E-02  0.1525924E+00
          2   -1    0    0  502    0  0.00000000000E+00  0.00000000000E+00  0.12684477492E+04  0.12684477492E+04  0.00000000000E+00 0. -1.
          1   -1    0    0  501    0 -0.00000000000E+00 -0.00000000000E+00 -0.54822784495E+02  0.54822784495E+02  0.00000000000E+00 0. -1.
         25    2    1    2    0    0 -0.62735430807E+02  0.22082602354E+02  0.27112066241E+03  0.30586693940E+03  0.12499918171E+03 0.  0.
          2    1    1    2  501    0  0.54227454516E+02  0.24154498561E+01 -0.17512719068E+02  0.57036361652E+02  0.00000000000E+00 0. -1.
          1    1    1    2  502    0  0.85079762908E+01 -0.24498052210E+02  0.96001702134E+03  0.96036723262E+03  0.00000000000E+00 0. -1.
         22    1    3    3    0    0  0.29354438938E+02  0.36799354997E+02  0.11098019638E+03  0.12055073455E+03  0.00000000000E+00 0. -1.
         22    1    3    3    0    0 -0.92089869745E+02 -0.14716752643E+02  0.16014046603E+03  0.18531620484E+03  0.00000000000E+00 0. -1.
</event>
<event>
 7    1  0.6078244E-006  0.2986796E+02  0.7818608E-02  0.1609193E+00
          2   -1    0    0  502    0  0.00000000000E+00  0.00000000000E+00  0.85864360886E+03  0.85864360886E+03  0.00000000000E+00 0. -1.
          1   -1    0    0  501    0 -0.00000000000E+00 -0.00000000000E+00 -0.29800049663E+03  0.29800049663E+03  0.00000000000E+00 0. -1.
         25    2    1    2    0    0  0.10440900718E+02 -0.31222491076E+01 -0.89773431399E+02  0.15428375941E+03  0.12500179433E+03 0.  0.
          2    1    1    2  501    0  0.72790910670E+01  0.27238211691E+02 -0.17456954768E+03  0.17683164966E+03  0.00000000000E+00 0. -1.
          1    1    1    2  502    0 -0.17719991785E+02 -0.24115962583E+02  0.82498609131E+03  0.82552869642E+03  0.00000000000E+00 0. -1.
         22    1    3    3    0    0 -0.45574882577E+02  0.30266698371E+02 -0.18677851741E+02  0.57810077823E+02  0.00000000000E+00 0. -1.
         22    1    3    3    0    0  0.56015783295E+02 -0.33388947478E+02 -0.71095579658E+02  0.96473681586E+02  0.00000000000E+00 0. -1.
</event>
<event>
 7    1  0.6078244E-006  0.1590717E+03  0.7818608E-02  0.1261163E+00
          2   -1    0    0  502    0  0.00000000000E+00  0.00000000000E+00  0.16295100497E+04  0.16295100497E+04  0.00000000000E+00 0. -1.
          1   -1    0    0  501    0 -0.00000000000E+00 -0.00000000000E+00 -0.12239317552E+04  0.12239317552E+04  0.00000000000E+00 0. -1.
         25    2    1    2    0    0 -0.18317234968E+03 -0.44968007778E+02  0.11668923404E+04  0.11886302625E+04  0.12501974003E+03 0.  0.
          2    1    1    2  501    0  0.48118508535E+02  0.58341115942E+02 -0.12016544226E+04  0.12040317388E+04  0.00000000000E+00 0. -1.
          1    1    1    2  502    0  0.13505384114E+03 -0.13373108164E+02  0.44034037676E+03  0.46077980363E+03  0.00000000000E+00 0. -1.
         22    1    3    3    0    0 -0.25331544183E+02 -0.59812022950E+02  0.26040627291E+03  0.26838515643E+03  0.00000000000E+00 0.  1.
         22    1    3    3    0    0 -0.15784080549E+03  0.14844015172E+02  0.90648606750E+03  0.92024510606E+03  0.00000000000E+00 0.  1.
</event>
<event>
 7    1  0.6078244E-006  0.8607526E+02  0.7818608E-02  0.1423892E+00
          2   -1    0    0  502    0  0.00000000000E+00  0.00000000000E+00  0.18506074939E+04  0.18506074939E+04  0.00000000000E+00 0. -1.
          1   -1    0    0  501    0 -0.00000000000E+00 -0.00000000000E+00 -0.16415142758E+03  0.16415142758E+03  0.00000000000E+00 0. -1.
         25    2    1    2    0    0 -0.92499003898E+02  0.13557530299E+02  0.28595622817E+03  0.32578227600E+03  0.12499301812E+03 0.  0.
          2    1    1    2  501    0  0.74689244780E+02 -0.42679517014E+02 -0.13120527160E+03  0.15689119718E+03  0.00000000000E+00 0. -1.
          1    1    1    2  502    0  0.17809759118E+02  0.29121986716E+02  0.15317051097E+04  0.15320854483E+04  0.00000000000E+00 0. -1.
         22    1    3    3    0    0 -0.95996453399E+02  0.57565699523E+02  0.20639831106E+03  0.23479648982E+03  0.00000000000E+00 0.  1.
         22    1    3    3    0    0  0.34974495006E+01 -0.44008169225E+02  0.79557917110E+02  0.90985786178E+02  0.00000000000E+00 0.  1.
</event>
<event>
 7    1  0.6078244E-006  0.4925348E+02  0.7818608E-02  0.1450809E+00
          2   -1    0    0  502    0  0.00000000000E+00  0.00000000000E+00  0.15090355890E+04  0.15090355890E+04  0.00000000000E+00 0. -1.
          1   -1    0    0  501    0 -0.00000000000E+00 -0.00000000000E+00 -0.57274149582E+02  0.57274149582E+02  0.00000000000E+00 0. -1.
         25    2    1    2    0    0  0.10785483865E+02 -0.71500124563E+02  0.19365201828E+03  0.24156807744E+03  0.12500174951E+03 0.  0.
          2    1    1    2  501    0  0.27283328725E+02  0.40398436375E+02 -0.14751738714E+02  0.50931596117E+02  0.00000000000E+00 0. -1.
          1    1    1    2  502    0 -0.38068812591E+02  0.31101688188E+02  0.12728611599E+04  0.12738100650E+04  0.00000000000E+00 0. -1.
         22    1    3    3    0    0 -0.14850378687E+02  0.33330633646E+02  0.49105989453E+02  0.61178943163E+02  0.00000000000E+00 0.  1.
         22    1    3    3    0    0  0.25635862552E+02 -0.10483075821E+03  0.14454602883E+03  0.18038913428E+03  0.00000000000E+00 0.  1.
</event>
<event>
 7    1  0.6078244E-006  0.1726078E+03  0.7818608E-02  0.1211687E+00
          2   -1    0    0  502    0  0.00000000000E+00  0.00000000000E+00  0.18141153408E+03  0.18141153408E+03  0.00000000000E+00 0. -1.
          1   -1    0    0  501    0 -0.00000000000E+00 -0.00000000000E+00 -0.58169938967E+03  0.58169938967E+03  0.00000000000E+00 0. -1.
         25    2    1    2    0    0  0.13381970909E+03 -0.61005447919E+02 -0.12405996732E+03  0.22945008468E+03  0.12500834632E+03 0.  0.
          2    1    1    2  501    0 -0.95800144044E+02  0.17012287135E+03 -0.34700180597E+03  0.39815789871E+03  0.00000000000E+00 0. -1.
          1    1    1    2  502    0 -0.38019565050E+02 -0.10911742343E+03  0.70773917697E+02  0.13550294037E+03  0.00000000000E+00 0. -1.
         22    1    3    3    0    0  0.72632384466E+02  0.11264879092E+02 -0.15171021226E+00  0.73500910132E+02  0.00000000000E+00 0. -1.
         22    1    3    3    0    0  0.61187324628E+02 -0.72270327012E+02 -0.12390825711E+03  0.15594917454E+03  0.00000000000E+00 0. -1.
</event>
<event>
 7    1  0.6078244E-006  0.1230376E+03  0.7818608E-02  0.1444790E+00
          2   -1    0    0  502    0  0.00000000000E+00  0.00000000000E+00  0.39883862018E+03  0.39883862018E+03  0.00000000000E+00 0. -1.
          1   -1    0    0  501    0 -0.00000000000E+00 -0.00000000000E+00 -0.11560026603E+03  0.11560026603E+03  0.00000000000E+00 0. -1.
         25    2    1    2    0    0 -0.74082959117E+02 -0.76661991354E+02  0.30646678299E+03  0.34772412267E+03  0.12499932265E+03 0.  0.
          2    1    1    2  501    0  0.80293386318E+02  0.96096045824E+02 -0.48452369619E+02  0.13427252150E+03  0.00000000000E+00 0. -1.
          1    1    1    2  502    0 -0.62104272013E+01 -0.19434054470E+02  0.25223940782E+02  0.32442242027E+02  0.00000000000E+00 0. -1.
         22    1    3    3    0    0 -0.12125914016E+02 -0.82661662484E+02  0.91399577519E+02  0.12383000850E+03  0.00000000000E+00 0. -1.
         22    1    3    3    0    0 -0.61957045100E+02  0.59996711299E+01  0.21506720547E+03  0.22389411417E+03  0.00000000000E+00 0. -1.
</event>
<event>
 7    1  0.6078244E-006  0.1480803E+03  0.7818608E-02  0.1298488E+00
          2   -1    0    0  502    0  0.00000000000E+00  0.00000000000E+00  0.73795709900E+03  0.73795709900E+03  0.00000000000E+00 0. -1.
          1   -1    0    0  501    0 -0.00000000000E+00 -0.00000000000E+00 -0.13997212002E+04  0.13997212002E+04  0.00000000000E+00 0. -1.
         25    2    1    2    0    0 -0.61932481913E+02  0.12848863961E+03 -0.10763954489E+03  0.21805878587E+03  0.12497359580E+03 0.  0.
          2    1    1    2  501    0 -0.48925420055E+02 -0.29134229492E+02 -0.12280899141E+04  0.12294093448E+04  0.00000000000E+00 0. -1.
          1    1    1    2  502    0  0.11085790197E+03 -0.99354410119E+02  0.67396535778E+03  0.69021016851E+03  0.00000000000E+00 0. -1.
         22    1    3    3    0    0  0.38518414239E+02  0.41170745793E+02 -0.36201902994E+02  0.67002062095E+02  0.00000000000E+00 0. -1.
         22    1    3    3    0    0 -0.10045089615E+03  0.87317893818E+02 -0.71437641898E+02  0.15105672378E+03  0.00000000000E+00 0. -1.
</event>
<event>
 7    1  0.6078244E-006  0.9866472E+02  0.7818608E-02  0.1401180E+00
          2   -1    0    0  502    0  0.00000000000E+00  0.00000000000E+00  0.36075233564E+03  0.36075233564E+03  0.00000000000E+00 0. -1.
          1   -1    0    0  501    0 -0.00000000000E+00 -0.00000000000E+00 -0.19064180030E+03  0.19064180030E+03  0.00000000000E+00 0. -1.
         25    2    1    2    0    0  0.21455872086E+02 -0.64461720765E+02 -0.68389951670E+01  0.14248234101E+03  0.12505509887E+03 0.  0.
          2    1    1    2  501    0  0.20667119590E+02 -0.28902933139E+02 -0.10398470567E+03  0.10988779909E+03  0.00000000000E+00 0. -1.
          1    1    1    2  502    0 -0.42122991675E+02  0.93364653904E+02  0.28093423618E+03  0.29902399583E+03  0.00000000000E+00 0. -1.
         22    1    3    3    0    0  0.31368315270E+02  0.29212162937E+02  0.15661265669E+02  0.45635478619E+02  0.00000000000E+00 0. -1.
         22    1    3    3    0    0 -0.99124431845E+01 -0.93673883703E+02 -0.22500260836E+02  0.96846862394E+02  0.00000000000E+00 0. -1.
</event>
<event>
 7    1  0.6078244E-006  0.6294506E+02  0.7818608E-02  0.1478488E+00
          2   -1    0    0  502    0  0.00000000000E+00  0.00000000000E+00  0.25305311238E+04  0.25305311238E+04  0.00000000000E+00 0. -1.
          1   -1    0    0  501    0 -0.00000000000E+00 -0.00000000000E+00 -0.64978998580E+02  0.64978998580E+02  0.00000000000E+00 0. -1.
         25    2    1    2    0    0 -0.26111576838E+02 -0.81460077832E+02  0.13751923507E+03  0.20458321367E+03  0.12500077030E+03 0.  0.
          2    1    1    2  501    0 -0.94133032020E+01  0.29785649835E+02 -0.23167002375E+02  0.38890939977E+02  0.00000000000E+00 0. -1.
          1    1    1    2  502    0  0.35524880040E+02  0.51674427997E+02  0.23511998925E+04  0.23520359688E+04  0.00000000000E+00 0. -1.
         22    1    3    3    0    0  0.23675060348E+02 -0.40911607411E+02 -0.57178992257E+01  0.47612629365E+02  0.00000000000E+00 0. -1.
         22    1    3    3    0    0 -0.49786637186E+02 -0.40548470421E+02  0.14323713429E+03  0.15697058430E+03  0.00000000000E+00 0. -1.
</event>
<event>
 7    1  0.6078244E-006  0.6417970E+02  0.7818608E-02  0.1430594E+00
          2   -1    0    0  502    0  0.00000000000E+00  0.00000000000E+00  0.21857362357E+04  0.21857362357E+04  0.00000000000E+00 0. -1.
          1   -1    0    0  501    0 -0.00000000000E+00 -0.00000000000E+00 -0.15142220082E+04  0.15142220082E+04  0.00000000000E+00 0. -1.
         25    2    1    2    0    0 -0.86391553696E+02 -0.68300024929E+01  0.42385795072E+03  0.45032135097E+03  0.12499442895E+03 0.  0.
          2    1    1    2  501    0  0.33202900601E+02 -0.28112046102E+02 -0.15000958204E+04  0.15007265541E+04  0.00000000000E+00 0. -1.
          1    1    1    2  502    0  0.53188653096E+02  0.34942048595E+02  0.17477520973E+04  0.17489103388E+04  0.00000000000E+00 0. -1.
         22    1    3    3    0    0 -0.22309697677E+02 -0.24197230645E+02  0.34783131951E+03  0.34938496736E+03  0.00000000000E+00 0.  1.
         22    1    3    3    0    0 -0.64081856019E+02  0.17367228152E+02  0.76026631206E+02  0.10093638361E+03  0.00000000000E+00 0.  1.
</event>
<event>
 7    1  0.7937018E-006  0.4851963E+02  0.7818608E-02  0.1504578E+00
          2   -1    0    0  502    0  0.00000000000E+00  0.00000000000E+00  0.18309059974E+04  0.18309059974E+04  0.00000000000E+00 0. -1.
          1   -1    0    0  501    0 -0.00000000000E+00 -0.00000000000E+00 -0.87464678946E+03  0.87464678946E+03  0.00000000000E+00 0. -1.
         25    2    1    2    0    0  0.33335882615E+02  0.32673241733E+02 -0.20597238966E+03  0.24541042013E+03  0.12499130855E+03 0.  0.
          2    1    1    2  501    0 -0.49054502734E+02 -0.27476854939E+01 -0.64786744594E+03  0.64972772876E+03  0.00000000000E+00 0. -1.
          1    1    1    2  502    0  0.15718620119E+02 -0.29925556239E+02  0.18100990435E+04  0.18104146379E+04  0.00000000000E+00 0. -1.
         22    1    3    3    0    0 -0.11048758640E+02  0.72642194872E+02 -0.10663107840E+03  0.12949575446E+03  0.00000000000E+00 0. -1.
         22    1    3    3    0    0  0.44384641255E+02 -0.39968953139E+02 -0.99341311261E+02  0.11591466567E+03  0.00000000000E+00 0. -1.
</event>
<event>
 7    1  0.6078244E-006  0.2915433E+02  0.7818608E-02  0.1643793E+00
          2   -1    0    0  502    0  0.00000000000E+00  0.00000000000E+00  0.13607603347E+04  0.13607603347E+04  0.00000000000E+00 0. -1.
          1   -1    0    0  501    0 -0.00000000000E+00 -0.00000000000E+00 -0.19066123902E+03  0.19066123902E+03  0.00000000000E+00 0. -1.
         25    2    1    2    0    0 -0.52470818040E+02 -0.36413871042E+01  0.63974508948E+03  0.65396131040E+03  0.12500067816E+03 0.  0.
          2    1    1    2  501    0  0.28853428003E+02  0.38762629628E+01 -0.18220187355E+03  0.18451305766E+03  0.00000000000E+00 0. -1.
          1    1    1    2  502    0  0.23617390037E+02 -0.23487585852E+00  0.71255587979E+03  0.71294720569E+03  0.00000000000E+00 0. -1.
         22    1    3    3    0    0 -0.32018598312E+02  0.56948765926E+02  0.42174212605E+03  0.42677250786E+03  0.00000000000E+00 0.  1.
         22    1    3    3    0    0 -0.20452219728E+02 -0.60590153031E+02  0.21800296343E+03  0.22718880254E+03  0.00000000000E+00 0.  1.
</event>
<event>
 7    1  0.6078244E-006  0.5417108E+02  0.7818608E-02  0.1502988E+00
          2   -1    0    0  502    0  0.00000000000E+00  0.00000000000E+00  0.43693930555E+02  0.43693930555E+02  0.00000000000E+00 0. -1.
          1   -1    0    0  501    0 -0.00000000000E+00 -0.00000000000E+00 -0.44897907229E+03  0.44897907229E+03  0.00000000000E+00 0. -1.
         25    2    1    2    0    0  0.69997734532E+02 -0.25162265766E+02 -0.16652442020E+03  0.22112098933E+03  0.12502514524E+03 0.  0.
          2    1    1    2  501    0 -0.19598114661E+02  0.23509774558E+02 -0.21250799109E+03  0.21470081946E+03  0.00000000000E+00 0. -1.
          1    1    1    2  502    0 -0.50399619871E+02  0.16524912085E+01 -0.26252730450E+02  0.56851194063E+02  0.00000000000E+00 0. -1.
         22    1    3    3    0    0  0.21888046317E+02 -0.42204917179E+02 -0.62419555950E+00  0.47547147399E+02  0.00000000000E+00 0. -1.
         22    1    3    3    0    0  0.48109688214E+02  0.17042651413E+02 -0.16590022464E+03  0.17357384193E+03  0.00000000000E+00 0. -1.
</event>
<event>
 7    1  0.6078244E-006  0.5910479E+02  0.7818608E-02  0.1403303E+00
          2   -1    0    0  502    0  0.00000000000E+00  0.00000000000E+00  0.14186662070E+03  0.14186662070E+03  0.00000000000E+00 0. -1.
          1   -1    0    0  501    0 -0.00000000000E+00 -0.00000000000E+00 -0.23991056188E+04  0.23991056188E+04  0.00000000000E+00 0. -1.
         25    2    1    2    0    0  0.28950858651E+02 -0.54702804558E+02 -0.17354997022E+03  0.22265386504E+03  0.12499840964E+03 0.  0.
          2    1    1    2  501    0 -0.58994762603E+02  0.36046782373E+01 -0.21930923788E+04  0.21938886840E+04  0.00000000000E+00 0. -1.
          1    1    1    2  502    0  0.30043903952E+02  0.51098126321E+02  0.10940335092E+03  0.12442969047E+03  0.00000000000E+00 0. -1.
         22    1    3    3    0    0  0.70985966673E+02 -0.64570621917E+02 -0.11230231268E+03  0.14771656005E+03  0.00000000000E+00 0.  1.
         22    1    3    3    0    0 -0.42035108022E+02  0.98678173587E+01 -0.61247657541E+02  0.74937304996E+02  0.00000000000E+00 0.  1.
</event>
<event>
 7    1  0.6078244E-006  0.9789295E+02  0.7818608E-02  0.1334361E+00
          2   -1    0    0  502    0  0.00000000000E+00  0.00000000000E+00  0.28155301441E+04  0.28155301441E+04  0.00000000000E+00 0. -1.
          1   -1    0    0  501    0 -0.00000000000E+00 -0.00000000000E+00 -0.34245828492E+03  0.34245828492E+03  0.00000000000E+00 0. -1.
         25    2    1    2    0    0  0.42639651395E+02  0.49061898207E+02  0.66963572221E+03  0.68429712019E+03  0.12500135408E+03 0.  0.
          2    1    1    2  501    0  0.58905706907E+02 -0.20594510746E+02 -0.33090945121E+03  0.33674186119E+03  0.00000000000E+00 0. -1.
          1    1    1    2  502    0 -0.10154535830E+03 -0.28467387461E+02  0.21343455882E+04  0.21369494476E+04  0.00000000000E+00 0. -1.
         22    1    3    3    0    0  0.22950259206E+02  0.83827301514E+02  0.57561388863E+03  0.58213836814E+03  0.00000000000E+00 0.  1.
         22    1    3    3    0    0  0.19689392188E+02 -0.34765403307E+02  0.94021833578E+02  0.10215875205E+03  0.00000000000E+00 0.  1.
</event>
<event>
 7    1  0.6078244E-006  0.4673025E+02  0.7818608E-02  0.1506966E+00
          2   -1    0    0  502    0  0.00000000000E+00  0.00000000000E+00  0.62411429662E+03  0.62411429662E+03  0.00000000000E+00 0. -1.
          1   -1    0    0  501    0 -0.00000000000E+00 -0.00000000000E+00 -0.48959477985E+03  0.48959477985E+03  0.00000000000E+00 0. -1.
         25    2    1    2    0    0 -0.65846155804E+02 -0.36248634458E+02  0.10572986903E+03  0.18015333104E+03  0.12500695079E+03 0.  0.
          2    1    1    2  501    0  0.34427846142E+02  0.26577831443E+01 -0.45062189456E+03  0.45194295244E+03  0.00000000000E+00 0. -1.
          1    1    1    2  502    0  0.31418309661E+02  0.33590851314E+02  0.47941154230E+03  0.48161279299E+03  0.00000000000E+00 0. -1.
         22    1    3    3    0    0 -0.74059439408E+02 -0.62276572436E+02  0.11593903259E+03  0.15101334814E+03  0.00000000000E+00 0. -1.
         22    1    3    3    0    0  0.82132836039E+01  0.26027937977E+02 -0.10209163559E+02  0.29139982901E+02  0.00000000000E+00 0. -1.
</event>
<event>
 7    1  0.6078244E-006  0.6363327E+02  0.7818608E-02  0.1391880E+00
          2   -1    0    0  502    0  0.00000000000E+00  0.00000000000E+00  0.66741976876E+03  0.66741976876E+03  0.00000000000E+00 0. -1.
          1   -1    0    0  501    0 -0.00000000000E+00 -0.00000000000E+00 -0.14204548682E+04  0.14204548682E+04  0.00000000000E+00 0. -1.
         25    2    1    2    0    0  0.52186661200E+02  0.11026020565E+03 -0.96762588421E+02  0.19967094441E+03  0.12499890787E+03 0.  0.
          2    1    1    2  501    0 -0.29423260175E+02 -0.51514622712E+02 -0.12699328446E+04  0.12713177866E+04  0.00000000000E+00 0. -1.
          1    1    1    2  502    0 -0.22763401024E+02 -0.58745582934E+02  0.61366033361E+03  0.61688590597E+03  0.00000000000E+00 0. -1.
         22    1    3    3    0    0 -0.94888236946E+01  0.60028044619E+02  0.14900359236E+02  0.62573353924E+02  0.00000000000E+00 0. -1.
         22    1    3    3    0    0  0.61675484895E+02  0.50232161028E+02 -0.11166294766E+03  0.13709759049E+03  0.00000000000E+00 0. -1.
</event>
<event>
 7    1  0.6078244E-006  0.8697221E+02  0.7818608E-02  0.1452511E+00
          2   -1    0    0  502    0  0.00000000000E+00  0.00000000000E+00  0.23257914750E+03  0.23257914750E+03  0.00000000000E+00 0. -1.
          1   -1    0    0  501    0 -0.00000000000E+00 -0.00000000000E+00 -0.18537113240E+04  0.18537113240E+04  0.00000000000E+00 0. -1.
         25    2    1    2    0    0 -0.53237654579E+01 -0.71397928989E+02 -0.31499936776E+03  0.34637451774E+03  0.12499879244E+03 0.  0.
          2    1    1    2  501    0 -0.25124635348E+02 -0.10586285876E+02 -0.15140806058E+04  0.15143260539E+04  0.00000000000E+00 0. -1.
          1    1    1    2  502    0  0.30448400806E+02  0.81984214865E+02  0.20794779706E+03  0.22558989982E+03  0.00000000000E+00 0. -1.
         22    1    3    3    0    0  0.12318812720E+02 -0.94883196342E+02 -0.14411987094E+03  0.17298876060E+03  0.00000000000E+00 0. -1.
         22    1    3    3    0    0 -0.17642578178E+02  0.23485267353E+02 -0.17087949681E+03  0.17338575714E+03  0.00000000000E+00 0. -1.
</event>
<event>
 7    1  0.6078244E-006  0.8278799E+02  0.7818608E-02  0.1364415E+00
          2   -1    0    0  502    0  0.00000000000E+00  0.00000000000E+00  0.19293082638E+03  0.19293082638E+03  0.00000000000E+00 0. -1.
          1   -1    0    0  501    0 -0.00000000000E+00 -0.00000000000E+00 -0.15123460202E+04  0.15123460202E+04  0.00000000000E+00 0. -1.
         25    2    1    2    0    0 -0.47695660548E+01 -0.47411651582E+02 -0.23786150991E+01  0.13379520841E+03  0.12499954607E+03 0.  0.
          2    1    1    2  501    0 -0.48374842154E+02  0.68248386263E+02 -0.14365773411E+04  0.14390109188E+04  0.00000000000E+00 0. -1.
          1    1    1    2  502    0  0.53144408209E+02 -0.20836734681E+02  0.11954076233E+03  0.13247071938E+03  0.00000000000E+00 0. -1.
         22    1    3    3    0    0 -0.11774798094E+02 -0.88349677320E+02  0.11800212795E+02  0.89908600116E+02  0.00000000000E+00 0. -1.
         22    1    3    3    0    0  0.70052320388E+01  0.40938025739E+02 -0.14178827894E+02  0.43886608296E+02  0.00000000000E+00 0. -1.
</event>
<event>
 7    1  0.6078244E-006  0.6822114E+02  0.7818608E-02  0.1421904E+00
          2   -1    0    0  502    0  0.00000000000E+00  0.00000000000E+00  0.88933840489E+03  0.88933840489E+03  0.00000000000E+00 0. -1.
          1   -1    0    0  501    0 -0.00000000000E+00 -0.00000000000E+00 -0.11643043206E+04  0.11643043206E+04  0.00000000000E+00 0. -1.
         25    2    1    2    0    0  0.18170236456E+02  0.36587884838E+02  0.17566168030E+03  0.21943286234E+03  0.12499969736E+03 0.  0.
          2    1    1    2  501    0 -0.61419633726E+02 -0.30118189220E+02 -0.11407019626E+04  0.11427512609E+04  0.00000000000E+00 0. -1.
          1    1    1    2  502    0  0.43249397270E+02 -0.64696956179E+01  0.69007436656E+03  0.69145860231E+03  0.00000000000E+00 0. -1.
         22    1    3    3    0    0  0.67112695378E+02  0.13368129725E+02  0.57260229621E+02  0.89227544343E+02  0.00000000000E+00 0.  1.
         22    1    3    3    0    0 -0.48942458922E+02  0.23219755113E+02  0.11840145068E+03  0.13020531800E+03  0.00000000000E+00 0.  1.
</event>
<event>
 7    1  0.6078244E-006  0.8120710E+02  0.7818608E-02  0.1378026E+00
          2   -1    0    0  502    0  0.00000000000E+00  0.00000000000E+00  0.50389977847E+03  0.50389977847E+03  0.00000000000E+00 0. -1.
          1   -1    0    0  501    0 -0.00000000000E+00 -0.00000000000E+00 -0.21056668162E+04  0.21056668162E+04  0.00000000000E+00 0. -1.
         25    2    1    2    0    0  0.44412241791E+02  0.42343412006E+02 -0.23685231520E+03  0.27475224052E+03  0.12499745077E+03 0.  0.
          2    1    1    2  501    0  0.37039772517E+02 -0.36503628677E+02 -0.18460580211E+04  0.18467903717E+04  0.00000000000E+00 0. -1.
          1    1    1    2  502    0 -0.81452014307E+02 -0.58397833293E+01  0.48114329857E+03  0.48802398247E+03  0.00000000000E+00 0. -1.
         22    1    3    3    0    0  0.29518426382E+02  0.26017139391E+02 -0.25715300587E+01  0.39431482410E+02  0.00000000000E+00 0. -1.
         22    1    3    3    0    0  0.14893815408E+02  0.16326272615E+02 -0.23428078514E+03  0.23532075812E+03  0.00000000000E+00 0. -1.
</event>
<event>
 7    1  0.6078244E-006  0.8239756E+02  0.7818608E-02  0.1473630E+00
          2   -1    0    0  502    0  0.00000000000E+00  0.00000000000E+00  0.21216503407E+04  0.21216503407E+04  0.00000000000E+00 0. -1.
          1   -1    0    0  501    0 -0.00000000000E+00 -0.00000000000E+00 -0.17307334091E+04  0.17307334091E+04  0.00000000000E+00 0. -1.
         25    2    1    2    0    0  0.39061733913E+02  0.55573011914E+02  0.12764121030E+03  0.19113266174E+03  0.12500094843E+03 0.  0.
          2    1    1    2  501    0 -0.10678488581E+02  0.22273291593E+02 -0.16980231074E+04  0.16982027567E+04  0.00000000000E+00 0. -1.
          1    1    1    2  502    0 -0.28383245333E+02 -0.77846303507E+02  0.19612988287E+04  0.19630483313E+04  0.00000000000E+00 0. -1.
         22    1    3    3    0    0  0.52135280843E+02 -0.21514799261E+02  0.23970783039E+02  0.61282726239E+02  0.00000000000E+00 0.  1.
         22    1    3    3    0    0 -0.13073546930E+02  0.77087811176E+02  0.10367042726E+03  0.12984993550E+03  0.00000000000E+00 0.  1.
</event>
<event>
 7    1  0.6078244E-006  0.9143877E+02  0.7818608E-02  0.1320763E+00
          2   -1    0    0  502    0  0.00000000000E+00  0.00000000000E+00  0.44506242348E+03  0.44506242348E+03  0.00000000000E+00 0. -1.
          1   -1    0    0  501    0 -0.00000000000E+00 -0.00000000000E+00 -0.85321117129E+02  0.85321117129E+02  0.00000000000E+00 0. -1.
         25    2    1    2    0    0  0.43255951673E+02  0.14128882174E+02  0.66697429224E+02  0.14881225946E+03  0.12500335529E+03 0.  0.
          2    1    1    2  501    0 -0.33782942410E+02 -0.10507562614E+03  0.48626427179E+02  0.12060971696E+03  0.00000000000E+00 0. -1.
          1    1    1    2  502    0 -0.94730092626E+01  0.90946743962E+02  0.24441744995E+03  0.26096156418E+03  0.00000000000E+00 0. -1.
         22    1    3    3    0    0 -0.60942369293E+01 -0.50530697872E+02  0.33648296647E+02  0.61013924791E+02  0.00000000000E+00 0. -1.
         22    1    3    3    0    0  0.49350188602E+02  0.64659580047E+02  0.33049132577E+02  0.87798334671E+02  0.00000000000E+00 0. -1.
</event>
<event>
 7    1  0.9571363E-006  0.1578218E+03  0.7818608E-02  0.1374166E+00
          2   -1    0    0  502    0  0.00000000000E+00  0.00000000000E+00  0.15258259981E+04  0.15258259981E+04  0.00000000000E+00 0. -1.
          1   -1    0    0  501    0 -0.00000000000E+00 -0.00000000000E+00 -0.17433523970E+04  0.17433523970E+04  0.00000000000E+00 0. -1.
         25    2    1    2    0    0 -0.11587416633E+03 -0.72487236620E+02 -0.34458789068E+03  0.39120566961E+03  0.12497935683E+03 0.  0.
          2    1    1    2  501    0 -0.27135833415E+02  0.51466169761E+01 -0.13711586992E+04  0.13714368449E+04  0.00000000000E+00 0. -1.
          1    1    1    2  502    0  0.14300999975E+03  0.67340619644E+02  0.14982201910E+04  0.15065358807E+04  0.00000000000E+00 0. -1.
         22    1    3    3    0    0 -0.11536359345E+03 -0.99151141516E+02 -0.32250876191E+03  0.35658324282E+03  0.00000000000E+00 0. -1.
         22    1    3    3    0    0 -0.51057288430E+00  0.26663904895E+02 -0.22079128774E+02  0.34622426783E+02  0.00000000000E+00 0. -1.
</event>
<event>
 7    1  0.6078244E-006  0.9249274E+02  0.7818608E-02  0.1314790E+00
          2   -1    0    0  502    0  0.00000000000E+00  0.00000000000E+00  0.70100109259E+03  0.70100109259E+03  0.00000000000E+00 0. -1.
          1   -1    0    0  501    0 -0.00000000000E+00 -0.00000000000E+00 -0.65665603547E+03  0.65665603547E+03  0.00000000000E+00 0. -1.
         25    2    1    2    0    0  0.75205790595E+02  0.13881044509E+03  0.35552542866E+03  0.40859666293E+03  0.12501460686E+03 0.  0.
          2    1    1    2  501    0 -0.69343067901E+02 -0.60461917177E+02 -0.62184555046E+03  0.62861434371E+03  0.00000000000E+00 0. -1.
          1    1    1    2  502    0 -0.58627226945E+01 -0.78348527914E+02  0.31066517891E+03  0.32044612142E+03  0.00000000000E+00 0. -1.
         22    1    3    3    0    0  0.93004794214E+02  0.14643020894E+03  0.27012040793E+03  0.32102450470E+03  0.00000000000E+00 0.  1.
         22    1    3    3    0    0 -0.17799003619E+02 -0.76197638531E+01  0.85405020731E+02  0.87572158230E+02  0.00000000000E+00 0.  1.
</event>
<event>
 7    1  0.6078244E-006  0.5324649E+02  0.7818608E-02  0.1465756E+00
          2   -1    0    0  502    0  0.00000000000E+00  0.00000000000E+00  0.48696776034E+03  0.48696776034E+03  0.00000000000E+00 0. -1.
          1   -1    0    0  501    0 -0.00000000000E+00 -0.00000000000E+00 -0.51467187598E+03  0.51467187598E+03  0.00000000000E+00 0. -1.
         25    2    1    2    0    0  0.25267756369E+01 -0.52702524224E+02 -0.19073564143E+03  0.23406946041E+03  0.12499794690E+03 0.  0.
          2    1    1    2  501    0  0.36242605167E+02  0.41189545627E+02 -0.29888890325E+03  0.30388267734E+03  0.00000000000E+00 0. -1.
          1    1    1    2  502    0 -0.38769380804E+02  0.11512978597E+02  0.46192042905E+03  0.46368749858E+03  0.00000000000E+00 0. -1.
         22    1    3    3    0    0 -0.55436936092E+02 -0.31965491911E+02 -0.52596662727E+02  0.82833903001E+02  0.00000000000E+00 0.  1.
         22    1    3    3    0    0  0.57963711729E+02 -0.20737032312E+02 -0.13813897870E+03  0.15123555741E+03  0.00000000000E+00 0.  1.
</event>
<event>
 7    1  0.6078244E-006  0.8852309E+02  0.7818608E-02  0.1453474E+00
          2   -1    0    0  502    0  0.00000000000E+00  0.00000000000E+00  0.22993968361E+04  0.22993968361E+04  0.00000000000E+00 0. -1.
          1   -1    0    0  501    0 -0.00000000000E+00 -0.00000000000E+00 -0.13695833182E+02  0.13695833182E+02  0.00000000000E+00 0. -1.
         25    2    1    2    0    0  0.71697354535E+02 -0.26667982343E+01  0.72651020314E+03  0.74066851822E+03  0.12500062461E+03 0.  0.
          2    1    1    2  501    0 -0.96036026295E+02  0.13393504940E+02  0.35685686345E+03  0.36979605908E+03  0.00000000000E+00 0. -1.
          1    1    1    2  502    0  0.24338671759E+02 -0.10726706706E+02  0.12023339363E+04  0.12026280920E+04  0.00000000000E+00 0. -1.
         22    1    3    3    0    0  0.14922122484E+00  0.43241789745E+02  0.43129346596E+03  0.43345579755E+03  0.00000000000E+00 0. -1.
         22    1    3    3    0    0  0.71548133311E+02 -0.45908587979E+02  0.29521673718E+03  0.30721272067E+03  0.00000000000E+00 0. -1.
</event>
<event>
 7    1  0.6078244E-006  0.8236678E+02  0.7818608E-02  0.1452322E+00
          2   -1    0    0  502    0  0.00000000000E+00  0.00000000000E+00  0.99322781726E+03  0.99322781726E+03  0.00000000000E+00 0. -1.
          1   -1    0    0  501    0 -0.00000000000E+00 -0.00000000000E+00 -0.10431887421E+03  0.10431887421E+03  0.00000000000E+00 0. -1.
         25    2    1    2    0    0  0.71914788518E+02 -0.65420237059E+02  0.29093357957E+03  0.33123343388E+03  0.12498678241E+03 0.  0.
          2    1    1    2  501    0 -0.72962043824E+02  0.36611100383E+02 -0.63988158718E+02  0.10372230699E+03  0.00000000000E+00 0. -1.
          1    1    1    2  502    0  0.10472553060E+01  0.28809136676E+02  0.66196352219E+03  0.66259095060E+03  0.00000000000E+00 0. -1.
         22    1    3    3    0    0  0.19320334397E+02 -0.78309088954E+02  0.25185303923E+03  0.26445328908E+03  0.00000000000E+00 0. -1.
         22    1    3    3    0    0  0.52594454121E+02  0.12888851895E+02  0.39080540339E+02  0.66780144809E+02  0.00000000000E+00 0. -1.
</event>
<event>
 7    1  0.6078244E-006  0.7642369E+02  0.7818608E-02  0.1472357E+00
          2   -1    0    0  502    0  0.00000000000E+00  0.00000000000E+00  0.64543754572E+03  0.64543754572E+03  0.00000000000E+00 0. -1.
          1   -1    0    0  501    0 -0.00000000000E+00 -0.00000000000E+00 -0.20081074036E+03  0.20081074036E+03  0.00000000000E+00 0. -1.
         25    2    1    2    0    0 -0.97788123128E+02 -0.16652892206E+02  0.15953930344E+03  0.22565062343E+03  0.12500231465E+03 0.  0.
          2    1    1    2  501    0  0.26491822637E+02 -0.45197042427E+01 -0.16359759296E+03  0.16579027961E+03  0.00000000000E+00 0. -1.
          1    1    1    2  502    0  0.71296300491E+02  0.21172596448E+02  0.44868509487E+03  0.45480738304E+03  0.00000000000E+00 0. -1.
         22    1    3    3    0    0 -0.40432342077E+02  0.22664976675E+02 -0.53872007849E+01  0.46663662370E+02  0.00000000000E+00 0. -1.
         22    1    3    3    0    0 -0.57355781050E+02 -0.39317868881E+02  0.16492650422E+03  0.17898696106E+03  0.00000000000E+00 0. -1.
</event>
<event>
 7    1  0.6078244E-006  0.2350395E+03  0.7818608E-02  0.1230547E+00
          2   -1    0    0  502    0  0.00000000000E+00  0.00000000000E+00  0.41687507166E+04  0.41687507166E+04  0.00000000000E+00 0. -1.
          1   -1    0    0  501    0 -0.00000000000E+00 -0.00000000000E+00 -0.75920166522E+03  0.75920166522E+03  0.00000000000E+00 0. -1.
         25    2    1    2    0    0  0.17075254444E+03 -0.16139575400E+02 -0.36671945869E+02  0.21536406021E+03  0.12497971631E+03 0.  0.
          2    1    1    2  501    0  0.65973101170E+02  0.22302001737E+02 -0.62782013353E+03  0.63167076031E+03  0.00000000000E+00 0. -1.
          1    1    1    2  502    0 -0.23672564562E+03 -0.61624263375E+01  0.40740411308E+04  0.40809175613E+04  0.00000000000E+00 0. -1.
         22    1    3    3    0    0  0.17964884043E+03  0.77476021374E+01 -0.12523275772E+02  0.18025139013E+03  0.00000000000E+00 0.  1.
         22    1    3    3    0    0 -0.88962959865E+01 -0.23887177537E+02 -0.24148670097E+02  0.35112670084E+02  0.00000000000E+00 0.  1.
</event>
<event>
 7    1  0.6078244E-006  0.2335000E+03  0.7818608E-02  0.1210804E+00
          2   -1    0    0  502    0  0.00000000000E+00  0.00000000000E+00  0.72579374957E+03  0.72579374957E+03  0.00000000000E+00 0. -1.
          1   -1    0    0  501    0 -0.00000000000E+00 -0.00000000000E+00 -0.49992126933E+03  0.49992126933E+03  0.00000000000E+00 0. -1.
         25    2    1    2    0    0 -0.12112848265E+03 -0.13340167317E+03 -0.19092714195E+02  0.22013131871E+03  0.12500060011E+03 0.  0.
          2    1    1    2  501    0  0.13748644958E+03  0.21806156907E+03 -0.33305707300E+03  0.42116550856E+03  0.00000000000E+00 0. -1.
          1    1    1    2  502    0 -0.16357966932E+02 -0.84659895901E+02  0.57802226744E+03  0.58441819163E+03  0.00000000000E+00 0. -1.
         22    1    3    3    0    0 -0.10710865086E+02 -0.67783841833E+02  0.39251848756E+02  0.79057444148E+02  0.00000000000E+00 0. -1.
         22    1    3    3    0    0 -0.11041761757E+03 -0.65617831340E+02 -0.58344562951E+02  0.14107387456E+03  0.00000000000E+00 0. -1.
</event>
<event>
 7    1  0.6078244E-006  0.3850762E+02  0.7818608E-02  0.1584373E+00
          2   -1    0    0  502    0  0.00000000000E+00  0.00000000000E+00  0.29149101464E+03  0.29149101464E+03  0.00000000000E+00 0. -1.
          1   -1    0    0  501    0 -0.00000000000E+00 -0.00000000000E+00 -0.24644536970E+04  0.24644536970E+04  0.00000000000E+00 0. -1.
         25    2    1    2    0    0 -0.38027108499E+02 -0.28239181797E+02 -0.63617724922E+03  0.65006867965E+03  0.12499713384E+03 0.  0.
          2    1    1    2  501    0 -0.37289722101E+00  0.25403664713E+02 -0.18199390573E+04  0.18201163857E+04  0.00000000000E+00 0. -1.
          1    1    1    2  502    0  0.38400005720E+02  0.28355170841E+01  0.28315362414E+03  0.28575964631E+03  0.00000000000E+00 0. -1.
         22    1    3    3    0    0  0.34564488235E+01 -0.63920900907E+02 -0.48668642556E+03  0.49087830002E+03  0.00000000000E+00 0.  1.
         22    1    3    3    0    0 -0.41483557323E+02  0.35681719110E+02 -0.14949082366E+03  0.15919037963E+03  0.00000000000E+00 0.  1.
</event>
<event>
 7    1  0.6078244E-006  0.9096031E+02  0.7818608E-02  0.1355134E+00
          2   -1    0    0  502    0  0.00000000000E+00  0.00000000000E+00  0.16626541753E+04  0.16626541753E+04  0.00000000000E+00 0. -1.
          1   -1    0    0  501    0 -0.00000000000E+00 -0.00000000000E+00 -0.85026870990E+03  0.85026870990E+03  0.00000000000E+00 0. -1.
         25    2    1    2    0    0 -0.19754636734E+02 -0.11181225779E+03  0.14481828828E+03  0.22245792066E+03  0.12499185245E+03 0.  0.
          2    1    1    2  501    0  0.57568540340E+02  0.70276372036E+02 -0.80837034055E+03  0.81345898040E+03  0.00000000000E+00 0. -1.
          1    1    1    2  502    0 -0.37813903607E+02  0.41535885752E+02  0.14759375177E+04  0.14770059842E+04  0.00000000000E+00 0. -1.
         22    1    3    3    0    0  0.39015411640E+02 -0.74960957618E+01  0.72245116517E+02  0.82448472743E+02  0.00000000000E+00 0.  1.
         22    1    3    3    0    0 -0.58770048373E+02 -0.10431616203E+03  0.72573171768E+02  0.14000944792E+03  0.00000000000E+00 0.  1.
</event>
<event>
 7    1  0.6078244E-006  0.1983165E+03  0.7818608E-02  0.1285215E+00
          2   -1    0    0  502    0  0.00000000000E+00  0.00000000000E+00  0.24464533899E+03  0.24464533899E+03  0.00000000000E+00 0. -1.
          1   -1    0    0  501    0 -0.00000000000E+00 -0.00000000000E+00 -0.29527283478E+03  0.29527283478E+03  0.00000000000E+00 0. -1.
         25    2    1    2    0    0  0.16171581798E+03  0.93142376805E+02 -0.20810451495E+02  0.22557853016E+03  0.12500036094E+03 0.  0.
          2    1    1    2  501    0 -0.15292027996E+03 -0.14046044771E+03 -0.99024296910E+02  0.23004251949E+03  0.00000000000E+00 0. -1.
          1    1    1    2  502    0 -0.87955380216E+01  0.47318070902E+02  0.69207252615E+02  0.84297124135E+02  0.00000000000E+00 0. -1.
         22    1    3    3    0    0  0.11648372548E+03 -0.49308109999E+01 -0.90501519029E+01  0.11693877222E+03  0.00000000000E+00 0. -1.
         22    1    3    3    0    0  0.45232092501E+02  0.98073187805E+02 -0.11760299592E+02  0.10863975794E+03  0.00000000000E+00 0. -1.
</event>
<event>
 7    1  0.6078244E-006  0.8888387E+02  0.7818608E-02  0.1340709E+00
          2   -1    0    0  502    0  0.00000000000E+00  0.00000000000E+00  0.28562413860E+04  0.28562413860E+04  0.00000000000E+00 0. -1.
          1   -1    0    0  501    0 -0.00000000000E+00 -0.00000000000E+00 -0.12149980986E+04  0.12149980986E+04  0.00000000000E+00 0. -1.
         25    2    1    2    0    0 -0.11454151287E+02 -0.70830316067E+02 -0.89912755028E+03  0.91060630901E+03  0.12500146828E+03 0.  0.
          2    1    1    2  501    0 -0.65163711012E+01  0.13333418757E+03 -0.29537577093E+03  0.32414088714E+03  0.00000000000E+00 0. -1.
          1    1    1    2  502    0  0.17970522389E+02 -0.62503871501E+02  0.28357466087E+04  0.28364922884E+04  0.00000000000E+00 0. -1.
         22    1    3    3    0    0 -0.45200476176E+02  0.13561550404E+02 -0.44337212730E+03  0.44587648734E+03  0.00000000000E+00 0.  1.
         22    1    3    3    0    0  0.33746324889E+02 -0.84391866471E+02 -0.45575542298E+03  0.46472982167E+03  0.00000000000E+00 0.  1.
</event>
<event>
 7    1  0.6078244E-006  0.2008341E+03  0.7818608E-02  0.1229851E+00
          2   -1    0    0  502    0  0.00000000000E+00  0.00000000000E+00  0.55212187105E+03  0.55212187105E+03  0.00000000000E+00 0. -1.
          1   -1    0    0  501    0 -0.00000000000E+00 -0.00000000000E+00 -0.60258168940E+03  0.60258168940E+03  0.00000000000E+00 0. -1.
         25    2    1    2    0    0 -0.21526159194E+03 -0.11283745902E+03  0.99460469068E+02  0.29083860207E+03  0.12499944968E+03 0.  0.
          2    1    1    2  501    0  0.19484888038E+03  0.33327057188E+02 -0.48243681957E+03  0.52136557597E+03  0.00000000000E+00 0. -1.
          1    1    1    2  502    0  0.20412711559E+02  0.79510401833E+02  0.33251653216E+03  0.34249938241E+03  0.00000000000E+00 0. -1.
         22    1    3    3    0    0 -0.64162492708E+02  0.19671481320E+02  0.50502273386E+02  0.83989715233E+02  0.00000000000E+00 0. -1.
         22    1    3    3    0    0 -0.15109909924E+03 -0.13250894034E+03  0.48958195682E+02  0.20684888683E+03  0.00000000000E+00 0. -1.
</event>
<event>
 7    1  0.6078244E-006  0.1181581E+03  0.7818608E-02  0.1440977E+00
          2   -1    0    0  502    0  0.00000000000E+00  0.00000000000E+00  0.15518720567E+04  0.15518720567E+04  0.00000000000E+00 0. -1.
          1   -1    0    0  501    0 -0.00000000000E+00 -0.00000000000E+00 -0.10374752336E+03  0.10374752336E+03  0.00000000000E+00 0. -1.
         25    2    1    2    0    0 -0.11465239948E+03 -0.18314357359E+02  0.27830151642E+03  0.32643227260E+03  0.12500282463E+03 0.  0.
          2    1    1    2  501    0 -0.39121367664E+01  0.21503285962E+02 -0.75310277076E+02  0.78417689041E+02  0.00000000000E+00 0. -1.
          1    1    1    2  502    0  0.11856453625E+03 -0.31889286029E+01  0.12451332940E+04  0.12507696184E+04  0.00000000000E+00 0. -1.
         22    1    3    3    0    0 -0.97828340415E+01 -0.42410518834E+02  0.22663202275E+02  0.49071139043E+02  0.00000000000E+00 0.  1.
         22    1    3    3    0    0 -0.10486956544E+03  0.24096161474E+02  0.25563831414E+03  0.27736113356E+03  0.00000000000E+00 0.  1.
</event>
<event>
 7    1  0.6078244E-006  0.7411401E+02  0.7818608E-02  0.1434530E+00
          2   -1    0    0  502    0  0.00000000000E+00  0.00000000000E+00  0.55591124626E+02  0.55591124626E+02  0.00000000000E+00 0. -1.
          1   -1    0    0  501    0 -0.00000000000E+00 -0.00000000000E+00 -0.14615701407E+04  0.14615701407E+04  0.00000000000E+00 0. -1.
         25    2    1    2    0    0  0.34829846021E+02  0.35330783060E+02 -0.48298887763E+03  0.50136275605E+03  0.12499989935E+03 0.  0.
          2    1    1    2  501    0  0.35801812040E+02 -0.74590451544E+01 -0.93773527766E+03  0.93844811155E+03  0.00000000000E+00 0. -1.
          1    1    1    2  502    0 -0.70631658061E+02 -0.27871737905E+02  0.14745139234E+02  0.77350397706E+02  0.00000000000E+00 0. -1.
         22    1    3    3    0    0 -0.32774557167E+02 -0.26658502358E+02 -0.17338354944E+03  0.17845644444E+03  0.00000000000E+00 0.  1.
         22    1    3    3    0    0  0.67604403188E+02  0.61989285418E+02 -0.30960532819E+03  0.32290631161E+03  0.00000000000E+00 0.  1.
</event>
<event>
 7    1  0.6078244E-006  0.7943113E+02  0.7818608E-02  0.1419391E+00
          2   -1    0    0  502    0  0.00000000000E+00  0.00000000000E+00  0.12620482769E+04  0.12620482769E+04  0.00000000000E+00 0. -1.
          1   -1    0    0  501    0 -0.00000000000E+00 -0.00000000000E+00 -0.70707393739E+03  0.70707393739E+03  0.00000000000E+00 0. -1.
         25    2    1    2    0    0 -0.73812257280E+02 -0.79904675600E+02 -0.12179525509E+03  0.20564839508E+03  0.12499668688E+03 0.  0.
          2    1    1    2  501    0  0.64919392427E+02  0.42660231515E+02 -0.54027298089E+03  0.54582901787E+03  0.00000000000E+00 0. -1.
          1    1    1    2  502    0  0.88928648531E+01  0.37244444085E+02  0.12170425755E+04  0.12176448013E+04  0.00000000000E+00 0. -1.
         22    1    3    3    0    0 -0.56315356327E+02 -0.11405577415E+03 -0.96936168265E+02  0.15992735755E+03  0.00000000000E+00 0.  1.
         22    1    3    3    0    0 -0.17496900953E+02  0.34151098551E+02 -0.24859086829E+02  0.45721037533E+02  0.00000000000E+00 0.  1.
</event>
<event>
 7    1  0.6078244E-006  0.8214182E+02  0.7818608E-02  0.1388693E+00
          2   -1    0    0  502    0  0.00000000000E+00  0.00000000000E+00  0.47317174024E+03  0.47317174024E+03  0.00000000000E+00 0. -1.
          1   -1    0    0  501    0 -0.00000000000E+00 -0.00000000000E+00 -0.24780768609E+03  0.24780768609E+03  0.00000000000E+00 0. -1.
         25    2    1    2    0    0 -0.25094713170E+02  0.59690620878E+02  0.71624598650E+02  0.15794787569E+03  0.12499893381E+03 0.  0.
          2    1    1    2  501    0 -0.45625605801E+02 -0.11889520916E+02 -0.19673804568E+03  0.20230895984E+03  0.00000000000E+00 0. -1.
          1    1    1    2  502    0  0.70720318971E+02 -0.47801099962E+02  0.35047750118E+03  0.36072259079E+03  0.00000000000E+00 0. -1.
         22    1    3    3    0    0  0.84805283341E+01 -0.95155775140E+01  0.79600701555E+02  0.80614745948E+02  0.00000000000E+00 0. -1.
         22    1    3    3    0    0 -0.33575241504E+02  0.69206198392E+02 -0.79761029043E+01  0.77333129741E+02  0.00000000000E+00 0. -1.
</event>
<event>
 7    1  0.6078244E-006  0.4446200E+02  0.7818608E-02  0.1507398E+00
          2   -1    0    0  502    0  0.00000000000E+00  0.00000000000E+00  0.28545213416E+03  0.28545213416E+03  0.00000000000E+00 0. -1.
          1   -1    0    0  501    0 -0.00000000000E+00 -0.00000000000E+00 -0.28158589907E+04  0.28158589907E+04  0.00000000000E+00 0. -1.
         25    2    1    2    0    0 -0.30358603679E+02 -0.40951575030E+02 -0.14281644606E+03  0.19651996051E+03  0.12499952519E+03 0.  0.
          2    1    1    2  501    0 -0.56849556459E+01  0.44150691308E+02 -0.26447367413E+04  0.26451113461E+04  0.00000000000E+00 0. -1.
          1    1    1    2  502    0  0.36043559325E+02 -0.31991162776E+01  0.25714633087E+03  0.25967981823E+03  0.00000000000E+00 0. -1.
         22    1    3    3    0    0  0.48444887742E+01  0.41876742382E+02 -0.65380353810E+02  0.77792810004E+02  0.00000000000E+00 0.  1.
         22    1    3    3    0    0 -0.35203092453E+02 -0.82828317412E+02 -0.77436092248E+02  0.11872715050E+03  0.00000000000E+00 0.  1.
</event>
<event>
 7    1  0.6078244E-006  0.7907389E+02  0.7818608E-02  0.1332111E+00
          2   -1    0    0  502    0  0.00000000000E+00  0.00000000000E+00  0.45282716367E+03  0.45282716367E+03  0.00000000000E+00 0. -1.
          1   -1    0    0  501    0 -0.00000000000E+00 -0.00000000000E+00 -0.98387805555E+03  0.98387805555E+03  0.00000000000E+00 0. -1.
         25    2    1    2    0    0  0.17182607579E+02 -0.80504812968E+02 -0.33878553185E+03  0.37037337122E+03  0.12499812243E+03 0.  0.
          2    1    1    2  501    0 -0.78411518194E+02  0.30917802232E+02 -0.62288583595E+03  0.62856267890E+03  0.00000000000E+00 0. -1.
          1    1    1    2  502    0  0.61228910615E+02  0.49587010736E+02  0.43062047592E+03  0.43776916909E+03  0.00000000000E+00 0. -1.
         22    1    3    3    0    0  0.32041928048E+02 -0.47237434084E+02 -0.32719889252E+03  0.33214029505E+03  0.00000000000E+00 0. -1.
         22    1    3    3    0    0 -0.14859320469E+02 -0.33267378884E+02 -0.11586639325E+02  0.38233076170E+02  0.00000000000E+00 0. -1.
</event>
<event>
 7    1  0.6840066E-006  0.9055381E+02  0.7818608E-02  0.1330747E+00
          2   -1    0    0  502    0  0.00000000000E+00  0.00000000000E+00  0.38892587821E+04  0.38892587821E+04  0.00000000000E+00 0. -1.
          1   -1    0    0  501    0 -0.00000000000E+00 -0.00000000000E+00 -0.74045320880E+03  0.74045320880E+03  0.00000000000E+00 0. -1.
         25    2    1    2    0    0 -0.12163473242E+03 -0.96590322673E+02 -0.32720750601E+03  0.38316390893E+03  0.12500052222E+03 0.  0.
          2    1    1    2  501    0  0.64362418164E+02  0.26566559157E+02 -0.38158682968E+03  0.38788762744E+03  0.00000000000E+00 0. -1.
          1    1    1    2  502    0  0.57272314257E+02  0.70023763515E+02  0.38575999089E+04  0.38586604545E+04  0.00000000000E+00 0. -1.
         22    1    3    3    0    0 -0.87467761693E+02 -0.46410391866E+02 -0.30131076772E+03  0.31716354228E+03  0.00000000000E+00 0.  1.
         22    1    3    3    0    0 -0.34166970727E+02 -0.50179930806E+02 -0.25896738290E+02  0.66000366654E+02  0.00000000000E+00 0.  1.
</event>
<event>
 7    1  0.6078244E-006  0.5468373E+02  0.7818608E-02  0.1432664E+00
          2   -1    0    0  502    0  0.00000000000E+00  0.00000000000E+00  0.11910221131E+03  0.11910221131E+03  0.00000000000E+00 0. -1.
          1   -1    0    0  501    0 -0.00000000000E+00 -0.00000000000E+00 -0.18460248981E+04  0.18460248981E+04  0.00000000000E+00 0. -1.
         25    2    1    2    0    0 -0.60039247824E+02  0.84396223432E+02 -0.36388913717E+03  0.39845736597E+03  0.12500213814E+03 0.  0.
          2    1    1    2  501    0  0.30942980771E+02 -0.43405944430E+02 -0.14581306093E+04  0.14591046631E+04  0.00000000000E+00 0. -1.
          1    1    1    2  502    0  0.29096267053E+02 -0.40990279002E+02  0.95097059736E+02  0.10756508030E+03  0.00000000000E+00 0. -1.
         22    1    3    3    0    0 -0.55969637404E+02  0.29707981199E+02 -0.32526918801E+03  0.33138377922E+03  0.00000000000E+00 0. -1.
         22    1    3    3    0    0 -0.40696104201E+01  0.54688242232E+02 -0.38619949158E+02  0.67073586757E+02  0.00000000000E+00 0. -1.
</event>
<event>
 7    1  0.6078244E-006  0.4517431E+02  0.7818608E-02  0.1475708E+00
          2   -1    0    0  502    0  0.00000000000E+00  0.00000000000E+00  0.11062731608E+03  0.11062731608E+03  0.00000000000E+00 0. -1.
          1   -1    0    0  501    0 -0.00000000000E+00 -0.00000000000E+00 -0.50262476423E+03  0.50262476423E+03  0.00000000000E+00 0. -1.
         25    2    1    2    0    0 -0.12913870903E+02  0.64605688565E+02 -0.14320485659E+03  0.20117887168E+03  0.12499857759E+03 0.  0.
          2    1    1    2  501    0 -0.23036453185E+02 -0.38561477638E+02 -0.32272540919E+03  0.32583639371E+03  0.00000000000E+00 0. -1.
          1    1    1    2  502    0  0.35950324088E+02 -0.26044210928E+02  0.73932817628E+02  0.86236814918E+02  0.00000000000E+00 0. -1.
         22    1    3    3    0    0  0.21220523419E+02 -0.19166014558E+02  0.35195930795E+01  0.28810315230E+02  0.00000000000E+00 0.  1.
         22    1    3    3    0    0 -0.34134394322E+02  0.83771703123E+02 -0.14672444967E+03  0.17236855645E+03  0.00000000000E+00 0.  1.
</event>
<event>
 7    1  0.6078244E-006  0.2859587E+03  0.7818608E-02  0.1228148E+00
          2   -1    0    0  502    0  0.00000000000E+00  0.00000000000E+00  0.18778599486E+03  0.18778599486E+03  0.00000000000E+00 0. -1.
          1   -1    0    0  501    0 -0.00000000000E+00 -0.00000000000E+00 -0.16361520004E+04  0.16361520004E+04  0.00000000000E+00 0. -1.
         25    2    1    2    0    0 -0.23475747292E+02  0.30385853309E+03 -0.86681789017E+03  0.92729674958E+03  0.12499955285E+03 0.  0.
          2    1    1    2  501    0 -0.50565085924E+02 -0.29768929512E+02 -0.60861769428E+03  0.61143970665E+03  0.00000000000E+00 0. -1.
          1    1    1    2  502    0  0.74040833216E+02 -0.27408960357E+03  0.27069578899E+02  0.28520153904E+03  0.00000000000E+00 0. -1.
         22    1    3    3    0    0  0.24563026940E+02  0.23562971302E+03 -0.53426140405E+03  0.58443130632E+03  0.00000000000E+00 0.  1.
         22    1    3    3    0    0 -0.48038774233E+02  0.68228820069E+02 -0.33255648612E+03  0.34286544325E+03  0.00000000000E+00 0.  1.
</event>
<event>
 7    1  0.6078244E-006  0.8454377E+02  0.7818608E-02  0.1436653E+00
          2   -1    0    0  502    0  0.00000000000E+00  0.00000000000E+00  0.70859838694E+03  0.70859838694E+03  0.00000000000E+00 0. -1.
          1   -1    0    0  501    0 -0.00000000000E+00 -0.00000000000E+00 -0.13409833503E+04  0.13409833503E+04  0.00000000000E+00 0. -1.
         25    2    1    2    0    0 -0.48147400138E+01  0.10831432251E+03  0.15810274010E+03  0.22885990126E+03  0.12500081518E+03 0.  0.
          2    1    1    2  501    0  0.21581199229E+02 -0.81586662307E+02 -0.13037560857E+04  0.13064846201E+04  0.00000000000E+00 0. -1.
          1    1    1    2  502    0 -0.16766459215E+02 -0.26727660200E+02  0.51326838223E+03  0.51423721586E+03  0.00000000000E+00 0. -1.
         22    1    3    3    0    0  0.24135831009E+02 -0.12928791673E+02 -0.18706304858E+00  0.27381142877E+02  0.00000000000E+00 0. -1.
         22    1    3    3    0    0 -0.28950571023E+02  0.12124311418E+03  0.15828980315E+03  0.20147875838E+03  0.00000000000E+00 0. -1.
</event>
<event>
 7    1  0.6078244E-006  0.1020408E+03  0.7818608E-02  0.1375249E+00
          2   -1    0    0  502    0  0.00000000000E+00  0.00000000000E+00  0.17253308018E+04  0.17253308018E+04  0.00000000000E+00 0. -1.
          1   -1    0    0  501    0 -0.00000000000E+00 -0.00000000000E+00 -0.29448155182E+03  0.29448155182E+03  0.00000000000E+00 0. -1.
         25    2    1    2    0    0  0.30729025940E+00  0.10679766935E+03  0.66165406998E+03  0.68177227290E+03  0.12498594791E+03 0.  0.
          2    1    1    2  501    0 -0.40478936279E+02 -0.12412854055E+02 -0.28033233633E+03  0.28351162590E+03  0.00000000000E+00 0. -1.
          1    1    1    2  502    0  0.40171646020E+02 -0.94384815299E+02  0.10495275163E+04  0.10545284548E+04  0.00000000000E+00 0. -1.
         22    1    3    3    0    0 -0.29970366424E+02 -0.18683471356E+02  0.14281466247E+03  0.14711669783E+03  0.00000000000E+00 0. -1.
         22    1    3    3    0    0  0.30277656683E+02  0.12548114071E+03  0.51883940751E+03  0.53465557507E+03  0.00000000000E+00 0. -1.
</event>
<event>
 7    1  0.6078244E-006  0.4078992E+02  0.7818608E-02  0.1604171E+00
          2   -1    0    0  502    0  0.00000000000E+00  0.00000000000E+00  0.12475712434E+04  0.12475712434E+04  0.00000000000E+00 0. -1.
          1   -1    0    0  501    0 -0.00000000000E+00 -0.00000000000E+00 -0.73385930720E+03  0.73385930720E+03  0.00000000000E+00 0. -1.
         25    2    1    2    0    0  0.22995540127E+02 -0.54763309416E+02 -0.10500928243E+03  0.17372763896E+03  0.12500611272E+03 0.  0.
          2    1    1    2  501    0 -0.15335748567E+02  0.14742358112E+02 -0.59395824588E+03  0.59433906161E+03  0.00000000000E+00 0. -1.
          1    1    1    2  502    0 -0.76597915605E+01  0.40020951304E+02  0.12126794645E+04  0.12133638500E+04  0.00000000000E+00 0. -1.
         22    1    3    3    0    0  0.67508458374E+02 -0.24141862725E+02 -0.22574888403E+02  0.75165464638E+02  0.00000000000E+00 0. -1.
         22    1    3    3    0    0 -0.44512918246E+02 -0.30621446690E+02 -0.82434394027E+02  0.98562174321E+02  0.00000000000E+00 0. -1.
</event>
<event>
 7    1  0.6078244E-006  0.1235925E+03  0.7818608E-02  0.1239202E+00
          2   -1    0    0  502    0  0.00000000000E+00  0.00000000000E+00  0.52693874630E+03  0.52693874630E+03  0.00000000000E+00 0. -1.
          1   -1    0    0  501    0 -0.00000000000E+00 -0.00000000000E+00 -0.71979433054E+03  0.71979433054E+03  0.00000000000E+00 0. -1.
         25    2    1    2    0    0 -0.85654190138E+02 -0.23781653835E+02 -0.38955774463E+03  0.41866799036E+03  0.12500176963E+03 0.  0.
          2    1    1    2  501    0  0.19256971054E+03  0.80871583494E+02 -0.27257114275E+03  0.34339239114E+03  0.00000000000E+00 0. -1.
          1    1    1    2  502    0 -0.10691552040E+03 -0.57089929659E+02  0.46927330313E+03  0.48467269533E+03  0.00000000000E+00 0. -1.
         22    1    3    3    0    0 -0.42234354793E+02 -0.55208810186E+02 -0.86801317255E+02  0.11120351669E+03  0.00000000000E+00 0.  1.
         22    1    3    3    0    0 -0.43419835345E+02  0.31427156351E+02 -0.30275642737E+03  0.30746447367E+03  0.00000000000E+00 0.  1.
</event>
<event>
 7    1  0.6078244E-006  0.5407305E+02  0.7818608E-02  0.1480067E+00
          2   -1    0    0  502    0  0.00000000000E+00  0.00000000000E+00  0.16441978944E+04  0.16441978944E+04  0.00000000000E+00 0. -1.
          1   -1    0    0  501    0 -0.00000000000E+00 -0.00000000000E+00 -0.21892524841E+03  0.21892524841E+03  0.00000000000E+00 0. -1.
         25    2    1    2    0    0  0.11178463167E+02 -0.19136663493E+02 -0.92290505797E+02  0.15696240070E+03  0.12501395060E+03 0.  0.
          2    1    1    2  501    0 -0.83087235401E+01 -0.34986275298E+02 -0.90397398312E+02  0.97287018495E+02  0.00000000000E+00 0. -1.
          1    1    1    2  502    0 -0.28697396270E+01  0.54122938791E+02  0.16079605501E+04  0.16088737236E+04  0.00000000000E+00 0. -1.
         22    1    3    3    0    0  0.31891895647E+02 -0.10010681102E+02 -0.11803842038E+03  0.12267997159E+03  0.00000000000E+00 0.  1.
         22    1    3    3    0    0 -0.20713432480E+02 -0.91259823904E+01  0.25747914585E+02  0.34282429102E+02  0.00000000000E+00 0.  1.
</event>
<event>
 7    1  0.6078244E-006  0.8147331E+02  0.7818608E-02  0.1332495E+00
          2   -1    0    0  502    0  0.00000000000E+00  0.00000000000E+00  0.31843655864E+03  0.31843655864E+03  0.00000000000E+00 0. -1.
          1   -1    0    0  501    0 -0.00000000000E+00 -0.00000000000E+00 -0.68446762658E+03  0.68446762658E+03  0.00000000000E+00 0. -1.
         25    2    1    2    0    0 -0.12378715061E+03  0.52742551737E+02  0.11730697975E+03  0.21792389753E+03  0.12499944878E+03 0.  0.
          2    1    1    2  501    0  0.48527486378E+02 -0.64753899944E+02 -0.62173918439E+03  0.62698293270E+03  0.00000000000E+00 0. -1.
          1    1    1    2  502    0  0.75259664232E+02  0.12011348207E+02  0.13840113670E+03  0.15799735500E+03  0.00000000000E+00 0. -1.
         22    1    3    3    0    0  0.35740040708E+01  0.22518351291E+02  0.77980964969E+02  0.81245803261E+02  0.00000000000E+00 0. -1.
         22    1    3    3    0    0 -0.12736115468E+03  0.30224200446E+02  0.39326014781E+02  0.13667809427E+03  0.00000000000E+00 0. -1.
</event>
<event>
 7    1  0.6078244E-006  0.5683296E+02  0.7818608E-02  0.1493696E+00
          2   -1    0    0  502    0  0.00000000000E+00  0.00000000000E+00  0.93779766163E+03  0.93779766163E+03  0.00000000000E+00 0. -1.
          1   -1    0    0  501    0 -0.00000000000E+00 -0.00000000000E+00 -0.82355322976E+03  0.82355322976E+03  0.00000000000E+00 0. -1.
         25    2    1    2    0    0 -0.48865728851E+02 -0.21093684416E+02  0.73559175394E+02  0.15448310569E+03  0.12498509783E+03 0.  0.
          2    1    1    2  501    0  0.31904915229E+02  0.47163273446E+02 -0.78176185634E+03  0.78383282530E+03  0.00000000000E+00 0. -1.
          1    1    1    2  502    0  0.16960813622E+02 -0.26069589029E+02  0.82244711281E+03  0.82303496040E+03  0.00000000000E+00 0. -1.
         22    1    3    3    0    0 -0.81118767975E+02 -0.38915001177E+02  0.75687983673E+02  0.11757254232E+03  0.00000000000E+00 0.  1.
         22    1    3    3    0    0  0.32253039124E+02  0.17821316761E+02 -0.21288082793E+01  0.36910563373E+02  0.00000000000E+00 0.  1.
</event>
<event>
 7    1  0.6078244E-006  0.6748444E+02  0.7818608E-02  0.1411680E+00
          2   -1    0    0  502    0  0.00000000000E+00  0.00000000000E+00  0.23575992326E+03  0.23575992326E+03  0.00000000000E+00 0. -1.
          1   -1    0    0  501    0 -0.00000000000E+00 -0.00000000000E+00 -0.31882776516E+03  0.31882776516E+03  0.00000000000E+00 0. -1.
         25    2    1    2    0    0  0.59420210021E+02  0.43672615036E+02  0.96775307298E+02  0.17443603337E+03  0.12499764386E+03 0.  0.
          2    1    1    2  501    0 -0.16921700625E+02 -0.65643883569E+02 -0.26984204523E+03  0.27822687285E+03  0.00000000000E+00 0. -1.
          1    1    1    2  502    0 -0.42498509396E+02  0.21971268533E+02  0.89998896025E+02  0.10192478221E+03  0.00000000000E+00 0. -1.
         22    1    3    3    0    0  0.90542729438E+02  0.30830848482E+02  0.10259939298E+03  0.14026818068E+03  0.00000000000E+00 0. -1.
         22    1    3    3    0    0 -0.31122519417E+02  0.12841766554E+02 -0.58240856790E+01  0.34167852685E+02  0.00000000000E+00 0. -1.
</event>
<event>
 7    1  0.6078244E-006  0.1978115E+03  0.7818608E-02  0.1263980E+00
          2   -1    0    0  502    0  0.00000000000E+00  0.00000000000E+00  0.55867274581E+03  0.55867274581E+03  0.00000000000E+00 0. -1.
          1   -1    0    0  501    0 -0.00000000000E+00 -0.00000000000E+00 -0.20883010603E+04  0.20883010603E+04  0.00000000000E+00 0. -1.
         25    2    1    2    0    0  0.32589677507E+02  0.15854639334E+03  0.95554171240E+02  0.22573783911E+03  0.12501170522E+03 0.  0.
          2    1    1    2  501    0 -0.88319006050E+02 -0.17840216552E+03 -0.20160814466E+04  0.20258854802E+04  0.00000000000E+00 0. -1.
          1    1    1    2  502    0  0.55729328543E+02  0.19855772171E+02  0.39089896091E+03  0.39535048677E+03  0.00000000000E+00 0. -1.
         22    1    3    3    0    0  0.73208253886E+02  0.10066824996E+03  0.27239471669E+02  0.12741873412E+03  0.00000000000E+00 0.  1.
         22    1    3    3    0    0 -0.40618576379E+02  0.57878143382E+02  0.68314699570E+02  0.98319104989E+02  0.00000000000E+00 0.  1.
</event>
<event>
 7    1  0.6078244E-006  0.6879109E+02  0.7818608E-02  0.1516743E+00
          2   -1    0    0  502    0  0.00000000000E+00  0.00000000000E+00  0.88431829971E+02  0.88431829971E+02  0.00000000000E+00 0. -1.
          1   -1    0    0  501    0 -0.00000000000E+00 -0.00000000000E+00 -0.14942624253E+04  0.14942624253E+04  0.00000000000E+00 0. -1.
         25    2    1    2    0    0 -0.68435106024E+02 -0.58489632845E+02 -0.19406073289E+03  0.24776716273E+03  0.12499839195E+03 0.  0.
          2    1    1    2  501    0  0.51560764976E+02  0.44442111284E+02 -0.12704507740E+04  0.12722730772E+04  0.00000000000E+00 0. -1.
          1    1    1    2  502    0  0.16874341048E+02  0.14047521561E+02  0.58680911614E+02  0.62654015320E+02  0.00000000000E+00 0. -1.
         22    1    3    3    0    0  0.16800591427E+02  0.25449568777E+02 -0.64960147537E+02  0.71761836593E+02  0.00000000000E+00 0. -1.
         22    1    3    3    0    0 -0.85235697451E+02 -0.83939201622E+02 -0.12910058536E+03  0.17600532614E+03  0.00000000000E+00 0. -1.
</event>
<event>
 7    1  0.6078244E-006  0.1173321E+03  0.7818608E-02  0.1446099E+00
          2   -1    0    0  502    0  0.00000000000E+00  0.00000000000E+00  0.33654026223E+03  0.33654026223E+03  0.00000000000E+00 0. -1.
          1   -1    0    0  501    0 -0.00000000000E+00 -0.00000000000E+00 -0.58661866592E+03  0.58661866592E+03  0.00000000000E+00 0. -1.
         25    2    1    2    0    0 -0.12399761762E+03  0.53831385572E+02 -0.62011888532E+02  0.19428025309E+03  0.12500446061E+03 0.  0.
          2    1    1    2  501    0  0.21166601716E+02 -0.94462159002E+00 -0.44584732981E+03  0.44635048878E+03  0.00000000000E+00 0. -1.
          1    1    1    2  502    0  0.10283101591E+03 -0.52886763982E+02  0.25778081466E+03  0.28252818628E+03  0.00000000000E+00 0. -1.
         22    1    3    3    0    0 -0.70845639367E+02  0.57614895477E+02 -0.94870211576E+02  0.13167740065E+03  0.00000000000E+00 0.  1.
         22    1    3    3    0    0 -0.53151978257E+02 -0.37835099048E+01  0.32858323044E+02  0.62602852436E+02  0.00000000000E+00 0.  1.
</event>
<event>
 7    1  0.6078244E-006  0.7278026E+02  0.7818608E-02  0.1408892E+00
          2   -1    0    0  502    0  0.00000000000E+00  0.00000000000E+00  0.99975926177E+03  0.99975926177E+03  0.00000000000E+00 0. -1.
          1   -1    0    0  501    0 -0.00000000000E+00 -0.00000000000E+00 -0.35935398503E+03  0.35935398503E+03  0.00000000000E+00 0. -1.
         25    2    1    2    0    0  0.29992660387E+02 -0.91911944570E+02 -0.10451776934E+03  0.18946083307E+03  0.12499631165E+03 0.  0.
          2    1    1    2  501    0 -0.49062373272E+02  0.50781687694E+02 -0.20594013626E+03  0.21770906274E+03  0.00000000000E+00 0. -1.
          1    1    1    2  502    0  0.19069712885E+02  0.41130256876E+02  0.95086318233E+03  0.95194335099E+03  0.00000000000E+00 0. -1.
         22    1    3    3    0    0  0.53051811947E+02  0.93805932821E+01 -0.40947436976E+02  0.67669659938E+02  0.00000000000E+00 0. -1.
         22    1    3    3    0    0 -0.23059151559E+02 -0.10129253785E+03 -0.63570332364E+02  0.12179117313E+03  0.00000000000E+00 0. -1.
</event>
<event>
 7    1  0.6078244E-006  0.4631074E+02  0.7818608E-02  0.1543235E+00
          2   -1    0    0  502    0  0.00000000000E+00  0.00000000000E+00  0.95681063688E+03  0.95681063688E+03  0.00000000000E+00 0. -1.
          1   -1    0    0  501    0 -0.00000000000E+00 -0.00000000000E+00 -0.50615825359E+03  0.50615825359E+03  0.00000000000E+00 0. -1.
         25    2    1    2    0    0  0.22030231211E+02 -0.19090490244E+00  0.73110334704E+02  0.14647630814E+03  0.12499928110E+03 0.  0.
          2    1    1    2  501    0 -0.43392830890E+02 -0.16942047581E+02 -0.46809755361E+03  0.47040970487E+03  0.00000000000E+00 0. -1.
          1    1    1    2  502    0  0.21362599679E+02  0.17132952483E+02  0.84563960219E+03  0.84608287745E+03  0.00000000000E+00 0. -1.
         22    1    3    3    0    0  0.32173130233E+02 -0.11505240722E+01  0.10666057614E+03  0.11141325109E+03  0.00000000000E+00 0. -1.
         22    1    3    3    0    0 -0.10142899022E+02  0.95961916973E+00 -0.33550241439E+02  0.35063057057E+02  0.00000000000E+00 0. -1.
</event>
<event>
 7    1  0.6078244E-006  0.1132422E+03  0.7818608E-02  0.1334544E+00
          2   -1    0    0  502    0  0.00000000000E+00  0.00000000000E+00  0.43307036869E+03  0.43307036869E+03  0.00000000000E+00 0. -1.
          1   -1    0    0  501    0 -0.00000000000E+00 -0.00000000000E+00 -0.56157698536E+03  0.56157698536E+03  0.00000000000E+00 0. -1.
         25    2    1    2    0    0 -0.11595444972E+03  0.73985701833E+02  0.25396324743E+03  0.31470895441E+03  0.12500030582E+03 0.  0.
          2    1    1    2  501    0  0.11108717388E+03 -0.20348401926E+02 -0.52006088047E+03  0.53218205255E+03  0.00000000000E+00 0. -1.
          1    1    1    2  502    0  0.48672758438E+01 -0.53637299906E+02  0.13759101637E+03  0.14775634708E+03  0.00000000000E+00 0. -1.
         22    1    3    3    0    0 -0.67132967999E+02 -0.26910444861E+02  0.80876846489E+02  0.10849917849E+03  0.00000000000E+00 0. -1.
         22    1    3    3    0    0 -0.48821481725E+02  0.10089614669E+03  0.17308640094E+03  0.20620977592E+03  0.00000000000E+00 0. -1.
</event>
<event>
 7    1  0.6078244E-006  0.1143518E+03  0.7818608E-02  0.1445283E+00
          2   -1    0    0  502    0  0.00000000000E+00  0.00000000000E+00  0.54792527017E+03  0.54792527017E+03  0.00000000000E+00 0. -1.
          1   -1    0    0  501    0 -0.00000000000E+00 -0.00000000000E+00 -0.54414343088E+03  0.54414343088E+03  0.00000000000E+00 0. -1.
         25    2    1    2    0    0 -0.54548115691E+02 -0.10594990722E+03  0.13982242336E+03  0.22220795703E+03  0.12500074531E+03 0.  0.
          2    1    1    2  501    0 -0.14926629680E+02  0.15986630008E+02 -0.49389949276E+03  0.49438354095E+03  0.00000000000E+00 0. -1.
          1    1    1    2  502    0  0.69474745371E+02  0.89963277214E+02  0.35785890870E+03  0.37547720307E+03  0.00000000000E+00 0. -1.
         22    1    3    3    0    0 -0.80741883701E+02 -0.60736016487E+02  0.13653322068E+03  0.16985121675E+03  0.00000000000E+00 0.  1.
         22    1    3    3    0    0  0.26193768009E+02 -0.45213890734E+02  0.32892026731E+01  0.52356740273E+02  0.00000000000E+00 0.  1.
</event>
<event>
 7    1  0.6078244E-006  0.1811761E+03  0.7818608E-02  0.1284821E+00
          2   -1    0    0  502    0  0.00000000000E+00  0.00000000000E+00  0.32604698822E+04  0.32604698822E+04  0.00000000000E+00 0. -1.
          1   -1    0    0  501    0 -0.00000000000E+00 -0.00000000000E+00 -0.76204161586E+03  0.76204161586E+03  0.00000000000E+00 0. -1.
         25    2    1    2    0    0 -0.12349153243E+03  0.48453050907E+02  0.19347825784E+03  0.26580843635E+03  0.12498972701E+03 0.  0.
          2    1    1    2  501    0  0.16428782204E+03 -0.82094439065E+02 -0.71402431111E+03  0.73726569312E+03  0.00000000000E+00 0. -1.
          1    1    1    2  502    0 -0.40796289609E+02  0.33641388158E+02  0.30189743196E+04  0.30194373686E+04  0.00000000000E+00 0. -1.
         22    1    3    3    0    0  0.25700062645E+02  0.73200953119E+01  0.37839111706E+02  0.46323594313E+02  0.00000000000E+00 0.  1.
         22    1    3    3    0    0 -0.14919159508E+03  0.41132955595E+02  0.15563914613E+03  0.21948484204E+03  0.00000000000E+00 0.  1.
</event>
<event>
 7    1  0.6078244E-006  0.1827528E+03  0.7818608E-02  0.1272609E+00
          2   -1    0    0  502    0  0.00000000000E+00  0.00000000000E+00  0.48241823428E+03  0.48241823428E+03  0.00000000000E+00 0. -1.
          1   -1    0    0  501    0 -0.00000000000E+00 -0.00000000000E+00 -0.69725524129E+03  0.69725524129E+03  0.00000000000E+00 0. -1.
         25    2    1    2    0    0 -0.79817834404E+02 -0.97188580601E+02  0.36649750290E+03  0.40713942399E+03  0.12500233617E+03 0.  0.
          2    1    1    2  501    0  0.11565698722E+03  0.14392465948E+03 -0.65367464453E+03  0.67925060706E+03  0.00000000000E+00 0. -1.
          1    1    1    2  502    0 -0.35839152815E+02 -0.46736078882E+02  0.72340134623E+02  0.93283444518E+02  0.00000000000E+00 0. -1.
         22    1    3    3    0    0 -0.10253137469E+03 -0.45670336028E+02  0.29820935814E+03  0.31863346288E+03  0.00000000000E+00 0. -1.
         22    1    3    3    0    0  0.22713540286E+02 -0.51518244573E+02  0.68288144759E+02  0.88505961103E+02  0.00000000000E+00 0. -1.
</event>
<event>
 7    1  0.6078244E-006  0.1722495E+03  0.7818608E-02  0.1317554E+00
          2   -1    0    0  502    0  0.00000000000E+00  0.00000000000E+00  0.46414331430E+03  0.46414331430E+03  0.00000000000E+00 0. -1.
          1   -1    0    0  501    0 -0.00000000000E+00 -0.00000000000E+00 -0.78326851761E+03  0.78326851761E+03  0.00000000000E+00 0. -1.
         25    2    1    2    0    0 -0.87667583430E+02 -0.14643945354E+03  0.13604598970E+03  0.25152356228E+03  0.12500188930E+03 0.  0.
          2    1    1    2  501    0  0.50890470409E+02  0.16490618492E+03 -0.71361585935E+03  0.73418763577E+03  0.00000000000E+00 0. -1.
          1    1    1    2  502    0  0.36777113021E+02 -0.18466731382E+02  0.25844466633E+03  0.26170063386E+03  0.00000000000E+00 0. -1.
         22    1    3    3    0    0 -0.33317386129E+02 -0.14551768355E+02 -0.18848033470E+02  0.40951807608E+02  0.00000000000E+00 0.  1.
         22    1    3    3    0    0 -0.54350197302E+02 -0.13188768519E+03  0.15489402317E+03  0.21057175467E+03  0.00000000000E+00 0.  1.
</event>
<event>
 7    1  0.6078244E-006  0.1208779E+03  0.7818608E-02  0.1406783E+00
          2   -1    0    0  502    0  0.00000000000E+00  0.00000000000E+00  0.66769842096E+03  0.66769842096E+03  0.00000000000E+00 0. -1.
          1   -1    0    0  501    0 -0.00000000000E+00 -0.00000000000E+00 -0.82565217417E+03  0.82565217417E+03  0.00000000000E+00 0. -1.
         25    2    1    2    0    0 -0.12133063906E+03  0.72994408317E+02  0.28251215044E+03  0.33983470275E+03  0.12500080972E+03 0.  0.
          2    1    1    2  501    0  0.21218222044E+02 -0.17885976625E+02 -0.78758278811E+03  0.78807155083E+03  0.00000000000E+00 0. -1.
          1    1    1    2  502    0  0.10011241702E+03 -0.55108431692E+02  0.34711688446E+03  0.36544434154E+03  0.00000000000E+00 0. -1.
         22    1    3    3    0    0 -0.32570404712E+02  0.73044233104E+02  0.21165250242E+03  0.22625886289E+03  0.00000000000E+00 0.  1.
         22    1    3    3    0    0 -0.88760234353E+02 -0.49824786747E-01  0.70859648011E+02  0.11357583987E+03  0.00000000000E+00 0.  1.
</event>
<event>
 7    1  0.6078244E-006  0.1561110E+03  0.7818608E-02  0.1291574E+00
          2   -1    0    0  502    0  0.00000000000E+00  0.00000000000E+00  0.17720092377E+04  0.17720092377E+04  0.00000000000E+00 0. -1.
          1   -1    0    0  501    0 -0.00000000000E+00 -0.00000000000E+00 -0.99727998151E+03  0.99727998151E+03  0.00000000000E+00 0. -1.
         25    2    1    2    0    0  0.98318465129E+02 -0.68679643873E+02 -0.11634148492E+03  0.20867010067E+03  0.12499782291E+03 0.  0.
          2    1    1    2  501    0 -0.46999081425E+01 -0.57404774755E+02 -0.83020193659E+03  0.83219748426E+03  0.00000000000E+00 0. -1.
          1    1    1    2  502    0 -0.93618556986E+02  0.12608441863E+03  0.17212726777E+04  0.17284216343E+04  0.00000000000E+00 0. -1.
         22    1    3    3    0    0  0.13621512961E+02 -0.85668494761E+02 -0.54762444875E+02  0.10258441392E+03  0.00000000000E+00 0. -1.
         22    1    3    3    0    0  0.84696952168E+02  0.16988850888E+02 -0.61579040046E+02  0.10608568675E+03  0.00000000000E+00 0. -1.
</event>
<event>
 7    1  0.6078244E-006  0.7787322E+02  0.7818608E-02  0.1416875E+00
          2   -1    0    0  502    0  0.00000000000E+00  0.00000000000E+00  0.10204328316E+03  0.10204328316E+03  0.00000000000E+00 0. -1.
          1   -1    0    0  501    0 -0.00000000000E+00 -0.00000000000E+00 -0.97001754274E+03  0.97001754274E+03  0.00000000000E+00 0. -1.
         25    2    1    2    0    0  0.54752884272E+02 -0.26036718611E+02 -0.42418263218E+03  0.44635417825E+03  0.12500143175E+03 0.  0.
          2    1    1    2  501    0 -0.53185481525E+02  0.65828476135E+02 -0.52684540835E+03  0.53359925789E+03  0.00000000000E+00 0. -1.
          1    1    1    2  502    0 -0.15674027466E+01 -0.39791757525E+02  0.83053780954E+02  0.92107389764E+02  0.00000000000E+00 0. -1.
         22    1    3    3    0    0 -0.38389757861E+02 -0.10919871304E+02 -0.79051480950E+02  0.88555935647E+02  0.00000000000E+00 0.  1.
         22    1    3    3    0    0  0.93142642133E+02 -0.15116847307E+02 -0.34513115123E+03  0.35779824260E+03  0.00000000000E+00 0.  1.
</event>
<event>
 7    1  0.6078244E-006  0.1082279E+03  0.7818608E-02  0.1310596E+00
          2   -1    0    0  502    0  0.00000000000E+00  0.00000000000E+00  0.11077012366E+04  0.11077012366E+04  0.00000000000E+00 0. -1.
          1   -1    0    0  501    0 -0.00000000000E+00 -0.00000000000E+00 -0.50828925164E+03  0.50828925164E+03  0.00000000000E+00 0. -1.
         25    2    1    2    0    0 -0.97543589411E+01 -0.75875926505E+02 -0.17468967555E+02  0.14758991879E+03  0.12500126223E+03 0.  0.
          2    1    1    2  501    0  0.67455491042E+02 -0.17695489449E+02 -0.41997877163E+03  0.42572942374E+03  0.00000000000E+00 0. -1.
          1    1    1    2  502    0 -0.57701132101E+02  0.93571415954E+02  0.10368597241E+04  0.10426711457E+04  0.00000000000E+00 0. -1.
         22    1    3    3    0    0 -0.44544584009E+02 -0.37339770092E+02 -0.57706399687E+02  0.81905475763E+02  0.00000000000E+00 0.  1.
         22    1    3    3    0    0  0.34790225068E+02 -0.38536156412E+02  0.40237432132E+02  0.65684443028E+02  0.00000000000E+00 0.  1.
</event>
<event>
 7    1  0.6078244E-006  0.2824056E+03  0.7818608E-02  0.1225105E+00
          2   -1    0    0  502    0  0.00000000000E+00  0.00000000000E+00  0.34297991410E+03  0.34297991410E+03  0.00000000000E+00 0. -1.
          1   -1    0    0  501    0 -0.00000000000E+00 -0.00000000000E+00 -0.38369691066E+04  0.38369691066E+04  0.00000000000E+00 0. -1.
         25    2    1    2    0    0  0.34145966047E+02 -0.27266321380E+03 -0.60129651276E+03  0.67282482717E+03  0.12499830653E+03 0.  0.
          2    1    1    2  501    0  0.61091089703E+02  0.53231442421E+01 -0.31340035241E+04  0.31346034113E+04  0.00000000000E+00 0. -1.
          1    1    1    2  502    0 -0.95237055750E+02  0.26734006956E+03  0.24131084437E+03  0.37252078222E+03  0.00000000000E+00 0. -1.
         22    1    3    3    0    0  0.36591095702E+02 -0.15874071337E+03 -0.47771839747E+03  0.50473001659E+03  0.00000000000E+00 0. -1.
         22    1    3    3    0    0 -0.24451296554E+01 -0.11392250043E+03 -0.12357811529E+03  0.16809481058E+03  0.00000000000E+00 0. -1.
</event>
<event>
 7    1  0.6078244E-006  0.4028057E+02  0.7818608E-02  0.1512838E+00
          2   -1    0    0  502    0  0.00000000000E+00  0.00000000000E+00  0.31688189669E+03  0.31688189669E+03  0.00000000000E+00 0. -1.
          1   -1    0    0  501    0 -0.00000000000E+00 -0.00000000000E+00 -0.84869117497E+03  0.84869117497E+03  0.00000000000E+00 0. -1.
         25    2    1    2    0    0 -0.35229057876E+02 -0.68338712055E+02 -0.32877084348E+03  0.36003725546E+03  0.12500116684E+03 0.  0.
          2    1    1    2  501    0  0.19896878272E+02  0.33027644294E+02 -0.50231542242E+03  0.50379310699E+03  0.00000000000E+00 0. -1.
          1    1    1    2  502    0  0.15332179604E+02  0.35311067762E+02  0.29927698762E+03  0.30174270921E+03  0.00000000000E+00 0. -1.
         22    1    3    3    0    0  0.33736296087E+01  0.17836110440E+02 -0.19750242469E+03  0.19833485819E+03  0.00000000000E+00 0. -1.
         22    1    3    3    0    0 -0.38602687485E+02 -0.86174822495E+02 -0.13126841879E+03  0.16170239728E+03  0.00000000000E+00 0. -1.
</event>
<event>
 7    1  0.6078244E-006  0.6538890E+02  0.7818608E-02  0.1433211E+00
          2   -1    0    0  502    0  0.00000000000E+00  0.00000000000E+00  0.47745382541E+03  0.47745382541E+03  0.00000000000E+00 0. -1.
          1   -1    0    0  501    0 -0.00000000000E+00 -0.00000000000E+00 -0.38034523408E+03  0.38034523408E+03  0.00000000000E+00 0. -1.
         25    2    1    2    0    0  0.91772155966E+00 -0.84182835924E+02  0.18858774659E+02  0.15188369856E+03  0.12500164970E+03 0.  0.
          2    1    1    2  501    0  0.31367774010E+02  0.27725247021E+02 -0.30971774058E+03  0.31253432675E+03  0.00000000000E+00 0. -1.
          1    1    1    2  502    0 -0.32285495570E+02  0.56457588903E+02  0.38796755726E+03  0.39338103418E+03  0.00000000000E+00 0. -1.
         22    1    3    3    0    0  0.44012469791E+02 -0.47416915859E+02  0.54809893244E+02  0.84791425298E+02  0.00000000000E+00 0.  1.
         22    1    3    3    0    0 -0.43094748232E+02 -0.36765920065E+02 -0.35951118584E+02  0.67092273257E+02  0.00000000000E+00 0.  1.
</event>
<event>
 7    1  0.6078244E-006  0.1304745E+03  0.7818608E-02  0.1407024E+00
          2   -1    0    0  502    0  0.00000000000E+00  0.00000000000E+00  0.96088998216E+03  0.96088998216E+03  0.00000000000E+00 0. -1.
          1   -1    0    0  501    0 -0.00000000000E+00 -0.00000000000E+00 -0.22372956923E+03  0.22372956923E+03  0.00000000000E+00 0. -1.
         25    2    1    2    0    0 -0.10901996598E+03 -0.17945972282E+02  0.70837614208E+03  0.72775674213E+03  0.12500282455E+03 0.  0.
          2    1    1    2  501    0  0.12556057887E+03  0.37565061985E+02 -0.19316805373E+03  0.23343198117E+03  0.00000000000E+00 0. -1.
          1    1    1    2  502    0 -0.16540612894E+02 -0.19619089703E+02  0.22195232459E+03  0.22343082810E+03  0.00000000000E+00 0. -1.
         22    1    3    3    0    0 -0.78140002137E+02  0.22624096923E+02  0.62319990344E+03  0.62848693650E+03  0.00000000000E+00 0.  1.
         22    1    3    3    0    0 -0.30879963841E+02 -0.40570069205E+02  0.85176238632E+02  0.99269805629E+02  0.00000000000E+00 0.  1.
</event>
<event>
 7    1  0.6078244E-006  0.1208769E+03  0.7818608E-02  0.1247177E+00
          2   -1    0    0  502    0  0.00000000000E+00  0.00000000000E+00  0.78443248790E+03  0.78443248790E+03  0.00000000000E+00 0. -1.
          1   -1    0    0  501    0 -0.00000000000E+00 -0.00000000000E+00 -0.42830225328E+03  0.42830225328E+03  0.00000000000E+00 0. -1.
         25    2    1    2    0    0 -0.98838037971E-01 -0.11982759476E+01  0.13423586741E+03  0.18342697060E+03  0.12499895923E+03 0.  0.
          2    1    1    2  501    0 -0.11965063531E+03  0.17668962784E+02 -0.38858694115E+03  0.40697454172E+03  0.00000000000E+00 0. -1.
          1    1    1    2  502    0  0.11974947335E+03 -0.16470686836E+02  0.61048130836E+03  0.62233322886E+03  0.00000000000E+00 0. -1.
         22    1    3    3    0    0  0.34628516906E+02 -0.34569440127E+02  0.96731176702E+01  0.49877345351E+02  0.00000000000E+00 0.  1.
         22    1    3    3    0    0 -0.34727354944E+02  0.33371164179E+02  0.12456274974E+03  0.13354962525E+03  0.00000000000E+00 0.  1.
</event>
<event>
 7    1  0.6078244E-006  0.8675796E+02  0.7818608E-02  0.1393633E+00
          2   -1    0    0  502    0  0.00000000000E+00  0.00000000000E+00  0.66241075449E+03  0.66241075449E+03  0.00000000000E+00 0. -1.
          1   -1    0    0  501    0 -0.00000000000E+00 -0.00000000000E+00 -0.10142027055E+04  0.10142027055E+04  0.00000000000E+00 0. -1.
         25    2    1    2    0    0  0.82001897412E+02 -0.23318577524E+02  0.70611907640E+01  0.15146760858E+03  0.12499803517E+03 0.  0.
          2    1    1    2  501    0  0.30806760454E+01  0.42795619042E+02 -0.93824039518E+03  0.93922095096E+03  0.00000000000E+00 0. -1.
          1    1    1    2  502    0 -0.85082573457E+02 -0.19477041517E+02  0.57938725345E+03  0.58592490041E+03  0.00000000000E+00 0. -1.
         22    1    3    3    0    0  0.11347370015E+03 -0.32476017794E+02  0.44952756252E+00  0.11803039622E+03  0.00000000000E+00 0.  1.
         22    1    3    3    0    0 -0.31471802739E+02  0.91574402695E+01  0.66116632015E+01  0.33437212357E+02  0.00000000000E+00 0.  1.
</event>
<event>
 7    1  0.6078244E-006  0.9657818E+02  0.7818608E-02  0.1371582E+00
          2   -1    0    0  502    0  0.00000000000E+00  0.00000000000E+00  0.21481552547E+04  0.21481552547E+04  0.00000000000E+00 0. -1.
          1   -1    0    0  501    0 -0.00000000000E+00 -0.00000000000E+00 -0.11798826604E+04  0.11798826604E+04  0.00000000000E+00 0. -1.
         25    2    1    2    0    0  0.48658445546E+02  0.35825937195E+02  0.14959987867E+02  0.13964294817E+03  0.12500083854E+03 0.  0.
          2    1    1    2  501    0  0.45077095645E+02 -0.96841057430E+01 -0.11159216761E+04  0.11168737233E+04  0.00000000000E+00 0. -1.
          1    1    1    2  502    0 -0.93735541190E+02 -0.26141831452E+02  0.20692342825E+04  0.20715212437E+04  0.00000000000E+00 0. -1.
         22    1    3    3    0    0 -0.30433257215E+02  0.45914275952E+02  0.22610119023E+02  0.59544280692E+02  0.00000000000E+00 0. -1.
         22    1    3    3    0    0  0.79091702761E+02 -0.10088338757E+02 -0.76501311559E+01  0.80098667474E+02  0.00000000000E+00 0. -1.
</event>
<event>
 7    1  0.6078244E-006  0.4689019E+02  0.7818608E-02  0.1463205E+00
          2   -1    0    0  502    0  0.00000000000E+00  0.00000000000E+00  0.16461671789E+03  0.16461671789E+03  0.00000000000E+00 0. -1.
          1   -1    0    0  501    0 -0.00000000000E+00 -0.00000000000E+00 -0.12976646956E+03  0.12976646956E+03  0.00000000000E+00 0. -1.
         25    2    1    2    0    0  0.10146725613E+02  0.17200481184E+02  0.39142373085E+02  0.13249846287E+03  0.12499961880E+03 0.  0.
          2    1    1    2  501    0 -0.34401131303E+02  0.31863018901E+02 -0.64999823325E+02  0.80147781258E+02  0.00000000000E+00 0. -1.
          1    1    1    2  502    0  0.24254405689E+02 -0.49063500084E+02  0.60707698570E+02  0.81736943309E+02  0.00000000000E+00 0. -1.
         22    1    3    3    0    0  0.42633431604E+02 -0.25760160482E+01  0.71019440676E+02  0.82873435447E+02  0.00000000000E+00 0. -1.
         22    1    3    3    0    0 -0.32486705990E+02  0.19776497232E+02 -0.31877067591E+02  0.49625027426E+02  0.00000000000E+00 0. -1.
</event>
<event>
 7    1  0.6078244E-006  0.6537885E+02  0.7818608E-02  0.1467081E+00
          2   -1    0    0  502    0  0.00000000000E+00  0.00000000000E+00  0.14655612370E+03  0.14655612370E+03  0.00000000000E+00 0. -1.
          1   -1    0    0  501    0 -0.00000000000E+00 -0.00000000000E+00 -0.43164338669E+03  0.43164338669E+03  0.00000000000E+00 0. -1.
         25    2    1    2    0    0  0.70288148032E+02 -0.10187553821E+02 -0.10235329365E+03  0.17647906170E+03  0.12499780995E+03 0.  0.
          2    1    1    2  501    0 -0.53340404499E+02  0.38065399019E+02 -0.28600623646E+03  0.29341734892E+03  0.00000000000E+00 0. -1.
          1    1    1    2  502    0 -0.16947743533E+02 -0.27877845199E+02  0.10327226711E+03  0.10830309976E+03  0.00000000000E+00 0. -1.
         22    1    3    3    0    0  0.84186805765E+02 -0.32829609179E+02 -0.23639343732E+02  0.93402462900E+02  0.00000000000E+00 0. -1.
         22    1    3    3    0    0 -0.13898657733E+02  0.22642055359E+02 -0.78713949913E+02  0.83076598802E+02  0.00000000000E+00 0. -1.
</event>
<event>
 7    1  0.6078244E-006  0.4699808E+02  0.7818608E-02  0.1533367E+00
          2   -1    0    0  502    0  0.00000000000E+00  0.00000000000E+00  0.11365074136E+04  0.11365074136E+04  0.00000000000E+00 0. -1.
          1   -1    0    0  501    0 -0.00000000000E+00 -0.00000000000E+00 -0.69357024170E+02  0.69357024170E+02  0.00000000000E+00 0. -1.
         25    2    1    2    0    0 -0.52452046510E+02 -0.65057163629E+01  0.58734887887E+03  0.60282373139E+03  0.12499681633E+03 0.  0.
          2    1    1    2  501    0  0.16230251215E+02 -0.23764737284E+02 -0.57166646553E+02  0.64001634907E+02  0.00000000000E+00 0. -1.
          1    1    1    2  502    0  0.36221795295E+02  0.30270453647E+02  0.53696815711E+03  0.53903907146E+03  0.00000000000E+00 0. -1.
         22    1    3    3    0    0 -0.88497524312E+02  0.15552498433E+02  0.45851027786E+03  0.46723159881E+03  0.00000000000E+00 0. -1.
         22    1    3    3    0    0  0.36045477803E+02 -0.22058214796E+02  0.12883860101E+03  0.13559213259E+03  0.00000000000E+00 0. -1.
</event>
<event>
 7    1  0.6078244E-006  0.8182940E+02  0.7818608E-02  0.1341721E+00
          2   -1    0    0  502    0  0.00000000000E+00  0.00000000000E+00  0.15670221528E+04  0.15670221528E+04  0.00000000000E+00 0. -1.
          1   -1    0    0  501    0 -0.00000000000E+00 -0.00000000000E+00 -0.47484996924E+03  0.47484996924E+03  0.00000000000E+00 0. -1.
         25    2    1    2    0    0  0.73358971597E+02 -0.85956807868E+02  0.26013760504E+02  0.17050402160E+03  0.12499917644E+03 0.  0.
          2    1    1    2  501    0 -0.79844335792E+02  0.16230193132E+02 -0.39763696279E+03  0.40589862196E+03  0.00000000000E+00 0. -1.
          1    1    1    2  502    0  0.64853641950E+01  0.69726614737E+02  0.14637953859E+04  0.14654694785E+04  0.00000000000E+00 0. -1.
         22    1    3    3    0    0 -0.31366005288E+02 -0.18937546785E+02 -0.14984304693E+02  0.39585178453E+02  0.00000000000E+00 0.  1.
         22    1    3    3    0    0  0.10472497689E+03 -0.67019261083E+02  0.40998065197E+02  0.13091884314E+03  0.00000000000E+00 0.  1.
</event>
<event>
 7    1  0.6078244E-006  0.2068494E+03  0.7818608E-02  0.1188574E+00
          2   -1    0    0  502    0  0.00000000000E+00  0.00000000000E+00  0.17729950274E+03  0.17729950274E+03  0.00000000000E+00 0. -1.
          1   -1    0    0  501    0 -0.00000000000E+00 -0.00000000000E+00 -0.88479502374E+03  0.88479502374E+03  0.00000000000E+00 0. -1.
         25    2    1    2    0    0 -0.83523836457E+02 -0.16731919007E+03 -0.18090815433E+03  0.28866027794E+03  0.12500021254E+03 0.  0.
          2    1    1    2  501    0  0.10960643203E+03 -0.57836434276E+02 -0.53246473687E+03  0.54669673411E+03  0.00000000000E+00 0. -1.
          1    1    1    2  502    0 -0.26082595570E+02  0.22515562435E+03  0.58773702060E+01  0.22673751443E+03  0.00000000000E+00 0. -1.
         22    1    3    3    0    0  0.17454300262E+02 -0.91568725575E+02 -0.10884422915E+03  0.14330579304E+03  0.00000000000E+00 0.  1.
         22    1    3    3    0    0 -0.10097813672E+03 -0.75750464500E+02 -0.72063925185E+02  0.14535448490E+03  0.00000000000E+00 0.  1.
</event>
<event>
 7    1  0.6078244E-006  0.9295184E+02  0.7818608E-02  0.1320051E+00
          2   -1    0    0  502    0  0.00000000000E+00  0.00000000000E+00  0.37058252918E+03  0.37058252918E+03  0.00000000000E+00 0. -1.
          1   -1    0    0  501    0 -0.00000000000E+00 -0.00000000000E+00 -0.62823470140E+03  0.62823470140E+03  0.00000000000E+00 0. -1.
         25    2    1    2    0    0  0.94329321083E+01  0.13724373249E+03  0.71235873451E+02  0.19906017061E+03  0.12500231815E+03 0.  0.
          2    1    1    2  501    0 -0.52101187171E+02 -0.76079964502E+02 -0.55451255024E+03  0.56212708801E+03  0.00000000000E+00 0. -1.
          1    1    1    2  502    0  0.42668255063E+02 -0.61163767985E+02  0.22562450457E+03  0.23762997195E+03  0.00000000000E+00 0. -1.
         22    1    3    3    0    0  0.43537232793E+01  0.15955939124E+03  0.48558753889E+02  0.16684156202E+03  0.00000000000E+00 0.  1.
         22    1    3    3    0    0  0.50792088290E+01 -0.22315658753E+02  0.22677119562E+02  0.32218608591E+02  0.00000000000E+00 0.  1.
</event>
<event>
 7    1  0.6078244E-006  0.1126108E+03  0.7818608E-02  0.1284032E+00
          2   -1    0    0  502    0  0.00000000000E+00  0.00000000000E+00  0.31429917466E+04  0.31429917466E+04  0.00000000000E+00 0. -1.
          1   -1    0    0  501    0 -0.00000000000E+00 -0.00000000000E+00 -0.22992654728E+04  0.22992654728E+04  0.00000000000E+00 0. -1.
         25    2    1    2    0    0  0.18589301990E+03 -0.40453902058E+02 -0.57499426045E+03  0.61841515676E+03  0.12500469396E+03 0.  0.
          2    1    1    2  501    0 -0.10641663293E+03  0.83628788948E+01 -0.17002983309E+04  0.17036457529E+04  0.00000000000E+00 0. -1.
          1    1    1    2  502    0 -0.79476386977E+02  0.32091023163E+02  0.31190188651E+04  0.31201963096E+04  0.00000000000E+00 0. -1.
         22    1    3    3    0    0  0.83663153676E+02  0.26614997583E+02 -0.36508745426E+03  0.37549531373E+03  0.00000000000E+00 0. -1.
         22    1    3    3    0    0  0.10222986623E+03 -0.67068899641E+02 -0.20990680620E+03  0.24291984303E+03  0.00000000000E+00 0. -1.
</event>
<event>
 7    1  0.6078244E-006  0.5194273E+02  0.7818608E-02  0.1438362E+00
          2   -1    0    0  502    0  0.00000000000E+00  0.00000000000E+00  0.42203240947E+03  0.42203240947E+03  0.00000000000E+00 0. -1.
          1   -1    0    0  501    0 -0.00000000000E+00 -0.00000000000E+00 -0.28297104854E+03  0.28297104854E+03  0.00000000000E+00 0. -1.
         25    2    1    2    0    0 -0.22262289743E+02  0.27341219760E+02  0.53382551840E+02  0.14042210064E+03  0.12500207064E+03 0.  0.
          2    1    1    2  501    0 -0.29823088618E+02 -0.41000908621E+02 -0.23449390155E+03  0.23991223600E+03  0.00000000000E+00 0. -1.
          1    1    1    2  502    0  0.52085378362E+02  0.13659688860E+02  0.32017271063E+03  0.32466912137E+03  0.00000000000E+00 0. -1.
         22    1    3    3    0    0  0.15962023417E+02  0.20319515831E+02 -0.35213493382E+02  0.43676756191E+02  0.00000000000E+00 0.  1.
         22    1    3    3    0    0 -0.38224313160E+02  0.70217039288E+01  0.88596045222E+02  0.96745344444E+02  0.00000000000E+00 0.  1.
</event>
<event>
 7    1  0.6078244E-006  0.9497913E+02  0.7818608E-02  0.1364913E+00
          2   -1    0    0  502    0  0.00000000000E+00  0.00000000000E+00  0.30191090858E+03  0.30191090858E+03  0.00000000000E+00 0. -1.
          1   -1    0    0  501    0 -0.00000000000E+00 -0.00000000000E+00 -0.24946514454E+04  0.24946514454E+04  0.00000000000E+00 0. -1.
         25    2    1    2    0    0  0.10898419020E+03  0.34117985831E+02  0.18307870251E+03  0.24936794293E+03  0.12499987591E+03 0.  0.
          2    1    1    2  501    0 -0.23641829559E+02 -0.43545937292E+02 -0.24396829665E+04  0.24401860916E+04  0.00000000000E+00 0. -1.
          1    1    1    2  502    0 -0.85342360643E+02  0.94279514607E+01  0.63863727134E+02  0.10700831945E+03  0.00000000000E+00 0. -1.
         22    1    3    3    0    0  0.10824179396E+03  0.43346083614E+02  0.19917800851E+03  0.23079655110E+03  0.00000000000E+00 0. -1.
         22    1    3    3    0    0  0.74239623997E+00 -0.92280977832E+01 -0.16099306000E+02  0.18571391832E+02  0.00000000000E+00 0. -1.
</event>
<event>
 7    1  0.6078244E-006  0.6926417E+02  0.7818608E-02  0.1413317E+00
          2   -1    0    0  502    0  0.00000000000E+00  0.00000000000E+00  0.69586764330E+03  0.69586764330E+03  0.00000000000E+00 0. -1.
          1   -1    0    0  501    0 -0.00000000000E+00 -0.00000000000E+00 -0.33262593190E+03  0.33262593190E+03  0.00000000000E+00 0. -1.
         25    2    1    2    0    0  0.24309462770E+02 -0.91172853883E+02 -0.19687973276E+03  0.25157457132E+03  0.12499878599E+03 0.  0.
          2    1    1    2  501    0 -0.39449866305E+02  0.23702949356E+02 -0.10162975599E+03  0.11156490964E+03  0.00000000000E+00 0. -1.
          1    1    1    2  502    0  0.15140403535E+02  0.67469904527E+02  0.66175120015E+03  0.66535409425E+03  0.00000000000E+00 0. -1.
         22    1    3    3    0    0 -0.13422349186E+02 -0.17297237183E+02 -0.15879316137E+03  0.16029542093E+03  0.00000000000E+00 0. -1.
         22    1    3    3    0    0  0.37731811956E+02 -0.73875616701E+02 -0.38086571384E+02  0.91279150392E+02  0.00000000000E+00 0. -1.
</event>
<event>
 7    1  0.6078244E-006  0.7929599E+02  0.7818608E-02  0.1469904E+00
          2   -1    0    0  502    0  0.00000000000E+00  0.00000000000E+00  0.78798981686E+03  0.78798981686E+03  0.00000000000E+00 0. -1.
          1   -1    0    0  501    0 -0.00000000000E+00 -0.00000000000E+00 -0.13483729720E+03  0.13483729720E+03  0.00000000000E+00 0. -1.
         25    2    1    2    0    0 -0.31618915329E+02  0.45237392714E+02  0.16458663702E+03  0.21392082479E+03  0.12500872245E+03 0.  0.
          2    1    1    2  501    0  0.42266960519E+02 -0.69350434502E+02 -0.94864385093E+02  0.12488086433E+03  0.00000000000E+00 0. -1.
          1    1    1    2  502    0 -0.10648045191E+02  0.24113041788E+02  0.58343026774E+03  0.58402542493E+03  0.00000000000E+00 0. -1.
         22    1    3    3    0    0 -0.53899862830E+02 -0.36100554253E+01  0.16627167929E+02  0.56521592570E+02  0.00000000000E+00 0.  1.
         22    1    3    3    0    0  0.22280947501E+02  0.48847448140E+02  0.14795946909E+03  0.15739923222E+03  0.00000000000E+00 0.  1.
</event>
<event>
 7    1  0.6078244E-006  0.2346413E+03  0.7818608E-02  0.1165110E+00
          2   -1    0    0  502    0  0.00000000000E+00  0.00000000000E+00  0.18203587901E+04  0.18203587901E+04  0.00000000000E+00 0. -1.
          1   -1    0    0  501    0 -0.00000000000E+00 -0.00000000000E+00 -0.33299799753E+03  0.33299799753E+03  0.00000000000E+00 0. -1.
         25    2    1    2    0    0 -0.89710134451E+02  0.19478465895E+03  0.56415115783E+02  0.25455204448E+03  0.12500042591E+03 0.  0.
          2    1    1    2  501    0 -0.40347318702E+02 -0.25284858260E+03 -0.15971720345E+03  0.30177789337E+03  0.00000000000E+00 0. -1.
          1    1    1    2  502    0  0.13005745315E+03  0.58063923653E+02  0.15906628803E+04  0.15970268498E+04  0.00000000000E+00 0. -1.
         22    1    3    3    0    0  0.16229840017E+02  0.22242448017E+01 -0.16247866842E+02  0.23072671038E+02  0.00000000000E+00 0.  1.
         22    1    3    3    0    0 -0.10593997447E+03  0.19256041414E+03  0.72662982624E+02  0.23147937344E+03  0.00000000000E+00 0.  1.
</event>
<event>
 7    1  0.6078244E-006  0.1387464E+03  0.7818608E-02  0.1220995E+00
          2   -1    0    0  502    0  0.00000000000E+00  0.00000000000E+00  0.37080790480E+04  0.37080790480E+04  0.00000000000E+00 0. -1.
          1   -1    0    0  501    0 -0.00000000000E+00 -0.00000000000E+00 -0.74461476319E+03  0.74461476319E+03  0.00000000000E+00 0. -1.
         25    2    1    2    0    0  0.90683604390E+02  0.13612057864E+03  0.80290605124E+03  0.82887558886E+03  0.12499714653E+03 0.  0.
          2    1    1    2  501    0 -0.13822747915E+03 -0.14813894749E+02 -0.72354210354E+03  0.73677639963E+03  0.00000000000E+00 0. -1.
          1    1    1    2  502    0  0.47543874762E+02 -0.12130668390E+03  0.28841003371E+04  0.28870418227E+04  0.00000000000E+00 0. -1.
         22    1    3    3    0    0 -0.21120664358E+02  0.23489551191E+02  0.29666307309E+03  0.29834010863E+03  0.00000000000E+00 0.  1.
         22    1    3    3    0    0  0.11180426875E+03  0.11263102745E+03  0.50624297815E+03  0.53053548023E+03  0.00000000000E+00 0.  1.
</event>
<event>
 7    1  0.6078244E-006  0.4772457E+02  0.7818608E-02  0.1475235E+00
          2   -1    0    0  502    0  0.00000000000E+00  0.00000000000E+00  0.31547901034E+04  0.31547901034E+04  0.00000000000E+00 0. -1.
          1   -1    0    0  501    0 -0.00000000000E+00 -0.00000000000E+00 -0.59350510434E+02  0.59350510434E+02  0.00000000000E+00 0. -1.
         25    2    1    2    0    0  0.10007350233E+02  0.37122168663E+02  0.74939109230E+03  0.76071703663E+03  0.12500079257E+03 0.  0.
          2    1    1    2  501    0 -0.45773688928E+02 -0.14797059605E+02 -0.42687871638E+02  0.64315145619E+02  0.00000000000E+00 0. -1.
          1    1    1    2  502    0  0.35766338695E+02 -0.22325109057E+02  0.23887363723E+04  0.23891084316E+04  0.00000000000E+00 0. -1.
         22    1    3    3    0    0  0.25284584439E+02  0.34196210692E+02  0.74247816604E+03  0.74369517820E+03  0.00000000000E+00 0. -1.
         22    1    3    3    0    0 -0.15277234206E+02  0.29259579709E+01  0.69129262599E+01  0.17021858433E+02  0.00000000000E+00 0. -1.
</event>
<event>
 7    1  0.6078244E-006  0.4409154E+02  0.7818608E-02  0.1483023E+00
          2   -1    0    0  502    0  0.00000000000E+00  0.00000000000E+00  0.45202930213E+03  0.45202930213E+03  0.00000000000E+00 0. -1.
          1   -1    0    0  501    0 -0.00000000000E+00 -0.00000000000E+00 -0.41477054947E+03  0.41477054947E+03  0.00000000000E+00 0. -1.
         25    2    1    2    0    0 -0.55630902295E+02  0.19509909250E+02  0.94089258248E+02  0.16719180417E+03  0.12499950806E+03 0.  0.
          2    1    1    2  501    0  0.39126750111E+02  0.20403046326E+02 -0.37547029638E+03  0.37805440129E+03  0.00000000000E+00 0. -1.
          1    1    1    2  502    0  0.16504152184E+02 -0.39912955576E+02  0.31863979079E+03  0.32155364612E+03  0.00000000000E+00 0. -1.
         22    1    3    3    0    0 -0.19889678979E+02  0.24771257426E+02  0.11909254375E+03  0.12325683957E+03  0.00000000000E+00 0.  1.
         22    1    3    3    0    0 -0.35741223315E+02 -0.52613481759E+01 -0.25003285502E+02  0.43934964602E+02  0.00000000000E+00 0.  1.
</event>
<event>
 7    1  0.6078244E-006  0.1160520E+03  0.7818608E-02  0.1317553E+00
          2   -1    0    0  502    0  0.00000000000E+00  0.00000000000E+00  0.60364654424E+03  0.60364654424E+03  0.00000000000E+00 0. -1.
          1   -1    0    0  501    0 -0.00000000000E+00 -0.00000000000E+00 -0.33486758028E+03  0.33486758028E+03  0.00000000000E+00 0. -1.
         25    2    1    2    0    0  0.71196195408E+02  0.49507017436E+02  0.10099043947E+03  0.18260712782E+03  0.12500580487E+03 0.  0.
          2    1    1    2  501    0 -0.11894032674E+03 -0.11408323000E+02 -0.27976065968E+03  0.30420877349E+03  0.00000000000E+00 0. -1.
          1    1    1    2  502    0  0.47744131336E+02 -0.38098694436E+02  0.44754918418E+03  0.45169822321E+03  0.00000000000E+00 0. -1.
         22    1    3    3    0    0  0.48395012094E+02 -0.33546343845E+02  0.14704470185E+02  0.60693128313E+02  0.00000000000E+00 0. -1.
         22    1    3    3    0    0  0.22801183314E+02  0.83053361281E+02  0.86285969284E+02  0.12191399951E+03  0.00000000000E+00 0. -1.
</event>
<event>
 7    1  0.6078244E-006  0.3272392E+02  0.7818608E-02  0.1643939E+00
          2   -1    0    0  502    0  0.00000000000E+00  0.00000000000E+00  0.24322312917E+02  0.24322312917E+02  0.00000000000E+00 0. -1.
          1   -1    0    0  501    0 -0.00000000000E+00 -0.00000000000E+00 -0.17633674550E+04  0.17633674550E+04  0.00000000000E+00 0. -1.
         25    2    1    2    0    0  0.14162596588E+02  0.28776627618E+02 -0.37056827865E+03  0.39239544827E+03  0.12499866095E+03 0.  0.
          2    1    1    2  501    0 -0.20701477689E+02  0.36728676496E+01 -0.13612506225E+04  0.13614129786E+04  0.00000000000E+00 0. -1.
          1    1    1    2  502    0  0.65388811003E+01 -0.32449495268E+02 -0.72262408991E+01  0.33881340982E+02  0.00000000000E+00 0. -1.
         22    1    3    3    0    0  0.25235306737E+02  0.15769262034E+02 -0.99555897769E+01  0.31378401792E+02  0.00000000000E+00 0.  1.
         22    1    3    3    0    0 -0.11072710148E+02  0.13007365584E+02 -0.36061268888E+03  0.36101704648E+03  0.00000000000E+00 0.  1.
</event>
<event>
 7    1  0.6078244E-006  0.1303447E+03  0.7818608E-02  0.1293743E+00
          2   -1    0    0  502    0  0.00000000000E+00  0.00000000000E+00  0.36166181007E+03  0.36166181007E+03  0.00000000000E+00 0. -1.
          1   -1    0    0  501    0 -0.00000000000E+00 -0.00000000000E+00 -0.19825110396E+04  0.19825110396E+04  0.00000000000E+00 0. -1.
         25    2    1    2    0    0 -0.15094981858E+03  0.69215478159E+01 -0.32480169094E+03  0.37941505850E+03  0.12500357044E+03 0.  0.
          2    1    1    2  501    0  0.11335530179E+03 -0.63104672305E+02 -0.16243727208E+04  0.16295454459E+04  0.00000000000E+00 0. -1.
          1    1    1    2  502    0  0.37594516796E+02  0.56183124489E+02  0.32832518221E+03  0.33521234530E+03  0.00000000000E+00 0. -1.
         22    1    3    3    0    0  0.85256026332E+01 -0.30767178098E+02 -0.61284299844E+02  0.69101885327E+02  0.00000000000E+00 0. -1.
         22    1    3    3    0    0 -0.15947542122E+03  0.37688725914E+02 -0.26351739110E+03  0.31031317317E+03  0.00000000000E+00 0. -1.
</event>
<event>
 7    1  0.6078244E-006  0.9584155E+02  0.7818608E-02  0.1402996E+00
          2   -1    0    0  502    0  0.00000000000E+00  0.00000000000E+00  0.78938013145E+03  0.78938013145E+03  0.00000000000E+00 0. -1.
          1   -1    0    0  501    0 -0.00000000000E+00 -0.00000000000E+00 -0.68575925797E+03  0.68575925797E+03  0.00000000000E+00 0. -1.
         25    2    1    2    0    0 -0.74221705200E+02  0.67100940875E+02 -0.13409034056E+03  0.20884615534E+03  0.12500039752E+03 0.  0.
          2    1    1    2  501    0  0.30967201903E+02  0.18471879734E+02 -0.51059622374E+03  0.51186783610E+03  0.00000000000E+00 0. -1.
          1    1    1    2  502    0  0.43254503298E+02 -0.85572820609E+02  0.74830743779E+03  0.75442539799E+03  0.00000000000E+00 0. -1.
         22    1    3    3    0    0 -0.44566411208E+01  0.79419150707E+02 -0.34680421102E+02  0.86775542389E+02  0.00000000000E+00 0. -1.
         22    1    3    3    0    0 -0.69765064080E+02 -0.12318209833E+02 -0.99409919459E+02  0.12207061295E+03  0.00000000000E+00 0. -1.
</event>
<event>
 7    1  0.6078244E-006  0.6223591E+02  0.7818608E-02  0.1476145E+00
          2   -1    0    0  502    0  0.00000000000E+00  0.00000000000E+00  0.92809255007E+03  0.92809255007E+03  0.00000000000E+00 0. -1.
          1   -1    0    0  501    0 -0.00000000000E+00 -0.00000000000E+00 -0.18521225373E+03  0.18521225373E+03  0.00000000000E+00 0. -1.
         25    2    1    2    0    0 -0.10917733410E+02 -0.90780500915E+02  0.16638355442E+03  0.22730871183E+03  0.12500186816E+03 0.  0.
          2    1    1    2  501    0 -0.47295078288E+01  0.31772963468E+02 -0.15179173772E+03  0.15515354038E+03  0.00000000000E+00 0. -1.
          1    1    1    2  502    0  0.15647241239E+02  0.59007537447E+02  0.72828847964E+03  0.73084255159E+03  0.00000000000E+00 0. -1.
         22    1    3    3    0    0  0.26127702085E+02 -0.10829576143E+03  0.10232372519E+03  0.15126392001E+03  0.00000000000E+00 0. -1.
         22    1    3    3    0    0 -0.37045435495E+02  0.17515260515E+02  0.64059829223E+02  0.76044791814E+02  0.00000000000E+00 0. -1.
</event>
<event>
 7    1  0.6078244E-006  0.1305874E+03  0.7818608E-02  0.1349111E+00
          2   -1    0    0  502    0  0.00000000000E+00  0.00000000000E+00  0.10486650530E+04  0.10486650530E+04  0.00000000000E+00 0. -1.
          1   -1    0    0  501    0 -0.00000000000E+00 -0.00000000000E+00 -0.33456814084E+03  0.33456814084E+03  0.00000000000E+00 0. -1.
         25    2    1    2    0    0  0.96399691736E+02  0.74079905684E+01  0.20259410983E+03  0.25693576924E+03  0.12499534906E+03 0.  0.
          2    1    1    2  501    0  0.40887595639E+02  0.49114568922E+01 -0.30018117701E+03  0.30299283311E+03  0.00000000000E+00 0. -1.
          1    1    1    2  502    0 -0.13728728737E+03 -0.12319447461E+02  0.81168397932E+03  0.82330459148E+03  0.00000000000E+00 0. -1.
         22    1    3    3    0    0  0.11174853610E+03  0.41803265601E+02  0.14064130232E+03  0.18443216708E+03  0.00000000000E+00 0.  1.
         22    1    3    3    0    0 -0.15348844363E+02 -0.34395275033E+02  0.61952807509E+02  0.72503602159E+02  0.00000000000E+00 0.  1.
</event>
<event>
 7    1  0.6078244E-006  0.5349301E+02  0.7818608E-02  0.1496567E+00
          2   -1    0    0  502    0  0.00000000000E+00  0.00000000000E+00  0.26197612052E+04  0.26197612052E+04  0.00000000000E+00 0. -1.
          1   -1    0    0  501    0 -0.00000000000E+00 -0.00000000000E+00 -0.10632746634E+03  0.10632746634E+03  0.00000000000E+00 0. -1.
         25    2    1    2    0    0  0.25555965180E+02 -0.69764819113E+02  0.15135445601E+04  0.15205144583E+04  0.12500738122E+03 0.  0.
          2    1    1    2  501    0  0.76307424840E+01  0.31481897484E+02 -0.99693822264E+02  0.10482459777E+03  0.00000000000E+00 0. -1.
          1    1    1    2  502    0 -0.33186707664E+02  0.38282921629E+02  0.10995830010E+04  0.11007496154E+04  0.00000000000E+00 0. -1.
         22    1    3    3    0    0  0.24217780362E+02  0.32324150659E+01  0.11193000629E+04  0.11195666931E+04  0.00000000000E+00 0.  1.
         22    1    3    3    0    0  0.13381848182E+01 -0.72997234179E+02  0.39424449713E+03  0.40094776524E+03  0.00000000000E+00 0.  1.
</event>
<event>
 7    1  0.6078244E-006  0.9486348E+02  0.7818608E-02  0.1338631E+00
          2   -1    0    0  502    0  0.00000000000E+00  0.00000000000E+00  0.69483634444E+02  0.69483634444E+02  0.00000000000E+00 0. -1.
          1   -1    0    0  501    0 -0.00000000000E+00 -0.00000000000E+00 -0.13311849685E+04  0.13311849685E+04  0.00000000000E+00 0. -1.
         25    2    1    2    0    0  0.10962360339E+03 -0.94610897566E+02 -0.28012547385E+03  0.33921040734E+03  0.12499945197E+03 0.  0.
          2    1    1    2  501    0 -0.83189523565E+02  0.38480091374E+02 -0.99397121515E+03  0.99818835437E+03  0.00000000000E+00 0. -1.
          1    1    1    2  502    0 -0.26434079828E+02  0.56130806193E+02  0.12395354969E+02  0.63269841196E+02  0.00000000000E+00 0. -1.
         22    1    3    3    0    0  0.77688871543E+02  0.23283206069E+01 -0.65848909063E+02  0.10186785883E+03  0.00000000000E+00 0.  1.
         22    1    3    3    0    0  0.31934731850E+02 -0.96939218173E+02 -0.21427656478E+03  0.23734254851E+03  0.00000000000E+00 0.  1.
</event>
<event>
 7    1  0.6078244E-006  0.1984477E+03  0.7818608E-02  0.1201811E+00
          2   -1    0    0  502    0  0.00000000000E+00  0.00000000000E+00  0.18094977429E+04  0.18094977429E+04  0.00000000000E+00 0. -1.
          1   -1    0    0  501    0 -0.00000000000E+00 -0.00000000000E+00 -0.63082062846E+03  0.63082062846E+03  0.00000000000E+00 0. -1.
         25    2    1    2    0    0  0.10686314530E+03 -0.36953212670E+02  0.20742855350E+03  0.26727221568E+03  0.12499024250E+03 0.  0.
          2    1    1    2  501    0 -0.15059448556E+03  0.13978835065E+03 -0.58126650648E+03  0.61651458508E+03  0.00000000000E+00 0. -1.
          1    1    1    2  502    0  0.43731340258E+02 -0.10283513798E+03  0.15525150674E+04  0.15565315706E+04  0.00000000000E+00 0. -1.
         22    1    3    3    0    0 -0.24142972478E+02  0.28246409960E+01  0.84369481775E+01  0.25730212035E+02  0.00000000000E+00 0. -1.
         22    1    3    3    0    0  0.13100611778E+03 -0.39777853666E+02  0.19899160532E+03  0.24154200365E+03  0.00000000000E+00 0. -1.
</event>
<event>
 7    1  0.6078244E-006  0.1078257E+03  0.7818608E-02  0.1369424E+00
          2   -1    0    0  502    0  0.00000000000E+00  0.00000000000E+00  0.19949306688E+04  0.19949306688E+04  0.00000000000E+00 0. -1.
          1   -1    0    0  501    0 -0.00000000000E+00 -0.00000000000E+00 -0.54584115068E+03  0.54584115068E+03  0.00000000000E+00 0. -1.
         25    2    1    2    0    0 -0.85706977265E+02 -0.92827912544E+02  0.57571079090E+03  0.60252023346E+03  0.12500003867E+03 0.  0.
          2    1    1    2  501    0  0.41889435816E+02 -0.35571008096E+01 -0.52960875916E+03  0.53127470821E+03  0.00000000000E+00 0. -1.
          1    1    1    2  502    0  0.43817541448E+02  0.96385013354E+02  0.14029874864E+04  0.14069768778E+04  0.00000000000E+00 0. -1.
         22    1    3    3    0    0 -0.35489733410E+01 -0.78912948909E+02  0.40410336149E+03  0.41175159439E+03  0.00000000000E+00 0. -1.
         22    1    3    3    0    0 -0.82158003924E+02 -0.13914963636E+02  0.17160742941E+03  0.19076863907E+03  0.00000000000E+00 0. -1.
</event>
<event>
 7    1  0.6078244E-006  0.1214928E+03  0.7818608E-02  0.1353400E+00
          2   -1    0    0  502    0  0.00000000000E+00  0.00000000000E+00  0.12381283631E+04  0.12381283631E+04  0.00000000000E+00 0. -1.
          1   -1    0    0  501    0 -0.00000000000E+00 -0.00000000000E+00 -0.20164082410E+03  0.20164082410E+03  0.00000000000E+00 0. -1.
         25    2    1    2    0    0 -0.10396267146E+03 -0.11032067291E+03  0.13125552028E+03  0.23628686502E+03  0.12499833218E+03 0.  0.
          2    1    1    2  501    0  0.62542800716E+02  0.10003988456E+03 -0.12527878038E+03  0.17208821354E+03  0.00000000000E+00 0. -1.
          1    1    1    2  502    0  0.41419870747E+02  0.10280788352E+02  0.10305107991E+04  0.10313941086E+04  0.00000000000E+00 0. -1.
         22    1    3    3    0    0  0.46848959694E+01  0.15953953216E+02 -0.86546006878E+01  0.18745105668E+02  0.00000000000E+00 0.  1.
         22    1    3    3    0    0 -0.10864756743E+03 -0.12627462613E+03  0.13991012097E+03  0.21754175935E+03  0.00000000000E+00 0.  1.
</event>
<event>
 7    1  0.6078244E-006  0.1117998E+03  0.7818608E-02  0.1317950E+00
          2   -1    0    0  502    0  0.00000000000E+00  0.00000000000E+00  0.30716331019E+03  0.30716331019E+03  0.00000000000E+00 0. -1.
          1   -1    0    0  501    0 -0.00000000000E+00 -0.00000000000E+00 -0.89377611543E+03  0.89377611543E+03  0.00000000000E+00 0. -1.
         25    2    1    2    0    0  0.38779421738E+02 -0.73113295693E+02 -0.16430372750E+03  0.22242394220E+03  0.12500919020E+03 0.  0.
          2    1    1    2  501    0  0.60848979391E+02  0.17002391630E+02 -0.68714845046E+03  0.69004686260E+03  0.00000000000E+00 0. -1.
          1    1    1    2  502    0 -0.99628401128E+02  0.56110904062E+02  0.26483937271E+03  0.28846862083E+03  0.00000000000E+00 0. -1.
         22    1    3    3    0    0 -0.12526853179E+02  0.88058741192E+01 -0.11098015900E+03  0.11203151861E+03  0.00000000000E+00 0. -1.
         22    1    3    3    0    0  0.51306274916E+02 -0.81919169812E+02 -0.53323568497E+02  0.11039242359E+03  0.00000000000E+00 0. -1.
</event>
<event>
 7    1  0.6078244E-006  0.5276163E+02  0.7818608E-02  0.1473301E+00
          2   -1    0    0  502    0  0.00000000000E+00  0.00000000000E+00  0.36038446473E+02  0.36038446473E+02  0.00000000000E+00 0. -1.
          1   -1    0    0  501    0 -0.00000000000E+00 -0.00000000000E+00 -0.12394910512E+04  0.12394910512E+04  0.00000000000E+00 0. -1.
         25    2    1    2    0    0  0.27438172315E+02  0.64895630545E+02 -0.63691477840E+03  0.65287811019E+03  0.12500038262E+03 0.  0.
          2    1    1    2  501    0  0.15878303455E+02 -0.35254961535E+02 -0.56880284901E+03  0.57011552678E+03  0.00000000000E+00 0. -1.
          1    1    1    2  502    0 -0.43316475770E+02 -0.29640669011E+02  0.22650226792E+01  0.52535860708E+02  0.00000000000E+00 0. -1.
         22    1    3    3    0    0  0.23198531752E+02  0.10187348773E+03 -0.42048983370E+03  0.43327598551E+03  0.00000000000E+00 0.  1.
         22    1    3    3    0    0  0.42396405632E+01 -0.36977857182E+02 -0.21642494470E+03  0.21960212468E+03  0.00000000000E+00 0.  1.
</event>
<event>
 7    1  0.6078244E-006  0.2891205E+03  0.7818608E-02  0.1312435E+00
          2   -1    0    0  502    0  0.00000000000E+00  0.00000000000E+00  0.20247326995E+03  0.20247326995E+03  0.00000000000E+00 0. -1.
          1   -1    0    0  501    0 -0.00000000000E+00 -0.00000000000E+00 -0.15141824851E+04  0.15141824851E+04  0.00000000000E+00 0. -1.
         25    2    1    2    0    0 -0.25272075318E+03  0.15077357122E+03 -0.48969330607E+03  0.58482854348E+03  0.12499776952E+03 0.  0.
          2    1    1    2  501    0  0.18870610115E+02  0.17408819679E+02 -0.84265078101E+03  0.84304181727E+03  0.00000000000E+00 0. -1.
          1    1    1    2  502    0  0.23385014307E+03 -0.16818239090E+03  0.20634871943E+02  0.28878539430E+03  0.00000000000E+00 0. -1.
         22    1    3    3    0    0 -0.22913208111E+03  0.13706868556E+03 -0.48945772839E+03  0.55754659270E+03  0.00000000000E+00 0. -1.
         22    1    3    3    0    0 -0.23588672075E+02  0.13704885664E+02 -0.23557768554E+00  0.27281950776E+02  0.00000000000E+00 0. -1.
</event>
<event>
 7    1  0.6078244E-006  0.4577438E+02  0.7818608E-02  0.1566260E+00
          2   -1    0    0  502    0  0.00000000000E+00  0.00000000000E+00  0.16342554524E+03  0.16342554524E+03  0.00000000000E+00 0. -1.
          1   -1    0    0  501    0 -0.00000000000E+00 -0.00000000000E+00 -0.13638560960E+04  0.13638560960E+04  0.00000000000E+00 0. -1.
         25    2    1    2    0    0  0.46209488263E+02  0.45537748275E+02 -0.56690555242E+03  0.58413730322E+03  0.12500192132E+03 0.  0.
          2    1    1    2  501    0 -0.23120235233E+02 -0.61280310242E+01 -0.78477945329E+03  0.78514386474E+03  0.00000000000E+00 0. -1.
          1    1    1    2  502    0 -0.23089253031E+02 -0.39409717251E+02  0.15125445493E+03  0.15800047328E+03  0.00000000000E+00 0. -1.
         22    1    3    3    0    0  0.68304532682E+02 -0.80088997897E+01 -0.43024875985E+03  0.43571050827E+03  0.00000000000E+00 0.  1.
         22    1    3    3    0    0 -0.22095044419E+02  0.53546648065E+02 -0.13665679256E+03  0.14842679496E+03  0.00000000000E+00 0.  1.
</event>
<event>
 7    1  0.6078244E-006  0.8408802E+02  0.7818608E-02  0.1414476E+00
          2   -1    0    0  502    0  0.00000000000E+00  0.00000000000E+00  0.54208095680E+03  0.54208095680E+03  0.00000000000E+00 0. -1.
          1   -1    0    0  501    0 -0.00000000000E+00 -0.00000000000E+00 -0.66138287195E+03  0.66138287195E+03  0.00000000000E+00 0. -1.
         25    2    1    2    0    0  0.47899737863E+02 -0.41439748021E+02  0.13131812946E+03  0.19204335582E+03  0.12499824714E+03 0.  0.
          2    1    1    2  501    0  0.35460451944E+02  0.12413654870E+02 -0.62532829447E+03  0.62645591892E+03  0.00000000000E+00 0. -1.
          1    1    1    2  502    0 -0.83360189807E+02  0.29026093151E+02  0.37470824986E+03  0.38496455401E+03  0.00000000000E+00 0. -1.
         22    1    3    3    0    0  0.37294260510E+02 -0.76342580781E+02  0.40401463518E+02  0.94081505949E+02  0.00000000000E+00 0.  1.
         22    1    3    3    0    0  0.10605477353E+02  0.34902832760E+02  0.90916665944E+02  0.97961849875E+02  0.00000000000E+00 0.  1.
</event>
<event>
 7    1  0.6078244E-006  0.6666818E+02  0.7818608E-02  0.1519202E+00
          2   -1    0    0  502    0  0.00000000000E+00  0.00000000000E+00  0.16397407252E+04  0.16397407252E+04  0.00000000000E+00 0. -1.
          1   -1    0    0  501    0 -0.00000000000E+00 -0.00000000000E+00 -0.47301059285E+02  0.47301059285E+02  0.00000000000E+00 0. -1.
         25    2    1    2    0    0 -0.47643798649E+02 -0.72233441697E+02  0.73066174744E+03  0.74631032346E+03  0.12499963233E+03 0.  0.
          2    1    1    2  501    0  0.29868521382E+02  0.58792402942E+02 -0.11695697934E+02  0.66973610948E+02  0.00000000000E+00 0. -1.
          1    1    1    2  502    0  0.17775277268E+02  0.13441038755E+02  0.87347361645E+03  0.87375785012E+03  0.00000000000E+00 0. -1.
         22    1    3    3    0    0 -0.16188277346E+01 -0.67265419038E+02  0.64869067547E+03  0.65217087457E+03  0.00000000000E+00 0.  1.
         22    1    3    3    0    0 -0.46024970915E+02 -0.49680226589E+01  0.81971071972E+02  0.94139448889E+02  0.00000000000E+00 0.  1.
</event>
<event>
 7    1  0.6078244E-006  0.4954830E+02  0.7818608E-02  0.1482907E+00
          2   -1    0    0  502    0  0.00000000000E+00  0.00000000000E+00  0.96450473974E+03  0.96450473974E+03  0.00000000000E+00 0. -1.
          1   -1    0    0  501    0 -0.00000000000E+00 -0.00000000000E+00 -0.19278266510E+03  0.19278266510E+03  0.00000000000E+00 0. -1.
         25    2    1    2    0    0 -0.69261787039E+02  0.39917931839E+02 -0.98466138533E+02  0.17807322758E+03  0.12499542998E+03 0.  0.
          2    1    1    2  501    0  0.40881475978E+02 -0.13953727267E+02 -0.45487739625E+02  0.62730662669E+02  0.00000000000E+00 0. -1.
          1    1    1    2  502    0  0.28380311061E+02 -0.25964204572E+02  0.91567595280E+03  0.91648351459E+03  0.00000000000E+00 0. -1.
         22    1    3    3    0    0 -0.10273086649E+02 -0.43779074706E+02 -0.20749090676E+02  0.49524422817E+02  0.00000000000E+00 0. -1.
         22    1    3    3    0    0 -0.58988700390E+02  0.83697006545E+02 -0.77717047857E+02  0.12854880476E+03  0.00000000000E+00 0. -1.
</event>
<event>
 7    1  0.6078244E-006  0.2309823E+03  0.7818608E-02  0.1318879E+00
          2   -1    0    0  502    0  0.00000000000E+00  0.00000000000E+00  0.18819968217E+04  0.18819968217E+04  0.00000000000E+00 0. -1.
          1   -1    0    0  501    0 -0.00000000000E+00 -0.00000000000E+00 -0.39723186282E+03  0.39723186282E+03  0.00000000000E+00 0. -1.
         25    2    1    2    0    0  0.24220033820E+03  0.47628463375E+02  0.35039960334E+02  0.27889620556E+03  0.12500328118E+03 0.  0.
          2    1    1    2  501    0 -0.21710197386E+03 -0.64651962548E+02 -0.22854670220E+03  0.32178679029E+03  0.00000000000E+00 0. -1.
          1    1    1    2  502    0 -0.25098364339E+02  0.17023499173E+02  0.16782717008E+04  0.16785456887E+04  0.00000000000E+00 0. -1.
         22    1    3    3    0    0  0.87338893442E+02 -0.29057238528E+02 -0.25961741351E+02  0.95636904135E+02  0.00000000000E+00 0. -1.
         22    1    3    3    0    0  0.15486144476E+03  0.76685701903E+02  0.61001701685E+02  0.18325930142E+03  0.00000000000E+00 0. -1.
</event>
<event>
 7    1  0.6078244E-006  0.1202057E+03  0.7818608E-02  0.1306833E+00
          2   -1    0    0  502    0  0.00000000000E+00  0.00000000000E+00  0.16609242811E+03  0.16609242811E+03  0.00000000000E+00 0. -1.
          1   -1    0    0  501    0 -0.00000000000E+00 -0.00000000000E+00 -0.31445839763E+04  0.31445839763E+04  0.00000000000E+00 0. -1.
         25    2    1    2    0    0  0.72017849848E+02  0.58809977838E+01 -0.11927826507E+04  0.12014891253E+04  0.12499803761E+03 0.  0.
          2    1    1    2  501    0  0.40665756807E+02 -0.50675266226E+02 -0.19240942576E+04  0.19251910031E+04  0.00000000000E+00 0. -1.
          1    1    1    2  502    0 -0.11268360666E+03  0.44794268442E+02  0.13838536014E+03  0.18399627603E+03  0.00000000000E+00 0. -1.
         22    1    3    3    0    0  0.66155930645E+02  0.44366504241E+02 -0.10633374637E+04  0.10663168177E+04  0.00000000000E+00 0. -1.
         22    1    3    3    0    0  0.58619192031E+01 -0.38485506457E+02 -0.12944518700E+03  0.13517230760E+03  0.00000000000E+00 0. -1.
</event>
<event>
 7    1  0.6078244E-006  0.9850098E+02  0.7818608E-02  0.1300262E+00
          2   -1    0    0  502    0  0.00000000000E+00  0.00000000000E+00  0.41544838715E+03  0.41544838715E+03  0.00000000000E+00 0. -1.
          1   -1    0    0  501    0 -0.00000000000E+00 -0.00000000000E+00 -0.55176205109E+03  0.55176205109E+03  0.00000000000E+00 0. -1.
         25    2    1    2    0    0 -0.11364152185E+03 -0.38060371195E+02  0.26910548945E+03  0.32000955456E+03  0.12500145285E+03 0.  0.
          2    1    1    2  501    0  0.69734171326E+02 -0.47214531100E+02 -0.50321921225E+03  0.51021724997E+03  0.00000000000E+00 0. -1.
          1    1    1    2  502    0  0.43907350521E+02  0.85274902295E+02  0.97800058856E+02  0.13698363371E+03  0.00000000000E+00 0. -1.
         22    1    3    3    0    0 -0.36159319373E+00 -0.14726308589E+02  0.16107067862E+03  0.16174287751E+03  0.00000000000E+00 0.  1.
         22    1    3    3    0    0 -0.11327992865E+03 -0.23334062606E+02  0.10803481083E+03  0.15826667705E+03  0.00000000000E+00 0.  1.
</event>
<event>
 7    1  0.6078244E-006  0.1309906E+03  0.7818608E-02  0.1412162E+00
          2   -1    0    0  502    0  0.00000000000E+00  0.00000000000E+00  0.14847067814E+04  0.14847067814E+04  0.00000000000E+00 0. -1.
          1   -1    0    0  501    0 -0.00000000000E+00 -0.00000000000E+00 -0.73998870426E+03  0.73998870426E+03  0.00000000000E+00 0. -1.
         25    2    1    2    0    0 -0.10708855379E+03  0.15817283876E+02  0.97262729224E+01  0.16564417313E+03  0.12500098754E+03 0.  0.
          2    1    1    2  501    0  0.13093550623E+03 -0.21672600818E+02 -0.65526880572E+03  0.66857386740E+03  0.00000000000E+00 0. -1.
          1    1    1    2  502    0 -0.23846952440E+02  0.58553169420E+01  0.13902606099E+04  0.13904774451E+04  0.00000000000E+00 0. -1.
         22    1    3    3    0    0 -0.10958739671E+03  0.20529323932E+02 -0.37870234666E+02  0.11774975725E+03  0.00000000000E+00 0.  1.
         22    1    3    3    0    0  0.24988429261E+01 -0.47120400559E+01  0.47596507588E+02  0.47894415875E+02  0.00000000000E+00 0.  1.
</event>
<event>
 7    1  0.6078244E-006  0.1268610E+03  0.7818608E-02  0.1274155E+00
          2   -1    0    0  502    0  0.00000000000E+00  0.00000000000E+00  0.64792418072E+02  0.64792418072E+02  0.00000000000E+00 0. -1.
          1   -1    0    0  501    0 -0.00000000000E+00 -0.00000000000E+00 -0.14901063272E+04  0.14901063272E+04  0.00000000000E+00 0. -1.
         25    2    1    2    0    0  0.32424432283E+02  0.11458014413E+03 -0.64002044512E+03  0.66289540723E+03  0.12499679001E+03 0.  0.
          2    1    1    2  501    0 -0.11073103953E+03 -0.85328630479E+02 -0.79559140552E+03  0.80777968706E+03  0.00000000000E+00 0. -1.
          1    1    1    2  502    0  0.78306607251E+02 -0.29251513648E+02  0.10297941489E+02  0.84223651006E+02  0.00000000000E+00 0. -1.
         22    1    3    3    0    0 -0.20335586657E+02  0.85785998457E+02 -0.53220143480E+03  0.53945448448E+03  0.00000000000E+00 0.  1.
         22    1    3    3    0    0  0.52760018940E+02  0.28794145670E+02 -0.10781901032E+03  0.12344092275E+03  0.00000000000E+00 0.  1.
</event>
<event>
 7    1  0.6078244E-006  0.4754405E+02  0.7818608E-02  0.1527432E+00
          2   -1    0    0  502    0  0.00000000000E+00  0.00000000000E+00  0.21765904817E+03  0.21765904817E+03  0.00000000000E+00 0. -1.
          1   -1    0    0  501    0 -0.00000000000E+00 -0.00000000000E+00 -0.12907937702E+04  0.12907937702E+04  0.00000000000E+00 0. -1.
         25    2    1    2    0    0  0.25483356885E+02  0.42216467551E+02 -0.68895111241E+03  0.70193348498E+03  0.12500140173E+03 0.  0.
          2    1    1    2  501    0 -0.29119381029E+02  0.52168536374E+01 -0.59229830572E+03  0.59303662355E+03  0.00000000000E+00 0. -1.
          1    1    1    2  502    0  0.36360241439E+01 -0.47433321189E+02  0.20811469614E+03  0.21348270979E+03  0.00000000000E+00 0. -1.
         22    1    3    3    0    0  0.30693816253E+02  0.79463351359E+02 -0.58923205184E+03  0.59535782979E+03  0.00000000000E+00 0.  1.
         22    1    3    3    0    0 -0.52104593684E+01 -0.37246883808E+02 -0.99719060563E+02  0.10657565519E+03  0.00000000000E+00 0.  1.
</event>
<event>
 7    1  0.6078244E-006  0.1027799E+03  0.7818608E-02  0.1283605E+00
          2   -1    0    0  502    0  0.00000000000E+00  0.00000000000E+00  0.33843883414E+04  0.33843883414E+04  0.00000000000E+00 0. -1.
          1   -1    0    0  501    0 -0.00000000000E+00 -0.00000000000E+00 -0.16261003279E+03  0.16261003279E+03  0.00000000000E+00 0. -1.
         25    2    1    2    0    0  0.47609971060E+02  0.39469106103E+02  0.20513280649E+03  0.24805465971E+03  0.12500850460E+03 0.  0.
          2    1    1    2  501    0  0.17135716582E+02 -0.10801347770E+03 -0.11914936251E+03  0.16173161328E+03  0.00000000000E+00 0. -1.
          1    1    1    2  502    0 -0.64745687642E+02  0.68544371599E+02  0.31357948646E+04  0.31372121012E+04  0.00000000000E+00 0. -1.
         22    1    3    3    0    0  0.32550089205E+02 -0.30960454990E+02  0.15215151656E+03  0.15864470388E+03  0.00000000000E+00 0.  1.
         22    1    3    3    0    0  0.15059881855E+02  0.70429561093E+02  0.52981289936E+02  0.89409955824E+02  0.00000000000E+00 0.  1.
</event>
<event>
 7    1  0.6078244E-006  0.4035503E+02  0.7818608E-02  0.1547541E+00
          2   -1    0    0  502    0  0.00000000000E+00  0.00000000000E+00  0.39414770707E+03  0.39414770707E+03  0.00000000000E+00 0. -1.
          1   -1    0    0  501    0 -0.00000000000E+00 -0.00000000000E+00 -0.45501148005E+02  0.45501148005E+02  0.00000000000E+00 0. -1.
         25    2    1    2    0    0 -0.48870768655E+00 -0.13400847873E+02  0.18495952400E+03  0.22364061956E+03  0.12500111856E+03 0.  0.
          2    1    1    2  501    0  0.15820611280E+02  0.39840500923E+02 -0.62718537719E+01  0.43323127829E+02  0.00000000000E+00 0. -1.
          1    1    1    2  502    0 -0.15331903594E+02 -0.26439653051E+02  0.16995888884E+03  0.17268510769E+03  0.00000000000E+00 0. -1.
         22    1    3    3    0    0  0.53066787065E+02 -0.33159035456E+02  0.62059563947E+02  0.88130556557E+02  0.00000000000E+00 0. -1.
         22    1    3    3    0    0 -0.53555494752E+02  0.19758187583E+02  0.12289996005E+03  0.13551006300E+03  0.00000000000E+00 0. -1.
</event>
<event>
 7    1  0.6078244E-006  0.6011490E+02  0.7818608E-02  0.1397888E+00
          2   -1    0    0  502    0  0.00000000000E+00  0.00000000000E+00  0.48139008696E+03  0.48139008696E+03  0.00000000000E+00 0. -1.
          1   -1    0    0  501    0 -0.00000000000E+00 -0.00000000000E+00 -0.72740700797E+03  0.72740700797E+03  0.00000000000E+00 0. -1.
         25    2    1    2    0    0 -0.38305742112E+02  0.20842698745E+02  0.29612818358E+02  0.13569921465E+03  0.12504243230E+03 0.  0.
          2    1    1    2  501    0  0.43648447313E+02  0.40961763985E+02 -0.67060977516E+03  0.67327596393E+03  0.00000000000E+00 0. -1.
          1    1    1    2  502    0 -0.53427052006E+01 -0.61804462730E+02  0.39498003580E+03  0.39982191635E+03  0.00000000000E+00 0. -1.
         22    1    3    3    0    0 -0.23018581210E+02 -0.41004422244E+02  0.50164208664E+02  0.68758021753E+02  0.00000000000E+00 0. -1.
         22    1    3    3    0    0 -0.15287160902E+02  0.61847120989E+02 -0.20551390306E+02  0.66941192898E+02  0.00000000000E+00 0. -1.
</event>
<event>
 7    1  0.6078244E-006  0.5030323E+02  0.7818608E-02  0.1498676E+00
          2   -1    0    0  502    0  0.00000000000E+00  0.00000000000E+00  0.11114711381E+03  0.11114711381E+03  0.00000000000E+00 0. -1.
          1   -1    0    0  501    0 -0.00000000000E+00 -0.00000000000E+00 -0.10569065763E+04  0.10569065763E+04  0.00000000000E+00 0. -1.
         25    2    1    2    0    0  0.43074059245E+02 -0.64422701295E+02 -0.24554267527E+03  0.28622072767E+03  0.12500176217E+03 0.  0.
          2    1    1    2  501    0 -0.29628449184E+02  0.16576638212E+02 -0.78382965258E+03  0.78456456344E+03  0.00000000000E+00 0. -1.
          1    1    1    2  502    0 -0.13445610062E+02  0.47846063083E+02  0.83612865387E+02  0.97268398983E+02  0.00000000000E+00 0. -1.
         22    1    3    3    0    0  0.50697722845E+02 -0.92530172272E+02 -0.13190874922E+03  0.16891420900E+03  0.00000000000E+00 0.  1.
         22    1    3    3    0    0 -0.76236635997E+01  0.28107470977E+02 -0.11363392606E+03  0.11730651867E+03  0.00000000000E+00 0.  1.
</event>
<event>
 7    1  0.6078244E-006  0.4536572E+02  0.7818608E-02  0.1553880E+00
          2   -1    0    0  502    0  0.00000000000E+00  0.00000000000E+00  0.45008385940E+03  0.45008385940E+03  0.00000000000E+00 0. -1.
          1   -1    0    0  501    0 -0.00000000000E+00 -0.00000000000E+00 -0.28077508691E+03  0.28077508691E+03  0.00000000000E+00 0. -1.
         25    2    1    2    0    0  0.49765579446E+02 -0.69116285383E+01  0.89419814316E+02  0.16169496172E+03  0.12499989578E+03 0.  0.
          2    1    1    2  501    0 -0.41717242627E+02 -0.17920575544E+02 -0.24199792340E+03  0.24622036936E+03  0.00000000000E+00 0. -1.
          1    1    1    2  502    0 -0.80483368186E+01  0.24832204083E+02  0.32188688157E+03  0.32294361522E+03  0.00000000000E+00 0. -1.
         22    1    3    3    0    0  0.41823976609E+02 -0.62914758756E+02  0.66561638957E+02  0.10068745537E+03  0.00000000000E+00 0. -1.
         22    1    3    3    0    0  0.79416028371E+01  0.56003130218E+02  0.22858175358E+02  0.61007506346E+02  0.00000000000E+00 0. -1.
</event>
<event>
 7    1  0.6078244E-006  0.3119498E+02  0.7818608E-02  0.1626131E+00
          2   -1    0    0  502    0  0.00000000000E+00  0.00000000000E+00  0.38461330835E+03  0.38461330835E+03  0.00000000000E+00 0. -1.
          1   -1    0    0  501    0 -0.00000000000E+00 -0.00000000000E+00 -0.76936906577E+03  0.76936906577E+03  0.00000000000E+00 0. -1.
         25    2    1    2    0    0 -0.51301688913E+01  0.47836157015E+02  0.77198858476E+02  0.15459483068E+03  0.12500112548E+03 0.  0.
          2    1    1    2  501    0 -0.11313705613E+02 -0.21657922610E+02 -0.72957673149E+03  0.72998580306E+03  0.00000000000E+00 0. -1.
          1    1    1    2  502    0  0.16443874504E+02 -0.26178234405E+02  0.26762211559E+03  0.26940174038E+03  0.00000000000E+00 0. -1.
         22    1    3    3    0    0 -0.31168444670E+02  0.67355577008E+02  0.92533968988E+02  0.11862032336E+03  0.00000000000E+00 0.  1.
         22    1    3    3    0    0  0.26038275778E+02 -0.19519419993E+02 -0.15335110512E+02  0.35974507319E+02  0.00000000000E+00 0.  1.
</event>
<event>
 7    1  0.6078244E-006  0.6438127E+02  0.7818608E-02  0.1438226E+00
          2   -1    0    0  502    0  0.00000000000E+00  0.00000000000E+00  0.83220809484E+03  0.83220809484E+03  0.00000000000E+00 0. -1.
          1   -1    0    0  501    0 -0.00000000000E+00 -0.00000000000E+00 -0.75722871322E+03  0.75722871322E+03  0.00000000000E+00 0. -1.
         25    2    1    2    0    0 -0.41770578230E+02  0.14687703310E+02  0.37377398395E+03  0.39660538336E+03  0.12501331610E+03 0.  0.
          2    1    1    2  501    0 -0.27224262120E+02 -0.30584814215E+02 -0.74244176727E+03  0.74357001627E+03  0.00000000000E+00 0. -1.
          1    1    1    2  502    0  0.68994840350E+02  0.15897110905E+02  0.44364716495E+03  0.44926140842E+03  0.00000000000E+00 0. -1.
         22    1    3    3    0    0 -0.35176884755E+02 -0.53511927265E+02  0.18686358322E+03  0.19753211970E+03  0.00000000000E+00 0. -1.
         22    1    3    3    0    0 -0.65936934742E+01  0.68199630576E+02  0.18691040073E+03  0.19907326366E+03  0.00000000000E+00 0. -1.
</event>
<event>
 7    1  0.6078244E-006  0.4469389E+02  0.7818608E-02  0.1516083E+00
          2   -1    0    0  502    0  0.00000000000E+00  0.00000000000E+00  0.28302402506E+04  0.28302402506E+04  0.00000000000E+00 0. -1.
          1   -1    0    0  501    0 -0.00000000000E+00 -0.00000000000E+00 -0.12932326197E+04  0.12932326197E+04  0.00000000000E+00 0. -1.
         25    2    1    2    0    0  0.79655712583E+01  0.76708451668E+02  0.21978304245E+03  0.26434326136E+03  0.12500054879E+03 0.  0.
          2    1    1    2  501    0  0.34304010520E+01 -0.33770686030E+02 -0.12705351848E+04  0.12709885455E+04  0.00000000000E+00 0. -1.
          1    1    1    2  502    0 -0.11395972310E+02 -0.42937765638E+02  0.25877597733E+04  0.25881410635E+04  0.00000000000E+00 0. -1.
         22    1    3    3    0    0 -0.97706950457E+00  0.10246044965E+03  0.21282822432E+03  0.23620954993E+03  0.00000000000E+00 0. -1.
         22    1    3    3    0    0  0.89426407629E+01 -0.25751997985E+02  0.69548181254E+01  0.28133711437E+02  0.00000000000E+00 0. -1.
</event>
<event>
 7    1  0.6078244E-006  0.1184503E+03  0.7818608E-02  0.1406670E+00
          2   -1    0    0  502    0  0.00000000000E+00  0.00000000000E+00  0.28938608984E+03  0.28938608984E+03  0.00000000000E+00 0. -1.
          1   -1    0    0  501    0 -0.00000000000E+00 -0.00000000000E+00 -0.30084034346E+03  0.30084034346E+03  0.00000000000E+00 0. -1.
         25    2    1    2    0    0  0.10236726510E+03 -0.24073096058E+02 -0.51730004412E+02  0.17133628988E+03  0.12498623906E+03 0.  0.
          2    1    1    2  501    0  0.66772280795E+01 -0.27547263136E+02 -0.17221851199E+03  0.17453553493E+03  0.00000000000E+00 0. -1.
          1    1    1    2  502    0 -0.10904449318E+03  0.51620359194E+02  0.21249426279E+03  0.24435460850E+03  0.00000000000E+00 0. -1.
         22    1    3    3    0    0 -0.19027666855E+02 -0.28902542147E+02  0.86499494381E+01  0.35668342740E+02  0.00000000000E+00 0.  1.
         22    1    3    3    0    0  0.12139493196E+03  0.48294460890E+01 -0.60379953850E+02  0.13566794714E+03  0.00000000000E+00 0.  1.
</event>
<event>
 7    1  0.6078244E-006  0.6891915E+02  0.7818608E-02  0.1394106E+00
          2   -1    0    0  502    0  0.00000000000E+00  0.00000000000E+00  0.14926249657E+04  0.14926249657E+04  0.00000000000E+00 0. -1.
          1   -1    0    0  501    0 -0.00000000000E+00 -0.00000000000E+00 -0.21266918310E+03  0.21266918310E+03  0.00000000000E+00 0. -1.
         25    2    1    2    0    0  0.56801541351E+02  0.38153030844E+02 -0.90364799614E+02  0.16873884162E+03  0.12499972320E+03 0.  0.
          2    1    1    2  501    0 -0.16203378920E+02 -0.73468000921E+02 -0.65485141201E+02  0.99741668153E+02  0.00000000000E+00 0. -1.
          1    1    1    2  502    0 -0.40598162431E+02  0.35314970077E+02  0.14358057234E+04  0.14368136390E+04  0.00000000000E+00 0. -1.
         22    1    3    3    0    0 -0.19488526975E+02  0.34544720641E+02 -0.83023966103E+02  0.92011517515E+02  0.00000000000E+00 0.  1.
         22    1    3    3    0    0  0.76290068326E+02  0.36083102032E+01 -0.73408335105E+01  0.76727324105E+02  0.00000000000E+00 0.  1.
</event>
<event>
 7    1  0.6078244E-006  0.1430733E+03  0.7818608E-02  0.1298989E+00
          2   -1    0    0  502    0  0.00000000000E+00  0.00000000000E+00  0.18184436807E+04  0.18184436807E+04  0.00000000000E+00 0. -1.
          1   -1    0    0  501    0 -0.00000000000E+00 -0.00000000000E+00 -0.66683171613E+03  0.66683171613E+03  0.00000000000E+00 0. -1.
         25    2    1    2    0    0  0.62554104276E+02 -0.89118227364E+02  0.14799782659E+03  0.22222558690E+03  0.12500312151E+03 0.  0.
          2    1    1    2  501    0  0.58349069272E+02  0.60631342087E+01 -0.62504841264E+03  0.62779526410E+03  0.00000000000E+00 0. -1.
          1    1    1    2  502    0 -0.12090317355E+03  0.83055093155E+02  0.16286625506E+04  0.16352545458E+04  0.00000000000E+00 0. -1.
         22    1    3    3    0    0  0.57161706224E+02 -0.56926096670E+02  0.16627810020E+03  0.18481463077E+03  0.00000000000E+00 0.  1.
         22    1    3    3    0    0  0.53923980517E+01 -0.32192130694E+02 -0.18280273608E+02  0.37410956130E+02  0.00000000000E+00 0.  1.
</event>
<event>
 7    1  0.6078244E-006  0.4512178E+02  0.7818608E-02  0.1522288E+00
          2   -1    0    0  502    0  0.00000000000E+00  0.00000000000E+00  0.22761436922E+04  0.22761436922E+04  0.00000000000E+00 0. -1.
          1   -1    0    0  501    0 -0.00000000000E+00 -0.00000000000E+00 -0.24825214280E+02  0.24825214280E+02  0.00000000000E+00 0. -1.
         25    2    1    2    0    0  0.32938848458E+02  0.28132600751E+02  0.72683194889E+03  0.73877218273E+03  0.12499298016E+03 0.  0.
          2    1    1    2  501    0 -0.56086946427E+01 -0.45261981886E+02  0.91499930899E+01  0.46516952108E+02  0.00000000000E+00 0. -1.
          1    1    1    2  502    0 -0.27330153815E+02  0.17129381135E+02  0.15153365360E+04  0.15156797717E+04  0.00000000000E+00 0. -1.
         22    1    3    3    0    0 -0.24251604349E+02 -0.32526169985E+01  0.29200022844E+02  0.38096734308E+02  0.00000000000E+00 0. -1.
         22    1    3    3    0    0  0.57190452807E+02  0.31385217749E+02  0.69763192604E+03  0.70067544842E+03  0.00000000000E+00 0. -1.
</event>
<event>
 7    1  0.6078244E-006  0.1276528E+03  0.7818608E-02  0.1360263E+00
          2   -1    0    0  502    0  0.00000000000E+00  0.00000000000E+00  0.71975819155E+02  0.71975819155E+02  0.00000000000E+00 0. -1.
          1   -1    0    0  501    0 -0.00000000000E+00 -0.00000000000E+00 -0.18025579075E+04  0.18025579075E+04  0.00000000000E+00 0. -1.
         25    2    1    2    0    0 -0.35634675023E+02  0.13580027479E+03 -0.14285700222E+03  0.23610308127E+03  0.12499998883E+03 0.  0.
          2    1    1    2  501    0 -0.17207757860E+01 -0.12720980239E+03 -0.15944476468E+04  0.15995151119E+04  0.00000000000E+00 0. -1.
          1    1    1    2  502    0  0.37355450809E+02 -0.85904723957E+01  0.67225606835E+01  0.38915533445E+02  0.00000000000E+00 0. -1.
         22    1    3    3    0    0  0.10511482307E+02 -0.13688402246E+02  0.77711772054E+01  0.18927620333E+02  0.00000000000E+00 0.  1.
         22    1    3    3    0    0 -0.46146157330E+02  0.14948867704E+03 -0.15062817943E+03  0.21717546094E+03  0.00000000000E+00 0.  1.
</event>
<event>
 7    1  0.6078244E-006  0.5266812E+02  0.7818608E-02  0.1483971E+00
          2   -1    0    0  502    0  0.00000000000E+00  0.00000000000E+00  0.17569010025E+04  0.17569010025E+04  0.00000000000E+00 0. -1.
          1   -1    0    0  501    0 -0.00000000000E+00 -0.00000000000E+00 -0.56629332803E+03  0.56629332803E+03  0.00000000000E+00 0. -1.
         25    2    1    2    0    0  0.77604939563E+01  0.80516947983E+02  0.21070599535E+03  0.25800164321E+03  0.12499850898E+03 0.  0.
          2    1    1    2  501    0 -0.20085560895E+02 -0.29776275692E+02 -0.54160281051E+03  0.54279246559E+03  0.00000000000E+00 0. -1.
          1    1    1    2  502    0  0.12325066939E+02 -0.50740672292E+02  0.15215044896E+04  0.15224002217E+04  0.00000000000E+00 0. -1.
         22    1    3    3    0    0 -0.45893740791E+02 -0.62383278912E+01  0.55668294345E+02  0.72416235569E+02  0.00000000000E+00 0.  1.
         22    1    3    3    0    0  0.53654234747E+02  0.86755275874E+02  0.15503770100E+03  0.18558540764E+03  0.00000000000E+00 0.  1.
</event>
<event>
 7    1  0.6078244E-006  0.1891333E+03  0.7818608E-02  0.1167516E+00
          2   -1    0    0  502    0  0.00000000000E+00  0.00000000000E+00  0.22195854501E+03  0.22195854501E+03  0.00000000000E+00 0. -1.
          1   -1    0    0  501    0 -0.00000000000E+00 -0.00000000000E+00 -0.81022202585E+03  0.81022202585E+03  0.00000000000E+00 0. -1.
         25    2    1    2    0    0 -0.74993117092E+01  0.40997376224E+02  0.13871385600E+02  0.13249587592E+03  0.12500286902E+03 0.  0.
          2    1    1    2  501    0  0.19616747938E+03 -0.54252933591E+02 -0.66884832919E+03  0.69913027987E+03  0.00000000000E+00 0. -1.
          1    1    1    2  502    0 -0.18866816767E+03  0.13255557367E+02  0.66713462745E+02  0.20055441507E+03  0.00000000000E+00 0. -1.
         22    1    3    3    0    0  0.49366320354E+02 -0.13026091699E+02  0.17510611513E+02  0.53975310705E+02  0.00000000000E+00 0.  1.
         22    1    3    3    0    0 -0.56865632063E+02  0.54023467924E+02 -0.36392259130E+01  0.78520565215E+02  0.00000000000E+00 0.  1.
</event>
<event>
 7    1  0.6078244E-006  0.1735816E+03  0.7818608E-02  0.1195602E+00
          2   -1    0    0  502    0  0.00000000000E+00  0.00000000000E+00  0.93322741407E+03  0.93322741407E+03  0.00000000000E+00 0. -1.
          1   -1    0    0  501    0 -0.00000000000E+00 -0.00000000000E+00 -0.77908297965E+03  0.77908297965E+03  0.00000000000E+00 0. -1.
         25    2    1    2    0    0 -0.28243450810E+03  0.84762533391E+01  0.39015197966E+03  0.49767962224E+03  0.12500136370E+03 0.  0.
          2    1    1    2  501    0  0.13499093640E+03  0.21471329212E+02 -0.70705132182E+03  0.72014244603E+03  0.00000000000E+00 0. -1.
          1    1    1    2  502    0  0.14744357170E+03 -0.29947582551E+02  0.47104377659E+03  0.49448832545E+03  0.00000000000E+00 0. -1.
         22    1    3    3    0    0 -0.23337404826E+03  0.51219260771E+02  0.33985777605E+03  0.41543972729E+03  0.00000000000E+00 0. -1.
         22    1    3    3    0    0 -0.49060459837E+02 -0.42743007432E+02  0.50294203613E+02  0.82239894946E+02  0.00000000000E+00 0. -1.
</event>
<event>
 7    1  0.6078244E-006  0.7324694E+02  0.7818608E-02  0.1381464E+00
          2   -1    0    0  502    0  0.00000000000E+00  0.00000000000E+00  0.25798800674E+04  0.25798800674E+04  0.00000000000E+00 0. -1.
          1   -1    0    0  501    0 -0.00000000000E+00 -0.00000000000E+00 -0.80721319812E+03  0.80721319812E+03  0.00000000000E+00 0. -1.
         25    2    1    2    0    0  0.13080818214E+02  0.15330881377E+02  0.32104110844E+03  0.34510792343E+03  0.12500376704E+03 0.  0.
          2    1    1    2  501    0  0.30711031019E+02  0.46901102972E+02 -0.79354629267E+03  0.79552410366E+03  0.00000000000E+00 0. -1.
          1    1    1    2  502    0 -0.43791849233E+02 -0.62231984350E+02  0.22451720535E+04  0.22464612384E+04  0.00000000000E+00 0. -1.
         22    1    3    3    0    0  0.40945079616E+02  0.32248166502E+02  0.30378684690E+03  0.30822539178E+03  0.00000000000E+00 0.  1.
         22    1    3    3    0    0 -0.27864261401E+02 -0.16917285125E+02  0.17254261537E+02  0.36882531646E+02  0.00000000000E+00 0.  1.
</event>
<event>
 7    1  0.6078244E-006  0.8875038E+02  0.7818608E-02  0.1386079E+00
          2   -1    0    0  502    0  0.00000000000E+00  0.00000000000E+00  0.40500766684E+03  0.40500766684E+03  0.00000000000E+00 0. -1.
          1   -1    0    0  501    0 -0.00000000000E+00 -0.00000000000E+00 -0.42902822168E+03  0.42902822168E+03  0.00000000000E+00 0. -1.
         25    2    1    2    0    0 -0.10202882970E+03  0.24135785314E+02 -0.14576366990E+03  0.21878054332E+03  0.12500184180E+03 0.  0.
          2    1    1    2  501    0  0.68541532216E+02 -0.53545731767E+02 -0.23767220605E+03  0.25308726668E+03  0.00000000000E+00 0. -1.
          1    1    1    2  502    0  0.33487297481E+02  0.29409946453E+02  0.35941532111E+03  0.36216807851E+03  0.00000000000E+00 0. -1.
         22    1    3    3    0    0 -0.12047591578E+03  0.48155902916E+02 -0.13333832619E+03  0.18604447452E+03  0.00000000000E+00 0.  1.
         22    1    3    3    0    0  0.18447086082E+02 -0.24020117602E+02 -0.12425343710E+02  0.32736068805E+02  0.00000000000E+00 0.  1.
</event>
<event>
 7    1  0.1545670E-005  0.6384066E+02  0.7818608E-02  0.1432901E+00
          2   -1    0    0  502    0  0.00000000000E+00  0.00000000000E+00  0.12522681398E+04  0.12522681398E+04  0.00000000000E+00 0. -1.
          1   -1    0    0  501    0 -0.00000000000E+00 -0.00000000000E+00 -0.25741144493E+04  0.25741144493E+04  0.00000000000E+00 0. -1.
         25    2    1    2    0    0  0.15502232019E+02  0.93254219944E+02 -0.62160688671E+03  0.64105911294E+03  0.12499998378E+03 0.  0.
          2    1    1    2  501    0 -0.29720132316E+02 -0.31048382818E+02 -0.19417242497E+04  0.19421998739E+04  0.00000000000E+00 0. -1.
          1    1    1    2  502    0  0.14217900297E+02 -0.62205837125E+02  0.12414848269E+04  0.12431236022E+04  0.00000000000E+00 0. -1.
         22    1    3    3    0    0  0.33167273997E+02  0.64518590107E+02 -0.59123574672E+03  0.59566972790E+03  0.00000000000E+00 0. -1.
         22    1    3    3    0    0 -0.17665041978E+02  0.28735629837E+02 -0.30371139983E+02  0.45389385037E+02  0.00000000000E+00 0. -1.
</event>
<event>
 7    1  0.6078244E-006  0.1136827E+03  0.7818608E-02  0.1350555E+00
          2   -1    0    0  502    0  0.00000000000E+00  0.00000000000E+00  0.11009079425E+04  0.11009079425E+04  0.00000000000E+00 0. -1.
          1   -1    0    0  501    0 -0.00000000000E+00 -0.00000000000E+00 -0.10956667047E+03  0.10956667047E+03  0.00000000000E+00 0. -1.
         25    2    1    2    0    0 -0.11069117917E+03 -0.67195893323E-01  0.56437320910E+03  0.58855180956E+03  0.12499428678E+03 0.  0.
          2    1    1    2  501    0  0.10461607812E+03 -0.46261963734E+02 -0.62418771169E+02  0.13031038364E+03  0.00000000000E+00 0. -1.
          1    1    1    2  502    0  0.60751010473E+01  0.46329159627E+02  0.48938683411E+03  0.49161241979E+03  0.00000000000E+00 0. -1.
         22    1    3    3    0    0 -0.84257030123E+02  0.53122064715E+02  0.25976614841E+03  0.27820793077E+03  0.00000000000E+00 0. -1.
         22    1    3    3    0    0 -0.26434149045E+02 -0.53189260609E+02  0.30460706069E+03  0.31034387879E+03  0.00000000000E+00 0. -1.
</event>
<event>
 7    1  0.6078244E-006  0.1130065E+03  0.7818608E-02  0.1326796E+00
          2   -1    0    0  502    0  0.00000000000E+00  0.00000000000E+00  0.14629703775E+04  0.14629703775E+04  0.00000000000E+00 0. -1.
          1   -1    0    0  501    0 -0.00000000000E+00 -0.00000000000E+00 -0.18739560331E+03  0.18739560331E+03  0.00000000000E+00 0. -1.
         25    2    1    2    0    0  0.12091200576E+03  0.13991202820E+02  0.37210490625E+03  0.41096775478E+03  0.12496786515E+03 0.  0.
          2    1    1    2  501    0 -0.10532069253E+03  0.41637869914E+02 -0.14799001793E+03  0.18635237024E+03  0.00000000000E+00 0. -1.
          1    1    1    2  502    0 -0.15591313234E+02 -0.55629072734E+02  0.10514598859E+04  0.10530458558E+04  0.00000000000E+00 0. -1.
         22    1    3    3    0    0  0.14056291688E+03 -0.14308302778E+01  0.25451610682E+03  0.29075493032E+03  0.00000000000E+00 0.  1.
         22    1    3    3    0    0 -0.19650911116E+02  0.15422033098E+02  0.11758879943E+03  0.12021282446E+03  0.00000000000E+00 0.  1.
</event>
<event>
 7    1  0.6078244E-006  0.5132609E+02  0.7818608E-02  0.1496427E+00
          2   -1    0    0  502    0  0.00000000000E+00  0.00000000000E+00  0.10694062915E+03  0.10694062915E+03  0.00000000000E+00 0. -1.
          1   -1    0    0  501    0 -0.00000000000E+00 -0.00000000000E+00 -0.24444659404E+04  0.24444659404E+04  0.00000000000E+00 0. -1.
         25    2    1    2    0    0 -0.51220902953E+02  0.40237801299E+02 -0.12453018268E+03  0.18808300468E+03  0.12499915479E+03 0.  0.
          2    1    1    2  501    0  0.58938639729E+00 -0.33788748135E+02 -0.22793548028E+04  0.22796053044E+04  0.00000000000E+00 0. -1.
          1    1    1    2  502    0  0.50631516555E+02 -0.64490531643E+01  0.66359674279E+02  0.83718260408E+02  0.00000000000E+00 0. -1.
         22    1    3    3    0    0 -0.24039510048E+02 -0.97106046978E+01 -0.12849026067E+03  0.13107990301E+03  0.00000000000E+00 0.  1.
         22    1    3    3    0    0 -0.27181392905E+02  0.49948405997E+02  0.39600779856E+01  0.57003101666E+02  0.00000000000E+00 0.  1.
</event>
<event>
 7    1  0.6078244E-006  0.8811293E+02  0.7818608E-02  0.1319627E+00
          2   -1    0    0  502    0  0.00000000000E+00  0.00000000000E+00  0.73244509999E+03  0.73244509999E+03  0.00000000000E+00 0. -1.
          1   -1    0    0  501    0 -0.00000000000E+00 -0.00000000000E+00 -0.39226548628E+03  0.39226548628E+03  0.00000000000E+00 0. -1.
         25    2    1    2    0    0 -0.44006159914E+01 -0.20310234730E+02  0.25969245726E+03  0.28895928065E+03  0.12500168982E+03 0.  0.
          2    1    1    2  501    0 -0.72332047949E+02 -0.50318621978E+02 -0.36640542143E+03  0.37685119309E+03  0.00000000000E+00 0. -1.
          1    1    1    2  502    0  0.76732663941E+02  0.70628856708E+02  0.44689257788E+03  0.45890011253E+03  0.00000000000E+00 0. -1.
         22    1    3    3    0    0 -0.40202447494E+02 -0.16390858497E+01  0.24122655054E+03  0.24455913819E+03  0.00000000000E+00 0. -1.
         22    1    3    3    0    0  0.35801831502E+02 -0.18671148880E+02  0.18465906725E+02  0.44400142462E+02  0.00000000000E+00 0. -1.
</event>
<event>
 7    1  0.6078244E-006  0.2445897E+03  0.7818608E-02  0.1179368E+00
          2   -1    0    0  502    0  0.00000000000E+00  0.00000000000E+00  0.22093254032E+04  0.22093254032E+04  0.00000000000E+00 0. -1.
          1   -1    0    0  501    0 -0.00000000000E+00 -0.00000000000E+00 -0.70987062535E+03  0.70987062535E+03  0.00000000000E+00 0. -1.
         25    2    1    2    0    0 -0.24182527864E+03 -0.67228485516E+02  0.18814903447E+03  0.33767377821E+03  0.12499754662E+03 0.  0.
          2    1    1    2  501    0  0.21211272889E+00  0.11615028467E+03 -0.62190447010E+03  0.63265796727E+03  0.00000000000E+00 0. -1.
          1    1    1    2  502    0  0.24161316591E+03 -0.48921799149E+02  0.19332102135E+04  0.19488642831E+04  0.00000000000E+00 0. -1.
         22    1    3    3    0    0 -0.55345891560E+02 -0.49433221510E+02  0.29686710798E+01  0.74267247892E+02  0.00000000000E+00 0.  1.
         22    1    3    3    0    0 -0.18647938708E+03 -0.17795264006E+02  0.18518036339E+03  0.26340653031E+03  0.00000000000E+00 0.  1.
</event>
<event>
 7    1  0.6078244E-006  0.1411085E+03  0.7818608E-02  0.1294034E+00
          2   -1    0    0  502    0  0.00000000000E+00  0.00000000000E+00  0.10244400399E+04  0.10244400399E+04  0.00000000000E+00 0. -1.
          1   -1    0    0  501    0 -0.00000000000E+00 -0.00000000000E+00 -0.16009586231E+04  0.16009586231E+04  0.00000000000E+00 0. -1.
         25    2    1    2    0    0 -0.37013525870E+01 -0.16817326987E+03  0.84896515144E+02  0.22613344593E+03  0.12503186943E+03 0.  0.
          2    1    1    2  501    0  0.53169310098E+02  0.13034229334E+03 -0.15259805861E+04  0.15324597346E+04  0.00000000000E+00 0. -1.
          1    1    1    2  502    0 -0.49467957511E+02  0.37830976524E+02  0.86456548784E+03  0.86680548243E+03  0.00000000000E+00 0. -1.
         22    1    3    3    0    0  0.23666360787E+02 -0.14655927840E+03  0.16515915740E+02  0.14937367301E+03  0.00000000000E+00 0. -1.
         22    1    3    3    0    0 -0.27367713374E+02 -0.21613991473E+02  0.68380599404E+02  0.76759772912E+02  0.00000000000E+00 0. -1.
</event>
<event>
 7    1  0.6078244E-006  0.7657750E+02  0.7818608E-02  0.1423044E+00
          2   -1    0    0  502    0  0.00000000000E+00  0.00000000000E+00  0.22717799126E+04  0.22717799126E+04  0.00000000000E+00 0. -1.
          1   -1    0    0  501    0 -0.00000000000E+00 -0.00000000000E+00 -0.20321163692E+03  0.20321163692E+03  0.00000000000E+00 0. -1.
         25    2    1    2    0    0  0.94234312463E+02  0.63963002100E+02  0.43215876208E+03  0.46406617752E+03  0.12499940075E+03 0.  0.
          2    1    1    2  501    0 -0.59367805722E+02 -0.47355546657E+02 -0.17934476214E+03  0.19476043711E+03  0.00000000000E+00 0. -1.
          1    1    1    2  502    0 -0.34866506742E+02 -0.16607455442E+02  0.18157542757E+04  0.18161649349E+04  0.00000000000E+00 0. -1.
         22    1    3    3    0    0  0.87593305560E+02  0.88232283745E+02  0.24023645356E+03  0.27050152808E+03  0.00000000000E+00 0. -1.
         22    1    3    3    0    0  0.66410069040E+01 -0.24269281645E+02  0.19192230852E+03  0.19356464944E+03  0.00000000000E+00 0. -1.
</event>
<event>
 7    1  0.6078244E-006  0.1146486E+03  0.7818608E-02  0.1285792E+00
          2   -1    0    0  502    0  0.00000000000E+00  0.00000000000E+00  0.14041500754E+03  0.14041500754E+03  0.00000000000E+00 0. -1.
          1   -1    0    0  501    0 -0.00000000000E+00 -0.00000000000E+00 -0.44884743716E+03  0.44884743716E+03  0.00000000000E+00 0. -1.
         25    2    1    2    0    0  0.57505339996E+02 -0.50630991142E+01 -0.15051096033E+03  0.20398358569E+03  0.12499301961E+03 0.  0.
          2    1    1    2  501    0  0.60141542747E+02  0.56909896234E+02 -0.22536778952E+03  0.24009660974E+03  0.00000000000E+00 0. -1.
          1    1    1    2  502    0 -0.11764688274E+03 -0.51846797120E+02  0.67446320227E+02  0.14518224927E+03  0.00000000000E+00 0. -1.
         22    1    3    3    0    0 -0.34850332617E+02  0.78815584673E+01 -0.13395297288E+02  0.38158860528E+02  0.00000000000E+00 0. -1.
         22    1    3    3    0    0  0.92355672613E+02 -0.12944657581E+02 -0.13711566304E+03  0.16582472516E+03  0.00000000000E+00 0. -1.
</event>
<event>
 7    1  0.6078244E-006  0.1029589E+03  0.7818608E-02  0.1360473E+00
          2   -1    0    0  502    0  0.00000000000E+00  0.00000000000E+00  0.16757151779E+04  0.16757151779E+04  0.00000000000E+00 0. -1.
          1   -1    0    0  501    0 -0.00000000000E+00 -0.00000000000E+00 -0.26606163932E+04  0.26606163932E+04  0.00000000000E+00 0. -1.
         25    2    1    2    0    0  0.93662482359E+02  0.22045968402E+02  0.34944699287E+03  0.38340010334E+03  0.12499501226E+03 0.  0.
          2    1    1    2  501    0 -0.99932166511E+02  0.24978271564E+02 -0.26422062263E+04  0.26442133224E+04  0.00000000000E+00 0. -1.
          1    1    1    2  502    0  0.62696841526E+01 -0.47024239967E+02  0.13078580182E+04  0.13087181453E+04  0.00000000000E+00 0. -1.
         22    1    3    3    0    0  0.11333646196E+03 -0.14611794816E+02  0.22819010519E+03  0.25520458904E+03  0.00000000000E+00 0.  1.
         22    1    3    3    0    0 -0.19673979605E+02  0.36657763218E+02  0.12125688768E+03  0.12819551430E+03  0.00000000000E+00 0.  1.
</event>
<event>
 7    1  0.6078244E-006  0.6079376E+02  0.7818608E-02  0.1425974E+00
          2   -1    0    0  502    0  0.00000000000E+00  0.00000000000E+00  0.13330995328E+04  0.13330995328E+04  0.00000000000E+00 0. -1.
          1   -1    0    0  501    0 -0.00000000000E+00 -0.00000000000E+00 -0.53386721130E+02  0.53386721130E+02  0.00000000000E+00 0. -1.
         25    2    1    2    0    0  0.67695969941E+02  0.41921000693E+01  0.13671705187E+03  0.19724769562E+03  0.12495912574E+03 0.  0.
          2    1    1    2  501    0 -0.20475528992E+02 -0.42937466885E+02  0.30605343210E+01  0.47668020940E+02  0.00000000000E+00 0. -1.
          1    1    1    2  502    0 -0.47220440949E+02  0.38745366816E+02  0.11399352254E+04  0.11415705373E+04  0.00000000000E+00 0. -1.
         22    1    3    3    0    0  0.81773547758E+02  0.47634610482E+02  0.76595135401E+02  0.12174885624E+03  0.00000000000E+00 0. -1.
         22    1    3    3    0    0 -0.14077577817E+02 -0.43442510413E+02  0.60121916464E+02  0.75498839378E+02  0.00000000000E+00 0. -1.
</event>
<event>
 7    1  0.6078244E-006  0.4200361E+02  0.7818608E-02  0.1563472E+00
          2   -1    0    0  502    0  0.00000000000E+00  0.00000000000E+00  0.38018718581E+03  0.38018718581E+03  0.00000000000E+00 0. -1.
          1   -1    0    0  501    0 -0.00000000000E+00 -0.00000000000E+00 -0.10702184755E+03  0.10702184755E+03  0.00000000000E+00 0. -1.
         25    2    1    2    0    0  0.64072737422E+02 -0.12451314675E+02  0.12780143845E+03  0.19031977824E+03  0.12501223701E+03 0.  0.
          2    1    1    2  501    0 -0.41213358956E+02 -0.10082410594E+01 -0.69276883541E+02  0.80615408574E+02  0.00000000000E+00 0. -1.
          1    1    1    2  502    0 -0.22859378466E+02  0.13459555734E+02  0.21464078335E+03  0.21627384655E+03  0.00000000000E+00 0. -1.
         22    1    3    3    0    0  0.80580673313E+02  0.14298865974E+02  0.29303291939E+02  0.86927472057E+02  0.00000000000E+00 0.  1.
         22    1    3    3    0    0 -0.16507935891E+02 -0.26750180649E+02  0.98498146508E+02  0.10339230618E+03  0.00000000000E+00 0.  1.
</event>
<event>
 7    1  0.6078244E-006  0.8561801E+02  0.7818608E-02  0.1436469E+00
          2   -1    0    0  502    0  0.00000000000E+00  0.00000000000E+00  0.21043480582E+04  0.21043480582E+04  0.00000000000E+00 0. -1.
          1   -1    0    0  501    0 -0.00000000000E+00 -0.00000000000E+00 -0.18517436545E+02  0.18517436545E+02  0.00000000000E+00 0. -1.
         25    2    1    2    0    0  0.54482928181E+02  0.55774358662E+02  0.56946686018E+03  0.58821523945E+03  0.12500197809E+03 0.  0.
          2    1    1    2  501    0 -0.37338601047E+02 -0.81839868184E+02  0.21692394782E+03  0.23483597316E+03  0.00000000000E+00 0. -1.
          1    1    1    2  502    0 -0.17144327134E+02  0.26065509523E+02  0.12994398137E+04  0.12998142822E+04  0.00000000000E+00 0. -1.
         22    1    3    3    0    0  0.13297179297E+02  0.83910794784E+02  0.23168885732E+03  0.24677431605E+03  0.00000000000E+00 0. -1.
         22    1    3    3    0    0  0.41185748885E+02 -0.28136436123E+02  0.33777800287E+03  0.34144092340E+03  0.00000000000E+00 0. -1.
</event>
<event>
 7    1  0.6078244E-006  0.2355972E+02  0.7818608E-02  0.1708299E+00
          2   -1    0    0  502    0  0.00000000000E+00  0.00000000000E+00  0.57086505626E+03  0.57086505626E+03  0.00000000000E+00 0. -1.
          1   -1    0    0  501    0 -0.00000000000E+00 -0.00000000000E+00 -0.11497661580E+03  0.11497661580E+03  0.00000000000E+00 0. -1.
         25    2    1    2    0    0 -0.24138459782E+02  0.32387668659E+02 -0.46054526326E+01  0.13144718670E+03  0.12500210548E+03 0.  0.
          2    1    1    2  501    0  0.64199044467E+01 -0.22001110032E+02 -0.43931899207E+02  0.49550739487E+02  0.00000000000E+00 0. -1.
          1    1    1    2  502    0  0.17718555336E+02 -0.10386558627E+02  0.50442579231E+03  0.50484374587E+03  0.00000000000E+00 0. -1.
         22    1    3    3    0    0 -0.74085046615E+02  0.12535654127E+02 -0.15214258825E+02  0.76662966470E+02  0.00000000000E+00 0.  1.
         22    1    3    3    0    0  0.49946586833E+02  0.19852014533E+02  0.10608806192E+02  0.54784220229E+02  0.00000000000E+00 0.  1.
</event>
<event>
 7    1  0.6078244E-006  0.1158685E+03  0.7818608E-02  0.1274678E+00
          2   -1    0    0  502    0  0.00000000000E+00  0.00000000000E+00  0.85923034543E+03  0.85923034543E+03  0.00000000000E+00 0. -1.
          1   -1    0    0  501    0 -0.00000000000E+00 -0.00000000000E+00 -0.11403176568E+03  0.11403176568E+03  0.00000000000E+00 0. -1.
         25    2    1    2    0    0 -0.55449148955E+02  0.12112648718E+03  0.41360286591E+02  0.18729907977E+03  0.12499615178E+03 0.  0.
          2    1    1    2  501    0 -0.35108619322E+02 -0.11153972198E+03  0.52310364964E+02  0.12810190870E+03  0.00000000000E+00 0. -1.
          1    1    1    2  502    0  0.90557768276E+02 -0.95867652037E+01  0.65152792820E+03  0.65786112265E+03  0.00000000000E+00 0. -1.
         22    1    3    3    0    0 -0.11389472274E+02  0.96735409604E+02  0.78193131216E+02  0.12490646628E+03  0.00000000000E+00 0. -1.
         22    1    3    3    0    0 -0.44059676681E+02  0.24391077575E+02 -0.36832844624E+02  0.62392613486E+02  0.00000000000E+00 0. -1.
</event>
<event>
 7    1  0.6078244E-006  0.8969476E+02  0.7818608E-02  0.1316515E+00
          2   -1    0    0  502    0  0.00000000000E+00  0.00000000000E+00  0.15138476568E+04  0.15138476568E+04  0.00000000000E+00 0. -1.
          1   -1    0    0  501    0 -0.00000000000E+00 -0.00000000000E+00 -0.47128600448E+02  0.47128600448E+02  0.00000000000E+00 0. -1.
         25    2    1    2    0    0 -0.20832268235E+02  0.32877691928E+02  0.55622075390E+03  0.57142098333E+03  0.12500194835E+03 0.  0.
          2    1    1    2  501    0 -0.81330001776E+02 -0.37823013901E+02  0.18336881382E+02  0.91549936036E+02  0.00000000000E+00 0. -1.
          1    1    1    2  502    0  0.10216227001E+03  0.49453219726E+01  0.89216142103E+03  0.89800533785E+03  0.00000000000E+00 0. -1.
         22    1    3    3    0    0  0.18209592104E+02  0.72779769379E+02  0.32831039968E+03  0.33677322134E+03  0.00000000000E+00 0. -1.
         22    1    3    3    0    0 -0.39041860339E+02 -0.39902077451E+02  0.22791035422E+03  0.23464776199E+03  0.00000000000E+00 0. -1.
</event>
<event>
 7    1  0.6078244E-006  0.2747134E+03  0.7818608E-02  0.1140579E+00
          2   -1    0    0  502    0  0.00000000000E+00  0.00000000000E+00  0.32927022136E+03  0.32927022136E+03  0.00000000000E+00 0. -1.
          1   -1    0    0  501    0 -0.00000000000E+00 -0.00000000000E+00 -0.10249804194E+04  0.10249804194E+04  0.00000000000E+00 0. -1.
         25    2    1    2    0    0 -0.26640435279E+03  0.25853043525E+03 -0.17296850847E+03  0.42819946758E+03  0.12500965551E+03 0.  0.
          2    1    1    2  501    0  0.15977450173E+03 -0.29355318219E+02 -0.63063357421E+03  0.65122064697E+03  0.00000000000E+00 0. -1.
          1    1    1    2  502    0  0.10662985106E+03 -0.22917511703E+03  0.10789188460E+03  0.27483052626E+03  0.00000000000E+00 0. -1.
         22    1    3    3    0    0 -0.18651452883E+03  0.94270001320E+02 -0.96266640242E+02  0.23009078347E+03  0.00000000000E+00 0. -1.
         22    1    3    3    0    0 -0.79889823959E+02  0.16426043393E+03 -0.76701868231E+02  0.19810868410E+03  0.00000000000E+00 0. -1.
</event>
<event>
 7    1  0.6078244E-006  0.3251970E+02  0.7818608E-02  0.1581274E+00
          2   -1    0    0  502    0  0.00000000000E+00  0.00000000000E+00  0.55342523074E+02  0.55342523074E+02  0.00000000000E+00 0. -1.
          1   -1    0    0  501    0 -0.00000000000E+00 -0.00000000000E+00 -0.80628010222E+03  0.80628010222E+03  0.00000000000E+00 0. -1.
         25    2    1    2    0    0 -0.62981044061E+00  0.43424145103E+02 -0.25833669937E+03  0.29025340193E+03  0.12499253598E+03 0.  0.
          2    1    1    2  501    0 -0.22650126466E+02 -0.20669314631E+02 -0.52473321405E+03  0.52562838082E+03  0.00000000000E+00 0. -1.
          1    1    1    2  502    0  0.23279936907E+02 -0.22754830472E+02  0.32132334265E+02  0.45740842554E+02  0.00000000000E+00 0. -1.
         22    1    3    3    0    0  0.39519953714E+02  0.27674725756E+02 -0.23750827757E+03  0.24235902933E+03  0.00000000000E+00 0.  1.
         22    1    3    3    0    0 -0.40149764155E+02  0.15749419347E+02 -0.20828421803E+02  0.47894372594E+02  0.00000000000E+00 0.  1.
</event>
<event>
 7    1  0.6078244E-006  0.5741629E+02  0.7818608E-02  0.1543785E+00
          2   -1    0    0  502    0  0.00000000000E+00  0.00000000000E+00  0.10165353784E+03  0.10165353784E+03  0.00000000000E+00 0. -1.
          1   -1    0    0  501    0 -0.00000000000E+00 -0.00000000000E+00 -0.40656331858E+03  0.40656331858E+03  0.00000000000E+00 0. -1.
         25    2    1    2    0    0  0.27464510007E+02  0.51992590649E+02 -0.91413863275E+02  0.16564712279E+03  0.12499978439E+03 0.  0.
          2    1    1    2  501    0 -0.21350524275E+02  0.53434003708E+01 -0.26460468789E+03  0.26551843188E+03  0.00000000000E+00 0. -1.
          1    1    1    2  502    0 -0.61139857319E+01 -0.57335991020E+02  0.51108770421E+02  0.77051301752E+02  0.00000000000E+00 0. -1.
         22    1    3    3    0    0 -0.17335050084E+02  0.56612164863E+02 -0.10330314363E+03  0.11906712668E+03  0.00000000000E+00 0.  1.
         22    1    3    3    0    0  0.44799560091E+02 -0.46195742136E+01  0.11889280356E+02  0.46579996110E+02  0.00000000000E+00 0.  1.
</event>
<event>
 7    1  0.6078244E-006  0.1024513E+03  0.7818608E-02  0.1426154E+00
          2   -1    0    0  502    0  0.00000000000E+00  0.00000000000E+00  0.20992831211E+04  0.20992831211E+04  0.00000000000E+00 0. -1.
          1   -1    0    0  501    0 -0.00000000000E+00 -0.00000000000E+00 -0.34370028138E+03  0.34370028138E+03  0.00000000000E+00 0. -1.
         25    2    1    2    0    0 -0.13504220473E+02 -0.94576395044E+02 -0.36649493443E+02  0.16154333173E+03  0.12500401668E+03 0.  0.
          2    1    1    2  501    0  0.27284570106E+02 -0.70821026559E+01 -0.24249515206E+03  0.24412804574E+03  0.00000000000E+00 0. -1.
          1    1    1    2  502    0 -0.13780349633E+02  0.10165849770E+03  0.20347274852E+04  0.20373120250E+04  0.00000000000E+00 0. -1.
         22    1    3    3    0    0  0.40637069265E+02 -0.51781886697E+02  0.23605591843E+02  0.69928242896E+02  0.00000000000E+00 0. -1.
         22    1    3    3    0    0 -0.54141289737E+02 -0.42794508347E+02 -0.60255085285E+02  0.91615088832E+02  0.00000000000E+00 0. -1.
</event>
<event>
 7    1  0.6078244E-006  0.1950009E+03  0.7818608E-02  0.1283826E+00
          2   -1    0    0  502    0  0.00000000000E+00  0.00000000000E+00  0.74163874611E+03  0.74163874611E+03  0.00000000000E+00 0. -1.
          1   -1    0    0  501    0 -0.00000000000E+00 -0.00000000000E+00 -0.83594740770E+03  0.83594740770E+03  0.00000000000E+00 0. -1.
         25    2    1    2    0    0  0.15730637769E+03  0.10277320846E+03 -0.45699383617E+03  0.50968240614E+03  0.12500063995E+03 0.  0.
          2    1    1    2  501    0  0.28008916063E+02 -0.40926564552E+02 -0.33742335287E+03  0.34104838678E+03  0.00000000000E+00 0. -1.
          1    1    1    2  502    0 -0.18531529375E+03 -0.61846643911E+02  0.70010852745E+03  0.72685536090E+03  0.00000000000E+00 0. -1.
         22    1    3    3    0    0  0.11861653619E+02  0.55912050531E+02 -0.53762397700E+02  0.78468156775E+02  0.00000000000E+00 0.  1.
         22    1    3    3    0    0  0.14544472407E+03  0.46861157933E+02 -0.40323143847E+03  0.43121424936E+03  0.00000000000E+00 0.  1.
</event>
<event>
 7    1  0.6078244E-006  0.4250051E+02  0.7818608E-02  0.1538722E+00
          2   -1    0    0  502    0  0.00000000000E+00  0.00000000000E+00  0.34260912500E+03  0.34260912500E+03  0.00000000000E+00 0. -1.
          1   -1    0    0  501    0 -0.00000000000E+00 -0.00000000000E+00 -0.30982566907E+03  0.30982566907E+03  0.00000000000E+00 0. -1.
         25    2    1    2    0    0 -0.65773859968E+02 -0.10072878494E+02  0.38434257104E+02  0.14672690511E+03  0.12499571604E+03 0.  0.
          2    1    1    2  501    0  0.41265216063E+02 -0.84616184354E+01 -0.25298715199E+03  0.25647010764E+03  0.00000000000E+00 0. -1.
          1    1    1    2  502    0  0.24508643905E+02  0.18534496929E+02  0.24733635081E+03  0.24923778132E+03  0.00000000000E+00 0. -1.
         22    1    3    3    0    0 -0.33455703424E+02 -0.16045153077E+02  0.83254382032E+02  0.91148357946E+02  0.00000000000E+00 0.  1.
         22    1    3    3    0    0 -0.32318156544E+02  0.59722745829E+01 -0.44820124928E+02  0.55578547162E+02  0.00000000000E+00 0.  1.
</event>
<event>
 7    1  0.6078244E-006  0.9740471E+02  0.7818608E-02  0.1365579E+00
          2   -1    0    0  502    0  0.00000000000E+00  0.00000000000E+00  0.13782241078E+04  0.13782241078E+04  0.00000000000E+00 0. -1.
          1   -1    0    0  501    0 -0.00000000000E+00 -0.00000000000E+00 -0.15948023512E+03  0.15948023512E+03  0.00000000000E+00 0. -1.
         25    2    1    2    0    0 -0.45340493963E+02 -0.28773317808E+02  0.27766753932E+03  0.30920516641E+03  0.12499963334E+03 0.  0.
          2    1    1    2  501    0  0.74007625377E+02  0.67333247651E+02 -0.12568994750E+03  0.16065135467E+03  0.00000000000E+00 0. -1.
          1    1    1    2  502    0 -0.28667131413E+02 -0.38559929843E+02  0.10667662808E+04  0.10678478218E+04  0.00000000000E+00 0. -1.
         22    1    3    3    0    0  0.18603910584E+01 -0.34082817649E+02  0.75699399365E+01  0.34962887530E+02  0.00000000000E+00 0.  1.
         22    1    3    3    0    0 -0.47200885022E+02  0.53094998409E+01  0.27009759938E+03  0.27424227888E+03  0.00000000000E+00 0.  1.
</event>
<event>
 7    1  0.6078244E-006  0.6186481E+02  0.7818608E-02  0.1403417E+00
          2   -1    0    0  502    0  0.00000000000E+00  0.00000000000E+00  0.23579846841E+04  0.23579846841E+04  0.00000000000E+00 0. -1.
          1   -1    0    0  501    0 -0.00000000000E+00 -0.00000000000E+00 -0.37512436210E+03  0.37512436210E+03  0.00000000000E+00 0. -1.
         25    2    1    2    0    0 -0.46966470405E+01  0.70565694123E+01  0.52019009488E+02  0.13565974329E+03  0.12500293971E+03 0.  0.
          2    1    1    2  501    0  0.50735028893E+02 -0.38366571343E+02 -0.32992334080E+03  0.33599917821E+03  0.00000000000E+00 0. -1.
          1    1    1    2  502    0 -0.46038381852E+02  0.31310001931E+02  0.22607646533E+04  0.22614501247E+04  0.00000000000E+00 0. -1.
         22    1    3    3    0    0  0.48361555435E+02  0.13759024365E+02  0.63464869004E+02  0.80968761836E+02  0.00000000000E+00 0.  1.
         22    1    3    3    0    0 -0.53058202476E+02 -0.67024549530E+01 -0.11445859515E+02  0.54690981454E+02  0.00000000000E+00 0.  1.
</event>
<event>
 7    1  0.6078244E-006  0.6497179E+02  0.7818608E-02  0.1409123E+00
          2   -1    0    0  502    0  0.00000000000E+00  0.00000000000E+00  0.89486872335E+02  0.89486872335E+02  0.00000000000E+00 0. -1.
          1   -1    0    0  501    0 -0.00000000000E+00 -0.00000000000E+00 -0.27938331012E+03  0.27938331012E+03  0.00000000000E+00 0. -1.
         25    2    1    2    0    0 -0.87153682766E+02 -0.44011024628E+02 -0.13098311610E+03  0.20569981053E+03  0.12499240232E+03 0.  0.
          2    1    1    2  501    0  0.50357459512E+02 -0.58216770933E+01 -0.82546655643E+02  0.96869582484E+02  0.00000000000E+00 0. -1.
          1    1    1    2  502    0  0.36796223254E+02  0.49832701721E+02  0.23633333961E+02  0.66300789443E+02  0.00000000000E+00 0. -1.
         22    1    3    3    0    0 -0.92303429575E+02 -0.78154413298E+02 -0.83421868158E+02  0.14692597972E+03  0.00000000000E+00 0. -1.
         22    1    3    3    0    0  0.51497468083E+01  0.34143388670E+02 -0.47561247944E+02  0.58773830810E+02  0.00000000000E+00 0. -1.
</event>
<event>
 7    1  0.6078244E-006  0.7422451E+02  0.7818608E-02  0.1352413E+00
          2   -1    0    0  502    0  0.00000000000E+00  0.00000000000E+00  0.39793268192E+04  0.39793268192E+04  0.00000000000E+00 0. -1.
          1   -1    0    0  501    0 -0.00000000000E+00 -0.00000000000E+00 -0.11196473772E+03  0.11196473772E+03  0.00000000000E+00 0. -1.
         25    2    1    2    0    0 -0.63095208071E+01 -0.95372975920E+01  0.25686733901E+04  0.25717384138E+04  0.12499885506E+03 0.  0.
          2    1    1    2  501    0 -0.38643687892E+02  0.63772071279E+02 -0.96854388829E+02  0.12223331921E+03  0.00000000000E+00 0. -1.
          1    1    1    2  502    0  0.44953208699E+02 -0.54234773687E+02  0.13955430802E+04  0.13973198239E+04  0.00000000000E+00 0. -1.
         22    1    3    3    0    0  0.25435192763E+01  0.50995665901E+02  0.17656332016E+04  0.17663713171E+04  0.00000000000E+00 0. -1.
         22    1    3    3    0    0 -0.88530400834E+01 -0.60532963493E+02  0.80304018854E+03  0.80536709667E+03  0.00000000000E+00 0. -1.
</event>
<event>
 7    1  0.6078244E-006  0.6099468E+02  0.7818608E-02  0.1402618E+00
          2   -1    0    0  502    0  0.00000000000E+00  0.00000000000E+00  0.14753186125E+03  0.14753186125E+03  0.00000000000E+00 0. -1.
          1   -1    0    0  501    0 -0.00000000000E+00 -0.00000000000E+00 -0.28653700004E+03  0.28653700004E+03  0.00000000000E+00 0. -1.
         25    2    1    2    0    0 -0.29831904189E+02  0.17930264130E+02 -0.10944463282E+03  0.16975109007E+03  0.12500347214E+03 0.  0.
          2    1    1    2  501    0 -0.24757485833E+02 -0.51151055128E+02 -0.13192516840E+03  0.14364405175E+03  0.00000000000E+00 0. -1.
          1    1    1    2  502    0  0.54589390022E+02  0.33220790998E+02  0.10236466243E+03  0.12067371948E+03  0.00000000000E+00 0. -1.
         22    1    3    3    0    0 -0.46741619386E+02  0.51725788181E+02 -0.11194474367E+03  0.13187858727E+03  0.00000000000E+00 0. -1.
         22    1    3    3    0    0  0.16909715197E+02 -0.33795524050E+02  0.25001108491E+01  0.37872502797E+02  0.00000000000E+00 0. -1.
</event>
<event>
 7    1  0.6078244E-006  0.8912690E+02  0.7818608E-02  0.1321859E+00
          2   -1    0    0  502    0  0.00000000000E+00  0.00000000000E+00  0.25497065003E+04  0.25497065003E+04  0.00000000000E+00 0. -1.
          1   -1    0    0  501    0 -0.00000000000E+00 -0.00000000000E+00 -0.13260526443E+03  0.13260526443E+03  0.00000000000E+00 0. -1.
         25    2    1    2    0    0  0.96891834108E+02 -0.11446104862E+03  0.37741644148E+03  0.42492083348E+03  0.12500074104E+03 0.  0.
          2    1    1    2  501    0 -0.76853842047E+02  0.40599002653E+02 -0.90704847375E+02  0.12562707268E+03  0.00000000000E+00 0. -1.
          1    1    1    2  502    0 -0.20037992061E+02  0.73862045969E+02  0.21303896418E+04  0.21317638586E+04  0.00000000000E+00 0. -1.
         22    1    3    3    0    0 -0.14726071521E+02 -0.28256661400E+02  0.17706819612E+03  0.17991231802E+03  0.00000000000E+00 0. -1.
         22    1    3    3    0    0  0.11161790563E+03 -0.86204387222E+02  0.20034824535E+03  0.24500851546E+03  0.00000000000E+00 0. -1.
</event>
<event>
 7    1  0.6078244E-006  0.2253425E+03  0.7818608E-02  0.1156864E+00
          2   -1    0    0  502    0  0.00000000000E+00  0.00000000000E+00  0.16774932816E+04  0.16774932816E+04  0.00000000000E+00 0. -1.
          1   -1    0    0  501    0 -0.00000000000E+00 -0.00000000000E+00 -0.38883205432E+03  0.38883205432E+03  0.00000000000E+00 0. -1.
         25    2    1    2    0    0  0.25440959216E+03 -0.21670741268E+02  0.17042140378E+02  0.28479693467E+03  0.12499999135E+03 0.  0.
          2    1    1    2  501    0 -0.16570993447E+03  0.15868418708E+03 -0.19788763086E+03  0.30298509544E+03  0.00000000000E+00 0. -1.
          1    1    1    2  502    0 -0.88699657687E+02 -0.13701344582E+03  0.14695067177E+04  0.14785433058E+04  0.00000000000E+00 0. -1.
         22    1    3    3    0    0  0.24649306154E+03 -0.46392637586E+02 -0.48073797259E+01  0.25086693108E+03  0.00000000000E+00 0.  1.
         22    1    3    3    0    0  0.79165306169E+01  0.24721896317E+02  0.21849520104E+02  0.33930003585E+02  0.00000000000E+00 0.  1.
</event>
<event>
 7    1  0.6078244E-006  0.1079703E+03  0.7818608E-02  0.1310092E+00
          2   -1    0    0  502    0  0.00000000000E+00  0.00000000000E+00  0.15782099008E+04  0.15782099008E+04  0.00000000000E+00 0. -1.
          1   -1    0    0  501    0 -0.00000000000E+00 -0.00000000000E+00 -0.84873928734E+03  0.84873928734E+03  0.00000000000E+00 0. -1.
         25    2    1    2    0    0  0.97940371266E+01  0.63659499869E+02  0.36794839100E+02  0.14535062702E+03  0.12499795799E+03 0.  0.
          2    1    1    2  501    0 -0.61789637769E+02  0.33370194474E+02 -0.79086623274E+03  0.79397791361E+03  0.00000000000E+00 0. -1.
          1    1    1    2  502    0  0.51995600642E+02 -0.97029694343E+02  0.14835420071E+04  0.14876206476E+04  0.00000000000E+00 0. -1.
         22    1    3    3    0    0 -0.51535964608E+02  0.47823497411E+02 -0.33025706762E+01  0.70384298859E+02  0.00000000000E+00 0. -1.
         22    1    3    3    0    0  0.61330001735E+02  0.15836002458E+02  0.40097409776E+02  0.74966328157E+02  0.00000000000E+00 0. -1.
</event>
<event>
 7    1  0.6078244E-006  0.8205655E+02  0.7818608E-02  0.1350156E+00
          2   -1    0    0  502    0  0.00000000000E+00  0.00000000000E+00  0.31263473530E+03  0.31263473530E+03  0.00000000000E+00 0. -1.
          1   -1    0    0  501    0 -0.00000000000E+00 -0.00000000000E+00 -0.56437316652E+03  0.56437316652E+03  0.00000000000E+00 0. -1.
         25    2    1    2    0    0  0.35740764882E+02 -0.11337649059E+02 -0.28534145348E+03  0.31376919634E+03  0.12500167575E+03 0.  0.
          2    1    1    2  501    0 -0.11577554390E+02  0.89755869640E+02 -0.25111876633E+03  0.26692843742E+03  0.00000000000E+00 0. -1.
          1    1    1    2  502    0 -0.24163210492E+02 -0.78418220581E+02  0.28472178858E+03  0.29631026805E+03  0.00000000000E+00 0. -1.
         22    1    3    3    0    0  0.65763106678E+02  0.17295336386E+02 -0.25058420165E+03  0.25964660017E+03  0.00000000000E+00 0.  1.
         22    1    3    3    0    0 -0.30022341796E+02 -0.28632985444E+02 -0.34757251825E+02  0.54122596175E+02  0.00000000000E+00 0.  1.
</event>
<event>
 7    1  0.6078244E-006  0.1948748E+03  0.7818608E-02  0.1266516E+00
          2   -1    0    0  502    0  0.00000000000E+00  0.00000000000E+00  0.54962679977E+03  0.54962679977E+03  0.00000000000E+00 0. -1.
          1   -1    0    0  501    0 -0.00000000000E+00 -0.00000000000E+00 -0.29567037294E+03  0.29567037294E+03  0.00000000000E+00 0. -1.
         25    2    1    2    0    0  0.21326381285E+03 -0.11374559454E+03  0.17752300097E+03  0.32489842161E+03  0.12500021736E+03 0.  0.
          2    1    1    2  501    0 -0.15531261318E+03  0.10514222104E+03 -0.17844042771E+03  0.25887811939E+03  0.00000000000E+00 0. -1.
          1    1    1    2  502    0 -0.57951199675E+02  0.86033735037E+01  0.25487385356E+03  0.26152063171E+03  0.00000000000E+00 0. -1.
         22    1    3    3    0    0  0.18182562101E+03 -0.11431965478E+03  0.91769499914E+02  0.23356194262E+03  0.00000000000E+00 0. -1.
         22    1    3    3    0    0  0.31438191841E+02  0.57406023106E+00  0.85753501058E+02  0.91336478994E+02  0.00000000000E+00 0. -1.
</event>
<event>
 7    1  0.6078244E-006  0.1604103E+03  0.7818608E-02  0.1287384E+00
          2   -1    0    0  502    0  0.00000000000E+00  0.00000000000E+00  0.32569633204E+03  0.32569633204E+03  0.00000000000E+00 0. -1.
          1   -1    0    0  501    0 -0.00000000000E+00 -0.00000000000E+00 -0.10772083979E+04  0.10772083979E+04  0.00000000000E+00 0. -1.
         25    2    1    2    0    0  0.75480720070E+02  0.16748793480E+03  0.26579519163E+02  0.22379657353E+03  0.12501555134E+03 0.  0.
          2    1    1    2  501    0  0.27485553460E+02 -0.51412427492E+02 -0.94755110998E+03  0.94934282500E+03  0.00000000000E+00 0. -1.
          1    1    1    2  502    0 -0.10296627353E+03 -0.11607550731E+03  0.16945952501E+03  0.22976533137E+03  0.00000000000E+00 0. -1.
         22    1    3    3    0    0 -0.56335134857E+01  0.12763149518E+03  0.36523158339E+02  0.13287391065E+03  0.00000000000E+00 0. -1.
         22    1    3    3    0    0  0.81114233556E+02  0.39856439622E+02 -0.99436391752E+01  0.90922662878E+02  0.00000000000E+00 0. -1.
</event>
<event>
 7    1  0.6078244E-006  0.4029689E+02  0.7818608E-02  0.1518434E+00
          2   -1    0    0  502    0  0.00000000000E+00  0.00000000000E+00  0.13679466649E+03  0.13679466649E+03  0.00000000000E+00 0. -1.
          1   -1    0    0  501    0 -0.00000000000E+00 -0.00000000000E+00 -0.13249454650E+04  0.13249454650E+04  0.00000000000E+00 0. -1.
         25    2    1    2    0    0  0.63440038141E+02  0.31182255191E+02 -0.10937020250E+04  0.11030892256E+04  0.12499899461E+03 0.  0.
          2    1    1    2  501    0 -0.23282025215E+02 -0.28832485084E+02 -0.22191485943E+03  0.22498793241E+03  0.00000000000E+00 0. -1.
          1    1    1    2  502    0 -0.40158012925E+02 -0.23497701072E+01  0.12746608592E+03  0.13366297348E+03  0.00000000000E+00 0. -1.
         22    1    3    3    0    0  0.81906446501E+02  0.49672483270E+02 -0.10268935081E+04  0.10313516852E+04  0.00000000000E+00 0. -1.
         22    1    3    3    0    0 -0.18466408360E+02 -0.18490228079E+02 -0.66808516870E+02  0.71737540371E+02  0.00000000000E+00 0. -1.
</event>
<event>
 7    1  0.6078244E-006  0.6709083E+02  0.7818608E-02  0.1398898E+00
          2   -1    0    0  502    0  0.00000000000E+00  0.00000000000E+00  0.17041533299E+04  0.17041533299E+04  0.00000000000E+00 0. -1.
          1   -1    0    0  501    0 -0.00000000000E+00 -0.00000000000E+00 -0.28619760738E+04  0.28619760738E+04  0.00000000000E+00 0. -1.
         25    2    1    2    0    0  0.64170219662E+02  0.14205695654E+02  0.21469748913E+01  0.14123007397E+03  0.12498682095E+03 0.  0.
          2    1    1    2  501    0 -0.55271387157E+02  0.38251331203E+02 -0.27915963242E+04  0.27924054376E+04  0.00000000000E+00 0. -1.
          1    1    1    2  502    0 -0.88988325055E+01 -0.52457026857E+02  0.16316266053E+04  0.16324938922E+04  0.00000000000E+00 0. -1.
         22    1    3    3    0    0  0.12197086524E+02 -0.20861059240E+02  0.54456475031E+02  0.59577347919E+02  0.00000000000E+00 0. -1.
         22    1    3    3    0    0  0.51973133138E+02  0.35066754893E+02 -0.52309500140E+02  0.81652726053E+02  0.00000000000E+00 0. -1.
</event>
<event>
 7    1  0.6078244E-006  0.1131072E+03  0.7818608E-02  0.1281261E+00
          2   -1    0    0  502    0  0.00000000000E+00  0.00000000000E+00  0.19244402227E+04  0.19244402227E+04  0.00000000000E+00 0. -1.
          1   -1    0    0  501    0 -0.00000000000E+00 -0.00000000000E+00 -0.54709882262E+02  0.54709882262E+02  0.00000000000E+00 0. -1.
         25    2    1    2    0    0 -0.32653436074E+02  0.10150142787E+03  0.13853226910E+04  0.13950305474E+04  0.12498993175E+03 0.  0.
          2    1    1    2  501    0 -0.86069261743E+02 -0.16327782656E+02  0.10539704700E+02  0.88236045234E+02  0.00000000000E+00 0. -1.
          1    1    1    2  502    0  0.11872269782E+03 -0.85173645211E+02  0.47386794470E+03  0.49588351236E+03  0.00000000000E+00 0. -1.
         22    1    3    3    0    0 -0.43095289174E+02 -0.40839143971E+01  0.18364459378E+03  0.18867755333E+03  0.00000000000E+00 0.  1.
         22    1    3    3    0    0  0.10441853100E+02  0.10558534226E+03  0.12016780973E+04  0.12063529940E+04  0.00000000000E+00 0.  1.
</event>
<event>
 7    1  0.6078244E-006  0.9662928E+02  0.7818608E-02  0.1318275E+00
          2   -1    0    0  502    0  0.00000000000E+00  0.00000000000E+00  0.83720508837E+03  0.83720508837E+03  0.00000000000E+00 0. -1.
          1   -1    0    0  501    0 -0.00000000000E+00 -0.00000000000E+00 -0.43340686309E+03  0.43340686309E+03  0.00000000000E+00 0. -1.
         25    2    1    2    0    0  0.14567747254E+03  0.73378903976E+02  0.74682318180E+02  0.21865249149E+03  0.12500029533E+03 0.  0.
          2    1    1    2  501    0 -0.90285262166E+02 -0.26007003365E+02 -0.35334198404E+03  0.36562050062E+03  0.00000000000E+00 0. -1.
          1    1    1    2  502    0 -0.55392210377E+02 -0.47371900611E+02  0.68245789114E+03  0.68633895935E+03  0.00000000000E+00 0. -1.
         22    1    3    3    0    0  0.10280125307E+03  0.33670279268E+02 -0.17426164858E+02  0.10956941435E+03  0.00000000000E+00 0.  1.
         22    1    3    3    0    0  0.42876219475E+02  0.39708624709E+02  0.92108483039E+02  0.10908307715E+03  0.00000000000E+00 0.  1.
</event>
<event>
 7    1  0.6078244E-006  0.6733996E+02  0.7818608E-02  0.1372558E+00
          2   -1    0    0  502    0  0.00000000000E+00  0.00000000000E+00  0.38754510014E+03  0.38754510014E+03  0.00000000000E+00 0. -1.
          1   -1    0    0  501    0 -0.00000000000E+00 -0.00000000000E+00 -0.16221477580E+04  0.16221477580E+04  0.00000000000E+00 0. -1.
         25    2    1    2    0    0  0.37526792026E+02  0.81013299110E+02  0.54254804880E+01  0.15370662867E+03  0.12499950843E+03 0.  0.
          2    1    1    2  501    0  0.25381205183E+02 -0.62434781917E+02 -0.15437710005E+04  0.15452414729E+04  0.00000000000E+00 0. -1.
          1    1    1    2  502    0 -0.62907997209E+02 -0.18578517192E+02  0.30374286216E+03  0.31074475656E+03  0.00000000000E+00 0. -1.
         22    1    3    3    0    0  0.61156676812E+02  0.85385678153E+02 -0.31500141594E+02  0.10964995245E+03  0.00000000000E+00 0.  1.
         22    1    3    3    0    0 -0.23629884786E+02 -0.43723790436E+01  0.36925622082E+02  0.44056676221E+02  0.00000000000E+00 0.  1.
</event>
<event>
 7    1  0.6078244E-006  0.8530994E+02  0.7818608E-02  0.1388737E+00
          2   -1    0    0  502    0  0.00000000000E+00  0.00000000000E+00  0.45154581595E+03  0.45154581595E+03  0.00000000000E+00 0. -1.
          1   -1    0    0  501    0 -0.00000000000E+00 -0.00000000000E+00 -0.61847063579E+02  0.61847063579E+02  0.00000000000E+00 0. -1.
         25    2    1    2    0    0  0.46293011699E+02  0.24463689137E+02  0.49279652521E+02  0.14420632960E+03  0.12500186529E+03 0.  0.
          2    1    1    2  501    0  0.45109112436E+02 -0.49734798487E+01  0.15558312656E+03  0.16206688989E+03  0.00000000000E+00 0. -1.
          1    1    1    2  502    0 -0.91402124135E+02 -0.19490209288E+02  0.18483597328E+03  0.20711966004E+03  0.00000000000E+00 0. -1.
         22    1    3    3    0    0  0.12638170516E+02 -0.30547312578E+02 -0.28162966823E+02  0.43428266831E+02  0.00000000000E+00 0. -1.
         22    1    3    3    0    0  0.33654841183E+02  0.55011001715E+02  0.77442619343E+02  0.10077806277E+03  0.00000000000E+00 0. -1.
</event>
<event>
 7    1  0.6078244E-006  0.1414101E+03  0.7818608E-02  0.1222640E+00
          2   -1    0    0  502    0  0.00000000000E+00  0.00000000000E+00  0.79765579683E+03  0.79765579683E+03  0.00000000000E+00 0. -1.
          1   -1    0    0  501    0 -0.00000000000E+00 -0.00000000000E+00 -0.71098937222E+03  0.71098937222E+03  0.00000000000E+00 0. -1.
         25    2    1    2    0    0 -0.70188110843E+02  0.23568903670E+03 -0.92659483290E+02  0.29100521079E+03  0.12499023937E+03 0.  0.
          2    1    1    2  501    0  0.78888327764E+02 -0.97804172129E+02 -0.50454315106E+03  0.51995462843E+03  0.00000000000E+00 0. -1.
          1    1    1    2  502    0 -0.87002169206E+01 -0.13788486457E+03  0.68386905896E+03  0.69768532982E+03  0.00000000000E+00 0. -1.
         22    1    3    3    0    0 -0.79224010059E+02  0.23775813872E+03 -0.10815219694E+03  0.27295104690E+03  0.00000000000E+00 0.  1.
         22    1    3    3    0    0  0.90358992160E+01 -0.20691020223E+01  0.15492713645E+02  0.18054163894E+02  0.00000000000E+00 0.  1.
</event>
<event>
 7    1  0.6078244E-006  0.9732288E+02  0.7818608E-02  0.1350511E+00
          2   -1    0    0  502    0  0.00000000000E+00  0.00000000000E+00  0.15243457456E+04  0.15243457456E+04  0.00000000000E+00 0. -1.
          1   -1    0    0  501    0 -0.00000000000E+00 -0.00000000000E+00 -0.49038005269E+03  0.49038005269E+03  0.00000000000E+00 0. -1.
         25    2    1    2    0    0  0.26442902094E+02 -0.13092679326E+03  0.15927055517E+03  0.24255701011E+03  0.12500296455E+03 0.  0.
          2    1    1    2  501    0  0.15032950520E+02  0.95416080317E+02 -0.44296683069E+03  0.45337603716E+03  0.00000000000E+00 0. -1.
          1    1    1    2  502    0 -0.41475852614E+02  0.35510712943E+02  0.13176619684E+04  0.13187927510E+04  0.00000000000E+00 0. -1.
         22    1    3    3    0    0  0.44539127516E+02 -0.13650070616E+03  0.16859471526E+03  0.22145056937E+03  0.00000000000E+00 0.  1.
         22    1    3    3    0    0 -0.18096225421E+02  0.55739128988E+01 -0.93241600889E+01  0.21106440743E+02  0.00000000000E+00 0.  1.
</event>
<event>
 7    1  0.6078244E-006  0.1975220E+03  0.7818608E-02  0.1219421E+00
          2   -1    0    0  502    0  0.00000000000E+00  0.00000000000E+00  0.34846065002E+03  0.34846065002E+03  0.00000000000E+00 0. -1.
          1   -1    0    0  501    0 -0.00000000000E+00 -0.00000000000E+00 -0.20797532444E+04  0.20797532444E+04  0.00000000000E+00 0. -1.
         25    2    1    2    0    0 -0.12401674186E+03  0.18184985131E+03 -0.22850160265E+03  0.34100921739E+03  0.12499913300E+03 0.  0.
          2    1    1    2  501    0  0.92190603793E+02  0.12584520515E+02 -0.17604182568E+04  0.17628754682E+04  0.00000000000E+00 0. -1.
          1    1    1    2  502    0  0.31826138070E+02 -0.19443437182E+03  0.25762726505E+03  0.32432920884E+03  0.00000000000E+00 0. -1.
         22    1    3    3    0    0 -0.11343551440E+03  0.16683337862E+03 -0.12818342459E+03  0.23902297481E+03  0.00000000000E+00 0. -1.
         22    1    3    3    0    0 -0.10581227460E+02  0.15016472692E+02 -0.10031817806E+03  0.10198624258E+03  0.00000000000E+00 0. -1.
</event>
<event>
 7    1  0.6078244E-006  0.6741689E+02  0.7818608E-02  0.1426315E+00
          2   -1    0    0  502    0  0.00000000000E+00  0.00000000000E+00  0.47568969870E+03  0.47568969870E+03  0.00000000000E+00 0. -1.
          1   -1    0    0  501    0 -0.00000000000E+00 -0.00000000000E+00 -0.13999275185E+03  0.13999275185E+03  0.00000000000E+00 0. -1.
         25    2    1    2    0    0  0.44815922933E+02  0.94563291194E+02  0.28876570528E+03  0.33160216549E+03  0.12499472236E+03 0.  0.
          2    1    1    2  501    0 -0.41317377185E+02 -0.51921500833E+02 -0.10612204723E+03  0.12515932572E+03  0.00000000000E+00 0. -1.
          1    1    1    2  502    0 -0.34985457481E+01 -0.42641790361E+02  0.15305328879E+03  0.15892095934E+03  0.00000000000E+00 0. -1.
         22    1    3    3    0    0  0.58192202408E+02  0.11554435771E+03  0.27311699905E+03  0.30220808425E+03  0.00000000000E+00 0. -1.
         22    1    3    3    0    0 -0.13376279476E+02 -0.20981066515E+02  0.15648706238E+02  0.29394081235E+02  0.00000000000E+00 0. -1.
</event>
<event>
 7    1  0.6078244E-006  0.6944979E+02  0.7818608E-02  0.1469706E+00
          2   -1    0    0  502    0  0.00000000000E+00  0.00000000000E+00  0.99524413399E+03  0.99524413399E+03  0.00000000000E+00 0. -1.
          1   -1    0    0  501    0 -0.00000000000E+00 -0.00000000000E+00 -0.22145525542E+04  0.22145525542E+04  0.00000000000E+00 0. -1.
         25    2    1    2    0    0  0.43371412462E+02 -0.52534869673E+01 -0.90933649696E+02  0.16061323505E+03  0.12497601402E+03 0.  0.
          2    1    1    2  501    0  0.20945845251E+02 -0.21671295213E+02 -0.20874046593E+04  0.20876222324E+04  0.00000000000E+00 0. -1.
          1    1    1    2  502    0 -0.64317257713E+02  0.26924782181E+02  0.95902988882E+03  0.96156122072E+03  0.00000000000E+00 0. -1.
         22    1    3    3    0    0 -0.26534246249E+02 -0.26139911726E+02  0.75937600435E+01  0.38013502872E+02  0.00000000000E+00 0.  1.
         22    1    3    3    0    0  0.69905658711E+02  0.20886424759E+02 -0.98527409740E+02  0.12259973217E+03  0.00000000000E+00 0.  1.
</event>
<event>
 7    1  0.6078244E-006  0.5237271E+02  0.7818608E-02  0.1467960E+00
          2   -1    0    0  502    0  0.00000000000E+00  0.00000000000E+00  0.26560118719E+04  0.26560118719E+04  0.00000000000E+00 0. -1.
          1   -1    0    0  501    0 -0.00000000000E+00 -0.00000000000E+00 -0.10243507021E+02  0.10243507021E+02  0.00000000000E+00 0. -1.
         25    2    1    2    0    0 -0.43386309445E+02  0.27397457725E+02  0.12156882904E+04  0.12231745879E+04  0.12500024164E+03 0.  0.
          2    1    1    2  501    0  0.31265155790E+02  0.25697648265E+02  0.62764693493E+02  0.74681228178E+02  0.00000000000E+00 0. -1.
          1    1    1    2  502    0  0.12121153655E+02 -0.53095105990E+02  0.13673153810E+04  0.13683995629E+04  0.00000000000E+00 0. -1.
         22    1    3    3    0    0  0.27181359351E+02  0.51131923620E+02  0.41283049143E+03  0.41687206019E+03  0.00000000000E+00 0. -1.
         22    1    3    3    0    0 -0.70567668796E+02 -0.23734465895E+02  0.80285779900E+03  0.80630252770E+03  0.00000000000E+00 0. -1.
</event>
<event>
 7    1  0.6078244E-006  0.1655173E+03  0.7818608E-02  0.1368981E+00
          2   -1    0    0  502    0  0.00000000000E+00  0.00000000000E+00  0.22441562958E+03  0.22441562958E+03  0.00000000000E+00 0. -1.
          1   -1    0    0  501    0 -0.00000000000E+00 -0.00000000000E+00 -0.75191517475E+03  0.75191517475E+03  0.00000000000E+00 0. -1.
         25    2    1    2    0    0  0.10800685755E+03 -0.90858122313E+02  0.99862088912E+01  0.18879927104E+03  0.12499904282E+03 0.  0.
          2    1    1    2  501    0 -0.12501008865E+03  0.11245584340E+03 -0.65016051949E+03  0.67155233607E+03  0.00000000000E+00 0. -1.
          1    1    1    2  502    0  0.17003231098E+02 -0.21597721090E+02  0.11267476543E+03  0.11597919722E+03  0.00000000000E+00 0. -1.
         22    1    3    3    0    0  0.20395271313E+02  0.21360249928E+02  0.33327349669E+02  0.44530210025E+02  0.00000000000E+00 0.  1.
         22    1    3    3    0    0  0.87611586241E+02 -0.11221837224E+03 -0.23341140778E+02  0.14426906101E+03  0.00000000000E+00 0.  1.
</event>
<event>
 7    1  0.6078244E-006  0.1182101E+03  0.7818608E-02  0.1313932E+00
          2   -1    0    0  502    0  0.00000000000E+00  0.00000000000E+00  0.33669142279E+03  0.33669142279E+03  0.00000000000E+00 0. -1.
          1   -1    0    0  501    0 -0.00000000000E+00 -0.00000000000E+00 -0.12215318417E+04  0.12215318417E+04  0.00000000000E+00 0. -1.
         25    2    1    2    0    0 -0.43340440165E+02 -0.51636531059E+02 -0.19195770466E+03  0.23878220995E+03  0.12499783325E+03 0.  0.
          2    1    1    2  501    0  0.97745506877E+02  0.81269553485E+02 -0.99903180183E+03  0.10070866226E+04  0.00000000000E+00 0. -1.
          1    1    1    2  502    0 -0.54405066712E+02 -0.29633022426E+02  0.30614908758E+03  0.31235443190E+03  0.00000000000E+00 0. -1.
         22    1    3    3    0    0 -0.39417877771E+02  0.70054017797E+01 -0.21609354335E+01  0.40093819773E+02  0.00000000000E+00 0.  1.
         22    1    3    3    0    0 -0.39225623940E+01 -0.58641932839E+02 -0.18979676923E+03  0.19868839018E+03  0.00000000000E+00 0.  1.
</event>
<event>
 7    1  0.6078244E-006  0.4754742E+02  0.7818608E-02  0.1543099E+00
          2   -1    0    0  502    0  0.00000000000E+00  0.00000000000E+00  0.61303798811E+03  0.61303798811E+03  0.00000000000E+00 0. -1.
          1   -1    0    0  501    0 -0.00000000000E+00 -0.00000000000E+00 -0.26340739455E+03  0.26340739455E+03  0.00000000000E+00 0. -1.
         25    2    1    2    0    0  0.60903980429E+02  0.38968392421E+02  0.24991316811E+03  0.28863480996E+03  0.12500252591E+03 0.  0.
          2    1    1    2  501    0 -0.22580752731E+02 -0.14239756264E+02 -0.24179593123E+03  0.24326515043E+03  0.00000000000E+00 0. -1.
          1    1    1    2  502    0 -0.38323227698E+02 -0.24728636157E+02  0.34151335667E+03  0.34454542228E+03  0.00000000000E+00 0. -1.
         22    1    3    3    0    0 -0.17386896767E+02  0.60675363410E+02  0.11286942705E+03  0.12931864316E+03  0.00000000000E+00 0.  1.
         22    1    3    3    0    0  0.78290877196E+02 -0.21706970989E+02  0.13704374106E+03  0.15931616680E+03  0.00000000000E+00 0.  1.
</event>
<event>
 7    1  0.6078244E-006  0.7611029E+02  0.7818608E-02  0.1481439E+00
          2   -1    0    0  502    0  0.00000000000E+00  0.00000000000E+00  0.26144083207E+03  0.26144083207E+03  0.00000000000E+00 0. -1.
          1   -1    0    0  501    0 -0.00000000000E+00 -0.00000000000E+00 -0.15093919618E+04  0.15093919618E+04  0.00000000000E+00 0. -1.
         25    2    1    2    0    0  0.49344563465E+02  0.68781355762E+02  0.89286078788E+02  0.17539573061E+03  0.12500359038E+03 0.  0.
          2    1    1    2  501    0  0.98786720793E+01 -0.23293164207E+02 -0.14554190420E+04  0.14556389482E+04  0.00000000000E+00 0. -1.
          1    1    1    2  502    0 -0.59223235545E+02 -0.45488191555E+02  0.11818183351E+03  0.13979811505E+03  0.00000000000E+00 0. -1.
         22    1    3    3    0    0  0.47051665108E+02  0.84055080920E+02  0.12575252996E+02  0.97145523859E+02  0.00000000000E+00 0. -1.
         22    1    3    3    0    0  0.22928983568E+01 -0.15273725157E+02  0.76710825792E+02  0.78250206752E+02  0.00000000000E+00 0. -1.
</event>
<event>
 7    1  0.6078244E-006  0.5360353E+02  0.7818608E-02  0.1448241E+00
          2   -1    0    0  502    0  0.00000000000E+00  0.00000000000E+00  0.17445180282E+04  0.17445180282E+04  0.00000000000E+00 0. -1.
          1   -1    0    0  501    0 -0.00000000000E+00 -0.00000000000E+00 -0.89278676688E+02  0.89278676688E+02  0.00000000000E+00 0. -1.
         25    2    1    2    0    0  0.78794710442E+01 -0.69428678550E+01  0.30874955162E+03  0.33326055165E+03  0.12500408066E+03 0.  0.
          2    1    1    2  501    0  0.42992503324E+02 -0.15344422738E+02 -0.69667124204E+02  0.83290544758E+02  0.00000000000E+00 0. -1.
          1    1    1    2  502    0 -0.50871974369E+02  0.22287290593E+02  0.14161569241E+04  0.14172456085E+04  0.00000000000E+00 0. -1.
         22    1    3    3    0    0  0.15067004865E+02  0.70362487746E+01 -0.63271326564E+01  0.17792021810E+02  0.00000000000E+00 0. -1.
         22    1    3    3    0    0 -0.71875338212E+01 -0.13979116630E+02  0.31507668428E+03  0.31546852984E+03  0.00000000000E+00 0. -1.
</event>
<event>
 7    1  0.6078244E-006  0.2574659E+02  0.7818608E-02  0.1659635E+00
          2   -1    0    0  502    0  0.00000000000E+00  0.00000000000E+00  0.32723678005E+03  0.32723678005E+03  0.00000000000E+00 0. -1.
          1   -1    0    0  501    0 -0.00000000000E+00 -0.00000000000E+00 -0.18943360050E+04  0.18943360050E+04  0.00000000000E+00 0. -1.
         25    2    1    2    0    0  0.26570919257E+02 -0.26669282078E+02 -0.21500517371E+03  0.25153153422E+03  0.12499449439E+03 0.  0.
          2    1    1    2  501    0 -0.21318163518E+01  0.25641237084E+02 -0.16604837040E+04  0.16606830368E+04  0.00000000000E+00 0. -1.
          1    1    1    2  502    0 -0.24439102906E+02  0.10280449935E+01  0.30838965275E+03  0.30935821397E+03  0.00000000000E+00 0. -1.
         22    1    3    3    0    0  0.64871006365E+02 -0.51777538735E+02 -0.11809675174E+03  0.14434681761E+03  0.00000000000E+00 0. -1.
         22    1    3    3    0    0 -0.38300087108E+02  0.25108256657E+02 -0.96908421969E+02  0.10718471660E+03  0.00000000000E+00 0. -1.
</event>
<event>
 7    1  0.6078244E-006  0.6818323E+02  0.7818608E-02  0.1422205E+00
          2   -1    0    0  502    0  0.00000000000E+00  0.00000000000E+00  0.70934830539E+03  0.70934830539E+03  0.00000000000E+00 0. -1.
          1   -1    0    0  501    0 -0.00000000000E+00 -0.00000000000E+00 -0.41180353058E+03  0.41180353058E+03  0.00000000000E+00 0. -1.
         25    2    1    2    0    0 -0.66031091076E+02 -0.82143532722E+02 -0.95214009679E+02  0.18920549383E+03  0.12500138519E+03 0.  0.
          2    1    1    2  501    0  0.50408219698E+02  0.41380722640E+02 -0.26491533451E+03  0.27282501219E+03  0.00000000000E+00 0. -1.
          1    1    1    2  502    0  0.15622871378E+02  0.40762810082E+02  0.65767411899E+03  0.65912132995E+03  0.00000000000E+00 0. -1.
         22    1    3    3    0    0 -0.10361704137E+03 -0.57969858066E+02 -0.66468254422E+02  0.13606992523E+03  0.00000000000E+00 0.  1.
         22    1    3    3    0    0  0.37585950290E+02 -0.24173674657E+02 -0.28745755257E+02  0.53135568604E+02  0.00000000000E+00 0.  1.
</event>
<event>
 7    1  0.6078244E-006  0.4228848E+02  0.7818608E-02  0.1539644E+00
          2   -1    0    0  502    0  0.00000000000E+00  0.00000000000E+00  0.10137034019E+04  0.10137034019E+04  0.00000000000E+00 0. -1.
          1   -1    0    0  501    0 -0.00000000000E+00 -0.00000000000E+00 -0.19548840315E+03  0.19548840315E+03  0.00000000000E+00 0. -1.
         25    2    1    2    0    0  0.44051685496E+02 -0.33586625462E+02  0.46208295181E+03  0.48188671095E+03  0.12500214168E+03 0.  0.
          2    1    1    2  501    0 -0.42164844726E+02  0.29477409085E+01 -0.18273738919E+03  0.18756203431E+03  0.00000000000E+00 0. -1.
          1    1    1    2  502    0 -0.18868407700E+01  0.30638884554E+02  0.53886943617E+03  0.53974305985E+03  0.00000000000E+00 0. -1.
         22    1    3    3    0    0  0.48268146624E+01  0.46809192257E+02  0.14667597960E+03  0.15403974036E+03  0.00000000000E+00 0.  1.
         22    1    3    3    0    0  0.39224870833E+02 -0.80395817719E+02  0.31540697222E+03  0.32784697059E+03  0.00000000000E+00 0.  1.
</event>
<event>
 7    1  0.6078244E-006  0.8182737E+02  0.7818608E-02  0.1334831E+00
          2   -1    0    0  502    0  0.00000000000E+00  0.00000000000E+00  0.96135706171E+02  0.96135706171E+02  0.00000000000E+00 0. -1.
          1   -1    0    0  501    0 -0.00000000000E+00 -0.00000000000E+00 -0.11848225837E+04  0.11848225837E+04  0.00000000000E+00 0. -1.
         25    2    1    2    0    0  0.11711065907E+03  0.55714559690E+02 -0.23451848003E+03  0.29570773906E+03  0.12500052333E+03 0.  0.
          2    1    1    2  501    0 -0.43643251849E+02 -0.67120581280E+02 -0.89625061514E+03  0.89981946578E+03  0.00000000000E+00 0. -1.
          1    1    1    2  502    0 -0.73467407222E+02  0.11406021591E+02  0.42082217623E+02  0.85431085049E+02  0.00000000000E+00 0. -1.
         22    1    3    3    0    0  0.10088237690E+03  0.34954580784E-02 -0.20948676373E+03  0.23251227529E+03  0.00000000000E+00 0.  1.
         22    1    3    3    0    0  0.16228282169E+02  0.55711064232E+02 -0.25031716299E+02  0.63195463768E+02  0.00000000000E+00 0.  1.
</event>
<event>
 7    1  0.6078244E-006  0.5852112E+02  0.7818608E-02  0.1449332E+00
          2   -1    0    0  502    0  0.00000000000E+00  0.00000000000E+00  0.70105372812E+03  0.70105372812E+03  0.00000000000E+00 0. -1.
          1   -1    0    0  501    0 -0.00000000000E+00 -0.00000000000E+00 -0.71636275557E+03  0.71636275557E+03  0.00000000000E+00 0. -1.
         25    2    1    2    0    0 -0.23251284001E+02  0.31711898813E+02 -0.18252438309E+03  0.22469440056E+03  0.12500462586E+03 0.  0.
          2    1    1    2  501    0  0.32041844714E+02  0.26338162004E+02 -0.51064355076E+03  0.51232530147E+03  0.00000000000E+00 0. -1.
          1    1    1    2  502    0 -0.87905607132E+01 -0.58050060817E+02  0.67785890640E+03  0.68039678167E+03  0.00000000000E+00 0. -1.
         22    1    3    3    0    0 -0.30780779174E+01 -0.25671248804E+02  0.60494049083E+01  0.26553396742E+02  0.00000000000E+00 0. -1.
         22    1    3    3    0    0 -0.20173206083E+02  0.57383147616E+02 -0.18857378799E+03  0.19814100381E+03  0.00000000000E+00 0. -1.
</event>
<event>
 7    1  0.6078244E-006  0.1652276E+03  0.7818608E-02  0.1202830E+00
          2   -1    0    0  502    0  0.00000000000E+00  0.00000000000E+00  0.11310883245E+04  0.11310883245E+04  0.00000000000E+00 0. -1.
          1   -1    0    0  501    0 -0.00000000000E+00 -0.00000000000E+00 -0.14510195563E+03  0.14510195563E+03  0.00000000000E+00 0. -1.
         25    2    1    2    0    0 -0.52375143814E+02  0.67780656899E+01  0.46171310395E+02  0.14333560824E+03  0.12499683525E+03 0.  0.
          2    1    1    2  501    0 -0.12965140530E+03  0.28485501709E+02 -0.37634317370E+02  0.13797555054E+03  0.00000000000E+00 0. -1.
          1    1    1    2  502    0  0.18202654911E+03 -0.35263567399E+02  0.97744937580E+03  0.99487912131E+03  0.00000000000E+00 0. -1.
         22    1    3    3    0    0 -0.18857542999E+02  0.35747570906E+02 -0.33288319680E+02  0.52360366507E+02  0.00000000000E+00 0. -1.
         22    1    3    3    0    0 -0.33517600816E+02 -0.28969505216E+02  0.79459630075E+02  0.90975241735E+02  0.00000000000E+00 0. -1.
</event>
<event>
 7    1  0.6078244E-006  0.1393930E+03  0.7818608E-02  0.1218982E+00
          2   -1    0    0  502    0  0.00000000000E+00  0.00000000000E+00  0.20488677722E+04  0.20488677722E+04  0.00000000000E+00 0. -1.
          1   -1    0    0  501    0 -0.00000000000E+00 -0.00000000000E+00 -0.21185742580E+03  0.21185742580E+03  0.00000000000E+00 0. -1.
         25    2    1    2    0    0 -0.12603133451E+03  0.11469872969E+03 -0.54256093329E+02  0.21819373725E+03  0.12500034977E+03 0.  0.
          2    1    1    2  501    0  0.13856419698E+03  0.17162996152E+02 -0.68576832985E+01  0.13979139080E+03  0.00000000000E+00 0. -1.
          1    1    1    2  502    0 -0.12532862469E+02 -0.13186172584E+03  0.18981241231E+04  0.19027400700E+04  0.00000000000E+00 0. -1.
         22    1    3    3    0    0 -0.52879596527E+01 -0.21527785798E+02  0.11088096060E+02  0.24786164546E+02  0.00000000000E+00 0.  1.
         22    1    3    3    0    0 -0.12074337486E+03  0.13622651549E+03 -0.65344189388E+02  0.19340757271E+03  0.00000000000E+00 0.  1.
</event>
<event>
 7    1  0.6078244E-006  0.6664609E+02  0.7818608E-02  0.1505322E+00
          2   -1    0    0  502    0  0.00000000000E+00  0.00000000000E+00  0.87140109971E+03  0.87140109971E+03  0.00000000000E+00 0. -1.
          1   -1    0    0  501    0 -0.00000000000E+00 -0.00000000000E+00 -0.11635888415E+03  0.11635888415E+03  0.00000000000E+00 0. -1.
         25    2    1    2    0    0  0.10959787887E+02 -0.89679576395E+02  0.82589195116E+02  0.17495314269E+03  0.12500033445E+03 0.  0.
          2    1    1    2  501    0 -0.19137672401E+01  0.24409365953E+02 -0.66529730501E+02  0.70892063674E+02  0.00000000000E+00 0. -1.
          1    1    1    2  502    0 -0.90460206473E+01  0.65270210441E+02  0.73898275095E+03  0.74191477749E+03  0.00000000000E+00 0. -1.
         22    1    3    3    0    0 -0.40228502664E+01 -0.21158893849E+02 -0.33201614444E+02  0.39575615155E+02  0.00000000000E+00 0.  1.
         22    1    3    3    0    0  0.14982638154E+02 -0.68520682546E+02  0.11579080956E+03  0.13537752753E+03  0.00000000000E+00 0.  1.
</event>
<event>
 7    1  0.6078244E-006  0.7731588E+02  0.7818608E-02  0.1480332E+00
          2   -1    0    0  502    0  0.00000000000E+00  0.00000000000E+00  0.55797487096E+02  0.55797487096E+02  0.00000000000E+00 0. -1.
          1   -1    0    0  501    0 -0.00000000000E+00 -0.00000000000E+00 -0.92108029831E+03  0.92108029831E+03  0.00000000000E+00 0. -1.
         25    2    1    2    0    0 -0.30474283783E+02  0.86669971349E+02 -0.12083349192E+03  0.19663874176E+03  0.12500278432E+03 0.  0.
          2    1    1    2  501    0  0.18953356915E+02 -0.16458883530E+02 -0.69047988467E+03  0.69093602867E+03  0.00000000000E+00 0. -1.
          1    1    1    2  502    0  0.11520926868E+02 -0.70211087818E+02 -0.53969434626E+02  0.89303014968E+02  0.00000000000E+00 0. -1.
         22    1    3    3    0    0 -0.49575972434E+02  0.71657030012E+02 -0.15453955769E+02  0.88494811949E+02  0.00000000000E+00 0.  1.
         22    1    3    3    0    0  0.19101688651E+02  0.15012941337E+02 -0.10537953615E+03  0.10814392981E+03  0.00000000000E+00 0.  1.
</event>
<event>
 7    1  0.6078244E-006  0.1019477E+03  0.7818608E-02  0.1372142E+00
          2   -1    0    0  502    0  0.00000000000E+00  0.00000000000E+00  0.14329586153E+04  0.14329586153E+04  0.00000000000E+00 0. -1.
          1   -1    0    0  501    0 -0.00000000000E+00 -0.00000000000E+00 -0.19544841775E+03  0.19544841775E+03  0.00000000000E+00 0. -1.
         25    2    1    2    0    0  0.64481054693E+02 -0.62691656693E+02  0.21269935335E+03  0.26259766552E+03  0.12501387438E+03 0.  0.
          2    1    1    2  501    0 -0.27045311842E+02 -0.34039965080E+02 -0.16543515209E+03  0.17105249973E+03  0.00000000000E+00 0. -1.
          1    1    1    2  502    0 -0.37435742850E+02  0.96731621772E+02  0.11902459963E+04  0.11947568678E+04  0.00000000000E+00 0. -1.
         22    1    3    3    0    0 -0.36975225244E+01 -0.63011109637E+02  0.17194979787E+03  0.18316878719E+03  0.00000000000E+00 0.  1.
         22    1    3    3    0    0  0.68178577217E+02  0.31945294443E+00  0.40749555475E+02  0.79428878331E+02  0.00000000000E+00 0.  1.
</event>
<event>
 7    1  0.6078244E-006  0.1156675E+03  0.7818608E-02  0.1263253E+00
          2   -1    0    0  502    0  0.00000000000E+00  0.00000000000E+00  0.13477666825E+04  0.13477666825E+04  0.00000000000E+00 0. -1.
          1   -1    0    0  501    0 -0.00000000000E+00 -0.00000000000E+00 -0.19058106969E+03  0.19058106969E+03  0.00000000000E+00 0. -1.
         25    2    1    2    0    0 -0.58090362323E+02  0.38165102067E+02  0.26867552677E+03  0.30437235280E+03  0.12499970101E+03 0.  0.
          2    1    1    2  501    0  0.89365098474E+02  0.73436040648E+02 -0.14977623673E+03  0.18924030750E+03  0.00000000000E+00 0. -1.
          1    1    1    2  502    0 -0.31274736151E+02 -0.11160114272E+03  0.10382863227E+04  0.10447350919E+04  0.00000000000E+00 0. -1.
         22    1    3    3    0    0  0.94873759196E+01  0.68034241012E+02  0.14149647904E+03  0.15728929344E+03  0.00000000000E+00 0. -1.
         22    1    3    3    0    0 -0.67577738242E+02 -0.29869138945E+02  0.12717904773E+03  0.14708305936E+03  0.00000000000E+00 0. -1.
</event>
<event>
 7    1  0.6078244E-006  0.5367861E+02  0.7818608E-02  0.1434652E+00
          2   -1    0    0  502    0  0.00000000000E+00  0.00000000000E+00  0.82860437773E+03  0.82860437773E+03  0.00000000000E+00 0. -1.
          1   -1    0    0  501    0 -0.00000000000E+00 -0.00000000000E+00 -0.10670420159E+04  0.10670420159E+04  0.00000000000E+00 0. -1.
         25    2    1    2    0    0 -0.18598212897E+02  0.29931291611E+02  0.34475785570E+03  0.36840866849E+03  0.12500076883E+03 0.  0.
          2    1    1    2  501    0  0.44978844638E+02  0.22842140846E+02 -0.10527666141E+04  0.10539745745E+04  0.00000000000E+00 0. -1.
          1    1    1    2  502    0 -0.26380631742E+02 -0.52773432457E+02  0.46957112019E+03  0.47326315071E+03  0.00000000000E+00 0. -1.
         22    1    3    3    0    0  0.10602442529E+02  0.38767976515E+02  0.25287748895E+02  0.47485134883E+02  0.00000000000E+00 0. -1.
         22    1    3    3    0    0 -0.29200655426E+02 -0.88366849034E+01  0.31947010681E+03  0.32092353360E+03  0.00000000000E+00 0. -1.
</event>
<event>
 7    1  0.6078244E-006  0.6459053E+02  0.7818608E-02  0.1386989E+00
          2   -1    0    0  502    0  0.00000000000E+00  0.00000000000E+00  0.19290209408E+04  0.19290209408E+04  0.00000000000E+00 0. -1.
          1   -1    0    0  501    0 -0.00000000000E+00 -0.00000000000E+00 -0.10830356840E+03  0.10830356840E+03  0.00000000000E+00 0. -1.
         25    2    1    2    0    0 -0.12241165777E+03 -0.16378761666E+02  0.35583851365E+03  0.39687072535E+03  0.12502978465E+03 0.  0.
          2    1    1    2  501    0  0.62559788495E+02  0.57355972754E+01 -0.75871653543E+02  0.98504477177E+02  0.00000000000E+00 0. -1.
          1    1    1    2  502    0  0.59851869278E+02  0.10643164390E+02  0.15407505123E+04  0.15419493067E+04  0.00000000000E+00 0. -1.
         22    1    3    3    0    0 -0.13750676849E+02  0.45257906629E+02  0.13634057586E+03  0.14431254919E+03  0.00000000000E+00 0.  1.
         22    1    3    3    0    0 -0.10866098092E+03 -0.61636668295E+02  0.21949793779E+03  0.25255817617E+03  0.00000000000E+00 0.  1.
</event>
<event>
 7    1  0.6078244E-006  0.1117949E+03  0.7818608E-02  0.1434581E+00
          2   -1    0    0  502    0  0.00000000000E+00  0.00000000000E+00  0.27227218297E+04  0.27227218297E+04  0.00000000000E+00 0. -1.
          1   -1    0    0  501    0 -0.00000000000E+00 -0.00000000000E+00 -0.24798502072E+03  0.24798502072E+03  0.00000000000E+00 0. -1.
         25    2    1    2    0    0  0.98679173114E+02  0.51236183970E+02  0.25555673055E+04  0.25610374112E+04  0.12500257187E+03 0.  0.
          2    1    1    2  501    0 -0.10801870599E+03 -0.28873177667E+02 -0.23148721916E+03  0.25707593016E+03  0.00000000000E+00 0. -1.
          1    1    1    2  502    0  0.93395328712E+01 -0.22363006304E+02  0.15065672268E+03  0.15259350908E+03  0.00000000000E+00 0. -1.
         22    1    3    3    0    0  0.11656979608E+02 -0.72043119700E+01  0.15425881030E+04  0.15426489694E+04  0.00000000000E+00 0. -1.
         22    1    3    3    0    0  0.87022193506E+02  0.58440495940E+02  0.10129792025E+04  0.10183884419E+04  0.00000000000E+00 0. -1.
</event>
<event>
 7    1  0.6078244E-006  0.3960930E+02  0.7818608E-02  0.1528878E+00
          2   -1    0    0  502    0  0.00000000000E+00  0.00000000000E+00  0.60329463653E+03  0.60329463653E+03  0.00000000000E+00 0. -1.
          1   -1    0    0  501    0 -0.00000000000E+00 -0.00000000000E+00 -0.25143684444E+04  0.25143684444E+04  0.00000000000E+00 0. -1.
         25    2    1    2    0    0 -0.89700655769E+01  0.46723243441E+02 -0.57250558349E+03  0.58792202379E+03  0.12500455745E+03 0.  0.
          2    1    1    2  501    0  0.32036898421E+02 -0.14514041771E+02 -0.19333357084E+04  0.19336556006E+04  0.00000000000E+00 0. -1.
          1    1    1    2  502    0 -0.23066832844E+02 -0.32209201669E+02  0.59476748403E+03  0.59608545655E+03  0.00000000000E+00 0. -1.
         22    1    3    3    0    0 -0.24378408150E+02  0.84299187694E+02 -0.46036270789E+03  0.46865177120E+03  0.00000000000E+00 0. -1.
         22    1    3    3    0    0  0.15408342573E+02 -0.37575944253E+02 -0.11214287560E+03  0.11927025260E+03  0.00000000000E+00 0. -1.
</event>
<event>
 7    1  0.6078244E-006  0.9643085E+02  0.7818608E-02  0.1444410E+00
          2   -1    0    0  502    0  0.00000000000E+00  0.00000000000E+00  0.46671573042E+03  0.46671573042E+03  0.00000000000E+00 0. -1.
          1   -1    0    0  501    0 -0.00000000000E+00 -0.00000000000E+00 -0.19455651878E+03  0.19455651878E+03  0.00000000000E+00 0. -1.
         25    2    1    2    0    0 -0.21477254301E+02 -0.11425170661E+03 -0.15662617769E+02  0.17142061216E+03  0.12499993506E+03 0.  0.
          2    1    1    2  501    0  0.17839204498E+02  0.19058847347E+02 -0.93362783972E+02  0.96943727545E+02  0.00000000000E+00 0. -1.
          1    1    1    2  502    0  0.36380498028E+01  0.95192859261E+02  0.38118461339E+03  0.39290790949E+03  0.00000000000E+00 0. -1.
         22    1    3    3    0    0 -0.40667165111E+02 -0.51713824898E+02  0.46985808149E+02  0.80844320587E+02  0.00000000000E+00 0.  1.
         22    1    3    3    0    0  0.19189910811E+02 -0.62537881710E+02 -0.62648425918E+02  0.90576291576E+02  0.00000000000E+00 0.  1.
</event>
<event>
 7    1  0.6078244E-006  0.1293584E+03  0.7818608E-02  0.1384617E+00
          2   -1    0    0  502    0  0.00000000000E+00  0.00000000000E+00  0.24092515649E+04  0.24092515649E+04  0.00000000000E+00 0. -1.
          1   -1    0    0  501    0 -0.00000000000E+00 -0.00000000000E+00 -0.31403162694E+04  0.31403162694E+04  0.00000000000E+00 0. -1.
         25    2    1    2    0    0  0.11151121638E+03 -0.11369805675E+02  0.31745162351E+03  0.35911309152E+03  0.12499062115E+03 0.  0.
          2    1    1    2  501    0 -0.12307939989E+03  0.40067243280E+02 -0.31180271577E+04  0.31207126235E+04  0.00000000000E+00 0. -1.
          1    1    1    2  502    0  0.11568183514E+02 -0.28697437605E+02  0.20695108298E+04  0.20697421193E+04  0.00000000000E+00 0. -1.
         22    1    3    3    0    0  0.25512867645E+02 -0.53497366476E+02  0.19413122063E+03  0.20297735208E+03  0.00000000000E+00 0. -1.
         22    1    3    3    0    0  0.85998348733E+02  0.42127560801E+02  0.12332040288E+03  0.15613573944E+03  0.00000000000E+00 0. -1.
</event>
<event>
 7    1  0.6078244E-006  0.5300765E+02  0.7818608E-02  0.1490917E+00
          2   -1    0    0  502    0  0.00000000000E+00  0.00000000000E+00  0.11583078484E+03  0.11583078484E+03  0.00000000000E+00 0. -1.
          1   -1    0    0  501    0 -0.00000000000E+00 -0.00000000000E+00 -0.78122886393E+03  0.78122886393E+03  0.00000000000E+00 0. -1.
         25    2    1    2    0    0  0.31371555178E+02 -0.14907798616E+02 -0.48056632106E+03  0.49776943596E+03  0.12499602196E+03 0.  0.
          2    1    1    2  501    0 -0.61003545013E+02 -0.17548672010E+01 -0.28606439951E+03  0.29250188500E+03  0.00000000000E+00 0. -1.
          1    1    1    2  502    0  0.29631989835E+02  0.16662665817E+02  0.10123264148E+03  0.10678832780E+03  0.00000000000E+00 0. -1.
         22    1    3    3    0    0 -0.30311991577E+02  0.26847336629E+02 -0.29572118268E+03  0.29848050892E+03  0.00000000000E+00 0. -1.
         22    1    3    3    0    0  0.61683546756E+02 -0.41755135245E+02 -0.18484513838E+03  0.19928892705E+03  0.00000000000E+00 0. -1.
</event>
<event>
 7    1  0.6078244E-006  0.1335826E+03  0.7818608E-02  0.1238378E+00
          2   -1    0    0  502    0  0.00000000000E+00  0.00000000000E+00  0.30516398955E+04  0.30516398955E+04  0.00000000000E+00 0. -1.
          1   -1    0    0  501    0 -0.00000000000E+00 -0.00000000000E+00 -0.21493492601E+04  0.21493492601E+04  0.00000000000E+00 0. -1.
         25    2    1    2    0    0  0.98523043905E+00  0.62201772674E+02  0.75349674512E+02  0.15865727167E+03  0.12499810079E+03 0.  0.
          2    1    1    2  501    0 -0.11139694685E+03  0.19455881308E+02 -0.21045701088E+04  0.21076060243E+04  0.00000000000E+00 0. -1.
          1    1    1    2  502    0  0.11041171641E+03 -0.81657653982E+02  0.29315110696E+04  0.29347258596E+04  0.00000000000E+00 0. -1.
         22    1    3    3    0    0 -0.24045109648E+02  0.39771247835E+02 -0.25039573211E+02  0.52791094693E+02  0.00000000000E+00 0. -1.
         22    1    3    3    0    0  0.25030340087E+02  0.22430524839E+02  0.10038924772E+03  0.10586617698E+03  0.00000000000E+00 0. -1.
</event>
<event>
 7    1  0.6078244E-006  0.5083430E+02  0.7818608E-02  0.1503110E+00
          2   -1    0    0  502    0  0.00000000000E+00  0.00000000000E+00  0.15449279574E+04  0.15449279574E+04  0.00000000000E+00 0. -1.
          1   -1    0    0  501    0 -0.00000000000E+00 -0.00000000000E+00 -0.92320298751E+03  0.92320298751E+03  0.00000000000E+00 0. -1.
         25    2    1    2    0    0 -0.15835195278E+01  0.42568940941E+02  0.31511025955E+01  0.13210313901E+03  0.12500675031E+03 0.  0.
          2    1    1    2  501    0 -0.30944782627E+02 -0.40582691076E+02 -0.85778873798E+03  0.85930556462E+03  0.00000000000E+00 0. -1.
          1    1    1    2  502    0  0.32528302155E+02 -0.19862498642E+01  0.14763626053E+04  0.14767222413E+04  0.00000000000E+00 0. -1.
         22    1    3    3    0    0  0.16522810902E+02 -0.40615557399E+02  0.14577544403E+02  0.46207484067E+02  0.00000000000E+00 0. -1.
         22    1    3    3    0    0 -0.18106330430E+02  0.83184498340E+02 -0.11426441807E+02  0.85895654943E+02  0.00000000000E+00 0. -1.
</event>
<event>
 7    1  0.6078244E-006  0.6710009E+02  0.7818608E-02  0.1490738E+00
          2   -1    0    0  502    0  0.00000000000E+00  0.00000000000E+00  0.14122808049E+04  0.14122808049E+04  0.00000000000E+00 0. -1.
          1   -1    0    0  501    0 -0.00000000000E+00 -0.00000000000E+00 -0.41394710632E+03  0.41394710632E+03  0.00000000000E+00 0. -1.
         25    2    1    2    0    0 -0.11101969800E+02 -0.51865633972E+02 -0.19683714170E+02  0.13721128087E+03  0.12500475700E+03 0.  0.
          2    1    1    2  501    0 -0.26610122613E+02 -0.38646587714E+01 -0.33412280154E+03  0.33520304402E+03  0.00000000000E+00 0. -1.
          1    1    1    2  502    0  0.37712092413E+02  0.55730292744E+02  0.13521402143E+04  0.13538135863E+04  0.00000000000E+00 0. -1.
         22    1    3    3    0    0 -0.25329049647E+02  0.32329191936E+02  0.16776792674E+02  0.44364379627E+02  0.00000000000E+00 0. -1.
         22    1    3    3    0    0  0.14227079847E+02 -0.84194825908E+02 -0.36460506844E+02  0.92846901241E+02  0.00000000000E+00 0. -1.
</event>
<event>
 7    1  0.6078244E-006  0.5698480E+02  0.7818608E-02  0.1496746E+00
          2   -1    0    0  502    0  0.00000000000E+00  0.00000000000E+00  0.16138247093E+03  0.16138247093E+03  0.00000000000E+00 0. -1.
          1   -1    0    0  501    0 -0.00000000000E+00 -0.00000000000E+00 -0.45721764323E+03  0.45721764323E+03  0.00000000000E+00 0. -1.
         25    2    1    2    0    0 -0.16651072695E+02  0.84425310997E+02 -0.11319033114E+03  0.18931976975E+03  0.12500013118E+03 0.  0.
          2    1    1    2  501    0  0.40541082299E+01 -0.30099224670E+02 -0.29884848525E+03  0.30038777647E+03  0.00000000000E+00 0. -1.
          1    1    1    2  502    0  0.12596964465E+02 -0.54326086327E+02  0.11620364409E+03  0.12889256794E+03  0.00000000000E+00 0. -1.
         22    1    3    3    0    0 -0.15448301420E+02 -0.27540217406E+02 -0.21898796257E+01  0.31652948746E+02  0.00000000000E+00 0. -1.
         22    1    3    3    0    0 -0.12027712757E+01  0.11196552840E+03 -0.11100045152E+03  0.15766682101E+03  0.00000000000E+00 0. -1.
</event>
<event>
 7    1  0.6078244E-006  0.6541169E+02  0.7818608E-02  0.1519991E+00
          2   -1    0    0  502    0  0.00000000000E+00  0.00000000000E+00  0.24338776411E+04  0.24338776411E+04  0.00000000000E+00 0. -1.
          1   -1    0    0  501    0 -0.00000000000E+00 -0.00000000000E+00 -0.10450363037E+04  0.10450363037E+04  0.00000000000E+00 0. -1.
         25    2    1    2    0    0 -0.27538208960E+02  0.34766006995E+02  0.17221647377E+03  0.21737222492E+03  0.12500056854E+03 0.  0.
          2    1    1    2  501    0 -0.64700037427E+01  0.21647283402E+02 -0.10218490649E+04  0.10220988100E+04  0.00000000000E+00 0. -1.
          1    1    1    2  502    0  0.34008212703E+02 -0.56413290397E+02  0.22384739286E+04  0.22394429099E+04  0.00000000000E+00 0. -1.
         22    1    3    3    0    0  0.20893603373E+02  0.26846636520E+02  0.16415081066E+03  0.16763881768E+03  0.00000000000E+00 0. -1.
         22    1    3    3    0    0 -0.48431812333E+02  0.79193704744E+01  0.80656631180E+01  0.49733407244E+02  0.00000000000E+00 0. -1.
</event>
<event>
 7    1  0.6078244E-006  0.7650514E+02  0.7818608E-02  0.1492156E+00
          2   -1    0    0  502    0  0.00000000000E+00  0.00000000000E+00  0.27491902364E+04  0.27491902364E+04  0.00000000000E+00 0. -1.
          1   -1    0    0  501    0 -0.00000000000E+00 -0.00000000000E+00 -0.21132565422E+03  0.21132565422E+03  0.00000000000E+00 0. -1.
         25    2    1    2    0    0  0.11661395764E+02 -0.57049152667E+02  0.41274229804E+03  0.43516905499E+03  0.12500123142E+03 0.  0.
          2    1    1    2  501    0 -0.11054438163E+02 -0.20570156743E+02 -0.19878079193E+03  0.20014778338E+03  0.00000000000E+00 0. -1.
          1    1    1    2  502    0 -0.60695760138E+00  0.77619309410E+02  0.23239030761E+04  0.23251990523E+04  0.00000000000E+00 0. -1.
         22    1    3    3    0    0 -0.21018936488E+02 -0.15748469094E+02  0.86394763829E+01  0.27648698379E+02  0.00000000000E+00 0. -1.
         22    1    3    3    0    0  0.32680332253E+02 -0.41300683573E+02  0.40410282166E+03  0.40752035661E+03  0.00000000000E+00 0. -1.
</event>
<event>
 7    1  0.6078244E-006  0.8108373E+02  0.7818608E-02  0.1396518E+00
          2   -1    0    0  502    0  0.00000000000E+00  0.00000000000E+00  0.40771147978E+03  0.40771147978E+03  0.00000000000E+00 0. -1.
          1   -1    0    0  501    0 -0.00000000000E+00 -0.00000000000E+00 -0.32252756776E+03  0.32252756776E+03  0.00000000000E+00 0. -1.
         25    2    1    2    0    0 -0.58449515159E+02 -0.10357091535E+03 -0.13168215449E+03  0.21704420119E+03  0.12499886050E+03 0.  0.
          2    1    1    2  501    0  0.36182399588E+02  0.26527056214E+02 -0.14021548828E+03  0.14721832055E+03  0.00000000000E+00 0. -1.
          1    1    1    2  502    0  0.22267115571E+02  0.77043859140E+02  0.35708155480E+03  0.36597652581E+03  0.00000000000E+00 0. -1.
         22    1    3    3    0    0 -0.22079805504E+02 -0.11940760111E+03 -0.60765692027E+02  0.13578719506E+03  0.00000000000E+00 0. -1.
         22    1    3    3    0    0 -0.36369709655E+02  0.15836685758E+02 -0.70916462463E+02  0.81257006126E+02  0.00000000000E+00 0. -1.
</event>
<event>
 7    1  0.6078244E-006  0.1257392E+03  0.7818608E-02  0.1349615E+00
          2   -1    0    0  502    0  0.00000000000E+00  0.00000000000E+00  0.40666143699E+04  0.40666143699E+04  0.00000000000E+00 0. -1.
          1   -1    0    0  501    0 -0.00000000000E+00 -0.00000000000E+00 -0.54351653576E+02  0.54351653576E+02  0.00000000000E+00 0. -1.
         25    2    1    2    0    0  0.18563555065E+02  0.15720164102E+03  0.60287079929E+03  0.63571623893E+03  0.12499989711E+03 0.  0.
          2    1    1    2  501    0 -0.25987390807E+02 -0.33737146834E+02 -0.24500446559E+02  0.49130555045E+02  0.00000000000E+00 0. -1.
          1    1    1    2  502    0  0.74238357421E+01 -0.12346449418E+03  0.34338923636E+04  0.34361192296E+04  0.00000000000E+00 0. -1.
         22    1    3    3    0    0  0.43274699247E+02  0.22895177556E+02  0.29336935540E+03  0.29742640676E+03  0.00000000000E+00 0. -1.
         22    1    3    3    0    0 -0.24711144182E+02  0.13430646346E+03  0.30950144390E+03  0.33828983217E+03  0.00000000000E+00 0. -1.
</event>
<event>
 7    1  0.6078244E-006  0.5545539E+02  0.7818608E-02  0.1486500E+00
          2   -1    0    0  502    0  0.00000000000E+00  0.00000000000E+00  0.95262595503E+02  0.95262595503E+02  0.00000000000E+00 0. -1.
          1   -1    0    0  501    0 -0.00000000000E+00 -0.00000000000E+00 -0.33518040134E+03  0.33518040134E+03  0.00000000000E+00 0. -1.
         25    2    1    2    0    0 -0.28903602738E+02 -0.12915109114E+02 -0.13118050644E+03  0.18393896885E+03  0.12499200254E+03 0.  0.
          2    1    1    2  501    0  0.42042690484E+02  0.43744230081E+02 -0.16789069056E+03  0.17851730859E+03  0.00000000000E+00 0. -1.
          1    1    1    2  502    0 -0.13139087746E+02 -0.30829120967E+02  0.59153391174E+02  0.67986719393E+02  0.00000000000E+00 0. -1.
         22    1    3    3    0    0  0.45793749820E+02 -0.21236844864E+02 -0.73651253649E+02  0.89289295363E+02  0.00000000000E+00 0.  1.
         22    1    3    3    0    0 -0.74697352557E+02  0.83217357494E+01 -0.57529252794E+02  0.94649673491E+02  0.00000000000E+00 0.  1.
</event>
<event>
 7    1  0.6078244E-006  0.1528263E+03  0.7818608E-02  0.1279653E+00
          2   -1    0    0  502    0  0.00000000000E+00  0.00000000000E+00  0.14670605081E+04  0.14670605081E+04  0.00000000000E+00 0. -1.
          1   -1    0    0  501    0 -0.00000000000E+00 -0.00000000000E+00 -0.19357483775E+04  0.19357483775E+04  0.00000000000E+00 0. -1.
         25    2    1    2    0    0  0.81076830895E+02 -0.38322172361E+02 -0.13556615728E+03  0.20504789936E+03  0.12499766649E+03 0.  0.
          2    1    1    2  501    0  0.64559758009E+02 -0.12897710369E+02 -0.17606643929E+04  0.17618948373E+04  0.00000000000E+00 0. -1.
          1    1    1    2  502    0 -0.14563658890E+03  0.51219882730E+02  0.14275426808E+04  0.14358661490E+04  0.00000000000E+00 0. -1.
         22    1    3    3    0    0  0.11221239442E+03 -0.31543937269E+02 -0.12629106611E+03  0.17186062615E+03  0.00000000000E+00 0.  1.
         22    1    3    3    0    0 -0.31135563524E+02 -0.67782350918E+01 -0.92750911674E+01  0.33187273210E+02  0.00000000000E+00 0.  1.
</event>
<event>
 7    1  0.6078244E-006  0.9406808E+02  0.7818608E-02  0.1310614E+00
          2   -1    0    0  502    0  0.00000000000E+00  0.00000000000E+00  0.87777094602E+03  0.87777094602E+03  0.00000000000E+00 0. -1.
          1   -1    0    0  501    0 -0.00000000000E+00 -0.00000000000E+00 -0.62213792541E+02  0.62213792541E+02  0.00000000000E+00 0. -1.
         25    2    1    2    0    0 -0.33943365131E+02 -0.11511607761E+02  0.56194444119E+03  0.57679346944E+03  0.12499792903E+03 0.  0.
          2    1    1    2  501    0  0.88573601013E+02 -0.47235302080E+02  0.34069847451E+01  0.10043935535E+03  0.00000000000E+00 0. -1.
          1    1    1    2  502    0 -0.54630235882E+02  0.58746909841E+02  0.25020572755E+03  0.26275191376E+03  0.00000000000E+00 0. -1.
         22    1    3    3    0    0  0.24596880666E+02 -0.20253592609E+02  0.44092687047E+03  0.44207659931E+03  0.00000000000E+00 0.  1.
         22    1    3    3    0    0 -0.58540245797E+02  0.87419848485E+01  0.12101757072E+03  0.13471687014E+03  0.00000000000E+00 0.  1.
</event>
<event>
 7    1  0.6078244E-006  0.8639624E+02  0.7818608E-02  0.1360175E+00
          2   -1    0    0  502    0  0.00000000000E+00  0.00000000000E+00  0.21964031337E+04  0.21964031337E+04  0.00000000000E+00 0. -1.
          1   -1    0    0  501    0 -0.00000000000E+00 -0.00000000000E+00 -0.19539330986E+02  0.19539330986E+02  0.00000000000E+00 0. -1.
         25    2    1    2    0    0 -0.86206740450E+02  0.62555967565E+01  0.13536951774E+04  0.13621990587E+04  0.12499963022E+03 0.  0.
          2    1    1    2  501    0  0.65417746756E+02 -0.58981716810E+02  0.12300512348E+03  0.15128973828E+03  0.00000000000E+00 0. -1.
          1    1    1    2  502    0  0.20788993694E+02  0.52726120054E+02  0.70016350180E+03  0.70245366769E+03  0.00000000000E+00 0. -1.
         22    1    3    3    0    0 -0.66535669422E+02 -0.40142590524E+02  0.11398555228E+04  0.11425012191E+04  0.00000000000E+00 0.  1.
         22    1    3    3    0    0 -0.19671071028E+02  0.46398187281E+02  0.21383965467E+03  0.21969783961E+03  0.00000000000E+00 0.  1.
</event>
<event>
 7    1  0.6078244E-006  0.4286117E+02  0.7818608E-02  0.1490318E+00
          2   -1    0    0  502    0  0.00000000000E+00  0.00000000000E+00  0.13821932464E+04  0.13821932464E+04  0.00000000000E+00 0. -1.
          1   -1    0    0  501    0 -0.00000000000E+00 -0.00000000000E+00 -0.31826616463E+03  0.31826616463E+03  0.00000000000E+00 0. -1.
         25    2    1    2    0    0 -0.65712054734E-01  0.62986917462E+01  0.29415713836E+03  0.31967616658E+03  0.12499900640E+03 0.  0.
          2    1    1    2  501    0  0.42230074385E+02 -0.84489418047E+01 -0.30357180416E+03  0.30661148719E+03  0.00000000000E+00 0. -1.
          1    1    1    2  502    0 -0.42164362331E+02  0.21502500585E+01  0.10733417475E+04  0.10741717572E+04  0.00000000000E+00 0. -1.
         22    1    3    3    0    0 -0.10958191622E+02  0.10677361420E+02  0.30398260067E+03  0.30436739234E+03  0.00000000000E+00 0. -1.
         22    1    3    3    0    0  0.10892479567E+02 -0.43786696733E+01 -0.98254623122E+01  0.15308774245E+02  0.00000000000E+00 0. -1.
</event>
<event>
 7    1  0.6078244E-006  0.1642165E+03  0.7818608E-02  0.1287229E+00
          2   -1    0    0  502    0  0.00000000000E+00  0.00000000000E+00  0.10564536150E+04  0.10564536150E+04  0.00000000000E+00 0. -1.
          1   -1    0    0  501    0 -0.00000000000E+00 -0.00000000000E+00 -0.14784930839E+04  0.14784930839E+04  0.00000000000E+00 0. -1.
         25    2    1    2    0    0  0.79339288528E+02 -0.14961082239E+03 -0.36907112053E+03  0.42487231522E+03  0.12499948540E+03 0.  0.
          2    1    1    2  501    0 -0.55540619135E+02 -0.12947816602E+02 -0.10741995361E+04  0.10757123453E+04  0.00000000000E+00 0. -1.
          1    1    1    2  502    0 -0.23798669393E+02  0.16255863899E+03  0.10212311877E+04  0.10343620384E+04  0.00000000000E+00 0. -1.
         22    1    3    3    0    0  0.69545038148E+02 -0.14320375448E+03 -0.37799714052E+03  0.41015322243E+03  0.00000000000E+00 0.  1.
         22    1    3    3    0    0  0.97942503799E+01 -0.64070679149E+01  0.89260199897E+01  0.14719092792E+02  0.00000000000E+00 0.  1.
</event>
<event>
 7    1  0.6078244E-006  0.1026967E+03  0.7818608E-02  0.1326399E+00
          2   -1    0    0  502    0  0.00000000000E+00  0.00000000000E+00  0.39860444787E+03  0.39860444787E+03  0.00000000000E+00 0. -1.
          1   -1    0    0  501    0 -0.00000000000E+00 -0.00000000000E+00 -0.40218155723E+03  0.40218155723E+03  0.00000000000E+00 0. -1.
         25    2    1    2    0    0  0.16772871755E+02  0.97165587454E+02 -0.20821469102E+03  0.26210762197E+03  0.12499826928E+03 0.  0.
          2    1    1    2  501    0 -0.63602555447E+02 -0.49587951591E+01 -0.15332963909E+03  0.16607183064E+03  0.00000000000E+00 0. -1.
          1    1    1    2  502    0  0.46829683692E+02 -0.92206792295E+02  0.35796722076E+03  0.37260655249E+03  0.00000000000E+00 0. -1.
         22    1    3    3    0    0 -0.15961015816E+02  0.53741436321E+01 -0.14493828405E+03  0.14591347309E+03  0.00000000000E+00 0. -1.
         22    1    3    3    0    0  0.32733887571E+02  0.91791443822E+02 -0.63276406977E+02  0.11619414888E+03  0.00000000000E+00 0. -1.
</event>
<event>
 7    1  0.6078244E-006  0.6072868E+02  0.7818608E-02  0.1520697E+00
          2   -1    0    0  502    0  0.00000000000E+00  0.00000000000E+00  0.60428312068E+03  0.60428312068E+03  0.00000000000E+00 0. -1.
          1   -1    0    0  501    0 -0.00000000000E+00 -0.00000000000E+00 -0.80842206864E+02  0.80842206864E+02  0.00000000000E+00 0. -1.
         25    2    1    2    0    0  0.34520212690E+02 -0.18736293630E+02  0.10782792501E+03  0.16969088741E+03  0.12500176828E+03 0.  0.
          2    1    1    2  501    0  0.14815223158E+02 -0.19161773676E+02 -0.44751361636E+02  0.50885644104E+02  0.00000000000E+00 0. -1.
          1    1    1    2  502    0 -0.49335435847E+02  0.37898067306E+02  0.46036435044E+03  0.46454879603E+03  0.00000000000E+00 0. -1.
         22    1    3    3    0    0  0.48303480337E+02  0.44977946753E+01  0.12740478566E+03  0.13632841149E+03  0.00000000000E+00 0.  1.
         22    1    3    3    0    0 -0.13783267647E+02 -0.23234088305E+02 -0.19576860653E+02  0.33362475919E+02  0.00000000000E+00 0.  1.
</event>
<event>
 7    1  0.6078244E-006  0.4145948E+02  0.7818608E-02  0.1521073E+00
          2   -1    0    0  502    0  0.00000000000E+00  0.00000000000E+00  0.49720554049E+03  0.49720554049E+03  0.00000000000E+00 0. -1.
          1   -1    0    0  501    0 -0.00000000000E+00 -0.00000000000E+00 -0.10773825410E+04  0.10773825410E+04  0.00000000000E+00 0. -1.
         25    2    1    2    0    0  0.27083608809E+02  0.43315138668E+02 -0.53998827821E+03  0.55661685169E+03  0.12500102351E+03 0.  0.
          2    1    1    2  501    0 -0.40406463058E+02 -0.10529211523E+02 -0.52761359913E+03  0.52926331494E+03  0.00000000000E+00 0. -1.
          1    1    1    2  502    0  0.13322854249E+02 -0.32785927145E+02  0.48742487684E+03  0.48870791484E+03  0.00000000000E+00 0. -1.
         22    1    3    3    0    0 -0.15203348211E+02 -0.19913834327E+02 -0.22833829786E+02  0.33898176605E+02  0.00000000000E+00 0. -1.
         22    1    3    3    0    0  0.42286957020E+02  0.63228972995E+02 -0.51715444842E+03  0.52271867509E+03  0.00000000000E+00 0. -1.
</event>
<event>
 7    1  0.6078244E-006  0.5622988E+02  0.7818608E-02  0.1442516E+00
          2   -1    0    0  502    0  0.00000000000E+00  0.00000000000E+00  0.10591569103E+04  0.10591569103E+04  0.00000000000E+00 0. -1.
          1   -1    0    0  501    0 -0.00000000000E+00 -0.00000000000E+00 -0.16168877729E+02  0.16168877729E+02  0.00000000000E+00 0. -1.
         25    2    1    2    0    0 -0.42359023834E+02  0.41524852287E+02  0.57569595895E+03  0.59209211486E+03  0.12501453946E+03 0.  0.
          2    1    1    2  501    0  0.58857916482E+02  0.77512366964E+00  0.12762388336E+03  0.14054433732E+03  0.00000000000E+00 0. -1.
          1    1    1    2  502    0 -0.16498892648E+02 -0.42299975956E+02  0.33966819022E+03  0.34268933580E+03  0.00000000000E+00 0. -1.
         22    1    3    3    0    0  0.25207880069E+02  0.45124008535E+02  0.40798784738E+03  0.41124894768E+03  0.00000000000E+00 0.  1.
         22    1    3    3    0    0 -0.67566903903E+02 -0.35991562488E+01  0.16770811157E+03  0.18084316718E+03  0.00000000000E+00 0.  1.
</event>
<event>
 7    1  0.6078244E-006  0.3834374E+02  0.7818608E-02  0.1564848E+00
          2   -1    0    0  502    0  0.00000000000E+00  0.00000000000E+00  0.23197234436E+03  0.23197234436E+03  0.00000000000E+00 0. -1.
          1   -1    0    0  501    0 -0.00000000000E+00 -0.00000000000E+00 -0.23753686076E+03  0.23753686076E+03  0.00000000000E+00 0. -1.
         25    2    1    2    0    0 -0.25464484795E+02 -0.61650477218E+02  0.86148268632E+02  0.16585224806E+03  0.12504488263E+03 0.  0.
          2    1    1    2  501    0  0.13464098924E+02  0.35460370704E+02 -0.19385442763E+03  0.19753040010E+03  0.00000000000E+00 0. -1.
          1    1    1    2  502    0  0.12000385871E+02  0.26190106514E+02  0.10214164260E+03  0.10612655697E+03  0.00000000000E+00 0. -1.
         22    1    3    3    0    0 -0.74854571549E+02 -0.27522526075E+02  0.62509468296E+02  0.10133178154E+03  0.00000000000E+00 0.  1.
         22    1    3    3    0    0  0.49390086754E+02 -0.34127951144E+02  0.23638800336E+02  0.64520466522E+02  0.00000000000E+00 0.  1.
</event>
<event>
 7    1  0.6078244E-006  0.6189096E+02  0.7818608E-02  0.1500187E+00
          2   -1    0    0  502    0  0.00000000000E+00  0.00000000000E+00  0.16635835021E+03  0.16635835021E+03  0.00000000000E+00 0. -1.
          1   -1    0    0  501    0 -0.00000000000E+00 -0.00000000000E+00 -0.73678137784E+03  0.73678137784E+03  0.00000000000E+00 0. -1.
         25    2    1    2    0    0  0.17020401108E+01  0.36110202192E+02 -0.12167894463E+03  0.17815261398E+03  0.12500297861E+03 0.  0.
          2    1    1    2  501    0 -0.32314031225E+01 -0.63376104890E+02 -0.58377927898E+03  0.58721820408E+03  0.00000000000E+00 0. -1.
          1    1    1    2  502    0  0.15293630117E+01  0.27265902698E+02  0.13503519599E+03  0.13776890998E+03  0.00000000000E+00 0. -1.
         22    1    3    3    0    0 -0.20343151026E+02 -0.39706579457E+02 -0.72515174434E+02  0.85140511914E+02  0.00000000000E+00 0. -1.
         22    1    3    3    0    0  0.22045191136E+02  0.75816781648E+02 -0.49163770196E+02  0.93012102071E+02  0.00000000000E+00 0. -1.
</event>
<event>
 7    1  0.6078244E-006  0.7334414E+02  0.7818608E-02  0.1404054E+00
          2   -1    0    0  502    0  0.00000000000E+00  0.00000000000E+00  0.72847946123E+02  0.72847946123E+02  0.00000000000E+00 0. -1.
          1   -1    0    0  501    0 -0.00000000000E+00 -0.00000000000E+00 -0.86341106962E+03  0.86341106962E+03  0.00000000000E+00 0. -1.
         25    2    1    2    0    0  0.79948191689E+02 -0.71372031726E+02 -0.19762004344E+03  0.25723283541E+03  0.12501747788E+03 0.  0.
          2    1    1    2  501    0 -0.66236074697E+02  0.26701997120E+02 -0.62062127976E+03  0.62471672551E+03  0.00000000000E+00 0. -1.
          1    1    1    2  502    0 -0.13712116993E+02  0.44670034606E+02  0.27678199705E+02  0.54309454822E+02  0.00000000000E+00 0. -1.
         22    1    3    3    0    0 -0.13655689252E+02  0.25479152851E+02 -0.24542128414E+02  0.37920721856E+02  0.00000000000E+00 0. -1.
         22    1    3    3    0    0  0.93603880941E+02 -0.96851184578E+02 -0.17307791503E+03  0.21931211356E+03  0.00000000000E+00 0. -1.
</event>
<event>
 7    1  0.6078244E-006  0.1103477E+03  0.7818608E-02  0.1327871E+00
          2   -1    0    0  502    0  0.00000000000E+00  0.00000000000E+00  0.31141849411E+03  0.31141849411E+03  0.00000000000E+00 0. -1.
          1   -1    0    0  501    0 -0.00000000000E+00 -0.00000000000E+00 -0.32622149643E+03  0.32622149643E+03  0.00000000000E+00 0. -1.
         25    2    1    2    0    0 -0.15837544916E+03 -0.35286455505E+02 -0.47436929587E+02  0.21024492710E+03  0.12499900097E+03 0.  0.
          2    1    1    2  501    0  0.53539524920E+02  0.23834429077E+02 -0.18040342012E+03  0.18968382833E+03  0.00000000000E+00 0. -1.
          1    1    1    2  502    0  0.10483592423E+03  0.11452026428E+02  0.21303734739E+03  0.23771123512E+03  0.00000000000E+00 0. -1.
         22    1    3    3    0    0  0.20662822141E+02 -0.36775472591E+01 -0.14420450752E+02  0.25464209640E+02  0.00000000000E+00 0. -1.
         22    1    3    3    0    0 -0.17903827130E+03 -0.31608908246E+02 -0.33016478835E+02  0.18478071746E+03  0.00000000000E+00 0. -1.
</event>
<event>
 7    1  0.6078244E-006  0.6276914E+02  0.7818608E-02  0.1451261E+00
          2   -1    0    0  502    0  0.00000000000E+00  0.00000000000E+00  0.12597502109E+04  0.12597502109E+04  0.00000000000E+00 0. -1.
          1   -1    0    0  501    0 -0.00000000000E+00 -0.00000000000E+00 -0.75303752670E+03  0.75303752670E+03  0.00000000000E+00 0. -1.
         25    2    1    2    0    0  0.75107294405E+02  0.52326861140E+01  0.66279787613E+03  0.67867037509E+03  0.12499586691E+03 0.  0.
          2    1    1    2  501    0 -0.19619251866E+02 -0.32689235926E+02 -0.74298439815E+03  0.74396190566E+03  0.00000000000E+00 0. -1.
          1    1    1    2  502    0 -0.55488042539E+02  0.27456549812E+02  0.58689920616E+03  0.59015545680E+03  0.00000000000E+00 0. -1.
         22    1    3    3    0    0  0.16200073730E+02  0.47994455564E+02  0.11002829237E+03  0.12112858983E+03  0.00000000000E+00 0. -1.
         22    1    3    3    0    0  0.58907220675E+02 -0.42761769450E+02  0.55276958377E+03  0.55754178526E+03  0.00000000000E+00 0. -1.
</event>
<event>
 7    1  0.6078244E-006  0.1792788E+03  0.7818608E-02  0.1340711E+00
          2   -1    0    0  502    0  0.00000000000E+00  0.00000000000E+00  0.42930394097E+02  0.42930394097E+02  0.00000000000E+00 0. -1.
          1   -1    0    0  501    0 -0.00000000000E+00 -0.00000000000E+00 -0.19156781682E+04  0.19156781682E+04  0.00000000000E+00 0. -1.
         25    2    1    2    0    0 -0.17412344145E+03  0.10028337766E+03 -0.97596155254E+03  0.10042417074E+04  0.12499890443E+03 0.  0.
          2    1    1    2  501    0  0.32242901921E+02 -0.16976957031E+00 -0.65972111029E+03  0.66050857444E+03  0.00000000000E+00 0. -1.
          1    1    1    2  502    0  0.14188053953E+03 -0.10011360809E+03 -0.23706511126E+03  0.29385828047E+03  0.00000000000E+00 0. -1.
         22    1    3    3    0    0 -0.56503718459E+01  0.55343964326E+02 -0.35225877788E+03  0.35662463134E+03  0.00000000000E+00 0. -1.
         22    1    3    3    0    0 -0.16847306960E+03  0.44939413332E+02 -0.62370277466E+03  0.64761707604E+03  0.00000000000E+00 0. -1.
</event>
<event>
 7    1  0.6078244E-006  0.6376880E+02  0.7818608E-02  0.1406202E+00
          2   -1    0    0  502    0  0.00000000000E+00  0.00000000000E+00  0.62696718643E+03  0.62696718643E+03  0.00000000000E+00 0. -1.
          1   -1    0    0  501    0 -0.00000000000E+00 -0.00000000000E+00 -0.54884296089E+03  0.54884296089E+03  0.00000000000E+00 0. -1.
         25    2    1    2    0    0  0.58079957091E+02  0.81374813072E+02  0.40719196786E+02  0.16515994303E+03  0.12499844869E+03 0.  0.
          2    1    1    2  501    0 -0.49312570803E+02 -0.18993853553E+02 -0.48328397049E+03  0.48616447036E+03  0.00000000000E+00 0. -1.
          1    1    1    2  502    0 -0.87673862881E+01 -0.62380959519E+02  0.52068899924E+03  0.52448573393E+03  0.00000000000E+00 0. -1.
         22    1    3    3    0    0  0.53025450502E+02  0.37642318633E+01  0.64732194428E+02  0.83762311560E+02  0.00000000000E+00 0.  1.
         22    1    3    3    0    0  0.50545065892E+01  0.77610581209E+02 -0.24012997642E+02  0.81397631466E+02  0.00000000000E+00 0.  1.
</event>
<event>
 7    1  0.6078244E-006  0.8493151E+02  0.7818608E-02  0.1341107E+00
          2   -1    0    0  502    0  0.00000000000E+00  0.00000000000E+00  0.18586369705E+04  0.18586369705E+04  0.00000000000E+00 0. -1.
          1   -1    0    0  501    0 -0.00000000000E+00 -0.00000000000E+00 -0.71668331072E+02  0.71668331072E+02  0.00000000000E+00 0. -1.
         25    2    1    2    0    0 -0.13816561284E+03 -0.11968272656E+02  0.27602991953E+03  0.33323483767E+03  0.12497985611E+03 0.  0.
          2    1    1    2  501    0  0.63336580270E+02 -0.24272680100E+02 -0.14505532041E+02  0.69362063545E+02  0.00000000000E+00 0. -1.
          1    1    1    2  502    0  0.74829032574E+02  0.36240952756E+02  0.15254442519E+04  0.15277084003E+04  0.00000000000E+00 0. -1.
         22    1    3    3    0    0 -0.10493602419E+03 -0.29375002503E+02  0.84034509365E+02  0.13760907931E+03  0.00000000000E+00 0.  1.
         22    1    3    3    0    0 -0.33229588657E+02  0.17406729847E+02  0.19199541017E+03  0.19562575836E+03  0.00000000000E+00 0.  1.
</event>
<event>
 7    1  0.6078244E-006  0.5633847E+02  0.7818608E-02  0.1504186E+00
          2   -1    0    0  502    0  0.00000000000E+00  0.00000000000E+00  0.22527034150E+04  0.22527034150E+04  0.00000000000E+00 0. -1.
          1   -1    0    0  501    0 -0.00000000000E+00 -0.00000000000E+00 -0.20879333212E+02  0.20879333212E+02  0.00000000000E+00 0. -1.
         25    2    1    2    0    0 -0.48816760433E+01 -0.76684790388E+02  0.12802617210E+04  0.12886430239E+04  0.12500552376E+03 0.  0.
          2    1    1    2  501    0 -0.12348606732E+02  0.26448727729E+02 -0.25958428168E+01  0.29304635924E+02  0.00000000000E+00 0. -1.
          1    1    1    2  502    0  0.17230282776E+02  0.50236062659E+02  0.95415820366E+03  0.95563508843E+03  0.00000000000E+00 0. -1.
         22    1    3    3    0    0  0.18450597240E+02  0.20482007992E+02  0.88378367408E+02  0.92577929419E+02  0.00000000000E+00 0.  1.
         22    1    3    3    0    0 -0.23332273284E+02 -0.97166798380E+02  0.11918833536E+04  0.11960650945E+04  0.00000000000E+00 0.  1.
</event>
<event>
 7    1  0.6078244E-006  0.1015269E+03  0.7818608E-02  0.1351903E+00
          2   -1    0    0  502    0  0.00000000000E+00  0.00000000000E+00  0.76342984155E+03  0.76342984155E+03  0.00000000000E+00 0. -1.
          1   -1    0    0  501    0 -0.00000000000E+00 -0.00000000000E+00 -0.18577177569E+04  0.18577177569E+04  0.00000000000E+00 0. -1.
         25    2    1    2    0    0 -0.47846303292E+02  0.87383491772E+02  0.16665673060E+03  0.23092104377E+03  0.12499967692E+03 0.  0.
          2    1    1    2  501    0 -0.18800800628E+01 -0.10161600065E+03 -0.18229826739E+04  0.18258135655E+04  0.00000000000E+00 0. -1.
          1    1    1    2  502    0  0.49726383355E+02  0.14232508874E+02  0.56203802799E+03  0.56441298924E+03  0.00000000000E+00 0. -1.
         22    1    3    3    0    0  0.38237455367E+02  0.37008613462E+02  0.28038099316E+02  0.60148777848E+02  0.00000000000E+00 0.  1.
         22    1    3    3    0    0 -0.86083758659E+02  0.50374878310E+02  0.13861863129E+03  0.17077226593E+03  0.00000000000E+00 0.  1.
</event>
<event>
 7    1  0.6078244E-006  0.1468323E+03  0.7818608E-02  0.1226959E+00
          2   -1    0    0  502    0  0.00000000000E+00  0.00000000000E+00  0.17834298422E+04  0.17834298422E+04  0.00000000000E+00 0. -1.
          1   -1    0    0  501    0 -0.00000000000E+00 -0.00000000000E+00 -0.37095974418E+03  0.37095974418E+03  0.00000000000E+00 0. -1.
         25    2    1    2    0    0 -0.24328295040E+03  0.37028030665E+02  0.66730741871E+03  0.72213711596E+03  0.12500061667E+03 0.  0.
          2    1    1    2  501    0  0.11567534253E+03 -0.19704191908E+01 -0.32963015612E+03  0.34934325132E+03  0.00000000000E+00 0. -1.
          1    1    1    2  502    0  0.12760760787E+03 -0.35057611474E+02  0.10747928354E+04  0.10829092191E+04  0.00000000000E+00 0. -1.
         22    1    3    3    0    0 -0.21256430486E+03  0.12743624721E+02  0.41133950758E+03  0.46319129328E+03  0.00000000000E+00 0. -1.
         22    1    3    3    0    0 -0.30718645542E+02  0.24284405944E+02  0.25596791113E+03  0.25894582269E+03  0.00000000000E+00 0. -1.
</event>
<event>
 7    1  0.6078244E-006  0.1324807E+03  0.7818608E-02  0.1377236E+00
          2   -1    0    0  502    0  0.00000000000E+00  0.00000000000E+00  0.57625506279E+03  0.57625506279E+03  0.00000000000E+00 0. -1.
          1   -1    0    0  501    0 -0.00000000000E+00 -0.00000000000E+00 -0.49590086781E+03  0.49590086781E+03  0.00000000000E+00 0. -1.
         25    2    1    2    0    0 -0.94459778710E+02  0.54806246821E+02 -0.21127681562E+02  0.16732417352E+03  0.12499850252E+03 0.  0.
          2    1    1    2  501    0  0.12634017521E+03 -0.51197899884E+02 -0.38957035146E+03  0.41273250849E+03  0.00000000000E+00 0. -1.
          1    1    1    2  502    0 -0.31880396501E+02 -0.36083469363E+01  0.49105222800E+03  0.49209924859E+03  0.00000000000E+00 0. -1.
         22    1    3    3    0    0 -0.12359331627E+03  0.29332956969E+02 -0.20131524823E+02  0.12861185203E+03  0.00000000000E+00 0.  1.
         22    1    3    3    0    0  0.29133537561E+02  0.25473289851E+02 -0.99615673871E+00  0.38712321487E+02  0.00000000000E+00 0.  1.
</event>
<event>
 7    1  0.6078244E-006  0.6287166E+02  0.7818608E-02  0.1501882E+00
          2   -1    0    0  502    0  0.00000000000E+00  0.00000000000E+00  0.16222920275E+04  0.16222920275E+04  0.00000000000E+00 0. -1.
          1   -1    0    0  501    0 -0.00000000000E+00 -0.00000000000E+00 -0.27058472131E+03  0.27058472131E+03  0.00000000000E+00 0. -1.
         25    2    1    2    0    0 -0.46266544582E+02  0.22612091743E+02  0.28864340181E+03  0.31873479269E+03  0.12499981929E+03 0.  0.
          2    1    1    2  501    0  0.40315575014E+02 -0.48508986490E+02 -0.25151048680E+03  0.25929904036E+03  0.00000000000E+00 0. -1.
          1    1    1    2  502    0  0.59509695676E+01  0.25896894747E+02  0.13145743912E+04  0.13148429158E+04  0.00000000000E+00 0. -1.
         22    1    3    3    0    0 -0.12867982223E+02 -0.27192806974E+02  0.23899973519E+03  0.24088567234E+03  0.00000000000E+00 0. -1.
         22    1    3    3    0    0 -0.33398562359E+02  0.49804898717E+02  0.49643666624E+02  0.77849120353E+02  0.00000000000E+00 0. -1.
</event>
<event>
 7    1  0.6078244E-006  0.1053606E+03  0.7818608E-02  0.1409204E+00
          2   -1    0    0  502    0  0.00000000000E+00  0.00000000000E+00  0.43269481677E+03  0.43269481677E+03  0.00000000000E+00 0. -1.
          1   -1    0    0  501    0 -0.00000000000E+00 -0.00000000000E+00 -0.38750467629E+03  0.38750467629E+03  0.00000000000E+00 0. -1.
         25    2    1    2    0    0  0.32020895364E+02  0.13192373517E+03 -0.21655608224E+03  0.28451839110E+03  0.12499987391E+03 0.  0.
          2    1    1    2  501    0 -0.81052861893E+01 -0.30170779490E+02 -0.12820886860E+03  0.13196016667E+03  0.00000000000E+00 0. -1.
          1    1    1    2  502    0 -0.23915609175E+02 -0.10175295568E+03  0.38995509131E+03  0.40372093529E+03  0.00000000000E+00 0. -1.
         22    1    3    3    0    0  0.43297164149E+02  0.11631250795E+03 -0.22978143912E+03  0.26115656931E+03  0.00000000000E+00 0.  1.
         22    1    3    3    0    0 -0.11276268785E+02  0.15611227217E+02  0.13225356878E+02  0.23361821792E+02  0.00000000000E+00 0.  1.
</event>
<event>
 7    1  0.6078244E-006  0.1106871E+03  0.7818608E-02  0.1342479E+00
          2   -1    0    0  502    0  0.00000000000E+00  0.00000000000E+00  0.20388524025E+04  0.20388524025E+04  0.00000000000E+00 0. -1.
          1   -1    0    0  501    0 -0.00000000000E+00 -0.00000000000E+00 -0.97211324977E+03  0.97211324977E+03  0.00000000000E+00 0. -1.
         25    2    1    2    0    0  0.84407928749E+02 -0.34769677438E+02  0.67170313814E+03  0.68930475842E+03  0.12498926068E+03 0.  0.
          2    1    1    2  501    0 -0.11040852250E+03 -0.96066977153E+01 -0.95963529474E+03  0.96601357619E+03  0.00000000000E+00 0. -1.
          1    1    1    2  502    0  0.26000593748E+02  0.44376375154E+02  0.13546713094E+04  0.13556473177E+04  0.00000000000E+00 0. -1.
         22    1    3    3    0    0  0.92513087124E+02 -0.53153333806E+02  0.65362957526E+03  0.66228058241E+03  0.00000000000E+00 0. -1.
         22    1    3    3    0    0 -0.81051583751E+01  0.18383656368E+02  0.18073562885E+02  0.27024176012E+02  0.00000000000E+00 0. -1.
</event>
<event>
 7    1  0.6078244E-006  0.9428823E+02  0.7818608E-02  0.1324075E+00
          2   -1    0    0  502    0  0.00000000000E+00  0.00000000000E+00  0.13015069998E+04  0.13015069998E+04  0.00000000000E+00 0. -1.
          1   -1    0    0  501    0 -0.00000000000E+00 -0.00000000000E+00 -0.16149178889E+03  0.16149178889E+03  0.00000000000E+00 0. -1.
         25    2    1    2    0    0  0.92246757779E+02  0.27375304378E+02  0.11349262170E+03  0.19433087600E+03  0.12500017030E+03 0.  0.
          2    1    1    2  501    0 -0.86793708345E+02  0.43345948968E+02 -0.10034225427E+03  0.13957287377E+03  0.00000000000E+00 0. -1.
          1    1    1    2  502    0 -0.54530494345E+01 -0.70721253346E+02  0.11268648435E+04  0.11290950390E+04  0.00000000000E+00 0. -1.
         22    1    3    3    0    0  0.27004706238E+02  0.66099782265E+02  0.20445032018E+02  0.74272705005E+02  0.00000000000E+00 0. -1.
         22    1    3    3    0    0  0.65242051541E+02 -0.38724477887E+02  0.93047589679E+02  0.12005817099E+03  0.00000000000E+00 0. -1.
</event>
<event>
 7    1  0.6078244E-006  0.5281127E+02  0.7818608E-02  0.1569736E+00
          2   -1    0    0  502    0  0.00000000000E+00  0.00000000000E+00  0.94722306087E+03  0.94722306087E+03  0.00000000000E+00 0. -1.
          1   -1    0    0  501    0 -0.00000000000E+00 -0.00000000000E+00 -0.20379655017E+03  0.20379655017E+03  0.00000000000E+00 0. -1.
         25    2    1    2    0    0 -0.69100843148E+02 -0.13978359103E+02  0.25541048863E+03  0.29296983031E+03  0.12500593075E+03 0.  0.
          2    1    1    2  501    0  0.17313556313E+02  0.10568623824E+02 -0.18345652598E+03  0.18457451603E+03  0.00000000000E+00 0. -1.
          1    1    1    2  502    0  0.51787286834E+02  0.34097352791E+01  0.67147254806E+03  0.67347526471E+03  0.00000000000E+00 0. -1.
         22    1    3    3    0    0  0.46443199741E+01 -0.21735321257E+02  0.19786189411E+03  0.19910631089E+03  0.00000000000E+00 0. -1.
         22    1    3    3    0    0 -0.73745163122E+02  0.77569621548E+01  0.57548594521E+02  0.93863519415E+02  0.00000000000E+00 0. -1.
</event>
<event>
 7    1  0.6078244E-006  0.1871880E+03  0.7818608E-02  0.1230358E+00
          2   -1    0    0  502    0  0.00000000000E+00  0.00000000000E+00  0.39923219384E+03  0.39923219384E+03  0.00000000000E+00 0. -1.
          1   -1    0    0  501    0 -0.00000000000E+00 -0.00000000000E+00 -0.20406260001E+04  0.20406260001E+04  0.00000000000E+00 0. -1.
         25    2    1    2    0    0  0.75546722318E+02  0.86837978411E+02  0.10299628796E+03  0.19869934945E+03  0.12500021756E+03 0.  0.
          2    1    1    2  501    0 -0.16250865177E+03 -0.97505109594E+02 -0.19803813726E+04  0.19894287344E+04  0.00000000000E+00 0. -1.
          1    1    1    2  502    0  0.86961929456E+02  0.10667131183E+02  0.23599127838E+03  0.25173011010E+03  0.00000000000E+00 0. -1.
         22    1    3    3    0    0  0.12537492005E+01 -0.28080699944E+02  0.11777436959E+01  0.28133337460E+02  0.00000000000E+00 0.  1.
         22    1    3    3    0    0  0.74292973117E+02  0.11491867836E+03  0.10181854426E+03  0.17056601199E+03  0.00000000000E+00 0.  1.
</event>
<event>
 7    1  0.6078244E-006  0.4881309E+02  0.7818608E-02  0.1490662E+00
          2   -1    0    0  502    0  0.00000000000E+00  0.00000000000E+00  0.18727461778E+03  0.18727461778E+03  0.00000000000E+00 0. -1.
          1   -1    0    0  501    0 -0.00000000000E+00 -0.00000000000E+00 -0.52837521877E+03  0.52837521877E+03  0.00000000000E+00 0. -1.
         25    2    1    2    0    0 -0.32456527041E+02 -0.32006471999E+02 -0.37251716237E+03  0.39556509331E+03  0.12499946555E+03 0.  0.
          2    1    1    2  501    0  0.32865394543E+02 -0.16957826610E+02 -0.13844857446E+03  0.14330286044E+03  0.00000000000E+00 0. -1.
          1    1    1    2  502    0 -0.40886750150E+00  0.48964298609E+02  0.16986513584E+03  0.17678188280E+03  0.00000000000E+00 0. -1.
         22    1    3    3    0    0  0.66375633856E+00  0.26409314477E+02 -0.28001525192E+03  0.28125865991E+03  0.00000000000E+00 0.  1.
         22    1    3    3    0    0 -0.33120283380E+02 -0.58415786476E+02 -0.92501910449E+02  0.11430643340E+03  0.00000000000E+00 0.  1.
</event>
<event>
 7    1  0.6078244E-006  0.5585783E+02  0.7818608E-02  0.1488990E+00
          2   -1    0    0  502    0  0.00000000000E+00  0.00000000000E+00  0.75631884606E+02  0.75631884606E+02  0.00000000000E+00 0. -1.
          1   -1    0    0  501    0 -0.00000000000E+00 -0.00000000000E+00 -0.20542639383E+03  0.20542639383E+03  0.00000000000E+00 0. -1.
         25    2    1    2    0    0 -0.22180123815E+01 -0.56211099544E+02 -0.22371418147E+02  0.13888609988E+03  0.12499704437E+03 0.  0.
          2    1    1    2  501    0 -0.31945804984E+02  0.69682453267E+01 -0.45119281370E+02  0.55721095201E+02  0.00000000000E+00 0. -1.
          1    1    1    2  502    0  0.34163817365E+02  0.49242854218E+02 -0.62303809708E+02  0.86451083351E+02  0.00000000000E+00 0. -1.
         22    1    3    3    0    0  0.59031140384E+02 -0.30969683174E+02 -0.28205398326E+02  0.72383294383E+02  0.00000000000E+00 0.  1.
         22    1    3    3    0    0 -0.61249152765E+02 -0.25241416370E+02  0.58339801798E+01  0.66502805502E+02  0.00000000000E+00 0.  1.
</event>
<event>
 7    1  0.6078244E-006  0.1523822E+03  0.7818608E-02  0.1252020E+00
          2   -1    0    0  502    0  0.00000000000E+00  0.00000000000E+00  0.96110821968E+02  0.96110821968E+02  0.00000000000E+00 0. -1.
          1   -1    0    0  501    0 -0.00000000000E+00 -0.00000000000E+00 -0.15366818160E+04  0.15366818160E+04  0.00000000000E+00 0. -1.
         25    2    1    2    0    0 -0.65361757901E+02  0.96897003462E+02 -0.30131560915E+03  0.34652192149E+03  0.12500062830E+03 0.  0.
          2    1    1    2  501    0  0.51683905705E+02  0.69248646694E+02 -0.11143708547E+04  0.11177159760E+04  0.00000000000E+00 0. -1.
          1    1    1    2  502    0  0.13677852196E+02 -0.16614565016E+03 -0.24884530204E+02  0.16855474051E+03  0.00000000000E+00 0. -1.
         22    1    3    3    0    0 -0.11583453392E+01 -0.21079022442E+02 -0.57666555366E+01  0.21884269856E+02  0.00000000000E+00 0.  1.
         22    1    3    3    0    0 -0.64203412562E+02  0.11797602590E+03 -0.29554895362E+03  0.32463765163E+03  0.00000000000E+00 0.  1.
</event>
<event>
 7    1  0.6078244E-006  0.7700514E+02  0.7818608E-02  0.1407252E+00
          2   -1    0    0  502    0  0.00000000000E+00  0.00000000000E+00  0.68521969191E+03  0.68521969191E+03  0.00000000000E+00 0. -1.
          1   -1    0    0  501    0 -0.00000000000E+00 -0.00000000000E+00 -0.65491597038E+02  0.65491597038E+02  0.00000000000E+00 0. -1.
         25    2    1    2    0    0 -0.18294273391E+01 -0.56831599871E+02  0.21594044340E+03  0.25590590759E+03  0.12499752355E+03 0.  0.
          2    1    1    2  501    0 -0.41384968021E+02 -0.13077418814E+02 -0.30347301282E+02  0.52959353811E+02  0.00000000000E+00 0. -1.
          1    1    1    2  502    0  0.43214395360E+02  0.69909018685E+02  0.43413495275E+03  0.44184602755E+03  0.00000000000E+00 0. -1.
         22    1    3    3    0    0  0.38023414261E+02 -0.56349368615E+02  0.47788016003E+02  0.83094680027E+02  0.00000000000E+00 0. -1.
         22    1    3    3    0    0 -0.39852841600E+02 -0.48223125609E+00  0.16815242740E+03  0.17281122756E+03  0.00000000000E+00 0. -1.
</event>
<event>
 7    1  0.6078244E-006  0.1027146E+03  0.7818608E-02  0.1422326E+00
          2   -1    0    0  502    0  0.00000000000E+00  0.00000000000E+00  0.21169977846E+04  0.21169977846E+04  0.00000000000E+00 0. -1.
          1   -1    0    0  501    0 -0.00000000000E+00 -0.00000000000E+00 -0.21133286520E+03  0.21133286520E+03  0.00000000000E+00 0. -1.
         25    2    1    2    0    0  0.12618589804E+03  0.10152353013E+02  0.20195024278E+03  0.26913764430E+03  0.12500087955E+03 0.  0.
          2    1    1    2  501    0 -0.99188093202E+02 -0.20606837965E+02 -0.16318244192E+03  0.19207141628E+03  0.00000000000E+00 0. -1.
          1    1    1    2  502    0 -0.26997804833E+02  0.10454484952E+02  0.18668971186E+04  0.18671215892E+04  0.00000000000E+00 0. -1.
         22    1    3    3    0    0  0.28500687818E+02  0.53300344570E+02  0.31919151794E+02  0.68352382465E+02  0.00000000000E+00 0.  1.
         22    1    3    3    0    0  0.97685210217E+02 -0.43147991556E+02  0.17003109099E+03  0.20078526184E+03  0.00000000000E+00 0.  1.
</event>
<event>
 7    1  0.6078244E-006  0.9364259E+02  0.7818608E-02  0.1355400E+00
          2   -1    0    0  502    0  0.00000000000E+00  0.00000000000E+00  0.49305463085E+03  0.49305463085E+03  0.00000000000E+00 0. -1.
          1   -1    0    0  501    0 -0.00000000000E+00 -0.00000000000E+00 -0.88657704962E+03  0.88657704962E+03  0.00000000000E+00 0. -1.
         25    2    1    2    0    0  0.14169739247E+02 -0.86189377155E+02 -0.20278233384E+03  0.25372273567E+03  0.12500064573E+03 0.  0.
          2    1    1    2  501    0 -0.66167944319E+02  0.70072765439E+02 -0.65319207820E+03  0.66026379602E+03  0.00000000000E+00 0. -1.
          1    1    1    2  502    0  0.51998205072E+02  0.16116611717E+02  0.46245199327E+03  0.46564514878E+03  0.00000000000E+00 0. -1.
         22    1    3    3    0    0 -0.34470960019E+02 -0.33717623468E+01 -0.65538362814E+01  0.35250087035E+02  0.00000000000E+00 0.  1.
         22    1    3    3    0    0  0.48640699266E+02 -0.82817614808E+02 -0.19622849756E+03  0.21847264864E+03  0.00000000000E+00 0.  1.
</event>
<event>
 7    1  0.6078244E-006  0.2875626E+02  0.7818608E-02  0.1668769E+00
          2   -1    0    0  502    0  0.00000000000E+00  0.00000000000E+00  0.16147509841E+04  0.16147509841E+04  0.00000000000E+00 0. -1.
          1   -1    0    0  501    0 -0.00000000000E+00 -0.00000000000E+00 -0.23290129855E+02  0.23290129855E+02  0.00000000000E+00 0. -1.
         25    2    1    2    0    0  0.13043728872E+02  0.12820925912E+02  0.29936953635E+03  0.32493394130E+03  0.12500172762E+03 0.  0.
          2    1    1    2  501    0 -0.97868841705E+00 -0.29786903273E+02  0.10880161565E+02  0.31726886915E+02  0.00000000000E+00 0. -1.
          1    1    1    2  502    0 -0.12065040455E+02  0.16965977361E+02  0.12812111564E+04  0.12813802858E+04  0.00000000000E+00 0. -1.
         22    1    3    3    0    0 -0.42269257541E+01 -0.76457303318E+01 -0.10641558795E+02  0.13768328411E+02  0.00000000000E+00 0.  1.
         22    1    3    3    0    0  0.17270654626E+02  0.20466656244E+02  0.31001109515E+03  0.31116561289E+03  0.00000000000E+00 0.  1.
</event>
<event>
 7    1  0.6078244E-006  0.4955771E+02  0.7818608E-02  0.1501310E+00
          2   -1    0    0  502    0  0.00000000000E+00  0.00000000000E+00  0.40258991509E+03  0.40258991509E+03  0.00000000000E+00 0. -1.
          1   -1    0    0  501    0 -0.00000000000E+00 -0.00000000000E+00 -0.25312590823E+03  0.25312590823E+03  0.00000000000E+00 0. -1.
         25    2    1    2    0    0 -0.72118766502E+02 -0.30747589530E+02  0.13445164643E+02  0.14816123159E+03  0.12499778938E+03 0.  0.
          2    1    1    2  501    0  0.38289119677E+02  0.29798135879E+02 -0.18168583733E+03  0.18805246362E+03  0.00000000000E+00 0. -1.
          1    1    1    2  502    0  0.33829646825E+02  0.94945365094E+00  0.31770467954E+03  0.31950212812E+03  0.00000000000E+00 0. -1.
         22    1    3    3    0    0 -0.96802479500E+02 -0.56168992631E+02  0.13485508051E+02  0.11272770155E+03  0.00000000000E+00 0.  1.
         22    1    3    3    0    0  0.24683712998E+02  0.25421403101E+02 -0.40343407696E-01  0.35433530033E+02  0.00000000000E+00 0.  1.
</event>
<event>
 7    1  0.6078244E-006  0.8954212E+02  0.7818608E-02  0.1375639E+00
          2   -1    0    0  502    0  0.00000000000E+00  0.00000000000E+00  0.15099543772E+04  0.15099543772E+04  0.00000000000E+00 0. -1.
          1   -1    0    0  501    0 -0.00000000000E+00 -0.00000000000E+00 -0.31949611444E+02  0.31949611444E+02  0.00000000000E+00 0. -1.
         25    2    1    2    0    0 -0.77307031717E+02 -0.78703995023E+02  0.23220808644E+03  0.28586065061E+03  0.12500008069E+03 0.  0.
          2    1    1    2  501    0  0.61416142582E+02  0.33310258419E+02  0.26460846511E+03  0.27367710115E+03  0.00000000000E+00 0. -1.
          1    1    1    2  502    0  0.15890889134E+02  0.45393736604E+02  0.98118821423E+03  0.98236623691E+03  0.00000000000E+00 0. -1.
         22    1    3    3    0    0  0.20097867235E+02 -0.64534720455E+02  0.81873334440E+02  0.10616919188E+03  0.00000000000E+00 0.  1.
         22    1    3    3    0    0 -0.97404898952E+02 -0.14169274568E+02  0.15033475200E+03  0.17969145873E+03  0.00000000000E+00 0.  1.
</event>
<event>
 7    1  0.6078244E-006  0.3253388E+03  0.7818608E-02  0.1090504E+00
          2   -1    0    0  502    0  0.00000000000E+00  0.00000000000E+00  0.11281307016E+04  0.11281307016E+04  0.00000000000E+00 0. -1.
          1   -1    0    0  501    0 -0.00000000000E+00 -0.00000000000E+00 -0.50165346719E+03  0.50165346719E+03  0.00000000000E+00 0. -1.
         25    2    1    2    0    0  0.13573531237E+02  0.33000875896E+02 -0.30018893133E+02  0.13341585789E+03  0.12500143451E+03 0.  0.
          2    1    1    2  501    0 -0.21151780562E+03  0.24719531153E+03 -0.32305104835E+03  0.45848367907E+03  0.00000000000E+00 0. -1.
          1    1    1    2  502    0  0.19794427438E+03 -0.28019618743E+03  0.97954717592E+03  0.10378846319E+04  0.00000000000E+00 0. -1.
         22    1    3    3    0    0  0.33519741113E+02 -0.33952661499E+02 -0.40737675581E+02  0.62736866983E+02  0.00000000000E+00 0. -1.
         22    1    3    3    0    0 -0.19946209876E+02  0.66953537395E+02  0.10718782448E+02  0.70678990904E+02  0.00000000000E+00 0. -1.
</event>
<event>
 7    1  0.6078244E-006  0.5744299E+02  0.7818608E-02  0.1491641E+00
          2   -1    0    0  502    0  0.00000000000E+00  0.00000000000E+00  0.12418102997E+04  0.12418102997E+04  0.00000000000E+00 0. -1.
          1   -1    0    0  501    0 -0.00000000000E+00 -0.00000000000E+00 -0.95979070538E+03  0.95979070538E+03  0.00000000000E+00 0. -1.
         25    2    1    2    0    0 -0.41908398484E+02  0.74823079547E+02  0.81963232676E+02  0.17233143434E+03  0.12500137861E+03 0.  0.
          2    1    1    2  501    0  0.23077151986E+02 -0.21016735408E+02 -0.91361105132E+03  0.91414408668E+03  0.00000000000E+00 0. -1.
          1    1    1    2  502    0  0.18831246498E+02 -0.53806344140E+02  0.11136674129E+04  0.11151254840E+04  0.00000000000E+00 0. -1.
         22    1    3    3    0    0 -0.67360049327E+00  0.99184121000E+02  0.34799508464E+02  0.10511398283E+03  0.00000000000E+00 0. -1.
         22    1    3    3    0    0 -0.41234797990E+02 -0.24361041453E+02  0.47163724212E+02  0.67217451510E+02  0.00000000000E+00 0. -1.
</event>
<event>
 7    1  0.6078244E-006  0.7879652E+02  0.7818608E-02  0.1486118E+00
          2   -1    0    0  502    0  0.00000000000E+00  0.00000000000E+00  0.39222358474E+03  0.39222358474E+03  0.00000000000E+00 0. -1.
          1   -1    0    0  501    0 -0.00000000000E+00 -0.00000000000E+00 -0.87686245825E+03  0.87686245825E+03  0.00000000000E+00 0. -1.
         25    2    1    2    0    0 -0.15986910147E+02  0.72875828913E+02 -0.21910631092E+03  0.26305732419E+03  0.12500045035E+03 0.  0.
          2    1    1    2  501    0 -0.67641360719E+01 -0.79328730899E+02 -0.63290644318E+03  0.63789447944E+03  0.00000000000E+00 0. -1.
          1    1    1    2  502    0  0.22751046219E+02  0.64529019862E+01  0.36737388059E+03  0.36813423936E+03  0.00000000000E+00 0. -1.
         22    1    3    3    0    0  0.61099247748E+01  0.43097872134E+02 -0.22165519606E+03  0.22588887468E+03  0.00000000000E+00 0. -1.
         22    1    3    3    0    0 -0.22096834922E+02  0.29777956779E+02  0.25488851395E+01  0.37168449510E+02  0.00000000000E+00 0. -1.
</event>
<event>
 7    1  0.6078244E-006  0.8445753E+02  0.7818608E-02  0.1441137E+00
          2   -1    0    0  502    0  0.00000000000E+00  0.00000000000E+00  0.82409274618E+03  0.82409274618E+03  0.00000000000E+00 0. -1.
          1   -1    0    0  501    0 -0.00000000000E+00 -0.00000000000E+00 -0.22571962696E+04  0.22571962696E+04  0.00000000000E+00 0. -1.
         25    2    1    2    0    0 -0.50120317112E+02  0.63259023247E+02  0.38939476095E+03  0.41685922706E+03  0.12501833914E+03 0.  0.
          2    1    1    2  501    0  0.72816849836E+02 -0.42823351878E+02 -0.22421136433E+04  0.22437044642E+04  0.00000000000E+00 0. -1.
          1    1    1    2  502    0 -0.22696532724E+02 -0.20435671369E+02  0.41961535893E+03  0.42072532454E+03  0.00000000000E+00 0. -1.
         22    1    3    3    0    0  0.18322450499E+02  0.74769680203E+02  0.24184308051E+03  0.25379971012E+03  0.00000000000E+00 0. -1.
         22    1    3    3    0    0 -0.68442767611E+02 -0.11510656957E+02  0.14755168044E+03  0.16305951694E+03  0.00000000000E+00 0. -1.
</event>
<event>
 7    1  0.6078244E-006  0.5651431E+02  0.7818608E-02  0.1534200E+00
          2   -1    0    0  502    0  0.00000000000E+00  0.00000000000E+00  0.34321021483E+03  0.34321021483E+03  0.00000000000E+00 0. -1.
          1   -1    0    0  501    0 -0.00000000000E+00 -0.00000000000E+00 -0.80245802702E+03  0.80245802702E+03  0.00000000000E+00 0. -1.
         25    2    1    2    0    0 -0.32546630555E+02  0.66013237656E+02  0.15783182272E+03  0.21436448639E+03  0.12499687219E+03 0.  0.
          2    1    1    2  501    0  0.36980250250E+02 -0.42627995554E+02 -0.77225468270E+03  0.77431387684E+03  0.00000000000E+00 0. -1.
          1    1    1    2  502    0 -0.44336196946E+01 -0.23385242102E+02  0.15517504778E+03  0.15698987861E+03  0.00000000000E+00 0. -1.
         22    1    3    3    0    0 -0.28787495363E+02 -0.32361556867E+02  0.70618624441E+02  0.82843106956E+02  0.00000000000E+00 0.  1.
         22    1    3    3    0    0 -0.37591351920E+01  0.98374794522E+02  0.87213198282E+02  0.13152137944E+03  0.00000000000E+00 0.  1.
</event>
<event>
 7    1  0.6078244E-006  0.6447026E+02  0.7818608E-02  0.1404507E+00
          2   -1    0    0  502    0  0.00000000000E+00  0.00000000000E+00  0.70764350626E+03  0.70764350626E+03  0.00000000000E+00 0. -1.
          1   -1    0    0  501    0 -0.00000000000E+00 -0.00000000000E+00 -0.76985535879E+03  0.76985535879E+03  0.00000000000E+00 0. -1.
         25    2    1    2    0    0  0.86413718697E+02 -0.75804998152E+02 -0.57810046003E+02  0.17939132832E+03  0.12500207491E+03 0.  0.
          2    1    1    2  501    0 -0.41546275696E+02  0.47650135469E+02 -0.64863092293E+03  0.65170445957E+03  0.00000000000E+00 0. -1.
          1    1    1    2  502    0 -0.44867443001E+02  0.28154862683E+02  0.64422911641E+03  0.64640307716E+03  0.00000000000E+00 0. -1.
         22    1    3    3    0    0  0.73788893023E+02  0.16981751233E+02 -0.32435596020E+02  0.82372619830E+02  0.00000000000E+00 0. -1.
         22    1    3    3    0    0  0.12624825674E+02 -0.92786749385E+02 -0.25374449983E+02  0.97018708488E+02  0.00000000000E+00 0. -1.
</event>
<event>
 7    1  0.6078244E-006  0.1657805E+03  0.7818608E-02  0.1378497E+00
          2   -1    0    0  502    0  0.00000000000E+00  0.00000000000E+00  0.77993171308E+03  0.77993171308E+03  0.00000000000E+00 0. -1.
          1   -1    0    0  501    0 -0.00000000000E+00 -0.00000000000E+00 -0.16769526334E+03  0.16769526334E+03  0.00000000000E+00 0. -1.
         25    2    1    2    0    0  0.50124462387E+02  0.18211569744E+03  0.53168436780E+03  0.57792096683E+03  0.12500315182E+03 0.  0.
          2    1    1    2  501    0 -0.39817015543E+02 -0.15892710457E+03 -0.96966328567E+02  0.19038300389E+03  0.00000000000E+00 0. -1.
          1    1    1    2  502    0 -0.10307446844E+02 -0.23188592866E+02  0.17751841051E+03  0.17932300569E+03  0.00000000000E+00 0. -1.
         22    1    3    3    0    0  0.84489335495E+02  0.16965865213E+03  0.43209623306E+03  0.47183647663E+03  0.00000000000E+00 0.  1.
         22    1    3    3    0    0 -0.34364873108E+02  0.12457045313E+02  0.99588134735E+02  0.10608449020E+03  0.00000000000E+00 0.  1.
</event>
<event>
 7    1  0.6078244E-006  0.5891118E+02  0.7818608E-02  0.1476004E+00
          2   -1    0    0  502    0  0.00000000000E+00  0.00000000000E+00  0.16002127195E+04  0.16002127195E+04  0.00000000000E+00 0. -1.
          1   -1    0    0  501    0 -0.00000000000E+00 -0.00000000000E+00 -0.38668325974E+03  0.38668325974E+03  0.00000000000E+00 0. -1.
         25    2    1    2    0    0 -0.11498951840E+02  0.86484754245E+02  0.18715389240E+03  0.24137804608E+03  0.12499977232E+03 0.  0.
          2    1    1    2  501    0 -0.10284054897E+02 -0.32375716549E+02 -0.35815343352E+03  0.35976079657E+03  0.00000000000E+00 0. -1.
          1    1    1    2  502    0  0.21783006737E+02 -0.54109037697E+02  0.13845290009E+04  0.13857571366E+04  0.00000000000E+00 0. -1.
         22    1    3    3    0    0 -0.45956316695E+02 -0.10537807024E+02  0.79390189739E+02  0.92335424664E+02  0.00000000000E+00 0.  1.
         22    1    3    3    0    0  0.34457364855E+02  0.97022561270E+02  0.10776370266E+03  0.14904262142E+03  0.00000000000E+00 0.  1.
</event>
<event>
 7    1  0.6078244E-006  0.4550742E+02  0.7818608E-02  0.1481105E+00
          2   -1    0    0  502    0  0.00000000000E+00  0.00000000000E+00  0.90823020380E+03  0.90823020380E+03  0.00000000000E+00 0. -1.
          1   -1    0    0  501    0 -0.00000000000E+00 -0.00000000000E+00 -0.37641155065E+02  0.37641155065E+02  0.00000000000E+00 0. -1.
         25    2    1    2    0    0 -0.45791650216E+02 -0.23826181732E+01  0.31710632896E+03  0.34392550495E+03  0.12500310792E+03 0.  0.
          2    1    1    2  501    0  0.20604968236E+02 -0.37074942116E+02 -0.39055190652E+01  0.42595412054E+02  0.00000000000E+00 0. -1.
          1    1    1    2  502    0  0.25186681980E+02  0.39457560289E+02  0.55738823884E+03  0.55935044186E+03  0.00000000000E+00 0. -1.
         22    1    3    3    0    0 -0.58461535133E+02  0.51310333158E+02  0.19462063885E+03  0.20958934717E+03  0.00000000000E+00 0. -1.
         22    1    3    3    0    0  0.12669884917E+02 -0.53692951331E+02  0.12248569011E+03  0.13433615778E+03  0.00000000000E+00 0. -1.
</event>
<event>
 7    1  0.6078244E-006  0.1124054E+03  0.7818608E-02  0.1292021E+00
          2   -1    0    0  502    0  0.00000000000E+00  0.00000000000E+00  0.11055555094E+03  0.11055555094E+03  0.00000000000E+00 0. -1.
          1   -1    0    0  501    0 -0.00000000000E+00 -0.00000000000E+00 -0.82294919685E+03  0.82294919685E+03  0.00000000000E+00 0. -1.
         25    2    1    2    0    0  0.16892480672E+02 -0.12903222161E+03 -0.14176692507E+03  0.22947454771E+03  0.12500414748E+03 0.  0.
          2    1    1    2  501    0 -0.79811128020E+02  0.80178210279E+02 -0.60628890615E+03  0.61675327261E+03  0.00000000000E+00 0. -1.
          1    1    1    2  502    0  0.62918647348E+02  0.48854011332E+02  0.35662185299E+02  0.87276927465E+02  0.00000000000E+00 0. -1.
         22    1    3    3    0    0  0.16256848243E+02 -0.13293549823E+03 -0.58552316323E+02  0.14616602050E+03  0.00000000000E+00 0.  1.
         22    1    3    3    0    0  0.63563242908E+00  0.39032766148E+01 -0.83214608744E+02  0.83308527207E+02  0.00000000000E+00 0.  1.
</event>
<event>
 7    1  0.6078244E-006  0.2286530E+03  0.7818608E-02  0.1357050E+00
          2   -1    0    0  502    0  0.00000000000E+00  0.00000000000E+00  0.36826134753E+03  0.36826134753E+03  0.00000000000E+00 0. -1.
          1   -1    0    0  501    0 -0.00000000000E+00 -0.00000000000E+00 -0.78350373373E+03  0.78350373373E+03  0.00000000000E+00 0. -1.
         25    2    1    2    0    0 -0.18664852255E+03  0.15663769421E+03 -0.19609525271E+03  0.33682459839E+03  0.12499769490E+03 0.  0.
          2    1    1    2  501    0  0.21936345497E+02 -0.14773084136E+01 -0.47378008535E+03  0.47428994820E+03  0.00000000000E+00 0. -1.
          1    1    1    2  502    0  0.16471217706E+03 -0.15516038579E+03  0.25463295186E+03  0.34065053466E+03  0.00000000000E+00 0. -1.
         22    1    3    3    0    0 -0.32530704736E+01  0.20523239393E+01  0.16115744268E+02  0.16568395045E+02  0.00000000000E+00 0. -1.
         22    1    3    3    0    0 -0.18339545208E+03  0.15458537027E+03 -0.21221099698E+03  0.32025620335E+03  0.00000000000E+00 0. -1.
</event>
<event>
 7    1  0.6151094E-006  0.4805085E+02  0.7818608E-02  0.1468119E+00
          2   -1    0    0  502    0  0.00000000000E+00  0.00000000000E+00  0.16492291633E+04  0.16492291633E+04  0.00000000000E+00 0. -1.
          1   -1    0    0  501    0 -0.00000000000E+00 -0.00000000000E+00 -0.77188429184E+03  0.77188429184E+03  0.00000000000E+00 0. -1.
         25    2    1    2    0    0 -0.55937774986E+02  0.18087294441E+02 -0.56578698657E+02  0.14928117507E+03  0.12501014038E+03 0.  0.
          2    1    1    2  501    0  0.41969050240E+02  0.23700052142E+02 -0.66778283184E+03  0.66951998040E+03  0.00000000000E+00 0. -1.
          1    1    1    2  502    0  0.13968724746E+02 -0.41787346583E+02  0.16017064020E+04  0.16023122997E+04  0.00000000000E+00 0. -1.
         22    1    3    3    0    0 -0.91683393465E+02  0.49358619979E+01 -0.15242598562E+02  0.93072789696E+02  0.00000000000E+00 0. -1.
         22    1    3    3    0    0  0.35745618478E+02  0.13151432443E+02 -0.41336100095E+02  0.56208385378E+02  0.00000000000E+00 0. -1.
</event>
<event>
 7    1  0.6078244E-006  0.6212267E+02  0.7818608E-02  0.1415623E+00
          2   -1    0    0  502    0  0.00000000000E+00  0.00000000000E+00  0.82286305696E+03  0.82286305696E+03  0.00000000000E+00 0. -1.
          1   -1    0    0  501    0 -0.00000000000E+00 -0.00000000000E+00 -0.28038128334E+03  0.28038128334E+03  0.00000000000E+00 0. -1.
         25    2    1    2    0    0  0.85688839621E+02  0.19323121206E+02  0.42023917147E+03  0.44715167730E+03  0.12501080362E+03 0.  0.
          2    1    1    2  501    0 -0.57755918043E+02  0.22634020623E+02 -0.26165114105E+03  0.26890400624E+03  0.00000000000E+00 0. -1.
          1    1    1    2  502    0 -0.27932921578E+02 -0.41957141829E+02  0.38389374319E+03  0.38718865676E+03  0.00000000000E+00 0. -1.
         22    1    3    3    0    0  0.98986561523E+02 -0.10761477602E+02  0.38986842257E+03  0.40238232526E+03  0.00000000000E+00 0. -1.
         22    1    3    3    0    0 -0.13297721902E+02  0.30084598807E+02  0.30370748901E+02  0.44769352039E+02  0.00000000000E+00 0. -1.
</event>
<event>
 7    1  0.6078244E-006  0.6516183E+02  0.7818608E-02  0.1507950E+00
          2   -1    0    0  502    0  0.00000000000E+00  0.00000000000E+00  0.91494221933E+03  0.91494221933E+03  0.00000000000E+00 0. -1.
          1   -1    0    0  501    0 -0.00000000000E+00 -0.00000000000E+00 -0.72657555634E+03  0.72657555634E+03  0.00000000000E+00 0. -1.
         25    2    1    2    0    0  0.33844779509E+02 -0.82154613527E+02 -0.45918959001E+02  0.16009045361E+03  0.12500221166E+03 0.  0.
          2    1    1    2  501    0 -0.13554212565E+02  0.20526613083E+02 -0.62210063302E+03  0.62258674586E+03  0.00000000000E+00 0. -1.
          1    1    1    2  502    0 -0.20290566945E+02  0.61628000444E+02  0.85638625501E+03  0.85884057619E+03  0.00000000000E+00 0. -1.
         22    1    3    3    0    0  0.18153131667E+02 -0.95496442611E+02 -0.76168875467E+02  0.12349414695E+03  0.00000000000E+00 0.  1.
         22    1    3    3    0    0  0.15691647842E+02  0.13341829084E+02  0.30249916467E+02  0.36596306665E+02  0.00000000000E+00 0.  1.
</event>
<event>
 7    1  0.6078244E-006  0.2091765E+03  0.7818608E-02  0.1186499E+00
          2   -1    0    0  502    0  0.00000000000E+00  0.00000000000E+00  0.69106591354E+03  0.69106591354E+03  0.00000000000E+00 0. -1.
          1   -1    0    0  501    0 -0.00000000000E+00 -0.00000000000E+00 -0.83351223764E+03  0.83351223764E+03  0.00000000000E+00 0. -1.
         25    2    1    2    0    0 -0.11803998493E+03  0.37554360794E+02 -0.68718796242E+03  0.70936306295E+03  0.12499956527E+03 0.  0.
          2    1    1    2  501    0  0.60467782856E+02 -0.23865201386E+03  0.16129696946E+02  0.24672110490E+03  0.00000000000E+00 0. -1.
          1    1    1    2  502    0  0.57572202075E+02  0.20109765306E+03  0.52861194138E+03  0.56849398333E+03  0.00000000000E+00 0. -1.
         22    1    3    3    0    0 -0.63268424134E+02 -0.43423846674E+02 -0.34846990990E+03  0.35681900462E+03  0.00000000000E+00 0. -1.
         22    1    3    3    0    0 -0.54771560797E+02  0.80978207468E+02 -0.33871805252E+03  0.35254405833E+03  0.00000000000E+00 0. -1.
</event>
<event>
 7    1  0.6078244E-006  0.8100684E+02  0.7818608E-02  0.1370175E+00
          2   -1    0    0  502    0  0.00000000000E+00  0.00000000000E+00  0.22975642793E+04  0.22975642793E+04  0.00000000000E+00 0. -1.
          1   -1    0    0  501    0 -0.00000000000E+00 -0.00000000000E+00 -0.16580221971E+04  0.16580221971E+04  0.00000000000E+00 0. -1.
         25    2    1    2    0    0  0.44011665328E+02  0.10261028138E+03  0.30474493517E+03  0.34780317238E+03  0.12502669587E+03 0.  0.
          2    1    1    2  501    0  0.18665504366E+02 -0.52385531351E+02 -0.16352020828E+04  0.16361474556E+04  0.00000000000E+00 0. -1.
          1    1    1    2  502    0 -0.62677169695E+02 -0.50224750026E+02  0.19699992299E+04  0.19716358484E+04  0.00000000000E+00 0. -1.
         22    1    3    3    0    0  0.34929520753E+02  0.79093067337E+02  0.31018735116E+03  0.32201238724E+03  0.00000000000E+00 0.  1.
         22    1    3    3    0    0  0.90821445758E+01  0.23517214041E+02 -0.54424159884E+01  0.25790785140E+02  0.00000000000E+00 0.  1.
</event>
<event>
 7    1  0.6078244E-006  0.5350491E+02  0.7818608E-02  0.1439060E+00
          2   -1    0    0  502    0  0.00000000000E+00  0.00000000000E+00  0.16372336136E+04  0.16372336136E+04  0.00000000000E+00 0. -1.
          1   -1    0    0  501    0 -0.00000000000E+00 -0.00000000000E+00 -0.13208761427E+03  0.13208761427E+03  0.00000000000E+00 0. -1.
         25    2    1    2    0    0 -0.97347601796E+02 -0.26276610150E+02  0.20259208172E+03  0.25852188397E+03  0.12499198814E+03 0.  0.
          2    1    1    2  501    0  0.49215570727E+02  0.17294081490E+02 -0.97133897539E+02  0.11025539310E+03  0.00000000000E+00 0. -1.
          1    1    1    2  502    0  0.48132031068E+02  0.89825286602E+01  0.13996878151E+04  0.14005439508E+04  0.00000000000E+00 0. -1.
         22    1    3    3    0    0 -0.26183243056E+02 -0.35596617628E+02  0.63833946725E+00  0.44193765179E+02  0.00000000000E+00 0.  1.
         22    1    3    3    0    0 -0.71164358740E+02  0.93200074778E+01  0.20195374225E+03  0.21432811879E+03  0.00000000000E+00 0.  1.
</event>
<event>
 7    1  0.6078244E-006  0.1085913E+03  0.7818608E-02  0.1377522E+00
          2   -1    0    0  502    0  0.00000000000E+00  0.00000000000E+00  0.90025357061E+03  0.90025357061E+03  0.00000000000E+00 0. -1.
          1   -1    0    0  501    0 -0.00000000000E+00 -0.00000000000E+00 -0.12000652108E+03  0.12000652108E+03  0.00000000000E+00 0. -1.
         25    2    1    2    0    0 -0.86255417431E+02  0.10653779866E+03  0.15316561442E+03  0.24056807204E+03  0.12499196881E+03 0.  0.
          2    1    1    2  501    0  0.44942750035E+01 -0.38791150660E+02 -0.66992443589E+02  0.77543145251E+02  0.00000000000E+00 0. -1.
          1    1    1    2  502    0  0.81761142428E+02 -0.67746647997E+02  0.69407387870E+03  0.70214887440E+03  0.00000000000E+00 0. -1.
         22    1    3    3    0    0  0.12826561418E+02  0.15561230895E+02 -0.15064962220E+02  0.25171922284E+02  0.00000000000E+00 0.  1.
         22    1    3    3    0    0 -0.99081978850E+02  0.90976567761E+02  0.16823057664E+03  0.21539614976E+03  0.00000000000E+00 0.  1.
</event>
<event>
 7    1  0.6078244E-006  0.3933963E+02  0.7818608E-02  0.1522189E+00
          2   -1    0    0  502    0  0.00000000000E+00  0.00000000000E+00  0.27894508538E+04  0.27894508538E+04  0.00000000000E+00 0. -1.
          1   -1    0    0  501    0 -0.00000000000E+00 -0.00000000000E+00 -0.52054052941E+02  0.52054052941E+02  0.00000000000E+00 0. -1.
         25    2    1    2    0    0  0.36365991111E+02  0.46332904570E+02  0.17383337452E+04  0.17438170103E+04  0.12499732958E+03 0.  0.
          2    1    1    2  501    0 -0.18919819820E-01 -0.39307529605E+02 -0.41097350049E+02  0.56868923172E+02  0.00000000000E+00 0. -1.
          1    1    1    2  502    0 -0.36347071292E+02 -0.70253749649E+01  0.10401604057E+04  0.10408189733E+04  0.00000000000E+00 0. -1.
         22    1    3    3    0    0  0.44265804261E+00  0.66872442434E+02  0.15273619565E+04  0.15288252568E+04  0.00000000000E+00 0.  1.
         22    1    3    3    0    0  0.35923333069E+02 -0.20539537864E+02  0.21097178869E+03  0.21499175355E+03  0.00000000000E+00 0.  1.
</event>
<event>
 7    1  0.6078244E-006  0.3860016E+02  0.7818608E-02  0.1559647E+00
          2   -1    0    0  502    0  0.00000000000E+00  0.00000000000E+00  0.13928349837E+04  0.13928349837E+04  0.00000000000E+00 0. -1.
          1   -1    0    0  501    0 -0.00000000000E+00 -0.00000000000E+00 -0.10309463526E+03  0.10309463526E+03  0.00000000000E+00 0. -1.
         25    2    1    2    0    0 -0.96641390293E+01 -0.14333142089E+02  0.16799259862E+03  0.21010680535E+03  0.12499808766E+03 0.  0.
          2    1    1    2  501    0 -0.28679070508E+02  0.72177268948E+01 -0.79045464418E+02  0.84396505330E+02  0.00000000000E+00 0. -1.
          1    1    1    2  502    0  0.38343209537E+02  0.71154151938E+01  0.12007932143E+04  0.12014263083E+04  0.00000000000E+00 0. -1.
         22    1    3    3    0    0 -0.88836106150E+01 -0.69553265921E+02  0.81799106342E+02  0.10773889333E+03  0.00000000000E+00 0.  1.
         22    1    3    3    0    0 -0.78052841423E+00  0.55220123833E+02  0.86193492276E+02  0.10236791202E+03  0.00000000000E+00 0.  1.
</event>
<event>
 7    1  0.6078244E-006  0.1201676E+03  0.7818608E-02  0.1379868E+00
          2   -1    0    0  502    0  0.00000000000E+00  0.00000000000E+00  0.15128336756E+04  0.15128336756E+04  0.00000000000E+00 0. -1.
          1   -1    0    0  501    0 -0.00000000000E+00 -0.00000000000E+00 -0.72621725240E+03  0.72621725240E+03  0.00000000000E+00 0. -1.
         25    2    1    2    0    0  0.57946275009E+02  0.72740771589E+02  0.10286893568E+03  0.18669739429E+03  0.12499963386E+03 0.  0.
          2    1    1    2  501    0 -0.92003242267E+02 -0.78951781913E+02 -0.67871173636E+03  0.68945456814E+03  0.00000000000E+00 0. -1.
          1    1    1    2  502    0  0.34056967258E+02  0.62110103239E+01  0.13624592238E+04  0.13628989655E+04  0.00000000000E+00 0. -1.
         22    1    3    3    0    0  0.43470118344E+02  0.10213506981E+03  0.10637738600E+03  0.15374450210E+03  0.00000000000E+00 0.  1.
         22    1    3    3    0    0  0.14476156664E+02 -0.29394298219E+02 -0.35084503202E+01  0.32952892183E+02  0.00000000000E+00 0.  1.
</event>
<event>
 7    1  0.6078244E-006  0.1650225E+03  0.7818608E-02  0.1237041E+00
          2   -1    0    0  502    0  0.00000000000E+00  0.00000000000E+00  0.20509057865E+04  0.20509057865E+04  0.00000000000E+00 0. -1.
          1   -1    0    0  501    0 -0.00000000000E+00 -0.00000000000E+00 -0.40573400736E+03  0.40573400736E+03  0.00000000000E+00 0. -1.
         25    2    1    2    0    0 -0.36738359906E+02  0.74506490487E+02  0.15403607203E+03  0.21505605843E+03  0.12498428928E+03 0.  0.
          2    1    1    2  501    0  0.52920314943E+02 -0.16587955221E+03 -0.35379596105E+03  0.39431987983E+03  0.00000000000E+00 0. -1.
          1    1    1    2  502    0 -0.16181955037E+02  0.91373061723E+02  0.18449316682E+04  0.18472638556E+04  0.00000000000E+00 0. -1.
         22    1    3    3    0    0  0.41545623009E+02  0.48028204769E+02  0.43210946830E+02  0.76811022454E+02  0.00000000000E+00 0. -1.
         22    1    3    3    0    0 -0.78283982914E+02  0.26478285719E+02  0.11082512520E+03  0.13824503597E+03  0.00000000000E+00 0. -1.
</event>
<event>
 7    1  0.6078244E-006  0.5918227E+02  0.7818608E-02  0.1420775E+00
          2   -1    0    0  502    0  0.00000000000E+00  0.00000000000E+00  0.17981589721E+04  0.17981589721E+04  0.00000000000E+00 0. -1.
          1   -1    0    0  501    0 -0.00000000000E+00 -0.00000000000E+00 -0.15072166005E+03  0.15072166005E+03  0.00000000000E+00 0. -1.
         25    2    1    2    0    0 -0.55911897105E+02 -0.23461681793E+02  0.79625042395E+02  0.16012833756E+03  0.12499738542E+03 0.  0.
          2    1    1    2  501    0  0.38390139405E+02 -0.33342688639E+02 -0.10406243387E+03  0.11582110271E+03  0.00000000000E+00 0. -1.
          1    1    1    2  502    0  0.17521757701E+02  0.56804370432E+02  0.16718747035E+04  0.16729311919E+04  0.00000000000E+00 0. -1.
         22    1    3    3    0    0  0.43772316743E+01 -0.58005632408E+02  0.68321032772E+02  0.89730580446E+02  0.00000000000E+00 0. -1.
         22    1    3    3    0    0 -0.60289128780E+02  0.34543950614E+02  0.11304009623E+02  0.70397757113E+02  0.00000000000E+00 0. -1.
</event>
<event>
 7    1  0.6078244E-006  0.1552091E+03  0.7818608E-02  0.1320327E+00
          2   -1    0    0  502    0  0.00000000000E+00  0.00000000000E+00  0.35070131834E+03  0.35070131834E+03  0.00000000000E+00 0. -1.
          1   -1    0    0  501    0 -0.00000000000E+00 -0.00000000000E+00 -0.44352698046E+03  0.44352698046E+03  0.00000000000E+00 0. -1.
         25    2    1    2    0    0 -0.96284554206E+01 -0.16628776410E+03 -0.67286373406E+01  0.20836164614E+03  0.12499989351E+03 0.  0.
          2    1    1    2  501    0  0.49288821867E+02  0.14599165142E+03 -0.31606395133E+03  0.35162390643E+03  0.00000000000E+00 0. -1.
          1    1    1    2  502    0 -0.39660366446E+02  0.20296112682E+02  0.22996692654E+03  0.23424274623E+03  0.00000000000E+00 0. -1.
         22    1    3    3    0    0  0.19403970762E+02 -0.12885293178E+03 -0.54353480283E+02  0.14118743899E+03  0.00000000000E+00 0.  1.
         22    1    3    3    0    0 -0.29032426183E+02 -0.37434832319E+02  0.47624842943E+02  0.67174207149E+02  0.00000000000E+00 0.  1.
</event>
<event>
 7    1  0.6078244E-006  0.4219576E+02  0.7818608E-02  0.1536632E+00
          2   -1    0    0  502    0  0.00000000000E+00  0.00000000000E+00  0.58644970394E+03  0.58644970394E+03  0.00000000000E+00 0. -1.
          1   -1    0    0  501    0 -0.00000000000E+00 -0.00000000000E+00 -0.58827902133E+03  0.58827902133E+03  0.00000000000E+00 0. -1.
         25    2    1    2    0    0 -0.98122682882E+01 -0.39690481393E+02 -0.66415683770E+02  0.14733729793E+03  0.12500248553E+03 0.  0.
          2    1    1    2  501    0  0.31210391448E+02  0.32085549889E+01 -0.48007061438E+03  0.48109477045E+03  0.00000000000E+00 0. -1.
          1    1    1    2  502    0 -0.21398123160E+02  0.36481926404E+02  0.54465698077E+03  0.54629665689E+03  0.00000000000E+00 0. -1.
         22    1    3    3    0    0 -0.21050396775E+02 -0.73389536206E+02 -0.78796599522E+02  0.10971803555E+03  0.00000000000E+00 0. -1.
         22    1    3    3    0    0  0.11238128487E+02  0.33699054813E+02  0.12380915752E+02  0.37619262380E+02  0.00000000000E+00 0. -1.
</event>
<event>
 7    1  0.6078244E-006  0.9226453E+02  0.7818608E-02  0.1452354E+00
          2   -1    0    0  502    0  0.00000000000E+00  0.00000000000E+00  0.57118274792E+03  0.57118274792E+03  0.00000000000E+00 0. -1.
          1   -1    0    0  501    0 -0.00000000000E+00 -0.00000000000E+00 -0.12075573546E+03  0.12075573546E+03  0.00000000000E+00 0. -1.
         25    2    1    2    0    0 -0.65721708225E+02 -0.65690654160E+02  0.43486390239E+03  0.46191583939E+03  0.12500009641E+03 0.  0.
          2    1    1    2  501    0  0.80783776137E+02  0.44830553499E+02 -0.85411800718E+02  0.12582119343E+03  0.00000000000E+00 0. -1.
          1    1    1    2  502    0 -0.15062067912E+02  0.20860100661E+02  0.10097491079E+03  0.10420145056E+03  0.00000000000E+00 0. -1.
         22    1    3    3    0    0 -0.77162584105E+02 -0.19538195022E+02  0.38449805570E+03  0.39265068482E+03  0.00000000000E+00 0.  1.
         22    1    3    3    0    0  0.11440875880E+02 -0.46152459139E+02  0.50365846690E+02  0.69265154575E+02  0.00000000000E+00 0.  1.
</event>
<event>
 7    1  0.6078244E-006  0.8038246E+02  0.7818608E-02  0.1377968E+00
          2   -1    0    0  502    0  0.00000000000E+00  0.00000000000E+00  0.10135168966E+04  0.10135168966E+04  0.00000000000E+00 0. -1.
          1   -1    0    0  501    0 -0.00000000000E+00 -0.00000000000E+00 -0.78243727379E+03  0.78243727379E+03  0.00000000000E+00 0. -1.
         25    2    1    2    0    0 -0.53004573599E+02  0.10130680047E+03 -0.12268244795E+03  0.20916122836E+03  0.12499953508E+03 0.  0.
          2    1    1    2  501    0  0.61509622375E+02 -0.49436546618E+02 -0.61327353240E+03  0.61832987258E+03  0.00000000000E+00 0. -1.
          1    1    1    2  502    0 -0.85050487754E+01 -0.51870253849E+02  0.96703560312E+03  0.96846306940E+03  0.00000000000E+00 0. -1.
         22    1    3    3    0    0 -0.41792735082E+02  0.11987271027E+03 -0.55475071495E+02  0.13854090707E+03  0.00000000000E+00 0. -1.
         22    1    3    3    0    0 -0.11211838518E+02 -0.18565909805E+02 -0.67207376454E+02  0.70620321294E+02  0.00000000000E+00 0. -1.
</event>
<event>
 7    1  0.6078244E-006  0.1070755E+03  0.7818608E-02  0.1360694E+00
          2   -1    0    0  502    0  0.00000000000E+00  0.00000000000E+00  0.23888736241E+03  0.23888736241E+03  0.00000000000E+00 0. -1.
          1   -1    0    0  501    0 -0.00000000000E+00 -0.00000000000E+00 -0.27871907750E+04  0.27871907750E+04  0.00000000000E+00 0. -1.
         25    2    1    2    0    0  0.30084285100E+02  0.99990047926E+02 -0.34128644377E+03  0.37815986480E+03  0.12500149099E+03 0.  0.
          2    1    1    2  501    0 -0.71385455571E+02 -0.80823155136E+02 -0.24239049839E+04  0.24263024619E+04  0.00000000000E+00 0. -1.
          1    1    1    2  502    0  0.41301170471E+02 -0.19166892790E+02  0.21688801509E+03  0.22161581070E+03  0.00000000000E+00 0. -1.
         22    1    3    3    0    0  0.55252431359E+02  0.88845439741E+02 -0.13882195746E+03  0.17383290600E+03  0.00000000000E+00 0.  1.
         22    1    3    3    0    0 -0.25168146259E+02  0.11144608185E+02 -0.20246448631E+03  0.20432695880E+03  0.00000000000E+00 0.  1.
</event>
<event>
 7    1  0.6078244E-006  0.9712613E+02  0.7818608E-02  0.1461473E+00
          2   -1    0    0  502    0  0.00000000000E+00  0.00000000000E+00  0.10523412346E+04  0.10523412346E+04  0.00000000000E+00 0. -1.
          1   -1    0    0  501    0 -0.00000000000E+00 -0.00000000000E+00 -0.14722514006E+03  0.14722514006E+03  0.00000000000E+00 0. -1.
         25    2    1    2    0    0  0.32609767339E+01  0.81699520497E+02  0.15988755020E+03  0.21880287453E+03  0.12500089430E+03 0.  0.
          2    1    1    2  501    0 -0.20438390055E+02 -0.96795991543E+02 -0.96808298099E+02  0.13841617806E+03  0.00000000000E+00 0. -1.
          1    1    1    2  502    0  0.17177413321E+02  0.15096471046E+02  0.84203684244E+03  0.84234732207E+03  0.00000000000E+00 0. -1.
         22    1    3    3    0    0  0.55834036830E+02  0.45891613739E+01  0.61634672138E+02  0.83290653020E+02  0.00000000000E+00 0. -1.
         22    1    3    3    0    0 -0.52573060096E+02  0.77110359123E+02  0.98252878060E+02  0.13551222151E+03  0.00000000000E+00 0. -1.
</event>
<event>
 7    1  0.6078244E-006  0.8168918E+02  0.7818608E-02  0.1408850E+00
          2   -1    0    0  502    0  0.00000000000E+00  0.00000000000E+00  0.26374645540E+04  0.26374645540E+04  0.00000000000E+00 0. -1.
          1   -1    0    0  501    0 -0.00000000000E+00 -0.00000000000E+00 -0.75079307022E+03  0.75079307022E+03  0.00000000000E+00 0. -1.
         25    2    1    2    0    0  0.32137949059E+01 -0.99391485739E+02 -0.93794864792E+02  0.18523238407E+03  0.12499825412E+03 0.  0.
          2    1    1    2  501    0 -0.34235105607E+02  0.73502379970E+02 -0.60843222527E+03  0.61381138395E+03  0.00000000000E+00 0. -1.
          1    1    1    2  502    0  0.31021310701E+02  0.25889105770E+02  0.25888985739E+04  0.25892138562E+04  0.00000000000E+00 0. -1.
         22    1    3    3    0    0  0.31419408913E+01  0.28470119155E+02 -0.38430037078E+01  0.28899622052E+02  0.00000000000E+00 0.  1.
         22    1    3    3    0    0  0.71854014624E-01 -0.12786160489E+03 -0.89951861084E+02  0.15633276202E+03  0.00000000000E+00 0.  1.
</event>
<event>
 7    1  0.6078244E-006  0.1117298E+03  0.7818608E-02  0.1351336E+00
          2   -1    0    0  502    0  0.00000000000E+00  0.00000000000E+00  0.16764028472E+03  0.16764028472E+03  0.00000000000E+00 0. -1.
          1   -1    0    0  501    0 -0.00000000000E+00 -0.00000000000E+00 -0.16036728840E+04  0.16036728840E+04  0.00000000000E+00 0. -1.
         25    2    1    2    0    0  0.87436188650E+02 -0.57446599201E+02 -0.65100874516E+03  0.67110507159E+03  0.12499772791E+03 0.  0.
          2    1    1    2  501    0  0.23572424825E+02  0.40923798212E+02 -0.92195280418E+03  0.92316162702E+03  0.00000000000E+00 0. -1.
          1    1    1    2  502    0 -0.11100861348E+03  0.16522800989E+02  0.13692895005E+03  0.17704647012E+03  0.00000000000E+00 0. -1.
         22    1    3    3    0    0  0.54008119456E+02 -0.89384583553E+02 -0.31332584633E+03  0.33027195873E+03  0.00000000000E+00 0. -1.
         22    1    3    3    0    0  0.33428069194E+02  0.31937984352E+02 -0.33768289884E+03  0.34083311286E+03  0.00000000000E+00 0. -1.
</event>
<event>
 7    1  0.6078244E-006  0.1390857E+03  0.7818608E-02  0.1223997E+00
          2   -1    0    0  502    0  0.00000000000E+00  0.00000000000E+00  0.14546330787E+03  0.14546330787E+03  0.00000000000E+00 0. -1.
          1   -1    0    0  501    0 -0.00000000000E+00 -0.00000000000E+00 -0.74487806392E+03  0.74487806392E+03  0.00000000000E+00 0. -1.
         25    2    1    2    0    0 -0.35744218555E+02 -0.53119460695E+02 -0.14804301545E+03  0.20406058856E+03  0.12499865246E+03 0.  0.
          2    1    1    2  501    0  0.14994152734E+03  0.10626362568E+03 -0.51381650141E+03  0.54569388570E+03  0.00000000000E+00 0. -1.
          1    1    1    2  502    0 -0.11419730879E+03 -0.53144164983E+02  0.62444760807E+02  0.14058689753E+03  0.00000000000E+00 0. -1.
         22    1    3    3    0    0  0.16749343505E+02 -0.78893211849E+02 -0.99332296971E+02  0.12795149317E+03  0.00000000000E+00 0. -1.
         22    1    3    3    0    0 -0.52493562060E+02  0.25773751153E+02 -0.48710718482E+02  0.76109095391E+02  0.00000000000E+00 0. -1.
</event>
<event>
 7    1  0.6078244E-006  0.6981525E+02  0.7818608E-02  0.1366686E+00
          2   -1    0    0  502    0  0.00000000000E+00  0.00000000000E+00  0.49004807886E+03  0.49004807886E+03  0.00000000000E+00 0. -1.
          1   -1    0    0  501    0 -0.00000000000E+00 -0.00000000000E+00 -0.28550279153E+03  0.28550279153E+03  0.00000000000E+00 0. -1.
         25    2    1    2    0    0 -0.11128700276E+03  0.61106390749E+02  0.63659819021E+02  0.18920277297E+03  0.12500531496E+03 0.  0.
          2    1    1    2  501    0  0.65321069256E+02 -0.12038512387E+02 -0.21455678420E+03  0.22460271929E+03  0.00000000000E+00 0. -1.
          1    1    1    2  502    0  0.45965933504E+02 -0.49067878362E+02  0.35544225250E+03  0.36174537812E+03  0.00000000000E+00 0. -1.
         22    1    3    3    0    0 -0.84237709118E+02  0.15064100167E+02  0.94539491131E+02  0.12751719153E+03  0.00000000000E+00 0. -1.
         22    1    3    3    0    0 -0.27049293642E+02  0.46042290582E+02 -0.30879672110E+02  0.61685581445E+02  0.00000000000E+00 0. -1.
</event>
<event>
 7    1  0.6078244E-006  0.1000513E+03  0.7818608E-02  0.1342723E+00
          2   -1    0    0  502    0  0.00000000000E+00  0.00000000000E+00  0.15360595506E+03  0.15360595506E+03  0.00000000000E+00 0. -1.
          1   -1    0    0  501    0 -0.00000000000E+00 -0.00000000000E+00 -0.89300869828E+03  0.89300869828E+03  0.00000000000E+00 0. -1.
         25    2    1    2    0    0 -0.85413313359E+02  0.79563635320E+01 -0.20318559938E+03  0.25351175535E+03  0.12500033793E+03 0.  0.
          2    1    1    2  501    0  0.82004120527E+02 -0.64633902599E+02 -0.65403479827E+03  0.66231694414E+03  0.00000000000E+00 0. -1.
          1    1    1    2  502    0  0.34091928326E+01  0.56677539067E+02  0.11781765443E+03  0.13078595385E+03  0.00000000000E+00 0. -1.
         22    1    3    3    0    0 -0.60599508027E+02  0.37490729589E+02 -0.32142581310E+02  0.78172889875E+02  0.00000000000E+00 0.  1.
         22    1    3    3    0    0 -0.24813805333E+02 -0.29534366057E+02 -0.17104301807E+03  0.17533886547E+03  0.00000000000E+00 0.  1.
</event>
<event>
 7    1  0.6078244E-006  0.9821352E+02  0.7818608E-02  0.1416262E+00
          2   -1    0    0  502    0  0.00000000000E+00  0.00000000000E+00  0.14241480664E+03  0.14241480664E+03  0.00000000000E+00 0. -1.
          1   -1    0    0  501    0 -0.00000000000E+00 -0.00000000000E+00 -0.63812303202E+03  0.63812303202E+03  0.00000000000E+00 0. -1.
         25    2    1    2    0    0 -0.11393993278E+03 -0.47961209042E+02  0.40525949734E+02  0.18041728585E+03  0.12500183429E+03 0.  0.
          2    1    1    2  501    0  0.94583563381E+02  0.22825348902E+02 -0.55486369646E+03  0.56333007080E+03  0.00000000000E+00 0. -1.
          1    1    1    2  502    0  0.19356369404E+02  0.25135860140E+02  0.18629521343E+02  0.36790482016E+02  0.00000000000E+00 0. -1.
         22    1    3    3    0    0 -0.38047487860E+02 -0.55966640537E+02 -0.32249288580E+02  0.74965944264E+02  0.00000000000E+00 0.  1.
         22    1    3    3    0    0 -0.75892444925E+02  0.80054314945E+01  0.72775238314E+02  0.10545134158E+03  0.00000000000E+00 0.  1.
</event>
<event>
 7    1  0.6078244E-006  0.7400569E+02  0.7818608E-02  0.1420027E+00
          2   -1    0    0  502    0  0.00000000000E+00  0.00000000000E+00  0.39368117882E+03  0.39368117882E+03  0.00000000000E+00 0. -1.
          1   -1    0    0  501    0 -0.00000000000E+00 -0.00000000000E+00 -0.12277013186E+04  0.12277013186E+04  0.00000000000E+00 0. -1.
         25    2    1    2    0    0  0.63389330449E+02  0.18091553828E+02 -0.25311979081E+02  0.14356715545E+03  0.12500128122E+03 0.  0.
          2    1    1    2  501    0 -0.14152267839E+02  0.38371110778E+02 -0.11386961504E+04  0.11394303628E+04  0.00000000000E+00 0. -1.
          1    1    1    2  502    0 -0.49237062610E+02 -0.56462664606E+02  0.32998798964E+03  0.33838497918E+03  0.00000000000E+00 0. -1.
         22    1    3    3    0    0 -0.34642408497E+01  0.60794827637E+02 -0.19866459532E+02  0.64052230613E+02  0.00000000000E+00 0. -1.
         22    1    3    3    0    0  0.66853571299E+02 -0.42703273809E+02 -0.54455195487E+01  0.79514924842E+02  0.00000000000E+00 0. -1.
</event>
<event>
 7    1  0.6078244E-006  0.2880470E+03  0.7818608E-02  0.1191723E+00
          2   -1    0    0  502    0  0.00000000000E+00  0.00000000000E+00  0.12861188891E+04  0.12861188891E+04  0.00000000000E+00 0. -1.
          1   -1    0    0  501    0 -0.00000000000E+00 -0.00000000000E+00 -0.15752928436E+03  0.15752928436E+03  0.00000000000E+00 0. -1.
         25    2    1    2    0    0  0.15358031603E+03 -0.16501110377E+03  0.56862535175E+03  0.62431887887E+03  0.12499477600E+03 0.  0.
          2    1    1    2  501    0 -0.22927158518E+03  0.20573881686E+03  0.62285064227E+02  0.31428227720E+03  0.00000000000E+00 0. -1.
          1    1    1    2  502    0  0.75691269158E+02 -0.40727713095E+02  0.49767918880E+03  0.50504701742E+03  0.00000000000E+00 0. -1.
         22    1    3    3    0    0  0.11689477116E+03 -0.44097212163E+02  0.21330679531E+03  0.24720182153E+03  0.00000000000E+00 0.  1.
         22    1    3    3    0    0  0.36685544867E+02 -0.12091389160E+03  0.35531855644E+03  0.37711705734E+03  0.00000000000E+00 0.  1.
</event>
<event>
 7    1  0.6078244E-006  0.8644694E+02  0.7818608E-02  0.1348005E+00
          2   -1    0    0  502    0  0.00000000000E+00  0.00000000000E+00  0.20096893165E+04  0.20096893165E+04  0.00000000000E+00 0. -1.
          1   -1    0    0  501    0 -0.00000000000E+00 -0.00000000000E+00 -0.16054511495E+03  0.16054511495E+03  0.00000000000E+00 0. -1.
         25    2    1    2    0    0 -0.93784463531E+01  0.99474099157E+02 -0.60546597133E+02  0.17109670612E+03  0.12500056304E+03 0.  0.
          2    1    1    2  501    0  0.56682286837E+02 -0.27036974034E+02 -0.21220930339E+02  0.66288818744E+02  0.00000000000E+00 0. -1.
          1    1    1    2  502    0 -0.47303840484E+02 -0.72437125123E+02  0.19309117290E+04  0.19328489065E+04  0.00000000000E+00 0. -1.
         22    1    3    3    0    0 -0.76460811415E+01  0.12040039265E+03 -0.78110218852E+02  0.14372168728E+03  0.00000000000E+00 0.  1.
         22    1    3    3    0    0 -0.17323652116E+01 -0.20926293489E+02  0.17563621719E+02  0.27375018837E+02  0.00000000000E+00 0.  1.
</event>
<event>
 7    1  0.6078244E-006  0.6893810E+02  0.7818608E-02  0.1426072E+00
          2   -1    0    0  502    0  0.00000000000E+00  0.00000000000E+00  0.10267506012E+04  0.10267506012E+04  0.00000000000E+00 0. -1.
          1   -1    0    0  501    0 -0.00000000000E+00 -0.00000000000E+00 -0.12428323294E+04  0.12428323294E+04  0.00000000000E+00 0. -1.
         25    2    1    2    0    0 -0.13677913365E+01 -0.40148955026E+02 -0.99083257621E+02  0.16449001411E+03  0.12500265341E+03 0.  0.
          2    1    1    2  501    0 -0.35201930955E+02  0.60638336485E+02 -0.11094966334E+04  0.11117099276E+04  0.00000000000E+00 0. -1.
          1    1    1    2  502    0  0.36569722292E+02 -0.20489381459E+02  0.99249816280E+03  0.99338298883E+03  0.00000000000E+00 0. -1.
         22    1    3    3    0    0 -0.43601604331E+02 -0.11800677840E+02  0.80617421022E+01  0.45884066771E+02  0.00000000000E+00 0.  1.
         22    1    3    3    0    0  0.42233812995E+02 -0.28348277186E+02 -0.10714499972E+03  0.11860594734E+03  0.00000000000E+00 0.  1.
</event>
<event>
 7    1  0.6078244E-006  0.7800649E+02  0.7818608E-02  0.1480603E+00
          2   -1    0    0  502    0  0.00000000000E+00  0.00000000000E+00  0.32408902902E+03  0.32408902902E+03  0.00000000000E+00 0. -1.
          1   -1    0    0  501    0 -0.00000000000E+00 -0.00000000000E+00 -0.93411857375E+03  0.93411857375E+03  0.00000000000E+00 0. -1.
         25    2    1    2    0    0 -0.29147765089E+02  0.45729054069E+02 -0.29995772119E+03  0.32945607091E+03  0.12500371819E+03 0.  0.
          2    1    1    2  501    0 -0.18647383114E+02  0.16398842345E+02 -0.61419113386E+03  0.61469292808E+03  0.00000000000E+00 0. -1.
          1    1    1    2  502    0  0.47795148203E+02 -0.62127896414E+02  0.30411931031E+03  0.31405860378E+03  0.00000000000E+00 0. -1.
         22    1    3    3    0    0  0.15164007442E+02 -0.37477996415E+02 -0.68566805226E+02  0.79598706747E+02  0.00000000000E+00 0.  1.
         22    1    3    3    0    0 -0.44311772531E+02  0.83207050483E+02 -0.23139091596E+03  0.24985736416E+03  0.00000000000E+00 0.  1.
</event>
<event>
 7    1  0.6078244E-006  0.9784329E+02  0.7818608E-02  0.1395844E+00
          2   -1    0    0  502    0  0.00000000000E+00  0.00000000000E+00  0.69646599945E+03  0.69646599945E+03  0.00000000000E+00 0. -1.
          1   -1    0    0  501    0 -0.00000000000E+00 -0.00000000000E+00 -0.22532697494E+03  0.22532697494E+03  0.00000000000E+00 0. -1.
         25    2    1    2    0    0 -0.28957681201E+02 -0.10614187406E+03 -0.32750043823E+02  0.16970998989E+03  0.12499708224E+03 0.  0.
          2    1    1    2  501    0 -0.26823013090E+02  0.26034310802E+02 -0.11738193866E+03  0.12319001134E+03  0.00000000000E+00 0. -1.
          1    1    1    2  502    0  0.55780694291E+02  0.80107563259E+02  0.62127100700E+03  0.62889297316E+03  0.00000000000E+00 0. -1.
         22    1    3    3    0    0 -0.77797270145E+02 -0.66967326997E+02 -0.10167754929E+02  0.10315241814E+03  0.00000000000E+00 0. -1.
         22    1    3    3    0    0  0.48839588944E+02 -0.39174547064E+02 -0.22582288894E+02  0.66557571753E+02  0.00000000000E+00 0. -1.
</event>
<event>
 7    1  0.6078244E-006  0.1334629E+03  0.7818608E-02  0.1272069E+00
          2   -1    0    0  502    0  0.00000000000E+00  0.00000000000E+00  0.19436801737E+04  0.19436801737E+04  0.00000000000E+00 0. -1.
          1   -1    0    0  501    0 -0.00000000000E+00 -0.00000000000E+00 -0.20478311157E+03  0.20478311157E+03  0.00000000000E+00 0. -1.
         25    2    1    2    0    0  0.17728611878E+03 -0.26781450150E+02  0.51176959418E+02  0.22448108033E+03  0.12500024106E+03 0.  0.
          2    1    1    2  501    0 -0.10625272439E+03  0.65847621880E+02 -0.83874358990E+02  0.15053391260E+03  0.00000000000E+00 0. -1.
          1    1    1    2  502    0 -0.71033394390E+02 -0.39066171730E+02  0.17715944617E+04  0.17734482923E+04  0.00000000000E+00 0. -1.
         22    1    3    3    0    0  0.16518073069E+03 -0.10629650955E+02  0.84253749036E+02  0.18573195067E+03  0.00000000000E+00 0. -1.
         22    1    3    3    0    0  0.12105388087E+02 -0.16151799194E+02 -0.33076789618E+02  0.38749129660E+02  0.00000000000E+00 0. -1.
</event>
<event>
 7    1  0.6078244E-006  0.6841188E+02  0.7818608E-02  0.1439749E+00
          2   -1    0    0  502    0  0.00000000000E+00  0.00000000000E+00  0.11870333394E+04  0.11870333394E+04  0.00000000000E+00 0. -1.
          1   -1    0    0  501    0 -0.00000000000E+00 -0.00000000000E+00 -0.49475656431E+03  0.49475656431E+03  0.00000000000E+00 0. -1.
         25    2    1    2    0    0 -0.42076562247E+02 -0.51888881944E+02  0.22602211752E+03  0.26678385537E+03  0.12499893887E+03 0.  0.
          2    1    1    2  501    0  0.65069441265E+02  0.21512441736E+02 -0.47151164243E+03  0.47646620686E+03  0.00000000000E+00 0. -1.
          1    1    1    2  502    0 -0.22992879018E+02  0.30376440208E+02  0.93776629999E+03  0.93853984146E+03  0.00000000000E+00 0. -1.
         22    1    3    3    0    0  0.38257334008E+02 -0.28304509620E+02  0.13485152841E+03  0.14300246006E+03  0.00000000000E+00 0.  1.
         22    1    3    3    0    0 -0.80333896255E+02 -0.23584372324E+02  0.91170589115E+02  0.12378139531E+03  0.00000000000E+00 0.  1.
</event>
<event>
 7    1  0.6078244E-006  0.3460654E+02  0.7818608E-02  0.1555959E+00
          2   -1    0    0  502    0  0.00000000000E+00  0.00000000000E+00  0.33153326305E+02  0.33153326305E+02  0.00000000000E+00 0. -1.
          1   -1    0    0  501    0 -0.00000000000E+00 -0.00000000000E+00 -0.68638567587E+03  0.68638567587E+03  0.00000000000E+00 0. -1.
         25    2    1    2    0    0  0.32244843977E+01  0.31552719944E+02 -0.18113943447E+03  0.22235761668E+03  0.12500177414E+03 0.  0.
          2    1    1    2  501    0  0.29941374256E+02 -0.17352996750E+02 -0.45661349830E+03  0.45792302762E+03  0.00000000000E+00 0. -1.
          1    1    1    2  502    0 -0.33165858654E+02 -0.14199723195E+02 -0.15479416787E+02  0.39258357876E+02  0.00000000000E+00 0. -1.
         22    1    3    3    0    0 -0.49401614141E+02 -0.21332898581E+02 -0.65960881429E+02  0.85126082492E+02  0.00000000000E+00 0.  1.
         22    1    3    3    0    0  0.52626098539E+02  0.52885618525E+02 -0.11517855304E+03  0.13723153419E+03  0.00000000000E+00 0.  1.
</event>
<event>
 7    1  0.6078244E-006  0.5975965E+02  0.7818608E-02  0.1468175E+00
          2   -1    0    0  502    0  0.00000000000E+00  0.00000000000E+00  0.56059892755E+02  0.56059892755E+02  0.00000000000E+00 0. -1.
          1   -1    0    0  501    0 -0.00000000000E+00 -0.00000000000E+00 -0.13467737318E+04  0.13467737318E+04  0.00000000000E+00 0. -1.
         25    2    1    2    0    0 -0.31001725969E+02 -0.87218734368E+02 -0.55654363341E+03  0.57787396419E+03  0.12501715065E+03 0.  0.
          2    1    1    2  501    0  0.19246576059E+02  0.29726462829E+02 -0.76001435590E+03  0.76083895435E+03  0.00000000000E+00 0. -1.
          1    1    1    2  502    0  0.11755149910E+02  0.57492271539E+02  0.25844150272E+02  0.64120706011E+02  0.00000000000E+00 0. -1.
         22    1    3    3    0    0 -0.15743611488E+02 -0.58932704597E+01 -0.40386814496E+03  0.40421785024E+03  0.00000000000E+00 0.  1.
         22    1    3    3    0    0 -0.15258114481E+02 -0.81325463908E+02 -0.15267548845E+03  0.17365611395E+03  0.00000000000E+00 0.  1.
</event>
<event>
 7    1  0.6078244E-006  0.1337814E+03  0.7818608E-02  0.1257486E+00
          2   -1    0    0  502    0  0.00000000000E+00  0.00000000000E+00  0.85204291497E+03  0.85204291497E+03  0.00000000000E+00 0. -1.
          1   -1    0    0  501    0 -0.00000000000E+00 -0.00000000000E+00 -0.42062565448E+03  0.42062565448E+03  0.00000000000E+00 0. -1.
         25    2    1    2    0    0  0.37827825696E+02 -0.90578542011E+02  0.78062451906E+02  0.17706860489E+03  0.12499651104E+03 0.  0.
          2    1    1    2  501    0 -0.12611576061E+03  0.60615645984E+02 -0.35476806509E+03  0.38136573210E+03  0.00000000000E+00 0. -1.
          1    1    1    2  502    0  0.88287934919E+02  0.29962896028E+02  0.70812287367E+03  0.71423423245E+03  0.00000000000E+00 0. -1.
         22    1    3    3    0    0  0.11043967138E+02  0.27874899277E+02  0.39618803571E+02  0.49685297788E+02  0.00000000000E+00 0.  1.
         22    1    3    3    0    0  0.26783858557E+02 -0.11845344129E+03  0.38443648335E+02  0.12738330711E+03  0.00000000000E+00 0.  1.
</event>
<event>
 7    1  0.6078244E-006  0.4602386E+02  0.7818608E-02  0.1517194E+00
          2   -1    0    0  502    0  0.00000000000E+00  0.00000000000E+00  0.11760774887E+04  0.11760774887E+04  0.00000000000E+00 0. -1.
          1   -1    0    0  501    0 -0.00000000000E+00 -0.00000000000E+00 -0.14089390137E+02  0.14089390137E+02  0.00000000000E+00 0. -1.
         25    2    1    2    0    0  0.60757284488E+02  0.42310152526E+02  0.57627403895E+03  0.59430419781E+03  0.12499645970E+03 0.  0.
          2    1    1    2  501    0 -0.20914645377E+02 -0.25160955385E+02  0.59822391533E+02  0.68185149379E+02  0.00000000000E+00 0. -1.
          1    1    1    2  502    0 -0.39842639111E+02 -0.17149197141E+02  0.52589166803E+03  0.52767753160E+03  0.00000000000E+00 0. -1.
         22    1    3    3    0    0 -0.30814513457E+02  0.31030161397E+02  0.99517407977E+02  0.10870197628E+03  0.00000000000E+00 0. -1.
         22    1    3    3    0    0  0.91571797945E+02  0.11279991128E+02  0.47675663097E+03  0.48560222153E+03  0.00000000000E+00 0. -1.
</event>
<event>
 7    1  0.6078244E-006  0.7697494E+02  0.7818608E-02  0.1366763E+00
          2   -1    0    0  502    0  0.00000000000E+00  0.00000000000E+00  0.23506069441E+03  0.23506069441E+03  0.00000000000E+00 0. -1.
          1   -1    0    0  501    0 -0.00000000000E+00 -0.00000000000E+00 -0.11450292114E+04  0.11450292114E+04  0.00000000000E+00 0. -1.
         25    2    1    2    0    0  0.62218558691E+02 -0.98898615987E+01 -0.28325826160E+02  0.14281327140E+03  0.12499727858E+03 0.  0.
          2    1    1    2  501    0 -0.18037690434E+02 -0.57439268783E+02 -0.10494346983E+04  0.10511602228E+04  0.00000000000E+00 0. -1.
          1    1    1    2  502    0 -0.44180868257E+02  0.67329130382E+02  0.16779200748E+03  0.18611641167E+03  0.00000000000E+00 0. -1.
         22    1    3    3    0    0 -0.32342747159E+02  0.10849522949E+02 -0.30817029461E+02  0.45972325879E+02  0.00000000000E+00 0.  1.
         22    1    3    3    0    0  0.94561305850E+02 -0.20739384548E+02  0.24912033009E+01  0.96840945521E+02  0.00000000000E+00 0.  1.
</event>
<event>
 7    1  0.6078244E-006  0.5290116E+02  0.7818608E-02  0.1452527E+00
          2   -1    0    0  502    0  0.00000000000E+00  0.00000000000E+00  0.15937821111E+04  0.15937821111E+04  0.00000000000E+00 0. -1.
          1   -1    0    0  501    0 -0.00000000000E+00 -0.00000000000E+00 -0.78535967718E+02  0.78535967718E+02  0.00000000000E+00 0. -1.
         25    2    1    2    0    0 -0.46139719650E+02 -0.47823348882E+02  0.25474795555E+03  0.29144032813E+03  0.12499999030E+03 0.  0.
          2    1    1    2  501    0 -0.67367967704E+01  0.44308412021E+02 -0.51237095041E+02  0.68072459298E+02  0.00000000000E+00 0. -1.
          1    1    1    2  502    0  0.52876516421E+02  0.35149368606E+01  0.13117352829E+04  0.13128052914E+04  0.00000000000E+00 0. -1.
         22    1    3    3    0    0  0.39378753338E+02 -0.31004805052E+02  0.60699323418E+02  0.78717164673E+02  0.00000000000E+00 0. -1.
         22    1    3    3    0    0 -0.85518472989E+02 -0.16818543831E+02  0.19404863213E+03  0.21272316346E+03  0.00000000000E+00 0. -1.
</event>
<event>
 7    1  0.6078244E-006  0.6174005E+02  0.7818608E-02  0.1423085E+00
          2   -1    0    0  502    0  0.00000000000E+00  0.00000000000E+00  0.69042957619E+03  0.69042957619E+03  0.00000000000E+00 0. -1.
          1   -1    0    0  501    0 -0.00000000000E+00 -0.00000000000E+00 -0.76188026789E+02  0.76188026789E+02  0.00000000000E+00 0. -1.
         25    2    1    2    0    0  0.63527619720E+02  0.69566301939E+02  0.19806854637E+03  0.25245117517E+03  0.12500087180E+03 0.  0.
          2    1    1    2  501    0 -0.46332298331E+02 -0.12099475109E+02 -0.34816485021E+02  0.59205293647E+02  0.00000000000E+00 0. -1.
          1    1    1    2  502    0 -0.17195321388E+02 -0.57466826830E+02  0.45098948806E+03  0.45496113417E+03  0.00000000000E+00 0. -1.
         22    1    3    3    0    0  0.65433026958E+02 -0.17418248363E+02  0.67978798991E+02  0.95947868685E+02  0.00000000000E+00 0. -1.
         22    1    3    3    0    0 -0.19054072384E+01  0.86984550302E+02  0.13008974738E+03  0.15650330648E+03  0.00000000000E+00 0. -1.
</event>
<event>
 7    1  0.6078244E-006  0.8488186E+02  0.7818608E-02  0.1323418E+00
          2   -1    0    0  502    0  0.00000000000E+00  0.00000000000E+00  0.62743594014E+03  0.62743594014E+03  0.00000000000E+00 0. -1.
          1   -1    0    0  501    0 -0.00000000000E+00 -0.00000000000E+00 -0.31978789856E+03  0.31978789856E+03  0.00000000000E+00 0. -1.
         25    2    1    2    0    0  0.15486049581E+02  0.15787017716E+02  0.17552922929E+02  0.12815029911E+03  0.12500138558E+03 0.  0.
          2    1    1    2  501    0 -0.32617586225E+02  0.72228755886E+02 -0.25480475294E+03  0.26684520275E+03  0.00000000000E+00 0. -1.
          1    1    1    2  502    0  0.17131536644E+02 -0.88015773602E+02  0.54489987159E+03  0.55222833684E+03  0.00000000000E+00 0. -1.
         22    1    3    3    0    0 -0.61349903839E+01 -0.17294860704E+02 -0.48121470704E+02  0.51501711200E+02  0.00000000000E+00 0.  1.
         22    1    3    3    0    0  0.21621039965E+02  0.33081878419E+02  0.65674393633E+02  0.76648587906E+02  0.00000000000E+00 0.  1.
</event>
<event>
 7    1  0.6078244E-006  0.9538196E+02  0.7818608E-02  0.1339350E+00
          2   -1    0    0  502    0  0.00000000000E+00  0.00000000000E+00  0.61204578859E+03  0.61204578859E+03  0.00000000000E+00 0. -1.
          1   -1    0    0  501    0 -0.00000000000E+00 -0.00000000000E+00 -0.25555850691E+03  0.25555850691E+03  0.00000000000E+00 0. -1.
         25    2    1    2    0    0 -0.42593410005E+02 -0.40102197599E+02  0.12188260288E+03  0.18413479955E+03  0.12501148224E+03 0.  0.
          2    1    1    2  501    0  0.19366828244E+02  0.96856191398E+02 -0.21136404345E+03  0.23330442497E+03  0.00000000000E+00 0. -1.
          1    1    1    2  502    0  0.23226581762E+02 -0.56753993799E+02  0.44596872225E+03  0.45016507098E+03  0.00000000000E+00 0. -1.
         22    1    3    3    0    0 -0.28087493683E+02 -0.85385273927E+02  0.71484429873E+02  0.11484587942E+03  0.00000000000E+00 0. -1.
         22    1    3    3    0    0 -0.14505916322E+02  0.45283076328E+02  0.50398173007E+02  0.69288920128E+02  0.00000000000E+00 0. -1.
</event>
<event>
 7    1  0.6078244E-006  0.4682024E+02  0.7818608E-02  0.1505410E+00
          2   -1    0    0  502    0  0.00000000000E+00  0.00000000000E+00  0.80102660482E+03  0.80102660482E+03  0.00000000000E+00 0. -1.
          1   -1    0    0  501    0 -0.00000000000E+00 -0.00000000000E+00 -0.12837761235E+03  0.12837761235E+03  0.00000000000E+00 0. -1.
         25    2    1    2    0    0  0.14246351350E+01  0.34754637941E+02  0.43386992662E+03  0.45285466987E+03  0.12499729737E+03 0.  0.
          2    1    1    2  501    0 -0.34645376371E+02  0.35933019235E+01 -0.11448208690E+03  0.11966353724E+03  0.00000000000E+00 0. -1.
          1    1    1    2  502    0  0.33220741236E+02 -0.38347939865E+02  0.35326115275E+03  0.35688601007E+03  0.00000000000E+00 0. -1.
         22    1    3    3    0    0  0.19485695723E+02 -0.38755483490E+02  0.25443917139E+03  0.25811038680E+03  0.00000000000E+00 0.  1.
         22    1    3    3    0    0 -0.18061060588E+02  0.73510121432E+02  0.17943075523E+03  0.19474428307E+03  0.00000000000E+00 0.  1.
</event>
<event>
 7    1  0.6078244E-006  0.6955856E+02  0.7818608E-02  0.1368724E+00
          2   -1    0    0  502    0  0.00000000000E+00  0.00000000000E+00  0.13560170385E+04  0.13560170385E+04  0.00000000000E+00 0. -1.
          1   -1    0    0  501    0 -0.00000000000E+00 -0.00000000000E+00 -0.99677097873E+02  0.99677097873E+02  0.00000000000E+00 0. -1.
         25    2    1    2    0    0 -0.34881152904E+02 -0.32070802163E+02  0.23299775778E+03  0.26862255966E+03  0.12499957299E+03 0.  0.
          2    1    1    2  501    0 -0.33714146113E+02  0.56212085020E+02 -0.67336401379E+02  0.93971448329E+02  0.00000000000E+00 0. -1.
          1    1    1    2  502    0  0.68595299017E+02 -0.24141282856E+02  0.10906785843E+04  0.10931001284E+04  0.00000000000E+00 0. -1.
         22    1    3    3    0    0  0.14931270944E+02  0.25641468701E+02  0.16117137561E+03  0.16387995633E+03  0.00000000000E+00 0.  1.
         22    1    3    3    0    0 -0.49812423847E+02 -0.57712270864E+02  0.71826382172E+02  0.10474260334E+03  0.00000000000E+00 0.  1.
</event>
<event>
 7    1  0.6078244E-006  0.9395634E+02  0.7818608E-02  0.1460879E+00
          2   -1    0    0  502    0  0.00000000000E+00  0.00000000000E+00  0.34365847482E+04  0.34365847482E+04  0.00000000000E+00 0. -1.
          1   -1    0    0  501    0 -0.00000000000E+00 -0.00000000000E+00 -0.18240597256E+02  0.18240597256E+02  0.00000000000E+00 0. -1.
         25    2    1    2    0    0 -0.43728731700E+02 -0.97965514568E+02  0.45487346407E+03  0.48378114615E+03  0.12499954017E+03 0.  0.
          2    1    1    2  501    0  0.22685900717E+02  0.70026695524E+01  0.43305037805E+02  0.49386372326E+02  0.00000000000E+00 0. -1.
          1    1    1    2  502    0  0.21042830984E+02  0.90962845015E+02  0.29201656491E+04  0.29216578270E+04  0.00000000000E+00 0. -1.
         22    1    3    3    0    0 -0.33313590381E+02  0.13743707967E+02  0.22636644311E+03  0.22921703990E+03  0.00000000000E+00 0.  1.
         22    1    3    3    0    0 -0.10415141320E+02 -0.11170922254E+03  0.22850702096E+03  0.25456410626E+03  0.00000000000E+00 0.  1.
</event>
<event>
 7    1  0.6078244E-006  0.7765789E+02  0.7818608E-02  0.1356669E+00
          2   -1    0    0  502    0  0.00000000000E+00  0.00000000000E+00  0.11039211197E+04  0.11039211197E+04  0.00000000000E+00 0. -1.
          1   -1    0    0  501    0 -0.00000000000E+00 -0.00000000000E+00 -0.65306933639E+02  0.65306933639E+02  0.00000000000E+00 0. -1.
         25    2    1    2    0    0 -0.45798798131E+01  0.12091890312E+02  0.48912569762E+03  0.50501096761E+03  0.12499976089E+03 0.  0.
          2    1    1    2  501    0 -0.69086080935E+02  0.35466346498E+02 -0.26147098858E+02  0.81941559001E+02  0.00000000000E+00 0. -1.
          1    1    1    2  502    0  0.73665960748E+02 -0.47558236809E+02  0.57563558729E+03  0.58227552672E+03  0.00000000000E+00 0. -1.
         22    1    3    3    0    0 -0.27947638226E+02 -0.36940895283E+02  0.81186889111E+02  0.93471980777E+02  0.00000000000E+00 0.  1.
         22    1    3    3    0    0  0.23367758413E+02  0.49032785594E+02  0.40793880851E+03  0.41153898683E+03  0.00000000000E+00 0.  1.
</event>
<event>
 7    1  0.6078244E-006  0.1103702E+03  0.7818608E-02  0.1310830E+00
          2   -1    0    0  502    0  0.00000000000E+00  0.00000000000E+00  0.34971347819E+03  0.34971347819E+03  0.00000000000E+00 0. -1.
          1   -1    0    0  501    0 -0.00000000000E+00 -0.00000000000E+00 -0.22508399978E+03  0.22508399978E+03  0.00000000000E+00 0. -1.
         25    2    1    2    0    0 -0.11582095656E+03  0.62259385075E+02 -0.14589554072E+03  0.23281346367E+03  0.12500350018E+03 0.  0.
          2    1    1    2  501    0  0.48410132538E+02 -0.72862250948E+02  0.30810099419E+02  0.92745408360E+02  0.00000000000E+00 0. -1.
          1    1    1    2  502    0  0.67410824019E+02  0.10602865873E+02  0.23971491971E+03  0.24923860594E+03  0.00000000000E+00 0. -1.
         22    1    3    3    0    0 -0.51692082310E+01  0.54047590406E+02 -0.65487394445E+01  0.54687738395E+02  0.00000000000E+00 0.  1.
         22    1    3    3    0    0 -0.11065174833E+03  0.82117946695E+01 -0.13934680128E+03  0.17812572528E+03  0.00000000000E+00 0.  1.
</event>
<event>
 7    1  0.6078244E-006  0.4898424E+02  0.7818608E-02  0.1486886E+00
          2   -1    0    0  502    0  0.00000000000E+00  0.00000000000E+00  0.70181515867E+03  0.70181515867E+03  0.00000000000E+00 0. -1.
          1   -1    0    0  501    0 -0.00000000000E+00 -0.00000000000E+00 -0.22089297207E+03  0.22089297207E+03  0.00000000000E+00 0. -1.
         25    2    1    2    0    0 -0.11554063195E+02 -0.17149849758E+02  0.25906061228E+02  0.12932160805E+03  0.12500136230E+03 0.  0.
          2    1    1    2  501    0 -0.37112718173E+02  0.73688611330E+01 -0.16606694358E+03  0.17032288077E+03  0.00000000000E+00 0. -1.
          1    1    1    2  502    0  0.48666781367E+02  0.97809886248E+01  0.62108306895E+03  0.62306364192E+03  0.00000000000E+00 0. -1.
         22    1    3    3    0    0 -0.25962799224E+02  0.45160586935E+02 -0.13997143253E+02  0.53939462132E+02  0.00000000000E+00 0. -1.
         22    1    3    3    0    0  0.14408736029E+02 -0.62310436693E+02  0.39903204481E+02  0.75382145915E+02  0.00000000000E+00 0. -1.
</event>
<event>
 7    1  0.6078244E-006  0.1444501E+03  0.7818608E-02  0.1255832E+00
          2   -1    0    0  502    0  0.00000000000E+00  0.00000000000E+00  0.12652017688E+04  0.12652017688E+04  0.00000000000E+00 0. -1.
          1   -1    0    0  501    0 -0.00000000000E+00 -0.00000000000E+00 -0.22255684426E+03  0.22255684426E+03  0.00000000000E+00 0. -1.
         25    2    1    2    0    0  0.58063584123E+02 -0.13170913095E+03  0.12785316390E+03  0.22954264390E+03  0.12499887548E+03 0.  0.
          2    1    1    2  501    0 -0.86903515694E+02 -0.12306462790E+02 -0.15514153824E+03  0.17824860996E+03  0.00000000000E+00 0. -1.
          1    1    1    2  502    0  0.28839931571E+02  0.14401559374E+03  0.10699332988E+04  0.10799673592E+04  0.00000000000E+00 0. -1.
         22    1    3    3    0    0  0.22687771300E+02  0.20641140845E+02  0.39156497944E+02  0.49739551598E+02  0.00000000000E+00 0. -1.
         22    1    3    3    0    0  0.35375812823E+02 -0.15235027179E+03  0.88696665959E+02  0.17980309230E+03  0.00000000000E+00 0. -1.
</event>
<event>
 7    1  0.6078244E-006  0.9474758E+02  0.7818608E-02  0.1338563E+00
          2   -1    0    0  502    0  0.00000000000E+00  0.00000000000E+00  0.35956847632E+03  0.35956847632E+03  0.00000000000E+00 0. -1.
          1   -1    0    0  501    0 -0.00000000000E+00 -0.00000000000E+00 -0.91855244444E+03  0.91855244444E+03  0.00000000000E+00 0. -1.
         25    2    1    2    0    0  0.35017270864E+02 -0.25722464863E+02 -0.13677265895E+03  0.19031346574E+03  0.12499840219E+03 0.  0.
          2    1    1    2  501    0  0.61111310964E+02  0.11352041770E+02 -0.74659346648E+03  0.74917639136E+03  0.00000000000E+00 0. -1.
          1    1    1    2  502    0 -0.96128581828E+02  0.14370423093E+02  0.32438215730E+03  0.33863106366E+03  0.00000000000E+00 0. -1.
         22    1    3    3    0    0  0.17800041142E+02 -0.65065767936E+02 -0.27395517394E+02  0.72807348496E+02  0.00000000000E+00 0.  1.
         22    1    3    3    0    0  0.17217229722E+02  0.39343303073E+02 -0.10937714155E+03  0.11750611724E+03  0.00000000000E+00 0.  1.
</event>
<event>
 7    1  0.6078244E-006  0.7458304E+02  0.7818608E-02  0.1392687E+00
          2   -1    0    0  502    0  0.00000000000E+00  0.00000000000E+00  0.72250390907E+03  0.72250390907E+03  0.00000000000E+00 0. -1.
          1   -1    0    0  501    0 -0.00000000000E+00 -0.00000000000E+00 -0.10297703902E+04  0.10297703902E+04  0.00000000000E+00 0. -1.
         25    2    1    2    0    0  0.31243283411E+02 -0.98553430798E+02 -0.37653109900E+03  0.40998340625E+03  0.12498721298E+03 0.  0.
          2    1    1    2  501    0  0.21170601078E+02  0.45616200995E+02 -0.63354819953E+03  0.63554099259E+03  0.00000000000E+00 0. -1.
          1    1    1    2  502    0 -0.52413884488E+02  0.52937229803E+02  0.70281281735E+03  0.70674990047E+03  0.00000000000E+00 0. -1.
         22    1    3    3    0    0 -0.36478922516E+02 -0.16695497130E+02 -0.38320537508E+02  0.55478960041E+02  0.00000000000E+00 0.  1.
         22    1    3    3    0    0  0.67722205926E+02 -0.81857933668E+02 -0.33821056149E+03  0.35450444621E+03  0.00000000000E+00 0.  1.
</event>
<event>
 7    1  0.6078244E-006  0.5311364E+02  0.7818608E-02  0.1457825E+00
          2   -1    0    0  502    0  0.00000000000E+00  0.00000000000E+00  0.40145490212E+03  0.40145490212E+03  0.00000000000E+00 0. -1.
          1   -1    0    0  501    0 -0.00000000000E+00 -0.00000000000E+00 -0.25246763482E+04  0.25246763482E+04  0.00000000000E+00 0. -1.
         25    2    1    2    0    0 -0.73725886193E+02  0.16142390173E+02 -0.16515445790E+03  0.22044790622E+03  0.12500080535E+03 0.  0.
          2    1    1    2  501    0  0.36832843079E+02 -0.38117512553E+02 -0.23303395398E+04  0.23309422931E+04  0.00000000000E+00 0. -1.
          1    1    1    2  502    0  0.36893043114E+02  0.21975122380E+02  0.37227255160E+03  0.37474105100E+03  0.00000000000E+00 0. -1.
         22    1    3    3    0    0 -0.29992012167E+02  0.43201441297E+00 -0.17100074236E+03  0.17361152415E+03  0.00000000000E+00 0.  1.
         22    1    3    3    0    0 -0.43733874026E+02  0.15710375760E+02  0.58462844597E+01  0.46836382075E+02  0.00000000000E+00 0.  1.
</event>
<event>
 7    1  0.6078244E-006  0.1869264E+03  0.7818608E-02  0.1259201E+00
          2   -1    0    0  502    0  0.00000000000E+00  0.00000000000E+00  0.40280423654E+04  0.40280423654E+04  0.00000000000E+00 0. -1.
          1   -1    0    0  501    0 -0.00000000000E+00 -0.00000000000E+00 -0.53794314917E+03  0.53794314917E+03  0.00000000000E+00 0. -1.
         25    2    1    2    0    0 -0.13532749684E+03 -0.16501648697E+03 -0.42666635924E+03  0.49316662362E+03  0.12500065668E+03 0.  0.
          2    1    1    2  501    0  0.65102586399E+02 -0.81303582128E+01 -0.61643708158E+02  0.90024420220E+02  0.00000000000E+00 0. -1.
          1    1    1    2  502    0  0.70224910443E+02  0.17314684519E+03  0.39784092836E+04  0.39827944707E+04  0.00000000000E+00 0. -1.
         22    1    3    3    0    0 -0.13360799512E+03 -0.99273635121E+02 -0.37238490545E+03  0.40789320759E+03  0.00000000000E+00 0.  1.
         22    1    3    3    0    0 -0.17195017233E+01 -0.65742851852E+02 -0.54281453790E+02  0.85273416029E+02  0.00000000000E+00 0.  1.
</event>
<event>
 7    1  0.6078244E-006  0.8467806E+02  0.7818608E-02  0.1488580E+00
          2   -1    0    0  502    0  0.00000000000E+00  0.00000000000E+00  0.70426983915E+03  0.70426983915E+03  0.00000000000E+00 0. -1.
          1   -1    0    0  501    0 -0.00000000000E+00 -0.00000000000E+00 -0.59727269474E+02  0.59727269474E+02  0.00000000000E+00 0. -1.
         25    2    1    2    0    0  0.15028309431E+02 -0.68046756119E+02  0.11395987822E+03  0.18294205432E+03  0.12499892116E+03 0.  0.
          2    1    1    2  501    0 -0.11781175779E+02 -0.18140487033E+02 -0.16506452500E+02  0.27209122490E+02  0.00000000000E+00 0. -1.
          1    1    1    2  502    0 -0.32471336511E+01  0.86187243152E+02  0.54708914395E+03  0.55384593181E+03  0.00000000000E+00 0. -1.
         22    1    3    3    0    0  0.31617291824E+01 -0.78129755097E+02  0.11179598609E+02  0.78988851036E+02  0.00000000000E+00 0. -1.
         22    1    3    3    0    0  0.11866580248E+02  0.10082998978E+02  0.10278027961E+03  0.10395320328E+03  0.00000000000E+00 0. -1.
</event>
<event>
 7    1  0.6078244E-006  0.1875193E+03  0.7818608E-02  0.1200774E+00
          2   -1    0    0  502    0  0.00000000000E+00  0.00000000000E+00  0.33250183113E+03  0.33250183113E+03  0.00000000000E+00 0. -1.
          1   -1    0    0  501    0 -0.00000000000E+00 -0.00000000000E+00 -0.81600132634E+03  0.81600132634E+03  0.00000000000E+00 0. -1.
         25    2    1    2    0    0 -0.36153128185E+02  0.27728349926E+03 -0.10271487464E+03  0.32305779171E+03  0.12499121439E+03 0.  0.
          2    1    1    2  501    0  0.70598152228E+02 -0.16275441826E+03 -0.57257063203E+03  0.59942491475E+03  0.00000000000E+00 0. -1.
          1    1    1    2  502    0 -0.34445024044E+02 -0.11452908100E+03  0.19178601147E+03  0.22602045100E+03  0.00000000000E+00 0. -1.
         22    1    3    3    0    0  0.35457962028E+01  0.24438237850E+03 -0.50293707977E+02  0.24952910983E+03  0.00000000000E+00 0. -1.
         22    1    3    3    0    0 -0.39698924387E+02  0.32901120764E+02 -0.52421166664E+02  0.73528681883E+02  0.00000000000E+00 0. -1.
</event>
<event>
 7    1  0.6078244E-006  0.5489263E+02  0.7818608E-02  0.1533533E+00
          2   -1    0    0  502    0  0.00000000000E+00  0.00000000000E+00  0.38738713083E+03  0.38738713083E+03  0.00000000000E+00 0. -1.
          1   -1    0    0  501    0 -0.00000000000E+00 -0.00000000000E+00 -0.36455158217E+03  0.36455158217E+03  0.00000000000E+00 0. -1.
         25    2    1    2    0    0 -0.36294415008E+02 -0.62672470632E+02 -0.21435201736E+03  0.25849001051E+03  0.12500070021E+03 0.  0.
          2    1    1    2  501    0  0.33960292256E+02  0.38170836169E+02 -0.12260029057E+03  0.13281997377E+03  0.00000000000E+00 0. -1.
          1    1    1    2  502    0  0.23341227514E+01  0.24501634463E+02  0.35978785659E+03  0.36062872871E+03  0.00000000000E+00 0. -1.
         22    1    3    3    0    0  0.16008827147E+00 -0.51812812575E+02 -0.12787377901E+02  0.53367688808E+02  0.00000000000E+00 0. -1.
         22    1    3    3    0    0 -0.36454503279E+02 -0.10859658057E+02 -0.20156463945E+03  0.20512232170E+03  0.00000000000E+00 0. -1.
</event>
<event>
 7    1  0.6078244E-006  0.1167220E+03  0.7818608E-02  0.1439425E+00
          2   -1    0    0  502    0  0.00000000000E+00  0.00000000000E+00  0.17227399710E+03  0.17227399710E+03  0.00000000000E+00 0. -1.
          1   -1    0    0  501    0 -0.00000000000E+00 -0.00000000000E+00 -0.92989253381E+03  0.92989253381E+03  0.00000000000E+00 0. -1.
         25    2    1    2    0    0  0.12029860976E+03  0.50087931261E+02 -0.18645357658E+03  0.25955915331E+03  0.12500184591E+03 0.  0.
          2    1    1    2  501    0 -0.20802230536E+02  0.82628433933E+01 -0.68216266950E+03  0.68252979058E+03  0.00000000000E+00 0. -1.
          1    1    1    2  502    0 -0.99496379226E+02 -0.58350774655E+02  0.11099770936E+03  0.16007758702E+03  0.00000000000E+00 0. -1.
         22    1    3    3    0    0  0.15332359455E+01 -0.28965564761E+02 -0.61735995599E+01  0.29655827184E+02  0.00000000000E+00 0.  1.
         22    1    3    3    0    0  0.11876537382E+03  0.79053496023E+02 -0.18027997702E+03  0.22990332613E+03  0.00000000000E+00 0.  1.
</event>
<event>
 7    1  0.6078244E-006  0.5125433E+02  0.7818608E-02  0.1504460E+00
          2   -1    0    0  502    0  0.00000000000E+00  0.00000000000E+00  0.49929062191E+03  0.49929062191E+03  0.00000000000E+00 0. -1.
          1   -1    0    0  501    0 -0.00000000000E+00 -0.00000000000E+00 -0.18261339749E+03  0.18261339749E+03  0.00000000000E+00 0. -1.
         25    2    1    2    0    0 -0.44473636179E+02 -0.50509294188E+02  0.30268109554E+02  0.14515590614E+03  0.12499994207E+03 0.  0.
          2    1    1    2  501    0  0.47181836883E+02  0.18599170068E+02 -0.11937545656E+03  0.12970179061E+03  0.00000000000E+00 0. -1.
          1    1    1    2  502    0 -0.27082007033E+01  0.31910124121E+02  0.40578457143E+03  0.40704632265E+03  0.00000000000E+00 0. -1.
         22    1    3    3    0    0 -0.56911245643E+02 -0.86689985303E+02  0.22625806748E+02  0.10614127644E+03  0.00000000000E+00 0. -1.
         22    1    3    3    0    0  0.12437609463E+02  0.36180691115E+02  0.76423028065E+01  0.39014629704E+02  0.00000000000E+00 0. -1.
</event>
<event>
 7    1  0.6078244E-006  0.6999388E+02  0.7818608E-02  0.1466477E+00
          2   -1    0    0  502    0  0.00000000000E+00  0.00000000000E+00  0.19440141490E+04  0.19440141490E+04  0.00000000000E+00 0. -1.
          1   -1    0    0  501    0 -0.00000000000E+00 -0.00000000000E+00 -0.10530186450E+03  0.10530186450E+03  0.00000000000E+00 0. -1.
         25    2    1    2    0    0 -0.19839665894E+02  0.34425766942E+02  0.10669457170E+04  0.10749776843E+04  0.12500045119E+03 0.  0.
          2    1    1    2  501    0  0.35000669725E+02 -0.61013527421E+02 -0.88768720726E+02  0.11325892101E+03  0.00000000000E+00 0. -1.
          1    1    1    2  502    0 -0.15161003831E+02  0.26587760479E+02  0.86053528817E+03  0.86107940820E+03  0.00000000000E+00 0. -1.
         22    1    3    3    0    0  0.13871265953E+02  0.69151368098E+02  0.83853685394E+03  0.84149770003E+03  0.00000000000E+00 0.  1.
         22    1    3    3    0    0 -0.33710931847E+02 -0.34725601156E+02  0.22840886309E+03  0.23347998424E+03  0.00000000000E+00 0.  1.
</event>
<event>
 7    1  0.6078244E-006  0.6885058E+02  0.7818608E-02  0.1380358E+00
          2   -1    0    0  502    0  0.00000000000E+00  0.00000000000E+00  0.25513239399E+03  0.25513239399E+03  0.00000000000E+00 0. -1.
          1   -1    0    0  501    0 -0.00000000000E+00 -0.00000000000E+00 -0.73427115628E+03  0.73427115628E+03  0.00000000000E+00 0. -1.
         25    2    1    2    0    0 -0.50254685048E+02 -0.60786514330E+02 -0.40524070654E+02  0.15325819842E+03  0.12500136554E+03 0.  0.
          2    1    1    2  501    0 -0.19374960298E+02  0.56976423745E+02 -0.62978489198E+03  0.63265370631E+03  0.00000000000E+00 0. -1.
          1    1    1    2  502    0  0.69629645346E+02  0.38100905853E+01  0.19117020035E+03  0.20349164554E+03  0.00000000000E+00 0. -1.
         22    1    3    3    0    0 -0.66313494453E+02  0.12804177216E+02 -0.38854430428E+02  0.77917220591E+02  0.00000000000E+00 0. -1.
         22    1    3    3    0    0  0.16058809404E+02 -0.73590691546E+02 -0.16696402263E+01  0.75340977829E+02  0.00000000000E+00 0. -1.
</event>
<event>
 7    1  0.6078244E-006  0.2311315E+02  0.7818608E-02  0.1717016E+00
          2   -1    0    0  502    0  0.00000000000E+00  0.00000000000E+00  0.27512670501E+03  0.27512670501E+03  0.00000000000E+00 0. -1.
          1   -1    0    0  501    0 -0.00000000000E+00 -0.00000000000E+00 -0.22337122665E+03  0.22337122665E+03  0.00000000000E+00 0. -1.
         25    2    1    2    0    0 -0.99108908889E+01 -0.25860137860E+01 -0.11607620395E+03  0.17088858322E+03  0.12499723807E+03 0.  0.
          2    1    1    2  501    0  0.89115751648E+01  0.22563546112E+02 -0.77630869452E+02  0.81333152385E+02  0.00000000000E+00 0. -1.
          1    1    1    2  502    0  0.99931572408E+00 -0.19977532326E+02  0.24546255176E+03  0.24627619606E+03  0.00000000000E+00 0. -1.
         22    1    3    3    0    0 -0.54860568816E+02 -0.17261243379E+02 -0.10877550885E+03  0.12304366647E+03  0.00000000000E+00 0. -1.
         22    1    3    3    0    0  0.44949677928E+02  0.14675229593E+02 -0.73006951002E+01  0.47844916745E+02  0.00000000000E+00 0. -1.
</event>
<event>
 7    1  0.6078244E-006  0.5560783E+02  0.7818608E-02  0.1508489E+00
          2   -1    0    0  502    0  0.00000000000E+00  0.00000000000E+00  0.76583363524E+03  0.76583363524E+03  0.00000000000E+00 0. -1.
          1   -1    0    0  501    0 -0.00000000000E+00 -0.00000000000E+00 -0.40956138567E+03  0.40956138567E+03  0.00000000000E+00 0. -1.
         25    2    1    2    0    0 -0.51757257031E+02 -0.65881985952E+02  0.24152098700E+03  0.28456313273E+03  0.12499815848E+03 0.  0.
          2    1    1    2  501    0  0.36947287737E+02  0.41276387059E+02 -0.38564935500E+03  0.38960783772E+03  0.00000000000E+00 0. -1.
          1    1    1    2  502    0  0.14809969294E+02  0.24605598893E+02  0.50040061758E+03  0.50122405046E+03  0.00000000000E+00 0. -1.
         22    1    3    3    0    0 -0.35691423941E+02 -0.34299804979E+02  0.10196179722E+02  0.50540245799E+02  0.00000000000E+00 0.  1.
         22    1    3    3    0    0 -0.16065833090E+02 -0.31582180972E+02  0.23132480727E+03  0.23402288693E+03  0.00000000000E+00 0.  1.
</event>
<event>
 7    1  0.6078244E-006  0.1692518E+03  0.7818608E-02  0.1316592E+00
          2   -1    0    0  502    0  0.00000000000E+00  0.00000000000E+00  0.18785657082E+04  0.18785657082E+04  0.00000000000E+00 0. -1.
          1   -1    0    0  501    0 -0.00000000000E+00 -0.00000000000E+00 -0.41268497725E+03  0.41268497725E+03  0.00000000000E+00 0. -1.
         25    2    1    2    0    0 -0.12064241153E+03  0.55996767949E+02  0.15130277733E+04  0.15239972604E+04  0.12499751025E+03 0.  0.
          2    1    1    2  501    0  0.14248421747E+03 -0.92157313385E+02 -0.38816163175E+03  0.42363212225E+03  0.00000000000E+00 0. -1.
          1    1    1    2  502    0 -0.21841805946E+02  0.36160545437E+02  0.34101458945E+03  0.34362130282E+03  0.00000000000E+00 0. -1.
         22    1    3    3    0    0  0.23955727881E+02  0.54366708895E+01  0.11450623796E+03  0.11711154008E+03  0.00000000000E+00 0.  1.
         22    1    3    3    0    0 -0.14459813941E+03  0.50560097059E+02  0.13985215353E+04  0.14068857203E+04  0.00000000000E+00 0.  1.
</event>
<event>
 7    1  0.6078244E-006  0.4604025E+02  0.7818608E-02  0.1487037E+00
          2   -1    0    0  502    0  0.00000000000E+00  0.00000000000E+00  0.10196119723E+04  0.10196119723E+04  0.00000000000E+00 0. -1.
          1   -1    0    0  501    0 -0.00000000000E+00 -0.00000000000E+00 -0.13969126224E+04  0.13969126224E+04  0.00000000000E+00 0. -1.
         25    2    1    2    0    0  0.15036415057E+02 -0.10293260248E+02  0.30392347138E+03  0.32913005378E+03  0.12500028344E+03 0.  0.
          2    1    1    2  501    0  0.35644931565E+01  0.45946974553E+02 -0.13833502734E+04  0.13841177005E+04  0.00000000000E+00 0. -1.
          1    1    1    2  502    0 -0.18600908214E+02 -0.35653714306E+02  0.70212615189E+03  0.70327684044E+03  0.00000000000E+00 0. -1.
         22    1    3    3    0    0  0.44724090470E+02 -0.56089064721E+02  0.17081706850E+03  0.18526925903E+03  0.00000000000E+00 0.  1.
         22    1    3    3    0    0 -0.29687675413E+02  0.45795804474E+02  0.13310640288E+03  0.14386079475E+03  0.00000000000E+00 0.  1.
</event>
<event>
 7    1  0.6078244E-006  0.1065856E+03  0.7818608E-02  0.1279007E+00
          2   -1    0    0  502    0  0.00000000000E+00  0.00000000000E+00  0.11250367630E+04  0.11250367630E+04  0.00000000000E+00 0. -1.
          1   -1    0    0  501    0 -0.00000000000E+00 -0.00000000000E+00 -0.36931707913E+03  0.36931707913E+03  0.00000000000E+00 0. -1.
         25    2    1    2    0    0 -0.12454610293E+02  0.19308094061E+03  0.19468424237E+03  0.30159777771E+03  0.12499559331E+03 0.  0.
          2    1    1    2  501    0 -0.16053672588E+02 -0.10248015886E+03 -0.30467599876E+03  0.32184991469E+03  0.00000000000E+00 0. -1.
          1    1    1    2  502    0  0.28508282881E+02 -0.90600781754E+02  0.86571144026E+03  0.87090614974E+03  0.00000000000E+00 0. -1.
         22    1    3    3    0    0 -0.36888650462E+02  0.10218811283E+02  0.79403144226E+01  0.39092777212E+02  0.00000000000E+00 0. -1.
         22    1    3    3    0    0  0.24434040170E+02  0.18286212933E+03  0.18674392795E+03  0.26250500050E+03  0.00000000000E+00 0. -1.
</event>
<event>
 7    1  0.6078244E-006  0.1119052E+03  0.7818608E-02  0.1391164E+00
          2   -1    0    0  502    0  0.00000000000E+00  0.00000000000E+00  0.37784379367E+04  0.37784379367E+04  0.00000000000E+00 0. -1.
          1   -1    0    0  501    0 -0.00000000000E+00 -0.00000000000E+00 -0.96405550663E+03  0.96405550663E+03  0.00000000000E+00 0. -1.
         25    2    1    2    0    0 -0.11377305601E+03 -0.85168611679E+02  0.85603969474E+03  0.87671387542E+03  0.12500103882E+03 0.  0.
          2    1    1    2  501    0  0.22964242259E+02  0.24975903435E+02 -0.95239724771E+03  0.95300140064E+03  0.00000000000E+00 0. -1.
          1    1    1    2  502    0  0.90808813749E+02  0.60192708244E+02  0.29107399830E+04  0.29127781672E+04  0.00000000000E+00 0. -1.
         22    1    3    3    0    0 -0.39422299568E+01 -0.77654240164E+02  0.30248718786E+03  0.31232070218E+03  0.00000000000E+00 0.  1.
         22    1    3    3    0    0 -0.10983082605E+03 -0.75143715153E+01  0.55355250687E+03  0.56439317324E+03  0.00000000000E+00 0.  1.
</event>
<event>
 7    1  0.6078244E-006  0.8626522E+02  0.7818608E-02  0.1407829E+00
          2   -1    0    0  502    0  0.00000000000E+00  0.00000000000E+00  0.26149807211E+03  0.26149807211E+03  0.00000000000E+00 0. -1.
          1   -1    0    0  501    0 -0.00000000000E+00 -0.00000000000E+00 -0.57186587276E+03  0.57186587276E+03  0.00000000000E+00 0. -1.
         25    2    1    2    0    0  0.55839042404E+02  0.10165196854E+03 -0.23648197023E+03  0.29154793380E+03  0.12500141637E+03 0.  0.
          2    1    1    2  501    0 -0.26921352478E+02 -0.76131552082E+02 -0.30090091612E+03  0.31154796382E+03  0.00000000000E+00 0. -1.
          1    1    1    2  502    0 -0.28917689926E+02 -0.25520416458E+02  0.22701508570E+03  0.23026804724E+03  0.00000000000E+00 0. -1.
         22    1    3    3    0    0 -0.20133217660E+02  0.90162415816E+02 -0.14682478357E+03  0.17347081815E+03  0.00000000000E+00 0. -1.
         22    1    3    3    0    0  0.75972260064E+02  0.11489552724E+02 -0.89657186664E+02  0.11807711566E+03  0.00000000000E+00 0. -1.
</event>
<event>
 7    1  0.6078244E-006  0.6021316E+02  0.7818608E-02  0.1513274E+00
          2   -1    0    0  502    0  0.00000000000E+00  0.00000000000E+00  0.48070980737E+03  0.48070980737E+03  0.00000000000E+00 0. -1.
          1   -1    0    0  501    0 -0.00000000000E+00 -0.00000000000E+00 -0.50983151351E+03  0.50983151351E+03  0.00000000000E+00 0. -1.
         25    2    1    2    0    0  0.14557984905E+02 -0.58485196655E+02 -0.16869239023E+03  0.21843761924E+03  0.12500167129E+03 0.  0.
          2    1    1    2  501    0 -0.37808209466E+02  0.47588907194E+02 -0.31297908624E+03  0.31882608616E+03  0.00000000000E+00 0. -1.
          1    1    1    2  502    0  0.23250224561E+02  0.10896289461E+02  0.45254977033E+03  0.45327761548E+03  0.00000000000E+00 0. -1.
         22    1    3    3    0    0 -0.26277935602E+01 -0.95970550555E+02 -0.10241217658E+03  0.14037630065E+03  0.00000000000E+00 0.  1.
         22    1    3    3    0    0  0.17185778465E+02  0.37485353900E+02 -0.66280213649E+02  0.78061318589E+02  0.00000000000E+00 0.  1.
</event>
<event>
 7    1  0.6078244E-006  0.1004070E+03  0.7818608E-02  0.1363160E+00
          2   -1    0    0  502    0  0.00000000000E+00  0.00000000000E+00  0.10990729248E+03  0.10990729248E+03  0.00000000000E+00 0. -1.
          1   -1    0    0  501    0 -0.00000000000E+00 -0.00000000000E+00 -0.20176604762E+04  0.20176604762E+04  0.00000000000E+00 0. -1.
         25    2    1    2    0    0 -0.53811411472E+02 -0.28732870377E+02 -0.44632769511E+03  0.46750046572E+03  0.12500811245E+03 0.  0.
          2    1    1    2  501    0  0.10048440324E+03  0.37889750963E+02 -0.15530896520E+04  0.15567980651E+04  0.00000000000E+00 0. -1.
          1    1    1    2  502    0 -0.46672991770E+02 -0.91568805862E+01  0.91664163406E+02  0.10326923780E+03  0.00000000000E+00 0. -1.
         22    1    3    3    0    0 -0.35201793979E+02 -0.77765505148E+02 -0.24461445167E+03  0.25908081762E+03  0.00000000000E+00 0. -1.
         22    1    3    3    0    0 -0.18609617492E+02  0.49032634771E+02 -0.20171324344E+03  0.20841964810E+03  0.00000000000E+00 0. -1.
</event>
<event>
 7    1  0.6078244E-006  0.9559772E+02  0.7818608E-02  0.1380952E+00
          2   -1    0    0  502    0  0.00000000000E+00  0.00000000000E+00  0.48677251462E+03  0.48677251462E+03  0.00000000000E+00 0. -1.
          1   -1    0    0  501    0 -0.00000000000E+00 -0.00000000000E+00 -0.11217541474E+04  0.11217541474E+04  0.00000000000E+00 0. -1.
         25    2    1    2    0    0 -0.50237590874E+02  0.63088411528E+02  0.16874728075E+03  0.22495294591E+03  0.12499687959E+03 0.  0.
          2    1    1    2  501    0  0.86919161791E+02 -0.40395572906E+02 -0.10899321571E+04  0.10941384053E+04  0.00000000000E+00 0. -1.
          1    1    1    2  502    0 -0.36681570917E+02 -0.22692838622E+02  0.28620324350E+03  0.28943531083E+03  0.00000000000E+00 0. -1.
         22    1    3    3    0    0 -0.11983121979E+02 -0.78195573822E+01  0.13796328998E+03  0.13870331673E+03  0.00000000000E+00 0.  1.
         22    1    3    3    0    0 -0.38254468895E+02  0.70907968910E+02  0.30783990765E+02  0.86249629175E+02  0.00000000000E+00 0.  1.
</event>
<event>
 7    1  0.6078244E-006  0.3450291E+02  0.7818608E-02  0.1570301E+00
          2   -1    0    0  502    0  0.00000000000E+00  0.00000000000E+00  0.41687799851E+03  0.41687799851E+03  0.00000000000E+00 0. -1.
          1   -1    0    0  501    0 -0.00000000000E+00 -0.00000000000E+00 -0.77761663870E+02  0.77761663870E+02  0.00000000000E+00 0. -1.
         25    2    1    2    0    0 -0.79936636006E+01 -0.40447303776E+02  0.23116198591E+03  0.26600912472E+03  0.12500043066E+03 0.  0.
          2    1    1    2  501    0  0.29473556390E+02  0.18180740690E+02 -0.53779270011E+02  0.63964363056E+02  0.00000000000E+00 0. -1.
          1    1    1    2  502    0 -0.21479892789E+02  0.22266563086E+02  0.16173361875E+03  0.16466617460E+03  0.00000000000E+00 0. -1.
         22    1    3    3    0    0  0.91460321405E+01  0.26937054589E+02  0.43487551141E+01  0.28777881870E+02  0.00000000000E+00 0.  1.
         22    1    3    3    0    0 -0.17139695741E+02 -0.67384358366E+02  0.22681323079E+03  0.23723124285E+03  0.00000000000E+00 0.  1.
</event>
<event>
 7    1  0.6078244E-006  0.8958692E+02  0.7818608E-02  0.1479385E+00
          2   -1    0    0  502    0  0.00000000000E+00  0.00000000000E+00  0.14928027793E+03  0.14928027793E+03  0.00000000000E+00 0. -1.
          1   -1    0    0  501    0 -0.00000000000E+00 -0.00000000000E+00 -0.33428645523E+03  0.33428645523E+03  0.00000000000E+00 0. -1.
         25    2    1    2    0    0 -0.44193345326E+02 -0.71489210017E+02  0.80215843909E+02  0.17065488989E+03  0.12499900363E+03 0.  0.
          2    1    1    2  501    0  0.27640725923E+02  0.85689693879E+02 -0.27473916620E+03  0.28911648658E+03  0.00000000000E+00 0. -1.
          1    1    1    2  502    0  0.16552619403E+02 -0.14200483862E+02  0.95171449945E+01  0.23795356687E+02  0.00000000000E+00 0. -1.
         22    1    3    3    0    0 -0.79687051796E+02 -0.66508144532E+02  0.28326799412E+02  0.10759073881E+03  0.00000000000E+00 0. -1.
         22    1    3    3    0    0  0.35493706470E+02 -0.49810654852E+01  0.51889044497E+02  0.63064151078E+02  0.00000000000E+00 0. -1.
</event>
<event>
 7    1  0.6078244E-006  0.1261372E+03  0.7818608E-02  0.1349818E+00
          2   -1    0    0  502    0  0.00000000000E+00  0.00000000000E+00  0.69992638976E+03  0.69992638976E+03  0.00000000000E+00 0. -1.
          1   -1    0    0  501    0 -0.00000000000E+00 -0.00000000000E+00 -0.11770793063E+04  0.11770793063E+04  0.00000000000E+00 0. -1.
         25    2    1    2    0    0 -0.10634582761E+03 -0.26825778030E+02  0.88159899887E+02  0.18822103029E+03  0.12500372345E+03 0.  0.
          2    1    1    2  501    0  0.12626957374E+03 -0.10576266031E+02 -0.11226803611E+04  0.11298084155E+04  0.00000000000E+00 0. -1.
          1    1    1    2  502    0 -0.19923746132E+02  0.37402044061E+02  0.55736754462E+03  0.55897625026E+03  0.00000000000E+00 0. -1.
         22    1    3    3    0    0 -0.65358017536E+02 -0.77317051837E+02  0.55236061908E+02  0.11532831177E+03  0.00000000000E+00 0. -1.
         22    1    3    3    0    0 -0.40987810076E+02  0.50491273807E+02  0.32923837979E+02  0.72892718517E+02  0.00000000000E+00 0. -1.
</event>
<event>
 7    1  0.6078244E-006  0.1072452E+03  0.7818608E-02  0.1421351E+00
          2   -1    0    0  502    0  0.00000000000E+00  0.00000000000E+00  0.17605853234E+04  0.17605853234E+04  0.00000000000E+00 0. -1.
          1   -1    0    0  501    0 -0.00000000000E+00 -0.00000000000E+00 -0.11041381713E+03  0.11041381713E+03  0.00000000000E+00 0. -1.
         25    2    1    2    0    0 -0.94186928536E+02  0.53187385797E+02  0.20568257510E+03  0.26387131075E+03  0.12499068534E+03 0.  0.
          2    1    1    2  501    0  0.76957643085E+02 -0.75178228941E+02 -0.45548486178E+02  0.11682854758E+03  0.00000000000E+00 0. -1.
          1    1    1    2  502    0  0.17229285451E+02  0.21990843144E+02  0.14900374173E+04  0.14902992822E+04  0.00000000000E+00 0. -1.
         22    1    3    3    0    0  0.22661756703E+02 -0.17229311757E+02  0.42800801999E+02  0.51403434246E+02  0.00000000000E+00 0.  1.
         22    1    3    3    0    0 -0.11684868524E+03  0.70416697554E+02  0.16288177310E+03  0.21246787650E+03  0.00000000000E+00 0.  1.
</event>
<event>
 7    1  0.6078244E-006  0.1462785E+03  0.7818608E-02  0.1260018E+00
          2   -1    0    0  502    0  0.00000000000E+00  0.00000000000E+00  0.74922445512E+03  0.74922445512E+03  0.00000000000E+00 0. -1.
          1   -1    0    0  501    0 -0.00000000000E+00 -0.00000000000E+00 -0.86662667608E+03  0.86662667608E+03  0.00000000000E+00 0. -1.
         25    2    1    2    0    0  0.61515271608E+02 -0.21835219879E+03  0.17455628466E+03  0.31234015542E+03  0.12499865925E+03 0.  0.
          2    1    1    2  501    0 -0.45575956768E+02  0.13672511467E+03 -0.78773321124E+03  0.80080867685E+03  0.00000000000E+00 0. -1.
          1    1    1    2  502    0 -0.15939314841E+02  0.81627084124E+02  0.49577470562E+03  0.50270229893E+03  0.00000000000E+00 0. -1.
         22    1    3    3    0    0  0.19302314630E+01 -0.14083067188E+03  0.40756134945E+02  0.14662218956E+03  0.00000000000E+00 0.  1.
         22    1    3    3    0    0  0.59585040145E+02 -0.77521526912E+02  0.13380014972E+03  0.16571796586E+03  0.00000000000E+00 0.  1.
</event>
<event>
 7    1  0.6078244E-006  0.5366946E+02  0.7818608E-02  0.1471007E+00
          2   -1    0    0  502    0  0.00000000000E+00  0.00000000000E+00  0.86517495144E+03  0.86517495144E+03  0.00000000000E+00 0. -1.
          1   -1    0    0  501    0 -0.00000000000E+00 -0.00000000000E+00 -0.29904543962E+03  0.29904543962E+03  0.00000000000E+00 0. -1.
         25    2    1    2    0    0 -0.48358316132E+01  0.27370272189E+02 -0.26722577129E+02  0.13081174003E+03  0.12500039254E+03 0.  0.
          2    1    1    2  501    0  0.34180455739E+02  0.18019801464E+02 -0.21767679406E+03  0.22107963152E+03  0.00000000000E+00 0. -1.
          1    1    1    2  502    0 -0.29344624126E+02 -0.45390073653E+02  0.81052888301E+03  0.81232901951E+03  0.00000000000E+00 0. -1.
         22    1    3    3    0    0 -0.44265684256E+02  0.47616444205E+02  0.18393541129E+02  0.67565515736E+02  0.00000000000E+00 0. -1.
         22    1    3    3    0    0  0.39429852642E+02 -0.20246172016E+02 -0.45116118259E+02  0.63246224294E+02  0.00000000000E+00 0. -1.
</event>
<event>
 7    1  0.6078244E-006  0.7165578E+02  0.7818608E-02  0.1490464E+00
          2   -1    0    0  502    0  0.00000000000E+00  0.00000000000E+00  0.45402688072E+03  0.45402688072E+03  0.00000000000E+00 0. -1.
          1   -1    0    0  501    0 -0.00000000000E+00 -0.00000000000E+00 -0.62601539411E+02  0.62601539411E+02  0.00000000000E+00 0. -1.
         25    2    1    2    0    0 -0.64319374060E+02 -0.16592022376E+02  0.23814833628E+03  0.27704242612E+03  0.12500239483E+03 0.  0.
          2    1    1    2  501    0 -0.10075483150E+02  0.23128415985E+02 -0.31459327562E+02  0.40325280871E+02  0.00000000000E+00 0. -1.
          1    1    1    2  502    0  0.74394857209E+02 -0.65363936091E+01  0.18473633259E+03  0.19926071314E+03  0.00000000000E+00 0. -1.
         22    1    3    3    0    0 -0.19098452090E+02 -0.32787894085E+02  0.41568856452E+01  0.38171672337E+02  0.00000000000E+00 0.  1.
         22    1    3    3    0    0 -0.45220921970E+02  0.16195871709E+02  0.23399145064E+03  0.23887075379E+03  0.00000000000E+00 0.  1.
</event>
<event>
 7    1  0.6078244E-006  0.9122071E+02  0.7818608E-02  0.1368838E+00
          2   -1    0    0  502    0  0.00000000000E+00  0.00000000000E+00  0.18758367401E+04  0.18758367401E+04  0.00000000000E+00 0. -1.
          1   -1    0    0  501    0 -0.00000000000E+00 -0.00000000000E+00 -0.95373727903E+02  0.95373727903E+02  0.00000000000E+00 0. -1.
         25    2    1    2    0    0 -0.63708166794E+02 -0.12372201244E+03  0.25667416889E+03  0.31760585555E+03  0.12500393444E+03 0.  0.
          2    1    1    2  501    0  0.22134627827E+02  0.44760919209E+02 -0.53852823993E+02  0.73441189326E+02  0.00000000000E+00 0. -1.
          1    1    1    2  502    0  0.41573538966E+02  0.78961093235E+02  0.15776416673E+04  0.15801634231E+04  0.00000000000E+00 0. -1.
         22    1    3    3    0    0  0.83538915834E+01 -0.15674851141E+02 -0.10432348500E+02  0.20599086341E+02  0.00000000000E+00 0. -1.
         22    1    3    3    0    0 -0.72062058377E+02 -0.10804716130E+03  0.26710651739E+03  0.29700676921E+03  0.00000000000E+00 0. -1.
</event>
<event>
 7    1  0.6078244E-006  0.6282070E+02  0.7818608E-02  0.1424922E+00
          2   -1    0    0  502    0  0.00000000000E+00  0.00000000000E+00  0.79109450044E+03  0.79109450044E+03  0.00000000000E+00 0. -1.
          1   -1    0    0  501    0 -0.00000000000E+00 -0.00000000000E+00 -0.13419632861E+04  0.13419632861E+04  0.00000000000E+00 0. -1.
         25    2    1    2    0    0  0.16696402019E+02 -0.79341895849E+02  0.41215877950E+02  0.15458836578E+03  0.12499963185E+03 0.  0.
          2    1    1    2  501    0  0.24429112228E+02  0.57843000736E+02 -0.12837321769E+04  0.12852668580E+04  0.00000000000E+00 0. -1.
          1    1    1    2  502    0 -0.41125514247E+02  0.21498895113E+02  0.69164751327E+03  0.69320256277E+03  0.00000000000E+00 0. -1.
         22    1    3    3    0    0 -0.35331688506E+02 -0.68935043682E+02  0.60338273295E+02  0.98188979444E+02  0.00000000000E+00 0.  1.
         22    1    3    3    0    0  0.52028090524E+02 -0.10406852168E+02 -0.19122395345E+02  0.56399386339E+02  0.00000000000E+00 0.  1.
</event>
<event>
 7    1  0.6078244E-006  0.1370186E+03  0.7818608E-02  0.1273224E+00
          2   -1    0    0  502    0  0.00000000000E+00  0.00000000000E+00  0.31472047858E+04  0.31472047858E+04  0.00000000000E+00 0. -1.
          1   -1    0    0  501    0 -0.00000000000E+00 -0.00000000000E+00 -0.26217143446E+03  0.26217143446E+03  0.00000000000E+00 0. -1.
         25    2    1    2    0    0  0.17111199687E+03 -0.37460677317E+02  0.11313459840E+04  0.11516246867E+04  0.12495225366E+03 0.  0.
          2    1    1    2  501    0 -0.42576760628E+02  0.65462514129E+02 -0.24376716301E+03  0.25596982451E+03  0.00000000000E+00 0. -1.
          1    1    1    2  502    0 -0.12853523624E+03 -0.28001836813E+02  0.19974545304E+04  0.20017817091E+04  0.00000000000E+00 0. -1.
         22    1    3    3    0    0  0.93868165318E+02  0.34131465521E+02  0.37889124833E+03  0.39183512790E+03  0.00000000000E+00 0. -1.
         22    1    3    3    0    0  0.77243831551E+02 -0.71592142838E+02  0.75245473564E+03  0.75978955877E+03  0.00000000000E+00 0. -1.
</event>
<event>
 7    1  0.6078244E-006  0.1352515E+03  0.7818608E-02  0.1340376E+00
          2   -1    0    0  502    0  0.00000000000E+00  0.00000000000E+00  0.23326572061E+04  0.23326572061E+04  0.00000000000E+00 0. -1.
          1   -1    0    0  501    0 -0.00000000000E+00 -0.00000000000E+00 -0.90218598783E+03  0.90218598783E+03  0.00000000000E+00 0. -1.
         25    2    1    2    0    0 -0.68165493025E+02  0.83424310766E+02  0.35745778557E+03  0.39370946839E+03  0.12499970789E+03 0.  0.
          2    1    1    2  501    0  0.76927050450E+01  0.42167273334E+02 -0.88105642326E+03  0.88209845121E+03  0.00000000000E+00 0. -1.
          1    1    1    2  502    0  0.60472787980E+02 -0.12559158410E+03  0.19540698559E+04  0.19590352743E+04  0.00000000000E+00 0. -1.
         22    1    3    3    0    0 -0.29371326544E+01 -0.18845389587E+02  0.16578485333E+03  0.16687837802E+03  0.00000000000E+00 0. -1.
         22    1    3    3    0    0 -0.65228360370E+02  0.10226970035E+03  0.19167293224E+03  0.22683109037E+03  0.00000000000E+00 0. -1.
</event>
<event>
 7    1  0.6078244E-006  0.7296833E+03  0.7818608E-02  0.1110128E+00
          2   -1    0    0  502    0  0.00000000000E+00  0.00000000000E+00  0.20308630790E+04  0.20308630790E+04  0.00000000000E+00 0. -1.
          1   -1    0    0  501    0 -0.00000000000E+00 -0.00000000000E+00 -0.15713335867E+04  0.15713335867E+04  0.00000000000E+00 0. -1.
         25    2    1    2    0    0 -0.12942320485E+03 -0.75418033936E+03  0.84725296505E+03  0.11484776904E+04  0.12500027285E+03 0.  0.
          2    1    1    2  501    0  0.19937364954E+03  0.69886569558E+03 -0.13255281035E+04  0.15116837849E+04  0.00000000000E+00 0. -1.
          1    1    1    2  502    0 -0.69950444697E+02  0.55314643779E+02  0.93780463072E+03  0.94203519039E+03  0.00000000000E+00 0. -1.
         22    1    3    3    0    0 -0.15198044227E+03 -0.69902135188E+03  0.79159112588E+03  0.10669327138E+04  0.00000000000E+00 0. -1.
         22    1    3    3    0    0  0.22557237418E+02 -0.55158987480E+02  0.55661839176E+02  0.81544976548E+02  0.00000000000E+00 0. -1.
</event>
<event>
 7    1  0.6078244E-006  0.5941883E+02  0.7818608E-02  0.1411173E+00
          2   -1    0    0  502    0  0.00000000000E+00  0.00000000000E+00  0.47173329658E+03  0.47173329658E+03  0.00000000000E+00 0. -1.
          1   -1    0    0  501    0 -0.00000000000E+00 -0.00000000000E+00 -0.60949714550E+03  0.60949714550E+03  0.00000000000E+00 0. -1.
         25    2    1    2    0    0 -0.66488327954E+02  0.26694065824E+02 -0.33564183031E+03  0.36525851850E+03  0.12500030470E+03 0.  0.
          2    1    1    2  501    0  0.21261064054E+02 -0.57194876169E+02 -0.25378964924E+03  0.26102197756E+03  0.00000000000E+00 0. -1.
          1    1    1    2  502    0  0.45227263899E+02  0.30500810345E+02  0.45166763063E+03  0.45494994603E+03  0.00000000000E+00 0. -1.
         22    1    3    3    0    0 -0.44394996061E+02 -0.61699066779E+01 -0.31928123568E+03  0.32241198935E+03  0.00000000000E+00 0.  1.
         22    1    3    3    0    0 -0.22093331892E+02  0.32863972502E+02 -0.16360594635E+02  0.42846529142E+02  0.00000000000E+00 0.  1.
</event>
<event>
 7    1  0.6078244E-006  0.9418670E+02  0.7818608E-02  0.1340342E+00
          2   -1    0    0  502    0  0.00000000000E+00  0.00000000000E+00  0.72904806636E+02  0.72904806636E+02  0.00000000000E+00 0. -1.
          1   -1    0    0  501    0 -0.00000000000E+00 -0.00000000000E+00 -0.18915139545E+04  0.18915139545E+04  0.00000000000E+00 0. -1.
         25    2    1    2    0    0 -0.10404676256E+03 -0.62324484262E+02 -0.58248046272E+03  0.60796295627E+03  0.12500158643E+03 0.  0.
          2    1    1    2  501    0  0.58481885092E+02 -0.19253410160E+02 -0.12587996231E+04  0.12603044536E+04  0.00000000000E+00 0. -1.
          1    1    1    2  502    0  0.45564877472E+02  0.81577894422E+02  0.22670937964E+02  0.96151351241E+02  0.00000000000E+00 0. -1.
         22    1    3    3    0    0  0.22288363682E+02  0.41478489048E+01 -0.31633408962E+02  0.38918483639E+02  0.00000000000E+00 0. -1.
         22    1    3    3    0    0 -0.12633512625E+03 -0.66472333166E+02 -0.55084705376E+03  0.56904447263E+03  0.00000000000E+00 0. -1.
</event>
<event>
 7    1  0.6078244E-006  0.8641221E+02  0.7818608E-02  0.1445496E+00
          2   -1    0    0  502    0  0.00000000000E+00  0.00000000000E+00  0.16138569893E+04  0.16138569893E+04  0.00000000000E+00 0. -1.
          1   -1    0    0  501    0 -0.00000000000E+00 -0.00000000000E+00 -0.35844830556E+02  0.35844830556E+02  0.00000000000E+00 0. -1.
         25    2    1    2    0    0 -0.29539862489E+02  0.60529189371E+02  0.26160837504E+03  0.29765728140E+03  0.12499811613E+03 0.  0.
          2    1    1    2  501    0 -0.28266079534E+02  0.60101628291E+01 -0.35820475970E+01  0.29119141032E+02  0.00000000000E+00 0. -1.
          1    1    1    2  502    0  0.57805942023E+02 -0.66539352200E+02  0.13199858313E+04  0.13229253975E+04  0.00000000000E+00 0. -1.
         22    1    3    3    0    0 -0.26252764929E+02 -0.32296160800E+02  0.13053706788E+03  0.13701158987E+03  0.00000000000E+00 0.  1.
         22    1    3    3    0    0 -0.32870975605E+01  0.92825350171E+02  0.13107130717E+03  0.16064569153E+03  0.00000000000E+00 0.  1.
</event>
<event>
 7    1  0.6078244E-006  0.1281794E+03  0.7818608E-02  0.1431179E+00
          2   -1    0    0  502    0  0.00000000000E+00  0.00000000000E+00  0.37746968715E+03  0.37746968715E+03  0.00000000000E+00 0. -1.
          1   -1    0    0  501    0 -0.00000000000E+00 -0.00000000000E+00 -0.19365832025E+04  0.19365832025E+04  0.00000000000E+00 0. -1.
         25    2    1    2    0    0  0.99629388002E+02  0.41544216276E+02 -0.48403572910E+03  0.51143789734E+03  0.12500479560E+03 0.  0.
          2    1    1    2  501    0  0.16213690328E+02  0.14402793812E+02 -0.14273876696E+04  0.14275524101E+04  0.00000000000E+00 0. -1.
          1    1    1    2  502    0 -0.11584307833E+03 -0.55947010088E+02  0.35230988332E+03  0.37506258227E+03  0.00000000000E+00 0. -1.
         22    1    3    3    0    0  0.32229101029E+02  0.41375988756E+02 -0.40134845859E+03  0.40476075972E+03  0.00000000000E+00 0. -1.
         22    1    3    3    0    0  0.67400286973E+02  0.16822751934E+00 -0.82687270515E+02  0.10667713762E+03  0.00000000000E+00 0. -1.
</event>
<event>
 7    1  0.6078244E-006  0.7385874E+02  0.7818608E-02  0.1383943E+00
          2   -1    0    0  502    0  0.00000000000E+00  0.00000000000E+00  0.73716965130E+02  0.73716965130E+02  0.00000000000E+00 0. -1.
          1   -1    0    0  501    0 -0.00000000000E+00 -0.00000000000E+00 -0.83254915076E+03  0.83254915076E+03  0.00000000000E+00 0. -1.
         25    2    1    2    0    0 -0.47235401612E+02  0.13156984367E+02 -0.33559391545E+03  0.36145923831E+03  0.12500086188E+03 0.  0.
          2    1    1    2  501    0  0.77076344537E+02  0.32433922023E+02 -0.46730569937E+03  0.47472870026E+03  0.00000000000E+00 0. -1.
          1    1    1    2  502    0 -0.29840942925E+02 -0.45590906390E+02  0.44067429194E+02  0.70078177316E+02  0.00000000000E+00 0. -1.
         22    1    3    3    0    0 -0.53728386478E+02  0.36690942346E+02 -0.73210614303E+02  0.97942630199E+02  0.00000000000E+00 0. -1.
         22    1    3    3    0    0  0.64929848660E+01 -0.23533957979E+02 -0.26238330115E+03  0.26351660811E+03  0.00000000000E+00 0. -1.
</event>
<event>
 7    1  0.6078244E-006  0.9551054E+02  0.7818608E-02  0.1416099E+00
          2   -1    0    0  502    0  0.00000000000E+00  0.00000000000E+00  0.32645412818E+04  0.32645412818E+04  0.00000000000E+00 0. -1.
          1   -1    0    0  501    0 -0.00000000000E+00 -0.00000000000E+00 -0.44070372013E+03  0.44070372013E+03  0.00000000000E+00 0. -1.
         25    2    1    2    0    0 -0.76682119670E+01  0.72840957820E+02  0.95822204705E+03  0.96911191238E+03  0.12499520251E+03 0.  0.
          2    1    1    2  501    0 -0.17129325620E+02 -0.94101712222E+02 -0.42988653251E+03  0.44039865676E+03  0.00000000000E+00 0. -1.
          1    1    1    2  502    0  0.24797537587E+02  0.21260754402E+02  0.22955020471E+04  0.22957344328E+04  0.00000000000E+00 0. -1.
         22    1    3    3    0    0 -0.23516052158E+02 -0.31512610113E+02  0.26322544850E+03  0.26614598634E+03  0.00000000000E+00 0.  1.
         22    1    3    3    0    0  0.15847840191E+02  0.10435356793E+03  0.69499659855E+03  0.70296592604E+03  0.00000000000E+00 0.  1.
</event>
<event>
 7    1  0.6078244E-006  0.1140611E+03  0.7818608E-02  0.1407481E+00
          2   -1    0    0  502    0  0.00000000000E+00  0.00000000000E+00  0.12127807929E+04  0.12127807929E+04  0.00000000000E+00 0. -1.
          1   -1    0    0  501    0 -0.00000000000E+00 -0.00000000000E+00 -0.10867315798E+03  0.10867315798E+03  0.00000000000E+00 0. -1.
         25    2    1    2    0    0  0.82138527553E+02  0.36985022407E+02  0.72277639321E+03  0.73901638555E+03  0.12499949577E+03 0.  0.
          2    1    1    2  501    0 -0.11084113105E+03 -0.31357549105E+02 -0.66929283136E+02  0.13322380102E+03  0.00000000000E+00 0. -1.
          1    1    1    2  502    0  0.28702603494E+02 -0.56274733020E+01  0.44826052487E+03  0.44921376432E+03  0.00000000000E+00 0. -1.
         22    1    3    3    0    0 -0.22851651200E+02  0.14320760123E+02  0.42649442482E+02  0.50460450623E+02  0.00000000000E+00 0.  1.
         22    1    3    3    0    0  0.10499017875E+03  0.22664262285E+02  0.68012695073E+03  0.68855593493E+03  0.00000000000E+00 0.  1.
</event>
<event>
 7    1  0.6078244E-006  0.4491083E+02  0.7818608E-02  0.1513723E+00
          2   -1    0    0  502    0  0.00000000000E+00  0.00000000000E+00  0.27205679420E+04  0.27205679420E+04  0.00000000000E+00 0. -1.
          1   -1    0    0  501    0 -0.00000000000E+00 -0.00000000000E+00 -0.44818410242E+02  0.44818410242E+02  0.00000000000E+00 0. -1.
         25    2    1    2    0    0 -0.33763221273E-01  0.13824045439E+02  0.99962470615E+03  0.10075032950E+04  0.12498892316E+03 0.  0.
          2    1    1    2  501    0 -0.23638418164E+02 -0.38675479616E+02 -0.28088100460E+02  0.53324562111E+02  0.00000000000E+00 0. -1.
          1    1    1    2  502    0  0.23672181385E+02  0.24851434177E+02  0.17042129261E+04  0.17045584952E+04  0.00000000000E+00 0. -1.
         22    1    3    3    0    0  0.29098074347E+02  0.62029015750E+02  0.48763315319E+03  0.49242297754E+03  0.00000000000E+00 0.  1.
         22    1    3    3    0    0 -0.29131837568E+02 -0.48204970311E+02  0.51199155296E+03  0.51508031745E+03  0.00000000000E+00 0.  1.
</event>
<event>
 7    1  0.6078244E-006  0.9058561E+02  0.7818608E-02  0.1417197E+00
          2   -1    0    0  502    0  0.00000000000E+00  0.00000000000E+00  0.32622210677E+04  0.32622210677E+04  0.00000000000E+00 0. -1.
          1   -1    0    0  501    0 -0.00000000000E+00 -0.00000000000E+00 -0.61328783188E+02  0.61328783188E+02  0.00000000000E+00 0. -1.
         25    2    1    2    0    0 -0.98370963935E+02  0.24077908513E+02  0.69824187841E+03  0.71653490835E+03  0.12499584753E+03 0.  0.
          2    1    1    2  501    0  0.87015903136E+01 -0.33021819699E+02 -0.45712333647E+02  0.57059404989E+02  0.00000000000E+00 0. -1.
          1    1    1    2  502    0  0.89669373621E+02  0.89439111862E+01  0.25483627397E+04  0.25499555375E+04  0.00000000000E+00 0. -1.
         22    1    3    3    0    0 -0.11539639906E+03  0.51383800036E+02  0.60014890047E+03  0.61329872538E+03  0.00000000000E+00 0.  1.
         22    1    3    3    0    0  0.17025435124E+02 -0.27305891523E+02  0.98092977943E+02  0.10323618297E+03  0.00000000000E+00 0.  1.
</event>
<event>
 7    1  0.6078244E-006  0.4809509E+02  0.7818608E-02  0.1511364E+00
          2   -1    0    0  502    0  0.00000000000E+00  0.00000000000E+00  0.49653963996E+03  0.49653963996E+03  0.00000000000E+00 0. -1.
          1   -1    0    0  501    0 -0.00000000000E+00 -0.00000000000E+00 -0.16335237937E+04  0.16335237937E+04  0.00000000000E+00 0. -1.
         25    2    1    2    0    0 -0.59749312860E+02  0.47185776450E+02 -0.26971917788E+02  0.14881857642E+03  0.12499202556E+03 0.  0.
          2    1    1    2  501    0  0.31338524201E+02 -0.88491280828E+01 -0.15441496731E+04  0.15444929987E+04  0.00000000000E+00 0. -1.
          1    1    1    2  502    0  0.28410788659E+02 -0.38336648367E+02  0.43413743718E+03  0.43675185848E+03  0.00000000000E+00 0. -1.
         22    1    3    3    0    0 -0.83128139841E+02  0.10548458022E+02  0.18611511679E+02  0.85836740194E+02  0.00000000000E+00 0. -1.
         22    1    3    3    0    0  0.23378826981E+02  0.36637318428E+02 -0.45583429467E+02  0.62981836227E+02  0.00000000000E+00 0. -1.
</event>
<event>
 7    1  0.6078244E-006  0.1031490E+03  0.7818608E-02  0.1433945E+00
          2   -1    0    0  502    0  0.00000000000E+00  0.00000000000E+00  0.88717109278E+03  0.88717109278E+03  0.00000000000E+00 0. -1.
          1   -1    0    0  501    0 -0.00000000000E+00 -0.00000000000E+00 -0.43831474155E+02  0.43831474155E+02  0.00000000000E+00 0. -1.
         25    2    1    2    0    0  0.42725836165E+02 -0.70189646314E+02  0.17472306400E+03  0.23001200283E+03  0.12500115530E+03 0.  0.
          2    1    1    2  501    0  0.21654834039E+01 -0.26303574255E+02  0.25950930894E+01  0.26519838708E+02  0.00000000000E+00 0. -1.
          1    1    1    2  502    0 -0.44891319569E+02  0.96493220569E+02  0.66602146154E+03  0.67447072540E+03  0.00000000000E+00 0. -1.
         22    1    3    3    0    0  0.68499260335E+02  0.23617248437E+01  0.10911984716E+03  0.12885987527E+03  0.00000000000E+00 0. -1.
         22    1    3    3    0    0 -0.25773424170E+02 -0.72551371158E+02  0.65603216838E+02  0.10115212756E+03  0.00000000000E+00 0. -1.
</event>
<event>
 7    1  0.6078244E-006  0.7375837E+02  0.7818608E-02  0.1445021E+00
          2   -1    0    0  502    0  0.00000000000E+00  0.00000000000E+00  0.13667985943E+04  0.13667985943E+04  0.00000000000E+00 0. -1.
          1   -1    0    0  501    0 -0.00000000000E+00 -0.00000000000E+00 -0.19671391336E+03  0.19671391336E+03  0.00000000000E+00 0. -1.
         25    2    1    2    0    0  0.88286797814E+01  0.90638643435E+02  0.27554212299E+03  0.31597837133E+03  0.12500224134E+03 0.  0.
          2    1    1    2  501    0 -0.32229024425E+02 -0.66006596468E+02 -0.16856999433E+03  0.18387882907E+03  0.00000000000E+00 0. -1.
          1    1    1    2  502    0  0.23400344644E+02 -0.24632046967E+02  0.10631125523E+04  0.10636553073E+04  0.00000000000E+00 0. -1.
         22    1    3    3    0    0  0.82593841790E+01  0.93780198305E+02  0.89461406920E+02  0.12987026738E+03  0.00000000000E+00 0. -1.
         22    1    3    3    0    0  0.56929560244E+00 -0.31415548703E+01  0.18608071607E+03  0.18610810395E+03  0.00000000000E+00 0. -1.
</event>
<event>
 7    1  0.6078244E-006  0.1364794E+03  0.7818608E-02  0.1286982E+00
          2   -1    0    0  502    0  0.00000000000E+00  0.00000000000E+00  0.14776618846E+04  0.14776618846E+04  0.00000000000E+00 0. -1.
          1   -1    0    0  501    0 -0.00000000000E+00 -0.00000000000E+00 -0.73740378851E+03  0.73740378851E+03  0.00000000000E+00 0. -1.
         25    2    1    2    0    0 -0.11354375955E+03 -0.16458980579E+03 -0.66613253388E+02  0.24503970772E+03  0.12500057332E+03 0.  0.
          2    1    1    2  501    0  0.75916691845E+02  0.10701434156E+03 -0.57330971067E+03  0.58813216010E+03  0.00000000000E+00 0. -1.
          1    1    1    2  502    0  0.37627067704E+02  0.57575464230E+02  0.13801810602E+04  0.13818938053E+04  0.00000000000E+00 0. -1.
         22    1    3    3    0    0 -0.13360244789E+03 -0.16837137672E+03 -0.56399244812E+02  0.22221478213E+03  0.00000000000E+00 0.  1.
         22    1    3    3    0    0  0.20058688345E+02  0.37815709341E+01 -0.10214008576E+02  0.22824925586E+02  0.00000000000E+00 0.  1.
</event>
<event>
 7    1  0.6078244E-006  0.1368780E+03  0.7818608E-02  0.1325635E+00
          2   -1    0    0  502    0  0.00000000000E+00  0.00000000000E+00  0.27791943906E+03  0.27791943906E+03  0.00000000000E+00 0. -1.
          1   -1    0    0  501    0 -0.00000000000E+00 -0.00000000000E+00 -0.49219007433E+03  0.49219007433E+03  0.00000000000E+00 0. -1.
         25    2    1    2    0    0 -0.42810035244E+02  0.97856050148E+02 -0.95700415031E+02  0.19024309279E+03  0.12500143699E+03 0.  0.
          2    1    1    2  501    0  0.30144837441E+02 -0.14435146374E+03 -0.33082853714E+03  0.36220653955E+03  0.00000000000E+00 0. -1.
          1    1    1    2  502    0  0.12665197803E+02  0.46495413596E+02  0.21225831690E+03  0.21765988104E+03  0.00000000000E+00 0. -1.
         22    1    3    3    0    0 -0.77427195067E+02  0.98472806912E+02 -0.55002935656E+02  0.13681077139E+03  0.00000000000E+00 0. -1.
         22    1    3    3    0    0  0.34617159823E+02 -0.61675676407E+00 -0.40697479375E+02  0.53432321404E+02  0.00000000000E+00 0. -1.
</event>
<event>
 7    1  0.6078244E-006  0.9244967E+02  0.7818608E-02  0.1326644E+00
          2   -1    0    0  502    0  0.00000000000E+00  0.00000000000E+00  0.81136150259E+02  0.81136150259E+02  0.00000000000E+00 0. -1.
          1   -1    0    0  501    0 -0.00000000000E+00 -0.00000000000E+00 -0.69308382224E+03  0.69308382224E+03  0.00000000000E+00 0. -1.
         25    2    1    2    0    0  0.10053899511E+01  0.53897864883E+02 -0.23691399294E+03  0.27323883837E+03  0.12500092837E+03 0.  0.
          2    1    1    2  501    0  0.67803440716E+02  0.20076868027E+02 -0.39218264535E+03  0.39850673083E+03  0.00000000000E+00 0. -1.
          1    1    1    2  502    0 -0.68808830667E+02 -0.73974732910E+02  0.17148966309E+02  0.10247440330E+03  0.00000000000E+00 0. -1.
         22    1    3    3    0    0 -0.39859576246E+02  0.28892983181E+02 -0.23569148423E+02  0.54581086953E+02  0.00000000000E+00 0.  1.
         22    1    3    3    0    0  0.40864966197E+02  0.25004881703E+02 -0.21334484452E+03  0.21865775142E+03  0.00000000000E+00 0.  1.
</event>
<event>
 7    1  0.6078244E-006  0.1273733E+03  0.7818608E-02  0.1239238E+00
          2   -1    0    0  502    0  0.00000000000E+00  0.00000000000E+00  0.18443873850E+04  0.18443873850E+04  0.00000000000E+00 0. -1.
          1   -1    0    0  501    0 -0.00000000000E+00 -0.00000000000E+00 -0.22451514957E+04  0.22451514957E+04  0.00000000000E+00 0. -1.
         25    2    1    2    0    0  0.17628225163E+02 -0.11603612186E+03 -0.19307307630E+03  0.25821901159E+03  0.12499883703E+03 0.  0.
          2    1    1    2  501    0  0.96726820926E+02  0.88762616820E+02 -0.20154605750E+04  0.20197317172E+04  0.00000000000E+00 0. -1.
          1    1    1    2  502    0 -0.11435504609E+03  0.27273505040E+02  0.18077695405E+04  0.18115881520E+04  0.00000000000E+00 0. -1.
         22    1    3    3    0    0  0.50542685329E+02 -0.92521170604E+02 -0.64869749194E+02  0.12378535620E+03  0.00000000000E+00 0. -1.
         22    1    3    3    0    0 -0.32914460166E+02 -0.23514951256E+02 -0.12820332710E+03  0.13443365539E+03  0.00000000000E+00 0. -1.
</event>
<event>
 7    1  0.6078244E-006  0.1064529E+03  0.7818608E-02  0.1438118E+00
          2   -1    0    0  502    0  0.00000000000E+00  0.00000000000E+00  0.19009624979E+03  0.19009624979E+03  0.00000000000E+00 0. -1.
          1   -1    0    0  501    0 -0.00000000000E+00 -0.00000000000E+00 -0.70542165178E+03  0.70542165178E+03  0.00000000000E+00 0. -1.
         25    2    1    2    0    0 -0.98787126490E+02 -0.72352387138E+01 -0.18877160190E+03  0.24712490826E+03  0.12499903023E+03 0.  0.
          2    1    1    2  501    0  0.10721030234E+03 -0.16073179800E+02 -0.48044245038E+03  0.49252141493E+03  0.00000000000E+00 0. -1.
          1    1    1    2  502    0 -0.84231758547E+01  0.23308418514E+02  0.15388865028E+03  0.15587157839E+03  0.00000000000E+00 0. -1.
         22    1    3    3    0    0 -0.11469868804E+03  0.17171529550E+02 -0.18414631750E+03  0.21762471531E+03  0.00000000000E+00 0. -1.
         22    1    3    3    0    0  0.15911561550E+02 -0.24406768264E+02 -0.46252843958E+01  0.29500192944E+02  0.00000000000E+00 0. -1.
</event>
<event>
 7    1  0.6078244E-006  0.1290337E+03  0.7818608E-02  0.1343523E+00
          2   -1    0    0  502    0  0.00000000000E+00  0.00000000000E+00  0.86981504220E+02  0.86981504220E+02  0.00000000000E+00 0. -1.
          1   -1    0    0  501    0 -0.00000000000E+00 -0.00000000000E+00 -0.15987971259E+04  0.15987971259E+04  0.00000000000E+00 0. -1.
         25    2    1    2    0    0 -0.52444931499E+02 -0.76144125139E+02 -0.70236985866E+03  0.71937268162E+03  0.12500095224E+03 0.  0.
          2    1    1    2  501    0 -0.30911147840E+01 -0.43614639159E+02 -0.83142985949E+03  0.83257876683E+03  0.00000000000E+00 0. -1.
          1    1    1    2  502    0  0.55536046283E+02  0.11975876430E+03  0.21984096448E+02  0.13382718169E+03  0.00000000000E+00 0. -1.
         22    1    3    3    0    0 -0.58198648171E+02 -0.89894869090E+02 -0.69412722607E+03  0.70233950203E+03  0.00000000000E+00 0. -1.
         22    1    3    3    0    0  0.57537166722E+01  0.13750743952E+02 -0.82426325949E+01  0.17033179588E+02  0.00000000000E+00 0. -1.
</event>
<event>
 7    1  0.6078244E-006  0.1705104E+03  0.7818608E-02  0.1239576E+00
          2   -1    0    0  502    0  0.00000000000E+00  0.00000000000E+00  0.24979287584E+04  0.24979287584E+04  0.00000000000E+00 0. -1.
          1   -1    0    0  501    0 -0.00000000000E+00 -0.00000000000E+00 -0.22958836898E+04  0.22958836898E+04  0.00000000000E+00 0. -1.
         25    2    1    2    0    0  0.11383514861E+03 -0.12191060328E+03  0.93844261903E+03  0.96131132159E+03  0.12499708614E+03 0.  0.
          2    1    1    2  501    0  0.56455184329E+02  0.66876734796E+02 -0.22784341541E+04  0.22801144445E+04  0.00000000000E+00 0. -1.
          1    1    1    2  502    0 -0.17029033294E+03  0.55033868481E+02  0.15420366036E+04  0.15523866822E+04  0.00000000000E+00 0. -1.
         22    1    3    3    0    0  0.19329982315E+02 -0.80193092302E+02  0.21067993177E+03  0.22625342853E+03  0.00000000000E+00 0.  1.
         22    1    3    3    0    0  0.94505166294E+02 -0.41717510975E+02  0.72776268726E+03  0.73505789306E+03  0.00000000000E+00 0.  1.
</event>
<event>
 7    1  0.6078244E-006  0.3952882E+03  0.7818608E-02  0.1223353E+00
          2   -1    0    0  502    0  0.00000000000E+00  0.00000000000E+00  0.71982193231E+03  0.71982193231E+03  0.00000000000E+00 0. -1.
          1   -1    0    0  501    0 -0.00000000000E+00 -0.00000000000E+00 -0.14332513541E+04  0.14332513541E+04  0.00000000000E+00 0. -1.
         25    2    1    2    0    0  0.87483939713E+02 -0.41210000068E+03 -0.30207376055E+03  0.53324836779E+03  0.12500165867E+03 0.  0.
          2    1    1    2  501    0 -0.37773548264E+02  0.23746957268E+02 -0.95158977060E+03  0.95263521373E+03  0.00000000000E+00 0. -1.
          1    1    1    2  502    0 -0.49710391448E+02  0.38835304341E+03  0.54023410938E+03  0.66718970487E+03  0.00000000000E+00 0. -1.
         22    1    3    3    0    0  0.97199621422E+02 -0.35848552674E+03 -0.21115946795E+03  0.42725631674E+03  0.00000000000E+00 0.  1.
         22    1    3    3    0    0 -0.97156817095E+01 -0.53614473937E+02 -0.90914292603E+02  0.10599205105E+03  0.00000000000E+00 0.  1.
</event>
<event>
 7    1  0.6078244E-006  0.2109872E+03  0.7818608E-02  0.1177328E+00
          2   -1    0    0  502    0  0.00000000000E+00  0.00000000000E+00  0.11024653760E+04  0.11024653760E+04  0.00000000000E+00 0. -1.
          1   -1    0    0  501    0 -0.00000000000E+00 -0.00000000000E+00 -0.19989096336E+04  0.19989096336E+04  0.00000000000E+00 0. -1.
         25    2    1    2    0    0  0.26240109348E+03 -0.19184467951E+03 -0.25885850839E+02  0.34921990467E+03  0.12500299845E+03 0.  0.
          2    1    1    2  501    0 -0.12761664655E+03  0.16326350968E+03 -0.18003368157E+04  0.18122233946E+04  0.00000000000E+00 0. -1.
          1    1    1    2  502    0 -0.13478444693E+03  0.28581169833E+02  0.92977840892E+03  0.93993171033E+03  0.00000000000E+00 0. -1.
         22    1    3    3    0    0  0.58179038747E+02 -0.10660297217E+03  0.20363170794E+02  0.12314078508E+03  0.00000000000E+00 0. -1.
         22    1    3    3    0    0  0.20422205474E+03 -0.85241707344E+02 -0.46249021633E+02  0.22607911959E+03  0.00000000000E+00 0. -1.
</event>
<event>
 7    1  0.6078244E-006  0.1306480E+03  0.7818608E-02  0.1281269E+00
          2   -1    0    0  502    0  0.00000000000E+00  0.00000000000E+00  0.71446366699E+03  0.71446366699E+03  0.00000000000E+00 0. -1.
          1   -1    0    0  501    0 -0.00000000000E+00 -0.00000000000E+00 -0.14775139882E+03  0.14775139882E+03  0.00000000000E+00 0. -1.
         25    2    1    2    0    0  0.94576694974E+02 -0.16878347145E+01  0.36084818732E+02  0.16085682846E+03  0.12500082040E+03 0.  0.
          2    1    1    2  501    0 -0.15428730169E+03  0.48441465971E+02 -0.36213613805E+01  0.16175370582E+03  0.00000000000E+00 0. -1.
          1    1    1    2  502    0  0.59710606712E+02 -0.46753631256E+02  0.53424881081E+03  0.53960453153E+03  0.00000000000E+00 0. -1.
         22    1    3    3    0    0  0.73683953551E+02 -0.58722387092E+02  0.99949901116E+01  0.94749900179E+02  0.00000000000E+00 0. -1.
         22    1    3    3    0    0  0.20892741423E+02  0.57034552377E+02  0.26089828621E+02  0.66106928279E+02  0.00000000000E+00 0. -1.
</event>
<event>
 7    1  0.6078244E-006  0.7191030E+02  0.7818608E-02  0.1372559E+00
          2   -1    0    0  502    0  0.00000000000E+00  0.00000000000E+00  0.93388520112E+03  0.93388520112E+03  0.00000000000E+00 0. -1.
          1   -1    0    0  501    0 -0.00000000000E+00 -0.00000000000E+00 -0.13322980657E+04  0.13322980657E+04  0.00000000000E+00 0. -1.
         25    2    1    2    0    0 -0.68865830950E+02 -0.16967358489E+02  0.41660061311E+03  0.44069493587E+03  0.12500224689E+03 0.  0.
          2    1    1    2  501    0  0.33433860416E+02 -0.51527918493E+02 -0.13165880022E+04  0.13180200746E+04  0.00000000000E+00 0. -1.
          1    1    1    2  502    0  0.35431970535E+02  0.68495276982E+02  0.50157452456E+03  0.50746825634E+03  0.00000000000E+00 0. -1.
         22    1    3    3    0    0 -0.87059022580E+02 -0.36702605153E+01  0.40696124772E+03  0.41618529692E+03  0.00000000000E+00 0.  1.
         22    1    3    3    0    0  0.18193191629E+02 -0.13297097973E+02  0.96393653880E+01  0.24509638946E+02  0.00000000000E+00 0.  1.
</event>
<event>
 7    1  0.6078244E-006  0.1632799E+03  0.7818608E-02  0.1263319E+00
          2   -1    0    0  502    0  0.00000000000E+00  0.00000000000E+00  0.14233777725E+04  0.14233777725E+04  0.00000000000E+00 0. -1.
          1   -1    0    0  501    0 -0.00000000000E+00 -0.00000000000E+00 -0.24129808786E+03  0.24129808786E+03  0.00000000000E+00 0. -1.
         25    2    1    2    0    0 -0.79735960756E+02  0.51067199856E+02  0.57808981462E+03  0.59898093126E+03  0.12499855964E+03 0.  0.
          2    1    1    2  501    0  0.13977001851E+03 -0.91062119865E+02 -0.19888678997E+03  0.25958413467E+03  0.00000000000E+00 0. -1.
          1    1    1    2  502    0 -0.60034057750E+02  0.39994920009E+02  0.80287665997E+03  0.80611079440E+03  0.00000000000E+00 0. -1.
         22    1    3    3    0    0 -0.78677988362E+02 -0.12152360937E+02  0.19364273350E+03  0.20936908551E+03  0.00000000000E+00 0.  1.
         22    1    3    3    0    0 -0.10579723939E+01  0.63219560793E+02  0.38444708112E+03  0.38961184576E+03  0.00000000000E+00 0.  1.
</event>
<event>
 7    1  0.6078244E-006  0.2994417E+02  0.7818608E-02  0.1619822E+00
          2   -1    0    0  502    0  0.00000000000E+00  0.00000000000E+00  0.50587336088E+02  0.50587336088E+02  0.00000000000E+00 0. -1.
          1   -1    0    0  501    0 -0.00000000000E+00 -0.00000000000E+00 -0.35604871140E+03  0.35604871140E+03  0.00000000000E+00 0. -1.
         25    2    1    2    0    0 -0.19267650423E+02  0.27245528485E+02 -0.15419991481E+03  0.20128536564E+03  0.12499849406E+03 0.  0.
          2    1    1    2  501    0 -0.70442063374E+01 -0.29535018454E+02 -0.17017696219E+03  0.17286450364E+03  0.00000000000E+00 0. -1.
          1    1    1    2  502    0  0.26311856761E+02  0.22894899687E+01  0.18915501689E+02  0.32486178209E+02  0.00000000000E+00 0. -1.
         22    1    3    3    0    0 -0.15414909642E+02 -0.44406605226E+02 -0.10274657516E+03  0.11298860444E+03  0.00000000000E+00 0.  1.
         22    1    3    3    0    0 -0.38527407814E+01  0.71652133710E+02 -0.51453339654E+02  0.88296761200E+02  0.00000000000E+00 0.  1.
</event>
<event>
 7    1  0.6078244E-006  0.2841717E+03  0.7818608E-02  0.1294717E+00
          2   -1    0    0  502    0  0.00000000000E+00  0.00000000000E+00  0.51309814386E+03  0.51309814386E+03  0.00000000000E+00 0. -1.
          1   -1    0    0  501    0 -0.00000000000E+00 -0.00000000000E+00 -0.33545920868E+03  0.33545920868E+03  0.00000000000E+00 0. -1.
         25    2    1    2    0    0  0.17692324216E+03 -0.24944154599E+03  0.10063261525E+03  0.34535965770E+03  0.12499380560E+03 0.  0.
          2    1    1    2  501    0 -0.15549987438E+03  0.22741331716E+03 -0.12238324669E+03  0.30145428646E+03  0.00000000000E+00 0. -1.
          1    1    1    2  502    0 -0.21423367772E+02  0.22028228827E+02  0.19938956661E+03  0.20174340838E+03  0.00000000000E+00 0. -1.
         22    1    3    3    0    0  0.94531435529E+02 -0.12365555757E+03 -0.14002357012E+02  0.15627845412E+03  0.00000000000E+00 0.  1.
         22    1    3    3    0    0  0.82391806627E+02 -0.12578598842E+03  0.11463497227E+03  0.18908120358E+03  0.00000000000E+00 0.  1.
</event>
<event>
 7    1  0.6078244E-006  0.1092095E+03  0.7818608E-02  0.1307538E+00
          2   -1    0    0  502    0  0.00000000000E+00  0.00000000000E+00  0.74495965332E+03  0.74495965332E+03  0.00000000000E+00 0. -1.
          1   -1    0    0  501    0 -0.00000000000E+00 -0.00000000000E+00 -0.17861000689E+03  0.17861000689E+03  0.00000000000E+00 0. -1.
         25    2    1    2    0    0  0.38773372791E+02 -0.44310267372E+02  0.80672276613E+02  0.15999862975E+03  0.12499908430E+03 0.  0.
          2    1    1    2  501    0 -0.10931570979E+03  0.52859934797E+02 -0.10989703534E+03  0.16377257246E+03  0.00000000000E+00 0. -1.
          1    1    1    2  502    0  0.70542337000E+02 -0.85496674253E+01  0.59557440516E+03  0.59979845799E+03  0.00000000000E+00 0. -1.
         22    1    3    3    0    0  0.32629572093E+02 -0.63962781201E+02  0.10557911615E+03  0.12768271661E+03  0.00000000000E+00 0.  1.
         22    1    3    3    0    0  0.61438006978E+01  0.19652513829E+02 -0.24906839534E+02  0.32315913145E+02  0.00000000000E+00 0.  1.
</event>
<event>
 7    1  0.6078244E-006  0.8335630E+02  0.7818608E-02  0.1395115E+00
          2   -1    0    0  502    0  0.00000000000E+00  0.00000000000E+00  0.21271171020E+04  0.21271171020E+04  0.00000000000E+00 0. -1.
          1   -1    0    0  501    0 -0.00000000000E+00 -0.00000000000E+00 -0.10340570668E+03  0.10340570668E+03  0.00000000000E+00 0. -1.
         25    2    1    2    0    0  0.36889876326E+00 -0.42924311713E+02  0.22628512049E+02  0.13408953764E+03  0.12500128770E+03 0.  0.
          2    1    1    2  501    0 -0.22021121069E+02 -0.38245501446E+02 -0.36407659881E+02  0.57211588442E+02  0.00000000000E+00 0. -1.
          1    1    1    2  502    0  0.21652222306E+02  0.81169813159E+02  0.20374905431E+04  0.20392216826E+04  0.00000000000E+00 0. -1.
         22    1    3    3    0    0 -0.24538379395E+02  0.38292705575E+02 -0.23556648875E+01  0.45541327612E+02  0.00000000000E+00 0. -1.
         22    1    3    3    0    0  0.24907278159E+02 -0.81217017289E+02  0.24984176936E+02  0.88548210031E+02  0.00000000000E+00 0. -1.
</event>
<event>
 7    1  0.6078244E-006  0.7252896E+02  0.7818608E-02  0.1414880E+00
          2   -1    0    0  502    0  0.00000000000E+00  0.00000000000E+00  0.93271889953E+03  0.93271889953E+03  0.00000000000E+00 0. -1.
          1   -1    0    0  501    0 -0.00000000000E+00 -0.00000000000E+00 -0.19524814238E+03  0.19524814238E+03  0.00000000000E+00 0. -1.
         25    2    1    2    0    0 -0.59736381692E+02 -0.73697283591E+01  0.30954271489E+03  0.33921168996E+03  0.12500052029E+03 0.  0.
          2    1    1    2  501    0 -0.75954576784E+01  0.42752304532E+02 -0.17537796763E+03  0.18067341268E+03  0.00000000000E+00 0. -1.
          1    1    1    2  502    0  0.67331839370E+02 -0.35382576173E+02  0.60330600990E+03  0.60808193927E+03  0.00000000000E+00 0. -1.
         22    1    3    3    0    0 -0.59795182534E+02  0.48703666077E+01  0.46551212254E+02  0.75935496887E+02  0.00000000000E+00 0. -1.
         22    1    3    3    0    0  0.58800841986E-01 -0.12240094967E+02  0.26299150263E+03  0.26327619308E+03  0.00000000000E+00 0. -1.
</event>
<event>
 7    1  0.6078244E-006  0.9325343E+02  0.7818608E-02  0.1303415E+00
          2   -1    0    0  502    0  0.00000000000E+00  0.00000000000E+00  0.13699113099E+04  0.13699113099E+04  0.00000000000E+00 0. -1.
          1   -1    0    0  501    0 -0.00000000000E+00 -0.00000000000E+00 -0.36565923302E+03  0.36565923302E+03  0.00000000000E+00 0. -1.
         25    2    1    2    0    0  0.81720679426E-01  0.41130941306E+02 -0.48287346832E+02  0.14017375143E+03  0.12500100686E+03 0.  0.
          2    1    1    2  501    0  0.80103817096E+02 -0.73340151696E+02 -0.25908557661E+03  0.28092834562E+03  0.00000000000E+00 0. -1.
          1    1    1    2  502    0 -0.80185537775E+02  0.32209210391E+02  0.13116250003E+04  0.13144684459E+04  0.00000000000E+00 0. -1.
         22    1    3    3    0    0  0.21937257070E+02 -0.34940121739E+02  0.93013955606E+01  0.42291504043E+02  0.00000000000E+00 0. -1.
         22    1    3    3    0    0 -0.21855536391E+02  0.76071063045E+02 -0.57588742393E+02  0.97882247390E+02  0.00000000000E+00 0. -1.
</event>
<event>
 7    1  0.6078244E-006  0.8603583E+02  0.7818608E-02  0.1394212E+00
          2   -1    0    0  502    0  0.00000000000E+00  0.00000000000E+00  0.19943924053E+04  0.19943924053E+04  0.00000000000E+00 0. -1.
          1   -1    0    0  501    0 -0.00000000000E+00 -0.00000000000E+00 -0.17580755366E+03  0.17580755366E+03  0.00000000000E+00 0. -1.
         25    2    1    2    0    0 -0.16567226643E+02 -0.56411711971E+02 -0.95663676252E+02  0.16802318037E+03  0.12499398362E+03 0.  0.
          2    1    1    2  501    0  0.32368559507E+02 -0.28408247734E+02 -0.32227180449E+02  0.53789807060E+02  0.00000000000E+00 0. -1.
          1    1    1    2  502    0 -0.15801332864E+02  0.84819959705E+02  0.19464757083E+04  0.19483869715E+04  0.00000000000E+00 0. -1.
         22    1    3    3    0    0 -0.41304869843E+02 -0.12186842399E+02  0.15568024133E+02  0.45792737151E+02  0.00000000000E+00 0.  1.
         22    1    3    3    0    0  0.24737643200E+02 -0.44224869572E+02 -0.11123170038E+03  0.12223044322E+03  0.00000000000E+00 0.  1.
</event>
<event>
 7    1  0.1031805E-005  0.5847089E+02  0.7818608E-02  0.1448744E+00
          2   -1    0    0  502    0  0.00000000000E+00  0.00000000000E+00  0.11594215646E+04  0.11594215646E+04  0.00000000000E+00 0. -1.
          1   -1    0    0  501    0 -0.00000000000E+00 -0.00000000000E+00 -0.12940168722E+04  0.12940168722E+04  0.00000000000E+00 0. -1.
         25    2    1    2    0    0  0.24678765986E+02  0.36927238792E+02 -0.41036384654E+03  0.43127271792E+03  0.12500003288E+03 0.  0.
          2    1    1    2  501    0 -0.59447198920E+02 -0.13916052787E+02 -0.87175229829E+03  0.87388769047E+03  0.00000000000E+00 0. -1.
          1    1    1    2  502    0  0.34768432933E+02 -0.23011186005E+02  0.11475208372E+04  0.11482780284E+04  0.00000000000E+00 0. -1.
         22    1    3    3    0    0  0.36202424488E+02 -0.28369094617E+02 -0.65152242073E+02  0.79751085982E+02  0.00000000000E+00 0. -1.
         22    1    3    3    0    0 -0.11523658501E+02  0.65296333409E+02 -0.34521160447E+03  0.35152163194E+03  0.00000000000E+00 0. -1.
</event>
<event>
 7    1  0.6078244E-006  0.1287604E+03  0.7818608E-02  0.1259375E+00
          2   -1    0    0  502    0  0.00000000000E+00  0.00000000000E+00  0.39991806609E+03  0.39991806609E+03  0.00000000000E+00 0. -1.
          1   -1    0    0  501    0 -0.00000000000E+00 -0.00000000000E+00 -0.73736483521E+03  0.73736483521E+03  0.00000000000E+00 0. -1.
         25    2    1    2    0    0 -0.27184622465E+01 -0.64546561668E+01  0.68102428008E+02  0.14251714108E+03  0.12499656867E+03 0.  0.
          2    1    1    2  501    0  0.79220818180E+02 -0.10150521808E+03 -0.67893804765E+03  0.69103988298E+03  0.00000000000E+00 0. -1.
          1    1    1    2  502    0 -0.76502355933E+02  0.10795987425E+03  0.27338885052E+03  0.30372587723E+03  0.00000000000E+00 0. -1.
         22    1    3    3    0    0  0.28140392829E+02  0.41341699710E+02  0.69481603540E+02  0.85607891423E+02  0.00000000000E+00 0.  1.
         22    1    3    3    0    0 -0.30858855076E+02 -0.47796355876E+02 -0.13791755319E+01  0.56909249659E+02  0.00000000000E+00 0.  1.
</event>
<event>
 7    1  0.6078244E-006  0.6752655E+02  0.7818608E-02  0.1481423E+00
          2   -1    0    0  502    0  0.00000000000E+00  0.00000000000E+00  0.81612303166E+03  0.81612303166E+03  0.00000000000E+00 0. -1.
          1   -1    0    0  501    0 -0.00000000000E+00 -0.00000000000E+00 -0.59676574536E+03  0.59676574536E+03  0.00000000000E+00 0. -1.
         25    2    1    2    0    0 -0.45710992213E+02 -0.26465559974E+02  0.14775386518E+03  0.20060958998E+03  0.12499232873E+03 0.  0.
          2    1    1    2  501    0 -0.22524449742E+02  0.17495328206E+02 -0.56813452158E+03  0.56884995557E+03  0.00000000000E+00 0. -1.
          1    1    1    2  502    0  0.68235441955E+02  0.89702317681E+01  0.63973794270E+03  0.64342923148E+03  0.00000000000E+00 0. -1.
         22    1    3    3    0    0 -0.69936912543E+02 -0.12763102125E+02  0.25971825781E+02  0.75687543534E+02  0.00000000000E+00 0.  1.
         22    1    3    3    0    0  0.24225920329E+02 -0.13702457849E+02  0.12178203940E+03  0.12492204644E+03  0.00000000000E+00 0.  1.
</event>
<event>
 7    1  0.6078244E-006  0.4392977E+03  0.7818608E-02  0.1290322E+00
          2   -1    0    0  502    0  0.00000000000E+00  0.00000000000E+00  0.49595819034E+03  0.49595819034E+03  0.00000000000E+00 0. -1.
          1   -1    0    0  501    0 -0.00000000000E+00 -0.00000000000E+00 -0.63963601906E+03  0.63963601906E+03  0.00000000000E+00 0. -1.
         25    2    1    2    0    0  0.22731327836E+03  0.35893551621E+03  0.86574363474E+02  0.45124958831E+03  0.12500015688E+03 0.  0.
          2    1    1    2  501    0 -0.23448305267E+03 -0.37836369681E+03 -0.34785727727E+03  0.56493015002E+03  0.00000000000E+00 0. -1.
          1    1    1    2  502    0  0.71697743052E+01  0.19428180605E+02  0.11760508507E+03  0.11941447107E+03  0.00000000000E+00 0. -1.
         22    1    3    3    0    0  0.13326598424E+03  0.17466089023E+03 -0.16102542668E+02  0.22028513571E+03  0.00000000000E+00 0.  1.
         22    1    3    3    0    0  0.94047294124E+02  0.18427462597E+03  0.10267690614E+03  0.23096445260E+03  0.00000000000E+00 0.  1.
</event>
<event>
 7    1  0.6594168E-006  0.2295868E+03  0.7818608E-02  0.1287224E+00
          2   -1    0    0  502    0  0.00000000000E+00  0.00000000000E+00  0.18652518836E+04  0.18652518836E+04  0.00000000000E+00 0. -1.
          1   -1    0    0  501    0 -0.00000000000E+00 -0.00000000000E+00 -0.16542989933E+04  0.16542989933E+04  0.00000000000E+00 0. -1.
         25    2    1    2    0    0  0.17910149449E+03 -0.18457746109E+03 -0.55429138881E+03  0.62370668954E+03  0.12499962558E+03 0.  0.
          2    1    1    2  501    0 -0.14114277326E+03  0.16963510428E+03 -0.10536407140E+04  0.10765017906E+04  0.00000000000E+00 0. -1.
          1    1    1    2  502    0 -0.37958721233E+02  0.14942356806E+02  0.18188849931E+04  0.18193423967E+04  0.00000000000E+00 0. -1.
         22    1    3    3    0    0  0.13430301285E+03 -0.56217072449E+02 -0.34086582893E+03  0.37065775565E+03  0.00000000000E+00 0.  1.
         22    1    3    3    0    0  0.44798481640E+02 -0.12836038864E+03 -0.21342555988E+03  0.25304893388E+03  0.00000000000E+00 0.  1.
</event>
<event>
 7    1  0.6078244E-006  0.8021087E+02  0.7818608E-02  0.1379427E+00
          2   -1    0    0  502    0  0.00000000000E+00  0.00000000000E+00  0.82915070215E+03  0.82915070215E+03  0.00000000000E+00 0. -1.
          1   -1    0    0  501    0 -0.00000000000E+00 -0.00000000000E+00 -0.53607159743E+02  0.53607159743E+02  0.00000000000E+00 0. -1.
         25    2    1    2    0    0  0.24762567947E+02 -0.12275687546E+03  0.14917351643E+03  0.23143601461E+03  0.12500982205E+03 0.  0.
          2    1    1    2  501    0  0.61251395381E+01  0.51689274998E+02  0.58974420518E+02  0.78659270017E+02  0.00000000000E+00 0. -1.
          1    1    1    2  502    0 -0.30887707486E+02  0.71067600465E+02  0.56739560546E+03  0.57266257727E+03  0.00000000000E+00 0. -1.
         22    1    3    3    0    0  0.50622354217E+02 -0.12425397838E+03  0.15487838809E+03  0.20491214943E+03  0.00000000000E+00 0.  1.
         22    1    3    3    0    0 -0.25859786270E+02  0.14971029133E+01 -0.57048716589E+01  0.26523865173E+02  0.00000000000E+00 0.  1.
</event>
<event>
 7    1  0.6078244E-006  0.7698100E+02  0.7818608E-02  0.1367838E+00
          2   -1    0    0  502    0  0.00000000000E+00  0.00000000000E+00  0.13104658079E+03  0.13104658079E+03  0.00000000000E+00 0. -1.
          1   -1    0    0  501    0 -0.00000000000E+00 -0.00000000000E+00 -0.52833000825E+03  0.52833000825E+03  0.00000000000E+00 0. -1.
         25    2    1    2    0    0 -0.10985704729E+03  0.62511893492E+02 -0.21086404516E+03  0.27579877727E+03  0.12500004934E+03 0.  0.
          2    1    1    2  501    0  0.37228074386E+02 -0.46625550045E+02 -0.26720696558E+03  0.27378720550E+03  0.00000000000E+00 0. -1.
          1    1    1    2  502    0  0.72628972904E+02 -0.15886343447E+02  0.80787583282E+02  0.10979060627E+03  0.00000000000E+00 0. -1.
         22    1    3    3    0    0 -0.62349416440E+02  0.81046266836E+02 -0.19855619380E+03  0.22333944836E+03  0.00000000000E+00 0. -1.
         22    1    3    3    0    0 -0.47507630850E+02 -0.18534373345E+02 -0.12307851362E+02  0.52459328907E+02  0.00000000000E+00 0. -1.
</event>
<event>
 7    1  0.6078244E-006  0.6172765E+02  0.7818608E-02  0.1481270E+00
          2   -1    0    0  502    0  0.00000000000E+00  0.00000000000E+00  0.99089472313E+03  0.99089472313E+03  0.00000000000E+00 0. -1.
          1   -1    0    0  501    0 -0.00000000000E+00 -0.00000000000E+00 -0.16359603273E+03  0.16359603273E+03  0.00000000000E+00 0. -1.
         25    2    1    2    0    0 -0.44069882466E+02 -0.31638443542E+02 -0.92346435207E+02  0.16460966461E+03  0.12500132774E+03 0.  0.
          2    1    1    2  501    0  0.70533102432E+02  0.15047602907E+02  0.24579514602E+01  0.72162250639E+02  0.00000000000E+00 0. -1.
          1    1    1    2  502    0 -0.26463219966E+02  0.16590840635E+02  0.91718717414E+03  0.91771884061E+03  0.00000000000E+00 0. -1.
         22    1    3    3    0    0 -0.45078248340E+02 -0.77467774655E+02 -0.69341578732E+02  0.11332060327E+03  0.00000000000E+00 0.  1.
         22    1    3    3    0    0  0.10083658743E+01  0.45829331113E+02 -0.23004856476E+02  0.51289061343E+02  0.00000000000E+00 0.  1.
</event>
<event>
 7    1  0.6078244E-006  0.1290884E+03  0.7818608E-02  0.1337986E+00
          2   -1    0    0  502    0  0.00000000000E+00  0.00000000000E+00  0.18358807983E+03  0.18358807983E+03  0.00000000000E+00 0. -1.
          1   -1    0    0  501    0 -0.00000000000E+00 -0.00000000000E+00 -0.82749407823E+03  0.82749407823E+03  0.00000000000E+00 0. -1.
         25    2    1    2    0    0 -0.41480697644E+02 -0.11488384372E+03 -0.22888014364E+03  0.28797963237E+03  0.12500881043E+03 0.  0.
          2    1    1    2  501    0  0.85304772254E+02  0.10140370701E+03 -0.55770792586E+03  0.57323446034E+03  0.00000000000E+00 0. -1.
          1    1    1    2  502    0 -0.43824074610E+02  0.13480136708E+02  0.14268207109E+03  0.14986806535E+03  0.00000000000E+00 0. -1.
         22    1    3    3    0    0  0.82812307699E+01 -0.73926911612E+02 -0.20692993424E+03  0.21989489473E+03  0.00000000000E+00 0. -1.
         22    1    3    3    0    0 -0.49761928414E+02 -0.40956932105E+02 -0.21950209396E+02  0.68084737640E+02  0.00000000000E+00 0. -1.
</event>
<event>
 7    1  0.6078244E-006  0.2507698E+02  0.7818608E-02  0.1693688E+00
          2   -1    0    0  502    0  0.00000000000E+00  0.00000000000E+00  0.16927988094E+04  0.16927988094E+04  0.00000000000E+00 0. -1.
          1   -1    0    0  501    0 -0.00000000000E+00 -0.00000000000E+00 -0.64441246193E+02  0.64441246193E+02  0.00000000000E+00 0. -1.
         25    2    1    2    0    0 -0.19481624384E+02  0.88156741813E+01  0.60762318505E+02  0.14062116348E+03  0.12500000987E+03 0.  0.
          2    1    1    2  501    0  0.13791039415E+02  0.15637887467E+02 -0.19960591346E+02  0.28864537056E+02  0.00000000000E+00 0. -1.
          1    1    1    2  502    0  0.56905849688E+01 -0.24453561648E+02  0.15875558361E+04  0.15877543551E+04  0.00000000000E+00 0. -1.
         22    1    3    3    0    0 -0.20492216354E+02 -0.39558399208E+02  0.77525649148E+02  0.89414898954E+02  0.00000000000E+00 0.  1.
         22    1    3    3    0    0  0.10105919707E+01  0.48374073390E+02 -0.16763330643E+02  0.51206264526E+02  0.00000000000E+00 0.  1.
</event>
<event>
 7    1  0.6078244E-006  0.6933058E+02  0.7818608E-02  0.1521268E+00
          2   -1    0    0  502    0  0.00000000000E+00  0.00000000000E+00  0.80301095143E+03  0.80301095143E+03  0.00000000000E+00 0. -1.
          1   -1    0    0  501    0 -0.00000000000E+00 -0.00000000000E+00 -0.23484591409E+03  0.23484591409E+03  0.00000000000E+00 0. -1.
         25    2    1    2    0    0 -0.39111553626E+02  0.65581724332E+02 -0.10940647738E+03  0.18282739266E+03  0.12500160808E+03 0.  0.
          2    1    1    2  501    0  0.17981442483E+02 -0.65116603036E+02 -0.75701253360E+02  0.10146025835E+03  0.00000000000E+00 0. -1.
          1    1    1    2  502    0  0.21130111142E+02 -0.46512129604E+00  0.75327276808E+03  0.75356921451E+03  0.00000000000E+00 0. -1.
         22    1    3    3    0    0  0.23285479630E+02  0.66508662307E+02 -0.95853806285E+02  0.11896876860E+03  0.00000000000E+00 0.  1.
         22    1    3    3    0    0 -0.62397033255E+02 -0.92693797477E+00 -0.13552671091E+02  0.63858624059E+02  0.00000000000E+00 0.  1.
</event>
<event>
 7    1  0.6078244E-006  0.1862897E+03  0.7818608E-02  0.1270882E+00
          2   -1    0    0  502    0  0.00000000000E+00  0.00000000000E+00  0.11145908692E+04  0.11145908692E+04  0.00000000000E+00 0. -1.
          1   -1    0    0  501    0 -0.00000000000E+00 -0.00000000000E+00 -0.57534360207E+03  0.57534360207E+03  0.00000000000E+00 0. -1.
         25    2    1    2    0    0 -0.20152365584E+03  0.95643432933E+02 -0.13221189877E+03  0.28786169327E+03  0.12499967262E+03 0.  0.
          2    1    1    2  501    0  0.17096659810E+03 -0.45468120019E+02 -0.34298879209E+03  0.38592517293E+03  0.00000000000E+00 0. -1.
          1    1    1    2  502    0  0.30557057734E+02 -0.50175312913E+02  0.10144479580E+04  0.10161476051E+04  0.00000000000E+00 0. -1.
         22    1    3    3    0    0 -0.21155945844E+03  0.93761435382E+02 -0.96503370714E+02  0.25072198105E+03  0.00000000000E+00 0. -1.
         22    1    3    3    0    0  0.10035802604E+02  0.18819975511E+01 -0.35708528053E+02  0.37139712229E+02  0.00000000000E+00 0. -1.
</event>
<event>
 7    1  0.8478468E-006  0.5643376E+02  0.7818608E-02  0.1474482E+00
          2   -1    0    0  502    0  0.00000000000E+00  0.00000000000E+00  0.21540309280E+04  0.21540309280E+04  0.00000000000E+00 0. -1.
          1   -1    0    0  501    0 -0.00000000000E+00 -0.00000000000E+00 -0.74846765045E+03  0.74846765045E+03  0.00000000000E+00 0. -1.
         25    2    1    2    0    0  0.29749894409E+02  0.17000470069E+02 -0.11579211544E+03  0.17380242118E+03  0.12500158163E+03 0.  0.
          2    1    1    2  501    0 -0.57504944127E+02  0.56857245104E+01 -0.60213591016E+03  0.60490230646E+03  0.00000000000E+00 0. -1.
          1    1    1    2  502    0  0.27755049718E+02 -0.22686194580E+02  0.21234913031E+04  0.21237938508E+04  0.00000000000E+00 0. -1.
         22    1    3    3    0    0 -0.49018058616E+02  0.13523489750E+01 -0.38528376583E+02  0.62362125688E+02  0.00000000000E+00 0. -1.
         22    1    3    3    0    0  0.78767953026E+02  0.15648121094E+02 -0.77263738855E+02  0.11144029549E+03  0.00000000000E+00 0. -1.
</event>
<event>
 7    1  0.6078244E-006  0.4562656E+02  0.7818608E-02  0.1489148E+00
          2   -1    0    0  502    0  0.00000000000E+00  0.00000000000E+00  0.88977746005E+03  0.88977746005E+03  0.00000000000E+00 0. -1.
          1   -1    0    0  501    0 -0.00000000000E+00 -0.00000000000E+00 -0.44771767592E+03  0.44771767592E+03  0.00000000000E+00 0. -1.
         25    2    1    2    0    0 -0.58818209018E+02 -0.50410634188E+02  0.10245691193E+03  0.17922802775E+03  0.12499781349E+03 0.  0.
          2    1    1    2  501    0  0.15768156124E+02  0.36744488729E+02 -0.40767214367E+03  0.40962833022E+03  0.00000000000E+00 0. -1.
          1    1    1    2  502    0  0.43050052894E+02  0.13666145459E+02  0.74727501587E+03  0.74863877800E+03  0.00000000000E+00 0. -1.
         22    1    3    3    0    0 -0.53436288581E+02 -0.86599634503E+02  0.99822406971E+02  0.14254629622E+03  0.00000000000E+00 0.  1.
         22    1    3    3    0    0 -0.53819204368E+01  0.36189000316E+02  0.26345049566E+01  0.36681731527E+02  0.00000000000E+00 0.  1.
</event>
<event>
 7    1  0.6078244E-006  0.2060870E+03  0.7818608E-02  0.1359151E+00
          2   -1    0    0  502    0  0.00000000000E+00  0.00000000000E+00  0.17742669976E+03  0.17742669976E+03  0.00000000000E+00 0. -1.
          1   -1    0    0  501    0 -0.00000000000E+00 -0.00000000000E+00 -0.15862954631E+04  0.15862954631E+04  0.00000000000E+00 0. -1.
         25    2    1    2    0    0 -0.15960867501E+03 -0.96793203005E+02 -0.42056792000E+03  0.47680876852E+03  0.12500149246E+03 0.  0.
          2    1    1    2  501    0 -0.14853811305E+02 -0.18807090469E+02 -0.10640656961E+04  0.10643355430E+04  0.00000000000E+00 0. -1.
          1    1    1    2  502    0  0.17446248631E+03  0.11560029347E+03  0.75764852826E+02  0.22257785134E+03  0.00000000000E+00 0. -1.
         22    1    3    3    0    0 -0.45321149539E+02 -0.15807439477E+02 -0.25707535925E+03  0.26151791921E+03  0.00000000000E+00 0. -1.
         22    1    3    3    0    0 -0.11428752547E+03 -0.80985763528E+02 -0.16349256075E+03  0.21529084931E+03  0.00000000000E+00 0. -1.
</event>
<event>
 7    1  0.6078244E-006  0.9302190E+02  0.7818608E-02  0.1413733E+00
          2   -1    0    0  502    0  0.00000000000E+00  0.00000000000E+00  0.23902809022E+03  0.23902809022E+03  0.00000000000E+00 0. -1.
          1   -1    0    0  501    0 -0.00000000000E+00 -0.00000000000E+00 -0.79954429056E+03  0.79954429056E+03  0.00000000000E+00 0. -1.
         25    2    1    2    0    0 -0.69098753723E+02  0.64378022629E+02 -0.11568518047E+03  0.19474504839E+03  0.12499362116E+03 0.  0.
          2    1    1    2  501    0  0.86575899587E+02 -0.35029486292E+02 -0.63944958594E+03  0.64623387736E+03  0.00000000000E+00 0. -1.
          1    1    1    2  502    0 -0.17477145864E+02 -0.29348536337E+02  0.19461856607E+03  0.19759345503E+03  0.00000000000E+00 0. -1.
         22    1    3    3    0    0 -0.10381790088E+03  0.31015971914E+02 -0.76005203928E+02  0.13235157000E+03  0.00000000000E+00 0.  1.
         22    1    3    3    0    0  0.34719147160E+02  0.33362050715E+02 -0.39679976544E+02  0.62393478394E+02  0.00000000000E+00 0.  1.
</event>
<event>
 7    1  0.6078244E-006  0.1211682E+03  0.7818608E-02  0.1295818E+00
          2   -1    0    0  502    0  0.00000000000E+00  0.00000000000E+00  0.37929643636E+04  0.37929643636E+04  0.00000000000E+00 0. -1.
          1   -1    0    0  501    0 -0.00000000000E+00 -0.00000000000E+00 -0.42670718269E+03  0.42670718269E+03  0.00000000000E+00 0. -1.
         25    2    1    2    0    0 -0.13398507855E+03 -0.84033206272E+01  0.18854267654E+03  0.26305120962E+03  0.12499992374E+03 0.  0.
          2    1    1    2  501    0  0.35180753356E+02 -0.62052884561E+02 -0.38514492553E+03  0.39169485515E+03  0.00000000000E+00 0. -1.
          1    1    1    2  502    0  0.98804325198E+02  0.70456205189E+02  0.35628594299E+04  0.35649254815E+04  0.00000000000E+00 0. -1.
         22    1    3    3    0    0 -0.15374877721E+03 -0.27216506601E+02  0.15964665982E+03  0.22330803998E+03  0.00000000000E+00 0. -1.
         22    1    3    3    0    0  0.19763698660E+02  0.18813185973E+02  0.28896016718E+02  0.39743169644E+02  0.00000000000E+00 0. -1.
</event>
<event>
 7    1  0.6078244E-006  0.1030389E+03  0.7818608E-02  0.1338939E+00
          2   -1    0    0  502    0  0.00000000000E+00  0.00000000000E+00  0.81474850794E+03  0.81474850794E+03  0.00000000000E+00 0. -1.
          1   -1    0    0  501    0 -0.00000000000E+00 -0.00000000000E+00 -0.10724807005E+04  0.10724807005E+04  0.00000000000E+00 0. -1.
         25    2    1    2    0    0 -0.86342570151E+02  0.10498606149E+03  0.38653007773E+03  0.42837913658E+03  0.12500428449E+03 0.  0.
          2    1    1    2  501    0  0.55125396023E+02 -0.14374110474E+02 -0.10451318252E+04  0.10466833123E+04  0.00000000000E+00 0. -1.
          1    1    1    2  502    0  0.31217174128E+02 -0.90611951014E+02  0.40086955489E+03  0.41216675953E+03  0.00000000000E+00 0. -1.
         22    1    3    3    0    0 -0.30604052364E+02  0.77899215609E+02  0.80458667454E+02  0.11609691203E+03  0.00000000000E+00 0. -1.
         22    1    3    3    0    0 -0.55738517787E+02  0.27086845879E+02  0.30607141027E+03  0.31228222455E+03  0.00000000000E+00 0. -1.
</event>
<event>
 7    1  0.6078244E-006  0.8423719E+02  0.7818608E-02  0.1464624E+00
          2   -1    0    0  502    0  0.00000000000E+00  0.00000000000E+00  0.82343632624E+03  0.82343632624E+03  0.00000000000E+00 0. -1.
          1   -1    0    0  501    0 -0.00000000000E+00 -0.00000000000E+00 -0.26785923678E+04  0.26785923678E+04  0.00000000000E+00 0. -1.
         25    2    1    2    0    0  0.29052494095E+02  0.72930741493E+02 -0.77185172434E+03  0.78583861530E+03  0.12499721779E+03 0.  0.
          2    1    1    2  501    0 -0.53953736203E+02 -0.66282909707E+02 -0.18985822157E+04  0.19005048960E+04  0.00000000000E+00 0. -1.
          1    1    1    2  502    0  0.24901242108E+02 -0.66478317853E+01  0.81527789853E+03  0.81568518275E+03  0.00000000000E+00 0. -1.
         22    1    3    3    0    0  0.60734633330E+02 -0.30741828672E+01 -0.23661110144E+03  0.24430096114E+03  0.00000000000E+00 0.  1.
         22    1    3    3    0    0 -0.31682139235E+02  0.76004924360E+02 -0.53524062290E+03  0.54153765416E+03  0.00000000000E+00 0.  1.
</event>
<event>
 7    1  0.6078244E-006  0.4319843E+02  0.7818608E-02  0.1585040E+00
          2   -1    0    0  502    0  0.00000000000E+00  0.00000000000E+00  0.25585958065E+03  0.25585958065E+03  0.00000000000E+00 0. -1.
          1   -1    0    0  501    0 -0.00000000000E+00 -0.00000000000E+00 -0.89567007103E+03  0.89567007103E+03  0.00000000000E+00 0. -1.
         25    2    1    2    0    0 -0.43055492048E+02  0.83727804770E+01 -0.45256441949E+03  0.47155319952E+03  0.12499594933E+03 0.  0.
          2    1    1    2  501    0  0.21919739829E+01 -0.22448306998E+02 -0.43141888537E+03  0.43200808545E+03  0.00000000000E+00 0. -1.
          1    1    1    2  502    0  0.40863518065E+02  0.14075526521E+02  0.24417281448E+03  0.24796836670E+03  0.00000000000E+00 0. -1.
         22    1    3    3    0    0 -0.77711817307E+02  0.32243890433E+02 -0.22685862407E+03  0.24195791025E+03  0.00000000000E+00 0. -1.
         22    1    3    3    0    0  0.34656325258E+02 -0.23871109956E+02 -0.22570579542E+03  0.22959528927E+03  0.00000000000E+00 0. -1.
</event>
<event>
 7    1  0.6078244E-006  0.8772426E+02  0.7818608E-02  0.1489923E+00
          2   -1    0    0  502    0  0.00000000000E+00  0.00000000000E+00  0.27306610218E+04  0.27306610218E+04  0.00000000000E+00 0. -1.
          1   -1    0    0  501    0 -0.00000000000E+00 -0.00000000000E+00 -0.57109788229E+03  0.57109788229E+03  0.00000000000E+00 0. -1.
         25    2    1    2    0    0  0.90669677013E+02 -0.58075544134E+02 -0.14525937787E+03  0.21981590700E+03  0.12499994782E+03 0.  0.
          2    1    1    2  501    0 -0.14452815670E+02  0.14797692211E+02 -0.38757133582E+03  0.38812291343E+03  0.00000000000E+00 0. -1.
          1    1    1    2  502    0 -0.76216861343E+02  0.43277851923E+02  0.26923938532E+04  0.26938200837E+04  0.00000000000E+00 0. -1.
         22    1    3    3    0    0  0.15010196148E+02 -0.16837787207E+02 -0.13044848197E+03  0.13238437791E+03  0.00000000000E+00 0.  1.
         22    1    3    3    0    0  0.75659480866E+02 -0.41237756927E+02 -0.14810895893E+02  0.87431529087E+02  0.00000000000E+00 0.  1.
</event>
<event>
 7    1  0.6078244E-006  0.1788024E+03  0.7818608E-02  0.1344202E+00
          2   -1    0    0  502    0  0.00000000000E+00  0.00000000000E+00  0.51574050252E+03  0.51574050252E+03  0.00000000000E+00 0. -1.
          1   -1    0    0  501    0 -0.00000000000E+00 -0.00000000000E+00 -0.71141599969E+03  0.71141599969E+03  0.00000000000E+00 0. -1.
         25    2    1    2    0    0  0.89483167413E+02 -0.16190348003E+03  0.13213242506E+02  0.22365085619E+03  0.12500056639E+03 0.  0.
          2    1    1    2  501    0 -0.30755559822E+02 -0.61780308064E+01 -0.58580951528E+03  0.58664883935E+03  0.00000000000E+00 0. -1.
          1    1    1    2  502    0 -0.58727607591E+02  0.16808151084E+03  0.37692077561E+03  0.41685680667E+03  0.00000000000E+00 0. -1.
         22    1    3    3    0    0  0.33895188958E+02 -0.97709278342E+02  0.66912032428E+02  0.12317957214E+03  0.00000000000E+00 0. -1.
         22    1    3    3    0    0  0.55587978455E+02 -0.64194201691E+02 -0.53698789922E+02  0.10047128405E+03  0.00000000000E+00 0. -1.
</event>
<event>
 7    1  0.6078244E-006  0.5853385E+02  0.7818608E-02  0.1518005E+00
          2   -1    0    0  502    0  0.00000000000E+00  0.00000000000E+00  0.17034413303E+04  0.17034413303E+04  0.00000000000E+00 0. -1.
          1   -1    0    0  501    0 -0.00000000000E+00 -0.00000000000E+00 -0.18805582395E+03  0.18805582395E+03  0.00000000000E+00 0. -1.
         25    2    1    2    0    0  0.57111163561E+02  0.20512900066E+02  0.72579183084E+02  0.15676464328E+03  0.12499980597E+03 0.  0.
          2    1    1    2  501    0 -0.41909427735E+02 -0.41093501224E+02 -0.13995491976E+03  0.15176447391E+03  0.00000000000E+00 0. -1.
          1    1    1    2  502    0 -0.15201735826E+02  0.20580601159E+02  0.15827612430E+04  0.15829680371E+04  0.00000000000E+00 0. -1.
         22    1    3    3    0    0  0.27184217268E+02 -0.47051181693E+01  0.10335763058E+03  0.10697625720E+03  0.00000000000E+00 0. -1.
         22    1    3    3    0    0  0.29926946293E+02  0.25218018235E+02 -0.30778447494E+02  0.49788386078E+02  0.00000000000E+00 0. -1.
</event>
<event>
 7    1  0.6078244E-006  0.6207148E+02  0.7818608E-02  0.1397685E+00
          2   -1    0    0  502    0  0.00000000000E+00  0.00000000000E+00  0.55735989851E+03  0.55735989851E+03  0.00000000000E+00 0. -1.
          1   -1    0    0  501    0 -0.00000000000E+00 -0.00000000000E+00 -0.45607409467E+03  0.45607409467E+03  0.00000000000E+00 0. -1.
         25    2    1    2    0    0 -0.68111888404E+02  0.13593013954E+02  0.18874204589E+03  0.23679615854E+03  0.12499944577E+03 0.  0.
          2    1    1    2  501    0  0.28032269027E+02 -0.55607069824E+02 -0.42732805114E+03  0.43184165804E+03  0.00000000000E+00 0. -1.
          1    1    1    2  502    0  0.40079619377E+02  0.42014055870E+02  0.33987180909E+03  0.34479617660E+03  0.00000000000E+00 0. -1.
         22    1    3    3    0    0 -0.22952170564E+02  0.29799356728E+02 -0.43203266184E+01  0.37861180873E+02  0.00000000000E+00 0. -1.
         22    1    3    3    0    0 -0.45159717840E+02 -0.16206342774E+02  0.19306237251E+03  0.19893497767E+03  0.00000000000E+00 0. -1.
</event>
<event>
 7    1  0.6078244E-006  0.7869187E+02  0.7818608E-02  0.1427161E+00
          2   -1    0    0  502    0  0.00000000000E+00  0.00000000000E+00  0.74076838981E+03  0.74076838981E+03  0.00000000000E+00 0. -1.
          1   -1    0    0  501    0 -0.00000000000E+00 -0.00000000000E+00 -0.22590954528E+04  0.22590954528E+04  0.00000000000E+00 0. -1.
         25    2    1    2    0    0 -0.24780448603E+02  0.36277189800E+02 -0.91343217459E+02  0.16093202831E+03  0.12500171690E+03 0.  0.
          2    1    1    2  501    0  0.35412178473E+02 -0.71109989022E+02 -0.21317478236E+04  0.21332274695E+04  0.00000000000E+00 0. -1.
          1    1    1    2  502    0 -0.10631729869E+02  0.34832799222E+02  0.70476397807E+03  0.70570434487E+03  0.00000000000E+00 0. -1.
         22    1    3    3    0    0  0.51144990225E+02  0.97256664878E+01 -0.36282897169E+02  0.63457444329E+02  0.00000000000E+00 0.  1.
         22    1    3    3    0    0 -0.75925438828E+02  0.26551523313E+02 -0.55060320290E+02  0.97474583979E+02  0.00000000000E+00 0.  1.
</event>
<event>
 7    1  0.6078244E-006  0.5852732E+02  0.7818608E-02  0.1435500E+00
          2   -1    0    0  502    0  0.00000000000E+00  0.00000000000E+00  0.35112134929E+02  0.35112134929E+02  0.00000000000E+00 0. -1.
          1   -1    0    0  501    0 -0.00000000000E+00 -0.00000000000E+00 -0.60456703745E+03  0.60456703745E+03  0.00000000000E+00 0. -1.
         25    2    1    2    0    0 -0.28094061308E+02 -0.35881270247E+01 -0.21954467303E+03  0.25421780953E+03  0.12499872117E+03 0.  0.
          2    1    1    2  501    0  0.56271477229E+02 -0.32737483862E+02 -0.32824593751E+03  0.33463953366E+03  0.00000000000E+00 0. -1.
          1    1    1    2  502    0 -0.28177415922E+02  0.36325610886E+02 -0.21664291986E+02  0.50821829183E+02  0.00000000000E+00 0. -1.
         22    1    3    3    0    0  0.29291159844E+02  0.34734250833E+02 -0.14800265461E+03  0.15481997933E+03  0.00000000000E+00 0. -1.
         22    1    3    3    0    0 -0.57385221152E+02 -0.38322377858E+02 -0.71542018416E+02  0.99397830209E+02  0.00000000000E+00 0. -1.
</event>
<event>
 7    1  0.6078244E-006  0.7990230E+02  0.7818608E-02  0.1399149E+00
          2   -1    0    0  502    0  0.00000000000E+00  0.00000000000E+00  0.16756120003E+04  0.16756120003E+04  0.00000000000E+00 0. -1.
          1   -1    0    0  501    0 -0.00000000000E+00 -0.00000000000E+00 -0.56234571489E+02  0.56234571489E+02  0.00000000000E+00 0. -1.
         25    2    1    2    0    0 -0.65972836673E+02 -0.10712953915E+02  0.42493101131E+03  0.44794946407E+03  0.12500070171E+03 0.  0.
          2    1    1    2  501    0  0.43612751545E+01 -0.44372696197E+02 -0.31865766439E+02  0.54803138227E+02  0.00000000000E+00 0. -1.
          1    1    1    2  502    0  0.61611561519E+02  0.55085650112E+02  0.12263121839E+04  0.12290939695E+04  0.00000000000E+00 0. -1.
         22    1    3    3    0    0 -0.69624527581E+02 -0.43843027953E+02  0.15068158398E+03  0.17168204825E+03  0.00000000000E+00 0.  1.
         22    1    3    3    0    0  0.36516909073E+01  0.33130074038E+02  0.27424942734E+03  0.27626741582E+03  0.00000000000E+00 0.  1.
</event>
<event>
 7    1  0.6222057E-006  0.1167320E+03  0.7818608E-02  0.1310739E+00
          2   -1    0    0  502    0  0.00000000000E+00  0.00000000000E+00  0.17804036956E+04  0.17804036956E+04  0.00000000000E+00 0. -1.
          1   -1    0    0  501    0 -0.00000000000E+00 -0.00000000000E+00 -0.72611872689E+03  0.72611872689E+03  0.00000000000E+00 0. -1.
         25    2    1    2    0    0 -0.14260286144E+03 -0.10036019265E+03 -0.12072331059E+03  0.24618440708E+03  0.12499960085E+03 0.  0.
          2    1    1    2  501    0  0.83863515361E+02  0.73537517018E+02 -0.53631813239E+03  0.54779375202E+03  0.00000000000E+00 0. -1.
          1    1    1    2  502    0  0.58739346078E+02  0.26822675632E+02  0.17113264117E+04  0.17125442634E+04  0.00000000000E+00 0. -1.
         22    1    3    3    0    0 -0.12924647333E+03 -0.10037533517E+03 -0.14489138151E+03  0.21857120399E+03  0.00000000000E+00 0. -1.
         22    1    3    3    0    0 -0.13356388112E+02  0.15142517910E-01  0.24168070926E+02  0.27613203092E+02  0.00000000000E+00 0. -1.
</event>
<event>
 7    1  0.1106069E-005  0.6041722E+02  0.7818608E-02  0.1446465E+00
          2   -1    0    0  502    0  0.00000000000E+00  0.00000000000E+00  0.95827336581E+03  0.95827336581E+03  0.00000000000E+00 0. -1.
          1   -1    0    0  501    0 -0.00000000000E+00 -0.00000000000E+00 -0.11391134384E+04  0.11391134384E+04  0.00000000000E+00 0. -1.
         25    2    1    2    0    0  0.23041771283E+02 -0.89443896213E+02 -0.35115017735E+03  0.38400953585E+03  0.12500297109E+03 0.  0.
          2    1    1    2  501    0  0.38123494537E+01  0.58414916109E+02 -0.76997503169E+03  0.77219711593E+03  0.00000000000E+00 0. -1.
          1    1    1    2  502    0 -0.26854120737E+02  0.31028980104E+02  0.94028513647E+03  0.94118015240E+03  0.00000000000E+00 0. -1.
         22    1    3    3    0    0  0.14388954226E+02 -0.10417688292E+03 -0.35152521959E+03  0.36691939843E+03  0.00000000000E+00 0.  1.
         22    1    3    3    0    0  0.86528170569E+01  0.14732986709E+02  0.37504224046E+00  0.17090137421E+02  0.00000000000E+00 0.  1.
</event>
<event>
 7    1  0.6078244E-006  0.3583723E+02  0.7818608E-02  0.1586142E+00
          2   -1    0    0  502    0  0.00000000000E+00  0.00000000000E+00  0.36706032719E+02  0.36706032719E+02  0.00000000000E+00 0. -1.
          1   -1    0    0  501    0 -0.00000000000E+00 -0.00000000000E+00 -0.13203853397E+04  0.13203853397E+04  0.00000000000E+00 0. -1.
         25    2    1    2    0    0 -0.33918689547E+02 -0.22871062197E+02 -0.15022022577E+03  0.19966178392E+03  0.12500059497E+03 0.  0.
          2    1    1    2  501    0  0.24117016541E+02 -0.12150686457E+02 -0.11173124770E+04  0.11176387792E+04  0.00000000000E+00 0. -1.
          1    1    1    2  502    0  0.98016730061E+01  0.35021748654E+02 -0.16146604243E+02  0.39790809254E+02  0.00000000000E+00 0. -1.
         22    1    3    3    0    0 -0.70962000590E+02  0.17230906233E+02 -0.61407340601E+02  0.95411588065E+02  0.00000000000E+00 0. -1.
         22    1    3    3    0    0  0.37043311043E+02 -0.40101968430E+02 -0.88812885168E+02  0.10425019586E+03  0.00000000000E+00 0. -1.
</event>
<event>
 7    1  0.6078244E-006  0.4453744E+02  0.7818608E-02  0.1511439E+00
          2   -1    0    0  502    0  0.00000000000E+00  0.00000000000E+00  0.43565887865E+03  0.43565887865E+03  0.00000000000E+00 0. -1.
          1   -1    0    0  501    0 -0.00000000000E+00 -0.00000000000E+00 -0.92241226478E+03  0.92241226478E+03  0.00000000000E+00 0. -1.
         25    2    1    2    0    0 -0.18300983006E+02 -0.29758902497E+02  0.24504945805E+03  0.27729935504E+03  0.12500070864E+03 0.  0.
          2    1    1    2  501    0  0.44181881115E+02  0.59785542378E+01 -0.90396235282E+03  0.90506116758E+03  0.00000000000E+00 0. -1.
          1    1    1    2  502    0 -0.25880898110E+02  0.23780348259E+02  0.17215950864E+03  0.17571062081E+03  0.00000000000E+00 0. -1.
         22    1    3    3    0    0 -0.59695549098E+02 -0.43294726588E+02  0.20601366952E+03  0.21881413108E+03  0.00000000000E+00 0. -1.
         22    1    3    3    0    0  0.41394566093E+02  0.13535824091E+02  0.39035788528E+02  0.58485223961E+02  0.00000000000E+00 0. -1.
</event>
<event>
 7    1  0.6078244E-006  0.2834939E+02  0.7818608E-02  0.1640298E+00
          2   -1    0    0  502    0  0.00000000000E+00  0.00000000000E+00  0.20450427540E+03  0.20450427540E+03  0.00000000000E+00 0. -1.
          1   -1    0    0  501    0 -0.00000000000E+00 -0.00000000000E+00 -0.73449327127E+03  0.73449327127E+03  0.00000000000E+00 0. -1.
         25    2    1    2    0    0 -0.77178497727E+01  0.81355573337E+00 -0.39213593683E+03  0.41164924149E+03  0.12499711192E+03 0.  0.
          2    1    1    2  501    0  0.23977289330E+02  0.17883688386E+02 -0.33113566717E+03  0.33248393463E+03  0.00000000000E+00 0. -1.
          1    1    1    2  502    0 -0.16259439557E+02 -0.18697244120E+02  0.19328260812E+03  0.19486437056E+03  0.00000000000E+00 0. -1.
         22    1    3    3    0    0 -0.31105741384E+01 -0.60446291285E+02 -0.14789931422E+03  0.15980499663E+03  0.00000000000E+00 0. -1.
         22    1    3    3    0    0 -0.46072756344E+01  0.61259847018E+02 -0.24423662261E+03  0.25184424486E+03  0.00000000000E+00 0. -1.
</event>
<event>
 7    1  0.6078244E-006  0.4770917E+02  0.7818608E-02  0.1507855E+00
          2   -1    0    0  502    0  0.00000000000E+00  0.00000000000E+00  0.11431437730E+03  0.11431437730E+03  0.00000000000E+00 0. -1.
          1   -1    0    0  501    0 -0.00000000000E+00 -0.00000000000E+00 -0.22978974124E+04  0.22978974124E+04  0.00000000000E+00 0. -1.
         25    2    1    2    0    0  0.34979187763E+02  0.86156621210E+00 -0.58262324893E+03  0.59690753899E+03  0.12499789613E+03 0.  0.
          2    1    1    2  501    0 -0.36174684172E+02  0.32735005926E+02 -0.17051381917E+04  0.17058359948E+04  0.00000000000E+00 0. -1.
          1    1    1    2  502    0  0.11954964091E+01 -0.33596572138E+02  0.10417840553E+03  0.10946825590E+03  0.00000000000E+00 0. -1.
         22    1    3    3    0    0 -0.22047270654E+02  0.49712334720E+02 -0.26599857279E+03  0.27150071656E+03  0.00000000000E+00 0. -1.
         22    1    3    3    0    0  0.57026458417E+02 -0.48850768508E+02 -0.31662467614E+03  0.32540682243E+03  0.00000000000E+00 0. -1.
</event>
<event>
 7    1  0.6078244E-006  0.7554562E+02  0.7818608E-02  0.1410907E+00
          2   -1    0    0  502    0  0.00000000000E+00  0.00000000000E+00  0.43123301167E+02  0.43123301167E+02  0.00000000000E+00 0. -1.
          1   -1    0    0  501    0 -0.00000000000E+00 -0.00000000000E+00 -0.45273707284E+03  0.45273707284E+03  0.00000000000E+00 0. -1.
         25    2    1    2    0    0  0.67238429962E+02  0.29009349469E+02 -0.23915589714E+03  0.27960732450E+03  0.12498865530E+03 0.  0.
          2    1    1    2  501    0  0.10945348239E+02 -0.41578288942E+02 -0.10517932643E+03  0.11362766154E+03  0.00000000000E+00 0. -1.
          1    1    1    2  502    0 -0.78183778201E+02  0.12568939473E+02 -0.65278548103E+02  0.10262538797E+03  0.00000000000E+00 0. -1.
         22    1    3    3    0    0  0.74814904023E+02  0.34822911259E+02 -0.25110129557E+03  0.26431376364E+03  0.00000000000E+00 0.  1.
         22    1    3    3    0    0 -0.75764740610E+01 -0.58135617905E+01  0.11945398432E+02  0.15293560854E+02  0.00000000000E+00 0.  1.
</event>
<event>
 7    1  0.6078244E-006  0.3291726E+02  0.7818608E-02  0.1597490E+00
          2   -1    0    0  502    0  0.00000000000E+00  0.00000000000E+00  0.38345246023E+03  0.38345246023E+03  0.00000000000E+00 0. -1.
          1   -1    0    0  501    0 -0.00000000000E+00 -0.00000000000E+00 -0.75284133240E+03  0.75284133240E+03  0.00000000000E+00 0. -1.
         25    2    1    2    0    0 -0.75347536567E+01 -0.53816151399E+01 -0.62016473508E+02  0.13984410169E+03  0.12499838197E+03 0.  0.
          2    1    1    2  501    0  0.54955592591E+01  0.32745909420E+02 -0.65094086819E+03  0.65178716590E+03  0.00000000000E+00 0. -1.
          1    1    1    2  502    0  0.20391943976E+01 -0.27364294280E+02  0.34356846953E+03  0.34466252504E+03  0.00000000000E+00 0. -1.
         22    1    3    3    0    0  0.24898259705E+01  0.47252857335E+02 -0.71192605918E+02  0.85483442239E+02  0.00000000000E+00 0.  1.
         22    1    3    3    0    0 -0.10024579627E+02 -0.52634472475E+02  0.91761324095E+01  0.54360659447E+02  0.00000000000E+00 0.  1.
</event>
<event>
 7    1  0.1312699E-005  0.1039780E+03  0.7818608E-02  0.1430945E+00
          2   -1    0    0  502    0  0.00000000000E+00  0.00000000000E+00  0.26199693232E+04  0.26199693232E+04  0.00000000000E+00 0. -1.
          1   -1    0    0  501    0 -0.00000000000E+00 -0.00000000000E+00 -0.18415803584E+04  0.18415803584E+04  0.00000000000E+00 0. -1.
         25    2    1    2    0    0  0.80566532091E+02  0.21153335534E+01 -0.72541855183E+03  0.74050798680E+03  0.12499824976E+03 0.  0.
          2    1    1    2  501    0  0.21975817428E+02  0.15308491477E+02 -0.11074198259E+04  0.11077436334E+04  0.00000000000E+00 0. -1.
          1    1    1    2  502    0 -0.10254234952E+03 -0.17423825030E+02  0.26112273425E+04  0.26132980614E+04  0.00000000000E+00 0. -1.
         22    1    3    3    0    0 -0.62346463433E+01 -0.47262599982E+02 -0.28027325495E+03  0.28429864863E+03  0.00000000000E+00 0. -1.
         22    1    3    3    0    0  0.86801178434E+02  0.49377933535E+02 -0.44514529688E+03  0.45620933817E+03  0.00000000000E+00 0. -1.
</event>
<event>
 7    1  0.6078244E-006  0.7593361E+02  0.7818608E-02  0.1411011E+00
          2   -1    0    0  502    0  0.00000000000E+00  0.00000000000E+00  0.12115944209E+04  0.12115944209E+04  0.00000000000E+00 0. -1.
          1   -1    0    0  501    0 -0.00000000000E+00 -0.00000000000E+00 -0.34048330110E+03  0.34048330110E+03  0.00000000000E+00 0. -1.
         25    2    1    2    0    0  0.10209815809E+02  0.32501471846E+02 -0.14258349831E+03  0.19265557514E+03  0.12500212250E+03 0.  0.
          2    1    1    2  501    0  0.25614112854E+01  0.42663780298E+02 -0.16897546835E+03  0.17429706790E+03  0.00000000000E+00 0. -1.
          1    1    1    2  502    0 -0.12771227095E+02 -0.75165252144E+02  0.11826700865E+04  0.11851250790E+04  0.00000000000E+00 0. -1.
         22    1    3    3    0    0 -0.49428066808E+02 -0.16708031515E+02 -0.60490696556E+02  0.79883768535E+02  0.00000000000E+00 0. -1.
         22    1    3    3    0    0  0.59637882617E+02  0.49209503360E+02 -0.82092801755E+02  0.11277180660E+03  0.00000000000E+00 0. -1.
</event>
<event>
 7    1  0.6078244E-006  0.8072730E+02  0.7818608E-02  0.1379635E+00
          2   -1    0    0  502    0  0.00000000000E+00  0.00000000000E+00  0.42585220845E+03  0.42585220845E+03  0.00000000000E+00 0. -1.
          1   -1    0    0  501    0 -0.00000000000E+00 -0.00000000000E+00 -0.18764637546E+03  0.18764637546E+03  0.00000000000E+00 0. -1.
         25    2    1    2    0    0 -0.65179377389E+01 -0.94452507979E+01  0.23694747416E+03  0.26814302148E+03  0.12499951274E+03 0.  0.
          2    1    1    2  501    0  0.52629584293E+02 -0.61212941224E+02 -0.15103283858E+03  0.17125365878E+03  0.00000000000E+00 0. -1.
          1    1    1    2  502    0 -0.46111646554E+02  0.70658192022E+02  0.15229119740E+03  0.17410190365E+03  0.00000000000E+00 0. -1.
         22    1    3    3    0    0  0.34934445926E+02  0.44994367781E+02  0.10145160956E+03  0.11635006543E+03  0.00000000000E+00 0. -1.
         22    1    3    3    0    0 -0.41452383665E+02 -0.54439618579E+02  0.13549586460E+03  0.15179295605E+03  0.00000000000E+00 0. -1.
</event>
<event>
 7    1  0.6078244E-006  0.2454557E+03  0.7818608E-02  0.1229200E+00
          2   -1    0    0  502    0  0.00000000000E+00  0.00000000000E+00  0.44810954859E+03  0.44810954859E+03  0.00000000000E+00 0. -1.
          1   -1    0    0  501    0 -0.00000000000E+00 -0.00000000000E+00 -0.10986501946E+04  0.10986501946E+04  0.00000000000E+00 0. -1.
         25    2    1    2    0    0 -0.95102142731E+02 -0.21666888095E+03 -0.29212840341E+03  0.39617533562E+03  0.12500428373E+03 0.  0.
          2    1    1    2  501    0 -0.62439780869E+02  0.25954621551E+02 -0.71412230508E+03  0.71731655162E+03  0.00000000000E+00 0. -1.
          1    1    1    2  502    0  0.15754192360E+03  0.19071425940E+03  0.35571006249E+03  0.43326785593E+03  0.00000000000E+00 0. -1.
         22    1    3    3    0    0 -0.42883501949E+01 -0.12783501671E+02 -0.10226151398E+03  0.10314661945E+03  0.00000000000E+00 0. -1.
         22    1    3    3    0    0 -0.90813792536E+02 -0.20388537928E+03 -0.18986688943E+03  0.29302871617E+03  0.00000000000E+00 0. -1.
</event>
<event>
 7    1  0.6078244E-006  0.1102415E+03  0.7818608E-02  0.1384872E+00
          2   -1    0    0  502    0  0.00000000000E+00  0.00000000000E+00  0.19253011563E+03  0.19253011563E+03  0.00000000000E+00 0. -1.
          1   -1    0    0  501    0 -0.00000000000E+00 -0.00000000000E+00 -0.31417541059E+03  0.31417541059E+03  0.00000000000E+00 0. -1.
         25    2    1    2    0    0 -0.35287552004E+02  0.10193288758E+03  0.53557831021E+02  0.17358387744E+03  0.12500958503E+03 0.  0.
          2    1    1    2  501    0  0.68497164761E+02 -0.87445647478E+02 -0.23685677760E+03  0.26160989266E+03  0.00000000000E+00 0. -1.
          1    1    1    2  502    0 -0.33209612758E+02 -0.14487240097E+02  0.61653651620E+02  0.71511756119E+02  0.00000000000E+00 0. -1.
         22    1    3    3    0    0 -0.35311870264E+02 -0.13987167580E+02  0.42713344068E+02  0.57157666152E+02  0.00000000000E+00 0. -1.
         22    1    3    3    0    0  0.24318260451E-01  0.11592005516E+03  0.10844486953E+02  0.11642621129E+03  0.00000000000E+00 0. -1.
</event>
<event>
 7    1  0.6078244E-006  0.5620384E+02  0.7818608E-02  0.1549021E+00
          2   -1    0    0  502    0  0.00000000000E+00  0.00000000000E+00  0.14301789418E+03  0.14301789418E+03  0.00000000000E+00 0. -1.
          1   -1    0    0  501    0 -0.00000000000E+00 -0.00000000000E+00 -0.30296434174E+03  0.30296434174E+03  0.00000000000E+00 0. -1.
         25    2    1    2    0    0 -0.12160804929E+02 -0.62603750388E+02  0.19915695969E+02  0.14173499717E+03  0.12500023895E+03 0.  0.
          2    1    1    2  501    0  0.28490806867E+02  0.48257317652E+02 -0.23677929647E+03  0.24332063213E+03  0.00000000000E+00 0. -1.
          1    1    1    2  502    0 -0.16330001938E+02  0.14346432736E+02  0.56917152940E+02  0.60926606621E+02  0.00000000000E+00 0. -1.
         22    1    3    3    0    0 -0.43858233274E+02  0.20628717180E+02  0.20612455442E+02  0.52668414801E+02  0.00000000000E+00 0. -1.
         22    1    3    3    0    0  0.31697428344E+02 -0.83232467568E+02 -0.69675947275E+00  0.89066582369E+02  0.00000000000E+00 0. -1.
</event>
<event>
 7    1  0.6078244E-006  0.6365957E+02  0.7818608E-02  0.1387791E+00
          2   -1    0    0  502    0  0.00000000000E+00  0.00000000000E+00  0.60400447380E+02  0.60400447380E+02  0.00000000000E+00 0. -1.
          1   -1    0    0  501    0 -0.00000000000E+00 -0.00000000000E+00 -0.39734305938E+03  0.39734305938E+03  0.00000000000E+00 0. -1.
         25    2    1    2    0    0  0.17630936968E+02  0.18799440538E+02 -0.54790038057E+02  0.13888968599E+03  0.12499651076E+03 0.  0.
          2    1    1    2  501    0 -0.68325280339E+02  0.15632496790E+02 -0.22270905699E+03  0.23347814235E+03  0.00000000000E+00 0. -1.
          1    1    1    2  502    0  0.50694343370E+02 -0.34431937328E+02 -0.59443516959E+02  0.85375678424E+02  0.00000000000E+00 0. -1.
         22    1    3    3    0    0  0.15928198465E+02  0.72129715991E+02 -0.37213396316E+02  0.82711790578E+02  0.00000000000E+00 0.  1.
         22    1    3    3    0    0  0.17027385033E+01 -0.53330275453E+02 -0.17576641741E+02  0.56177895415E+02  0.00000000000E+00 0.  1.
</event>
<event>
 7    1  0.6078244E-006  0.2223604E+03  0.7818608E-02  0.1251480E+00
          2   -1    0    0  502    0  0.00000000000E+00  0.00000000000E+00  0.36472753933E+04  0.36472753933E+04  0.00000000000E+00 0. -1.
          1   -1    0    0  501    0 -0.00000000000E+00 -0.00000000000E+00 -0.68521529511E+03  0.68521529511E+03  0.00000000000E+00 0. -1.
         25    2    1    2    0    0 -0.71648607953E+02  0.24450089779E+03  0.43938223665E+02  0.28717775146E+03  0.12500512547E+03 0.  0.
          2    1    1    2  501    0  0.18334255935E+02 -0.21800527176E+03 -0.54209896734E+03  0.58457996360E+03  0.00000000000E+00 0. -1.
          1    1    1    2  502    0  0.53314352019E+02 -0.26495626023E+02  0.34602208419E+04  0.34607329734E+04  0.00000000000E+00 0. -1.
         22    1    3    3    0    0 -0.27652555023E+00  0.19932908186E+03  0.31290855003E+02  0.20177035696E+03  0.00000000000E+00 0. -1.
         22    1    3    3    0    0 -0.71372082403E+02  0.45171815924E+02  0.12647368662E+02  0.85407394496E+02  0.00000000000E+00 0. -1.
</event>
<event>
 7    1  0.6078244E-006  0.5127706E+02  0.7818608E-02  0.1467159E+00
          2   -1    0    0  502    0  0.00000000000E+00  0.00000000000E+00  0.53167569735E+03  0.53167569735E+03  0.00000000000E+00 0. -1.
          1   -1    0    0  501    0 -0.00000000000E+00 -0.00000000000E+00 -0.21229225024E+04  0.21229225024E+04  0.00000000000E+00 0. -1.
         25    2    1    2    0    0  0.65136394613E+02 -0.19920216117E+02 -0.13240598588E+02  0.14296734956E+03  0.12499913870E+03 0.  0.
          2    1    1    2  501    0 -0.35405785304E+02 -0.21790760414E+02 -0.20432013079E+04  0.20436242295E+04  0.00000000000E+00 0. -1.
          1    1    1    2  502    0 -0.29730609309E+02  0.41710976531E+02  0.46519510138E+03  0.46800662072E+03  0.00000000000E+00 0. -1.
         22    1    3    3    0    0  0.23514821423E+02  0.25029972337E+02 -0.57787531632E+02  0.67222356057E+02  0.00000000000E+00 0. -1.
         22    1    3    3    0    0  0.41621573190E+02 -0.44950188454E+02  0.44546933044E+02  0.75744993501E+02  0.00000000000E+00 0. -1.
</event>
<event>
 7    1  0.6078244E-006  0.1352393E+03  0.7818608E-02  0.1242680E+00
          2   -1    0    0  502    0  0.00000000000E+00  0.00000000000E+00  0.46957852442E+03  0.46957852442E+03  0.00000000000E+00 0. -1.
          1   -1    0    0  501    0 -0.00000000000E+00 -0.00000000000E+00 -0.27225039921E+03  0.27225039921E+03  0.00000000000E+00 0. -1.
         25    2    1    2    0    0  0.31084845435E+02 -0.98984171621E+02 -0.78979061931E+02  0.18062946750E+03  0.12500071384E+03 0.  0.
          2    1    1    2  501    0 -0.13452874226E+03  0.12605766619E+03 -0.71186690423E+02  0.19762606760E+03  0.00000000000E+00 0. -1.
          1    1    1    2  502    0  0.10344389683E+03 -0.27073494570E+02  0.34749387757E+03  0.36357338853E+03  0.00000000000E+00 0. -1.
         22    1    3    3    0    0 -0.24369135435E+02 -0.84105308577E+02 -0.86064093949E+02  0.12277860547E+03  0.00000000000E+00 0. -1.
         22    1    3    3    0    0  0.55453980871E+02 -0.14878863043E+02  0.70850320183E+01  0.57850862038E+02  0.00000000000E+00 0. -1.
</event>
<event>
 7    1  0.6078244E-006  0.5465304E+02  0.7818608E-02  0.1439271E+00
          2   -1    0    0  502    0  0.00000000000E+00  0.00000000000E+00  0.13133714376E+04  0.13133714376E+04  0.00000000000E+00 0. -1.
          1   -1    0    0  501    0 -0.00000000000E+00 -0.00000000000E+00 -0.15648203290E+03  0.15648203290E+03  0.00000000000E+00 0. -1.
         25    2    1    2    0    0 -0.99546272104E+02 -0.22001375049E+02  0.69949312872E+02  0.17581709415E+03  0.12500089371E+03 0.  0.
          2    1    1    2  501    0  0.46559684535E+02  0.11075141240E+02 -0.97367476440E+02  0.10849372538E+03  0.00000000000E+00 0. -1.
          1    1    1    2  502    0  0.52986587569E+02  0.10926233808E+02  0.11843075682E+04  0.11855426510E+04  0.00000000000E+00 0. -1.
         22    1    3    3    0    0  0.14495628173E+02 -0.11955191827E+02  0.57697416034E+02  0.60679829142E+02  0.00000000000E+00 0. -1.
         22    1    3    3    0    0 -0.11404190028E+03 -0.10046183222E+02  0.12251896838E+02  0.11513726500E+03  0.00000000000E+00 0. -1.
</event>
<event>
 7    1  0.6078244E-006  0.6456659E+02  0.7818608E-02  0.1506274E+00
          2   -1    0    0  502    0  0.00000000000E+00  0.00000000000E+00  0.24272919806E+02  0.24272919806E+02  0.00000000000E+00 0. -1.
          1   -1    0    0  501    0 -0.00000000000E+00 -0.00000000000E+00 -0.16643954148E+04  0.16643954148E+04  0.00000000000E+00 0. -1.
         25    2    1    2    0    0 -0.44630886418E+02 -0.36600440837E+02 -0.13757342865E+04  0.13826070529E+04  0.12500370981E+03 0.  0.
          2    1    1    2  501    0  0.14104015515E+02 -0.20773977224E+02 -0.23216939582E+03  0.23352325310E+03  0.00000000000E+00 0. -1.
          1    1    1    2  502    0  0.30526870903E+02  0.57374418061E+02 -0.32218812616E+02  0.72538028518E+02  0.00000000000E+00 0. -1.
         22    1    3    3    0    0 -0.49750561185E+02 -0.79167816604E+02 -0.10268527461E+04  0.10311009765E+04  0.00000000000E+00 0. -1.
         22    1    3    3    0    0  0.51196747665E+01  0.42567375767E+02 -0.34888154040E+03  0.35150607645E+03  0.00000000000E+00 0. -1.
</event>
<event>
 7    1  0.6078244E-006  0.9672482E+02  0.7818608E-02  0.1289659E+00
          2   -1    0    0  502    0  0.00000000000E+00  0.00000000000E+00  0.52624703584E+03  0.52624703584E+03  0.00000000000E+00 0. -1.
          1   -1    0    0  501    0 -0.00000000000E+00 -0.00000000000E+00 -0.49447236774E+03  0.49447236774E+03  0.00000000000E+00 0. -1.
         25    2    1    2    0    0  0.14472331093E+02 -0.10709317113E+03 -0.13055722065E+03  0.21056809845E+03  0.12496135624E+03 0.  0.
          2    1    1    2  501    0  0.71923624425E+02  0.61512138396E+02 -0.31191099497E+03  0.32595278754E+03  0.00000000000E+00 0. -1.
          1    1    1    2  502    0 -0.86395955518E+02  0.45581032732E+02  0.47424288372E+03  0.48419851758E+03  0.00000000000E+00 0. -1.
         22    1    3    3    0    0 -0.45515990456E+02 -0.92912779263E+02 -0.85408006243E+02  0.13416041692E+03  0.00000000000E+00 0. -1.
         22    1    3    3    0    0  0.59988321549E+02 -0.14180391866E+02 -0.45149214408E+02  0.76407681534E+02  0.00000000000E+00 0. -1.
</event>
<event>
 7    1  0.6078244E-006  0.1371439E+03  0.7818608E-02  0.1288111E+00
          2   -1    0    0  502    0  0.00000000000E+00  0.00000000000E+00  0.93246832980E+03  0.93246832980E+03  0.00000000000E+00 0. -1.
          1   -1    0    0  501    0 -0.00000000000E+00 -0.00000000000E+00 -0.11042364185E+04  0.11042364185E+04  0.00000000000E+00 0. -1.
         25    2    1    2    0    0 -0.12576338624E+02  0.11605294558E+03  0.75285469855E+03  0.77203721573E+03  0.12499925947E+03 0.  0.
          2    1    1    2  501    0 -0.54395927852E+02 -0.12611477817E+03 -0.10833890611E+04  0.10920603060E+04  0.00000000000E+00 0. -1.
          1    1    1    2  502    0  0.66972266475E+02  0.10061832585E+02  0.15876627385E+03  0.17260722657E+03  0.00000000000E+00 0. -1.
         22    1    3    3    0    0 -0.72449690098E+01  0.11609244955E+03  0.75662084389E+03  0.76550966540E+03  0.00000000000E+00 0.  1.
         22    1    3    3    0    0 -0.53313696140E+01 -0.39503965397E-01 -0.37661453390E+01  0.65275503245E+01  0.00000000000E+00 0.  1.
</event>
<event>
 7    1  0.6078244E-006  0.7285038E+02  0.7818608E-02  0.1352871E+00
          2   -1    0    0  502    0  0.00000000000E+00  0.00000000000E+00  0.34531641115E+03  0.34531641115E+03  0.00000000000E+00 0. -1.
          1   -1    0    0  501    0 -0.00000000000E+00 -0.00000000000E+00 -0.28371811526E+04  0.28371811526E+04  0.00000000000E+00 0. -1.
         25    2    1    2    0    0 -0.71931595570E+02  0.29121824418E+02 -0.15269237307E+03  0.21204348575E+03  0.12500097582E+03 0.  0.
          2    1    1    2  501    0  0.11213130093E+02 -0.70607867173E+02 -0.26500413676E+04  0.26510055555E+04  0.00000000000E+00 0. -1.
          1    1    1    2  502    0  0.60718465477E+02  0.41486042755E+02  0.31086899928E+03  0.31944852247E+03  0.00000000000E+00 0. -1.
         22    1    3    3    0    0 -0.81324511051E+01 -0.12657740762E+02  0.18965093912E+02  0.24208055462E+02  0.00000000000E+00 0. -1.
         22    1    3    3    0    0 -0.63799144465E+02  0.41779565180E+02 -0.17165746698E+03  0.18783543029E+03  0.00000000000E+00 0. -1.
</event>
<event>
 7    1  0.6078244E-006  0.9206784E+02  0.7818608E-02  0.1416427E+00
          2   -1    0    0  502    0  0.00000000000E+00  0.00000000000E+00  0.30227561242E+03  0.30227561242E+03  0.00000000000E+00 0. -1.
          1   -1    0    0  501    0 -0.00000000000E+00 -0.00000000000E+00 -0.32490961249E+03  0.32490961249E+03  0.00000000000E+00 0. -1.
         25    2    1    2    0    0 -0.80046832138E+02  0.76221142184E+02  0.13373584334E+02  0.16739454925E+03  0.12499969804E+03 0.  0.
          2    1    1    2  501    0  0.45386952358E+00 -0.33796692334E+02 -0.23704781771E+03  0.23944538060E+03  0.00000000000E+00 0. -1.
          1    1    1    2  502    0  0.79592962614E+02 -0.42424449850E+02  0.20104023331E+03  0.22034529505E+03  0.00000000000E+00 0. -1.
         22    1    3    3    0    0  0.16163027038E+02  0.50605783563E+02  0.37407686379E+02  0.64973254292E+02  0.00000000000E+00 0. -1.
         22    1    3    3    0    0 -0.96209859175E+02  0.25615358621E+02 -0.24034102045E+02  0.10242129496E+03  0.00000000000E+00 0. -1.
</event>
<event>
 7    1  0.6078244E-006  0.1333590E+03  0.7818608E-02  0.1302745E+00
          2   -1    0    0  502    0  0.00000000000E+00  0.00000000000E+00  0.28263759360E+04  0.28263759360E+04  0.00000000000E+00 0. -1.
          1   -1    0    0  501    0 -0.00000000000E+00 -0.00000000000E+00 -0.32749173336E+04  0.32749173336E+04  0.00000000000E+00 0. -1.
         25    2    1    2    0    0  0.32749109269E+02  0.10618136883E+03  0.88754585945E+03  0.90316662182E+03  0.12500122764E+03 0.  0.
          2    1    1    2  501    0 -0.48707531860E+02  0.36386385433E+02 -0.32641590559E+04  0.32647252158E+04  0.00000000000E+00 0. -1.
          1    1    1    2  502    0  0.15958422591E+02 -0.14256775426E+03  0.19280717988E+04  0.19334014320E+04  0.00000000000E+00 0. -1.
         22    1    3    3    0    0  0.44602480795E+02  0.10276309146E+02  0.10325713567E+03  0.11294697822E+03  0.00000000000E+00 0.  1.
         22    1    3    3    0    0 -0.11853371526E+02  0.95905059685E+02  0.78428872378E+03  0.79021964360E+03  0.00000000000E+00 0.  1.
</event>
<event>
 7    1  0.6078244E-006  0.7930990E+02  0.7818608E-02  0.1414273E+00
          2   -1    0    0  502    0  0.00000000000E+00  0.00000000000E+00  0.19050679161E+04  0.19050679161E+04  0.00000000000E+00 0. -1.
          1   -1    0    0  501    0 -0.00000000000E+00 -0.00000000000E+00 -0.21160872581E+03  0.21160872581E+03  0.00000000000E+00 0. -1.
         25    2    1    2    0    0 -0.30429118373E+02  0.11132356854E+03  0.13564639392E+04  0.13670912880E+04  0.12500121304E+03 0.  0.
          2    1    1    2  501    0  0.73568872850E+01 -0.78774931763E+02 -0.19793901873E+03  0.21316535554E+03  0.00000000000E+00 0. -1.
          1    1    1    2  502    0  0.23072231088E+02 -0.32548636775E+02  0.53493426980E+03  0.53641999833E+03  0.00000000000E+00 0. -1.
         22    1    3    3    0    0  0.30564953873E+01 -0.24859089226E+02  0.35127133676E+03  0.35216312769E+03  0.00000000000E+00 0. -1.
         22    1    3    3    0    0 -0.33485613760E+02  0.13618265776E+03  0.10051926025E+04  0.10149281604E+04  0.00000000000E+00 0. -1.
</event>
<event>
 7    1  0.6078244E-006  0.6587868E+02  0.7818608E-02  0.1488229E+00
          2   -1    0    0  502    0  0.00000000000E+00  0.00000000000E+00  0.21847609879E+03  0.21847609879E+03  0.00000000000E+00 0. -1.
          1   -1    0    0  501    0 -0.00000000000E+00 -0.00000000000E+00 -0.12435804750E+04  0.12435804750E+04  0.00000000000E+00 0. -1.
         25    2    1    2    0    0  0.23909690234E+02  0.32744078961E+02 -0.31761341776E+03  0.34372331336E+03  0.12499433993E+03 0.  0.
          2    1    1    2  501    0 -0.38576243842E+02 -0.56443977050E+02 -0.91067949078E+03  0.91324212784E+03  0.00000000000E+00 0. -1.
          1    1    1    2  502    0  0.14666553608E+02  0.23699898090E+02  0.20318853236E+03  0.20509113254E+03  0.00000000000E+00 0. -1.
         22    1    3    3    0    0  0.59217717110E+02  0.30667910982E+02 -0.29334309523E+03  0.30082790812E+03  0.00000000000E+00 0. -1.
         22    1    3    3    0    0 -0.35308026876E+02  0.20761679784E+01 -0.24270322527E+02  0.42895405242E+02  0.00000000000E+00 0. -1.
</event>
<event>
 7    1  0.6078244E-006  0.1621431E+03  0.7818608E-02  0.1274234E+00
          2   -1    0    0  502    0  0.00000000000E+00  0.00000000000E+00  0.10231911920E+04  0.10231911920E+04  0.00000000000E+00 0. -1.
          1   -1    0    0  501    0 -0.00000000000E+00 -0.00000000000E+00 -0.14363155129E+04  0.14363155129E+04  0.00000000000E+00 0. -1.
         25    2    1    2    0    0 -0.15834165576E+03  0.31311155902E+02 -0.14937793846E+03  0.25296643290E+03  0.12500311695E+03 0.  0.
          2    1    1    2  501    0  0.24267239829E+02  0.60679840470E+02 -0.12274637835E+04  0.12292022949E+04  0.00000000000E+00 0. -1.
          1    1    1    2  502    0  0.13407441593E+03 -0.91990996372E+02  0.96371740108E+03  0.97733797714E+03  0.00000000000E+00 0. -1.
         22    1    3    3    0    0 -0.11902845838E+02  0.47057248212E+02 -0.71338549994E+02  0.86285868273E+02  0.00000000000E+00 0.  1.
         22    1    3    3    0    0 -0.14643880992E+03 -0.15746092310E+02 -0.78039388461E+02  0.16668056463E+03  0.00000000000E+00 0.  1.
</event>
<event>
 7    1  0.6078244E-006  0.5719746E+02  0.7818608E-02  0.1543673E+00
          2   -1    0    0  502    0  0.00000000000E+00  0.00000000000E+00  0.33201127955E+03  0.33201127955E+03  0.00000000000E+00 0. -1.
          1   -1    0    0  501    0 -0.00000000000E+00 -0.00000000000E+00 -0.77847035954E+02  0.77847035954E+02  0.00000000000E+00 0. -1.
         25    2    1    2    0    0 -0.12521238359E+02 -0.46412497557E+02  0.18938307896E+03  0.23195418645E+03  0.12500357064E+03 0.  0.
          2    1    1    2  501    0  0.34629505581E+02  0.46633701428E+02 -0.40187418153E+02  0.70632381692E+02  0.00000000000E+00 0. -1.
          1    1    1    2  502    0 -0.22108267221E+02 -0.22120387058E+00  0.10496858278E+03  0.10727174736E+03  0.00000000000E+00 0. -1.
         22    1    3    3    0    0  0.20242057330E+02  0.32555293297E+02  0.10521345385E+03  0.11197972529E+03  0.00000000000E+00 0.  1.
         22    1    3    3    0    0 -0.32763295690E+02 -0.78967790855E+02  0.84169625118E+02  0.11997446116E+03  0.00000000000E+00 0.  1.
</event>
<event>
 7    1  0.6078244E-006  0.4046392E+02  0.7818608E-02  0.1553258E+00
          2   -1    0    0  502    0  0.00000000000E+00  0.00000000000E+00  0.18358873257E+04  0.18358873257E+04  0.00000000000E+00 0. -1.
          1   -1    0    0  501    0 -0.00000000000E+00 -0.00000000000E+00 -0.15665132246E+03  0.15665132246E+03  0.00000000000E+00 0. -1.
         25    2    1    2    0    0 -0.23074770620E+02  0.40662028429E+02  0.10983989431E+03  0.17284466105E+03  0.12499851550E+03 0.  0.
          2    1    1    2  501    0 -0.63016452160E+01 -0.40056021990E+02 -0.12173349039E+03  0.12830915132E+03  0.00000000000E+00 0. -1.
          1    1    1    2  502    0  0.29376415836E+02 -0.60600643850E+00  0.16911295993E+04  0.16913848357E+04  0.00000000000E+00 0. -1.
         22    1    3    3    0    0  0.32758254214E+02  0.64756931634E+02  0.62633318182E+02  0.95861858736E+02  0.00000000000E+00 0. -1.
         22    1    3    3    0    0 -0.55833024835E+02 -0.24094903205E+02  0.47206576125E+02  0.76982802314E+02  0.00000000000E+00 0. -1.
</event>
<event>
 7    1  0.6078244E-006  0.1239829E+03  0.7818608E-02  0.1329843E+00
          2   -1    0    0  502    0  0.00000000000E+00  0.00000000000E+00  0.11102839402E+04  0.11102839402E+04  0.00000000000E+00 0. -1.
          1   -1    0    0  501    0 -0.00000000000E+00 -0.00000000000E+00 -0.33877449378E+03  0.33877449378E+03  0.00000000000E+00 0. -1.
         25    2    1    2    0    0  0.12949854106E+03 -0.78498155780E+01  0.48263801564E+03  0.51517802568E+03  0.12504979913E+03 0.  0.
          2    1    1    2  501    0 -0.12114699842E+02  0.49809222213E+02 -0.31405042731E+03  0.31820652958E+03  0.00000000000E+00 0. -1.
          1    1    1    2  502    0 -0.11738384122E+03 -0.41959406635E+02  0.60292185813E+03  0.61567387877E+03  0.00000000000E+00 0. -1.
         22    1    3    3    0    0 -0.15091725102E+02 -0.22011299866E+02  0.14765041529E+03  0.15004300258E+03  0.00000000000E+00 0. -1.
         22    1    3    3    0    0  0.14459026616E+03  0.14161484288E+02  0.33498760036E+03  0.36513502310E+03  0.00000000000E+00 0. -1.
</event>
<event>
 7    1  0.6078244E-006  0.5739216E+02  0.7818608E-02  0.1536122E+00
          2   -1    0    0  502    0  0.00000000000E+00  0.00000000000E+00  0.14761615397E+04  0.14761615397E+04  0.00000000000E+00 0. -1.
          1   -1    0    0  501    0 -0.00000000000E+00 -0.00000000000E+00 -0.19742139082E+02  0.19742139082E+02  0.00000000000E+00 0. -1.
         25    2    1    2    0    0  0.47942754183E+02 -0.23215548581E+02  0.12597893658E+04  0.12670957755E+04  0.12499995512E+03 0.  0.
          2    1    1    2  501    0 -0.57713673011E+02  0.22346192679E+01  0.39475877530E+02  0.69958605493E+02  0.00000000000E+00 0. -1.
          1    1    1    2  502    0  0.97709188284E+01  0.20980929313E+02  0.15715415731E+03  0.15884929779E+03  0.00000000000E+00 0. -1.
         22    1    3    3    0    0 -0.29002682916E+02 -0.12600719681E+02  0.10404379313E+03  0.10874302112E+03  0.00000000000E+00 0.  1.
         22    1    3    3    0    0  0.76945437099E+02 -0.10614828900E+02  0.11557455726E+04  0.11583527544E+04  0.00000000000E+00 0.  1.
</event>
<event>
 7    1  0.1012966E-005  0.5392066E+02  0.7818608E-02  0.1559465E+00
          2   -1    0    0  502    0  0.00000000000E+00  0.00000000000E+00  0.19997683007E+04  0.19997683007E+04  0.00000000000E+00 0. -1.
          1   -1    0    0  501    0 -0.00000000000E+00 -0.00000000000E+00 -0.11241231329E+04  0.11241231329E+04  0.00000000000E+00 0. -1.
         25    2    1    2    0    0 -0.33557090619E+02  0.23128947535E+02 -0.22295751517E+03  0.25883602025E+03  0.12500002105E+03 0.  0.
          2    1    1    2  501    0  0.25832049538E+01  0.21037094258E+02 -0.88273204434E+03  0.88298646331E+03  0.00000000000E+00 0. -1.
          1    1    1    2  502    0  0.30973885666E+02 -0.44166041792E+02  0.19813347274E+04  0.19820689501E+04  0.00000000000E+00 0. -1.
         22    1    3    3    0    0  0.30356150087E+02  0.35547325418E+02 -0.30880953222E+02  0.56024472014E+02  0.00000000000E+00 0.  1.
         22    1    3    3    0    0 -0.63913240706E+02 -0.12418377884E+02 -0.19207656195E+03  0.20281154823E+03  0.00000000000E+00 0.  1.
</event>
<event>
 7    1  0.6078244E-006  0.6672695E+02  0.7818608E-02  0.1474883E+00
          2   -1    0    0  502    0  0.00000000000E+00  0.00000000000E+00  0.18200446781E+04  0.18200446781E+04  0.00000000000E+00 0. -1.
          1   -1    0    0  501    0 -0.00000000000E+00 -0.00000000000E+00 -0.19310658205E+03  0.19310658205E+03  0.00000000000E+00 0. -1.
         25    2    1    2    0    0  0.15627159002E+02  0.64851460062E+02  0.17141078852E+03  0.22238914845E+03  0.12500141982E+03 0.  0.
          2    1    1    2  501    0 -0.30227530413E+02  0.44382462864E+00 -0.16555860801E+03  0.16829602866E+03  0.00000000000E+00 0. -1.
          1    1    1    2  502    0  0.14600371411E+02 -0.65295284691E+02  0.16210859155E+04  0.16224660830E+04  0.00000000000E+00 0. -1.
         22    1    3    3    0    0 -0.14814396312E+02 -0.32982529406E+02  0.26122865060E+02  0.44606251390E+02  0.00000000000E+00 0.  1.
         22    1    3    3    0    0  0.30441555314E+02  0.97833989468E+02  0.14528792346E+03  0.17778289706E+03  0.00000000000E+00 0.  1.
</event>
<event>
 7    1  0.6078244E-006  0.1284533E+03  0.7818608E-02  0.1340346E+00
          2   -1    0    0  502    0  0.00000000000E+00  0.00000000000E+00  0.21647696308E+03  0.21647696308E+03  0.00000000000E+00 0. -1.
          1   -1    0    0  501    0 -0.00000000000E+00 -0.00000000000E+00 -0.16744707142E+04  0.16744707142E+04  0.00000000000E+00 0. -1.
         25    2    1    2    0    0 -0.13140010940E+03  0.40482404873E+02 -0.17843768966E+03  0.25762572963E+03  0.12500477440E+03 0.  0.
          2    1    1    2  501    0  0.12823263220E+03  0.45498721676E+01 -0.14506799760E+04  0.14563436071E+04  0.00000000000E+00 0. -1.
          1    1    1    2  502    0  0.31674772053E+01 -0.45032277040E+02  0.17112391453E+03  0.17697834052E+03  0.00000000000E+00 0. -1.
         22    1    3    3    0    0  0.18561619561E+02  0.10834656498E+02 -0.61546354458E+02  0.65191082590E+02  0.00000000000E+00 0.  1.
         22    1    3    3    0    0 -0.14996172896E+03  0.29647748375E+02 -0.11689133520E+03  0.19243464704E+03  0.00000000000E+00 0.  1.
</event>
<event>
 7    1  0.6078244E-006  0.5505264E+02  0.7818608E-02  0.1550372E+00
          2   -1    0    0  502    0  0.00000000000E+00  0.00000000000E+00  0.14086655936E+04  0.14086655936E+04  0.00000000000E+00 0. -1.
          1   -1    0    0  501    0 -0.00000000000E+00 -0.00000000000E+00 -0.32187221890E+02  0.32187221890E+02  0.00000000000E+00 0. -1.
         25    2    1    2    0    0 -0.10836132809E+02  0.32888253433E+02  0.22866911848E+03  0.26289406599E+03  0.12499866078E+03 0.  0.
          2    1    1    2  501    0  0.38460680359E+00  0.21996220750E+02 -0.59956188565E+01  0.22801953757E+02  0.00000000000E+00 0. -1.
          1    1    1    2  502    0  0.10451526005E+02 -0.54884474183E+02  0.11538048720E+04  0.11551567957E+04  0.00000000000E+00 0. -1.
         22    1    3    3    0    0  0.10087694700E+02 -0.39428295039E+02  0.30355934107E+02  0.50772381956E+02  0.00000000000E+00 0. -1.
         22    1    3    3    0    0 -0.20923827509E+02  0.72316548471E+02  0.19831318437E+03  0.21212168403E+03  0.00000000000E+00 0. -1.
</event>
<event>
 7    1  0.6078244E-006  0.4246581E+02  0.7818608E-02  0.1496384E+00
          2   -1    0    0  502    0  0.00000000000E+00  0.00000000000E+00  0.30997625718E+03  0.30997625718E+03  0.00000000000E+00 0. -1.
          1   -1    0    0  501    0 -0.00000000000E+00 -0.00000000000E+00 -0.97073126813E+03  0.97073126813E+03  0.00000000000E+00 0. -1.
         25    2    1    2    0    0  0.49059241673E+02  0.39091945205E+02 -0.60729515474E+03  0.62319146476E+03  0.12500082961E+03 0.  0.
          2    1    1    2  501    0 -0.40777612973E+02  0.25448738537E+01 -0.35281144652E+03  0.35516926514E+03  0.00000000000E+00 0. -1.
          1    1    1    2  502    0 -0.82816286998E+01 -0.41636819058E+02  0.29935159031E+03  0.30234679541E+03  0.00000000000E+00 0. -1.
         22    1    3    3    0    0 -0.36226905400E+01  0.71599677042E+02 -0.41591467159E+03  0.42204816275E+03  0.00000000000E+00 0. -1.
         22    1    3    3    0    0  0.52681932213E+02 -0.32507731837E+02 -0.19138048315E+03  0.20114330201E+03  0.00000000000E+00 0. -1.
</event>
<event>
 7    1  0.6078244E-006  0.8967439E+02  0.7818608E-02  0.1427350E+00
          2   -1    0    0  502    0  0.00000000000E+00  0.00000000000E+00  0.17098228042E+04  0.17098228042E+04  0.00000000000E+00 0. -1.
          1   -1    0    0  501    0 -0.00000000000E+00 -0.00000000000E+00 -0.25395042933E+03  0.25395042933E+03  0.00000000000E+00 0. -1.
         25    2    1    2    0    0  0.56325181382E+02 -0.47824869203E+02 -0.78845931741E+02  0.16522935610E+03  0.12499725995E+03 0.  0.
          2    1    1    2  501    0 -0.55235201750E+02  0.79719223827E+02 -0.11391114242E+03  0.14960558321E+03  0.00000000000E+00 0. -1.
          1    1    1    2  502    0 -0.10899796320E+01 -0.31894354624E+02  0.16486294491E+04  0.16489382942E+04  0.00000000000E+00 0. -1.
         22    1    3    3    0    0  0.85929106091E+02 -0.42954787702E+01 -0.71912803835E+02  0.11213257228E+03  0.00000000000E+00 0.  1.
         22    1    3    3    0    0 -0.29603924708E+02 -0.43529390433E+02 -0.69331279066E+01  0.53096783822E+02  0.00000000000E+00 0.  1.
</event>
<event>
 7    1  0.6078244E-006  0.6930242E+02  0.7818608E-02  0.1464765E+00
          2   -1    0    0  502    0  0.00000000000E+00  0.00000000000E+00  0.68256214952E+02  0.68256214952E+02  0.00000000000E+00 0. -1.
          1   -1    0    0  501    0 -0.00000000000E+00 -0.00000000000E+00 -0.17639908827E+04  0.17639908827E+04  0.00000000000E+00 0. -1.
         25    2    1    2    0    0 -0.59641567387E+02 -0.12784524904E+02 -0.31381206167E+03  0.34325493057E+03  0.12500150668E+03 0.  0.
          2    1    1    2  501    0 -0.84988643404E+01  0.30119634020E+02 -0.14121229640E+04  0.14124697124E+04  0.00000000000E+00 0. -1.
          1    1    1    2  502    0  0.68140431728E+02 -0.17335109116E+02  0.30200357944E+02  0.76522454639E+02  0.00000000000E+00 0. -1.
         22    1    3    3    0    0 -0.31346883511E+02 -0.54150946512E+02 -0.68084877188E+02  0.92468927839E+02  0.00000000000E+00 0.  1.
         22    1    3    3    0    0 -0.28294683876E+02  0.41366421607E+02 -0.24572718448E+03  0.25078600273E+03  0.00000000000E+00 0.  1.
</event>
<event>
 7    1  0.6078244E-006  0.1527330E+03  0.7818608E-02  0.1250095E+00
          2   -1    0    0  502    0  0.00000000000E+00  0.00000000000E+00  0.36151145510E+03  0.36151145510E+03  0.00000000000E+00 0. -1.
          1   -1    0    0  501    0 -0.00000000000E+00 -0.00000000000E+00 -0.35496198844E+03  0.35496198844E+03  0.00000000000E+00 0. -1.
         25    2    1    2    0    0 -0.56495614303E+02  0.21693226757E+03 -0.38811265079E+02  0.25957929362E+03  0.12499492882E+03 0.  0.
          2    1    1    2  501    0  0.44917120583E+02 -0.12981611224E+03 -0.17335511682E+03  0.22118265584E+03  0.00000000000E+00 0. -1.
          1    1    1    2  502    0  0.11578493720E+02 -0.87116155328E+02  0.21871584855E+03  0.23571149408E+03  0.00000000000E+00 0. -1.
         22    1    3    3    0    0 -0.96155415165E+02  0.13635921259E+03 -0.25941895602E+02  0.16885698289E+03  0.00000000000E+00 0.  1.
         22    1    3    3    0    0  0.39659800862E+02  0.80573054974E+02 -0.12869369477E+02  0.90722310724E+02  0.00000000000E+00 0.  1.
</event>
<event>
 7    1  0.6078244E-006  0.6389072E+02  0.7818608E-02  0.1509098E+00
          2   -1    0    0  502    0  0.00000000000E+00  0.00000000000E+00  0.62345143252E+03  0.62345143252E+03  0.00000000000E+00 0. -1.
          1   -1    0    0  501    0 -0.00000000000E+00 -0.00000000000E+00 -0.44484399716E+03  0.44484399716E+03  0.00000000000E+00 0. -1.
         25    2    1    2    0    0  0.19771857376E+02 -0.50172468847E+02 -0.78785167189E+02  0.15728486583E+03  0.12499289370E+03 0.  0.
          2    1    1    2  501    0 -0.44507434018E+02  0.47382052568E+02 -0.32330694819E+03  0.32977773323E+03  0.00000000000E+00 0. -1.
          1    1    1    2  502    0  0.24735576642E+02  0.27904162794E+01  0.58069955074E+03  0.58123283063E+03  0.00000000000E+00 0. -1.
         22    1    3    3    0    0 -0.20378612854E+01 -0.37273218924E+02  0.28552636212E+02  0.46996795234E+02  0.00000000000E+00 0.  1.
         22    1    3    3    0    0  0.21809718661E+02 -0.12899249923E+02 -0.10733780340E+03  0.11028807060E+03  0.00000000000E+00 0.  1.
</event>
<event>
 7    1  0.6078244E-006  0.5913576E+02  0.7818608E-02  0.1459722E+00
          2   -1    0    0  502    0  0.00000000000E+00  0.00000000000E+00  0.55534149017E+03  0.55534149017E+03  0.00000000000E+00 0. -1.
          1   -1    0    0  501    0 -0.00000000000E+00 -0.00000000000E+00 -0.13215336076E+04  0.13215336076E+04  0.00000000000E+00 0. -1.
         25    2    1    2    0    0  0.21511686020E+02 -0.16932014683E+02  0.94446132177E+01  0.12831148840E+03  0.12500076632E+03 0.  0.
          2    1    1    2  501    0  0.34372029784E+01 -0.37884500877E+02 -0.12599478937E+04  0.12605220127E+04  0.00000000000E+00 0. -1.
          1    1    1    2  502    0 -0.24948888998E+02  0.54816515560E+02  0.48431116303E+03  0.48804159666E+03  0.00000000000E+00 0. -1.
         22    1    3    3    0    0 -0.23186854602E+02  0.32604229410E+02 -0.30712458421E+02  0.50437298739E+02  0.00000000000E+00 0.  1.
         22    1    3    3    0    0  0.44698540622E+02 -0.49536244093E+02  0.40157071639E+02  0.77874189660E+02  0.00000000000E+00 0.  1.
</event>
<event>
 7    1  0.6078244E-006  0.4842520E+02  0.7818608E-02  0.1560514E+00
          2   -1    0    0  502    0  0.00000000000E+00  0.00000000000E+00  0.28460582239E+04  0.28460582239E+04  0.00000000000E+00 0. -1.
          1   -1    0    0  501    0 -0.00000000000E+00 -0.00000000000E+00 -0.17704059491E+03  0.17704059491E+03  0.00000000000E+00 0. -1.
         25    2    1    2    0    0 -0.39091324091E+02 -0.49158710502E+02  0.69050604464E+03  0.70453485386E+03  0.12500420867E+03 0.  0.
          2    1    1    2  501    0  0.23118547089E+02  0.38934262570E+01 -0.16894856536E+03  0.17056741695E+03  0.00000000000E+00 0. -1.
          1    1    1    2  502    0  0.15972777002E+02  0.45265284245E+02  0.21474601498E+04  0.21479965480E+04  0.00000000000E+00 0. -1.
         22    1    3    3    0    0 -0.71130523571E+02 -0.70427276787E+02  0.53961542143E+03  0.54882087765E+03  0.00000000000E+00 0. -1.
         22    1    3    3    0    0  0.32039199480E+02  0.21268566286E+02  0.15089062321E+03  0.15571397621E+03  0.00000000000E+00 0. -1.
</event>
<event>
 7    1  0.1188192E-005  0.9951028E+02  0.7818608E-02  0.1297421E+00
          2   -1    0    0  502    0  0.00000000000E+00  0.00000000000E+00  0.32769605715E+04  0.32769605715E+04  0.00000000000E+00 0. -1.
          1   -1    0    0  501    0 -0.00000000000E+00 -0.00000000000E+00 -0.12648596720E+04  0.12648596720E+04  0.00000000000E+00 0. -1.
         25    2    1    2    0    0  0.45949738774E+02  0.11607060892E+03 -0.28407157307E+03  0.33452258566E+03  0.12499974777E+03 0.  0.
          2    1    1    2  501    0  0.43975640161E+02 -0.73412392064E+02 -0.95288304898E+03  0.95671800509E+03  0.00000000000E+00 0. -1.
          1    1    1    2  502    0 -0.89925378935E+02 -0.42658216856E+02  0.32490555215E+04  0.32505796527E+04  0.00000000000E+00 0. -1.
         22    1    3    3    0    0  0.85326016641E+02  0.55761407762E+02 -0.19444109848E+03  0.21953861731E+03  0.00000000000E+00 0.  1.
         22    1    3    3    0    0 -0.39376277867E+02  0.60309201158E+02 -0.89630474593E+02  0.11498396836E+03  0.00000000000E+00 0.  1.
</event>
<event>
 7    1  0.6078244E-006  0.9520143E+02  0.7818608E-02  0.1396689E+00
          2   -1    0    0  502    0  0.00000000000E+00  0.00000000000E+00  0.18780184742E+04  0.18780184742E+04  0.00000000000E+00 0. -1.
          1   -1    0    0  501    0 -0.00000000000E+00 -0.00000000000E+00 -0.20239034364E+04  0.20239034364E+04  0.00000000000E+00 0. -1.
         25    2    1    2    0    0  0.89123351179E+02  0.80152414014E+02  0.30065552728E+03  0.34696580066E+03  0.12499655814E+03 0.  0.
          2    1    1    2  501    0 -0.85264230097E+02 -0.42188464175E+02 -0.19993829601E+04  0.20016448427E+04  0.00000000000E+00 0. -1.
          1    1    1    2  502    0 -0.38591210820E+01 -0.37963949839E+02  0.15528424706E+04  0.15533112672E+04  0.00000000000E+00 0. -1.
         22    1    3    3    0    0  0.14809418030E+02  0.67515257285E+02  0.50238093911E+02  0.85448785296E+02  0.00000000000E+00 0.  1.
         22    1    3    3    0    0  0.74313933149E+02  0.12637156729E+02  0.25041743337E+03  0.26151701537E+03  0.00000000000E+00 0.  1.
</event>
<event>
 7    1  0.6078244E-006  0.1927461E+03  0.7818608E-02  0.1294431E+00
          2   -1    0    0  502    0  0.00000000000E+00  0.00000000000E+00  0.89274441748E+03  0.89274441748E+03  0.00000000000E+00 0. -1.
          1   -1    0    0  501    0 -0.00000000000E+00 -0.00000000000E+00 -0.72681223930E+03  0.72681223930E+03  0.00000000000E+00 0. -1.
         25    2    1    2    0    0 -0.16431875034E+03  0.55425301915E+02 -0.56461015078E+03  0.60372406716E+03  0.12500204441E+03 0.  0.
          2    1    1    2  501    0 -0.44854080659E+00  0.45421531882E+02 -0.12800216246E+03  0.13582293747E+03  0.00000000000E+00 0. -1.
          1    1    1    2  502    0  0.16476729115E+03 -0.10084683380E+03  0.85854449142E+03  0.88000965214E+03  0.00000000000E+00 0. -1.
         22    1    3    3    0    0 -0.15173961827E+03  0.80423638864E+02 -0.53932781136E+03  0.56601003662E+03  0.00000000000E+00 0.  1.
         22    1    3    3    0    0 -0.12579132071E+02 -0.24998336949E+02 -0.25282339414E+02  0.37714030547E+02  0.00000000000E+00 0.  1.
</event>
<event>
 7    1  0.6078244E-006  0.9411452E+02  0.7818608E-02  0.1365660E+00
          2   -1    0    0  502    0  0.00000000000E+00  0.00000000000E+00  0.20117885196E+03  0.20117885196E+03  0.00000000000E+00 0. -1.
          1   -1    0    0  501    0 -0.00000000000E+00 -0.00000000000E+00 -0.36131313098E+04  0.36131313098E+04  0.00000000000E+00 0. -1.
         25    2    1    2    0    0  0.50882430473E+02  0.75427881514E+02 -0.13180571032E+04  0.13270937903E+04  0.12500005603E+03 0.  0.
          2    1    1    2  501    0 -0.87662078803E+02 -0.42008789903E+02 -0.22863671327E+04  0.22884326610E+04  0.00000000000E+00 0. -1.
          1    1    1    2  502    0  0.36779648330E+02 -0.33419091611E+02  0.19247177801E+03  0.19878371047E+03  0.00000000000E+00 0. -1.
         22    1    3    3    0    0 -0.30395140524E+02  0.63627385432E+02 -0.50504490269E+03  0.50994378365E+03  0.00000000000E+00 0.  1.
         22    1    3    3    0    0  0.81277570997E+02  0.11800496083E+02 -0.81301220046E+03  0.81715000664E+03  0.00000000000E+00 0.  1.
</event>
<event>
 7    1  0.6078244E-006  0.5870704E+02  0.7818608E-02  0.1404583E+00
          2   -1    0    0  502    0  0.00000000000E+00  0.00000000000E+00  0.15240028995E+04  0.15240028995E+04  0.00000000000E+00 0. -1.
          1   -1    0    0  501    0 -0.00000000000E+00 -0.00000000000E+00 -0.10528528867E+04  0.10528528867E+04  0.00000000000E+00 0. -1.
         25    2    1    2    0    0 -0.33737905210E+01  0.38042452390E+02  0.99448526470E+02  0.16424016377E+03  0.12500484523E+03 0.  0.
          2    1    1    2  501    0 -0.53932022110E+02 -0.21702569231E+02 -0.10189905227E+04  0.10206475150E+04  0.00000000000E+00 0. -1.
          1    1    1    2  502    0  0.57305812631E+02 -0.16339883159E+02  0.13906920091E+04  0.13919681074E+04  0.00000000000E+00 0. -1.
         22    1    3    3    0    0  0.13499319811E+02 -0.12083360567E+02 -0.23923286839E+02  0.30009380053E+02  0.00000000000E+00 0.  1.
         22    1    3    3    0    0 -0.16873110332E+02  0.50125812957E+02  0.12337181331E+03  0.13423078371E+03  0.00000000000E+00 0.  1.
</event>
<event>
 7    1  0.6078244E-006  0.1377142E+03  0.7818608E-02  0.1270048E+00
          2   -1    0    0  502    0  0.00000000000E+00  0.00000000000E+00  0.42209120592E+04  0.42209120592E+04  0.00000000000E+00 0. -1.
          1   -1    0    0  501    0 -0.00000000000E+00 -0.00000000000E+00 -0.79026075609E+02  0.79026075609E+02  0.00000000000E+00 0. -1.
         25    2    1    2    0    0 -0.44875747795E+01  0.59873905100E+02  0.38849279986E+02  0.14401189971E+03  0.12500055145E+03 0.  0.
          2    1    1    2  501    0 -0.21497533847E+02  0.77174364761E+02  0.38300462252E+02  0.88797251909E+02  0.00000000000E+00 0. -1.
          1    1    1    2  502    0  0.25985108626E+02 -0.13704826986E+03  0.40647362413E+04  0.40671289831E+04  0.00000000000E+00 0. -1.
         22    1    3    3    0    0 -0.40040459558E+02  0.20991485762E+02  0.69610375943E+02  0.83002923533E+02  0.00000000000E+00 0. -1.
         22    1    3    3    0    0  0.35552884779E+02  0.38882419338E+02 -0.30761095957E+02  0.61008976177E+02  0.00000000000E+00 0. -1.
</event>
<event>
 7    1  0.6078244E-006  0.1233617E+03  0.7818608E-02  0.1352684E+00
          2   -1    0    0  502    0  0.00000000000E+00  0.00000000000E+00  0.37652558334E+03  0.37652558334E+03  0.00000000000E+00 0. -1.
          1   -1    0    0  501    0 -0.00000000000E+00 -0.00000000000E+00 -0.11530801480E+03  0.11530801480E+03  0.00000000000E+00 0. -1.
         25    2    1    2    0    0  0.14223071313E+03  0.50926300243E+02  0.99911179698E+02  0.22006771669E+03  0.12499796914E+03 0.  0.
          2    1    1    2  501    0 -0.99993939681E+02 -0.52981146826E+02  0.87987277482E+01  0.11350421799E+03  0.00000000000E+00 0. -1.
          1    1    1    2  502    0 -0.42236773446E+02  0.20548465832E+01  0.15250766110E+03  0.15826166346E+03  0.00000000000E+00 0. -1.
         22    1    3    3    0    0  0.14109917533E+03  0.62288350901E+02  0.12103401962E+03  0.19605624153E+03  0.00000000000E+00 0.  1.
         22    1    3    3    0    0  0.11315377949E+01 -0.11362050658E+02 -0.21122839926E+02  0.24011475162E+02  0.00000000000E+00 0.  1.
</event>
<event>
 7    1  0.6078244E-006  0.8022424E+02  0.7818608E-02  0.1412639E+00
          2   -1    0    0  502    0  0.00000000000E+00  0.00000000000E+00  0.32457986271E+03  0.32457986271E+03  0.00000000000E+00 0. -1.
          1   -1    0    0  501    0 -0.00000000000E+00 -0.00000000000E+00 -0.46858107151E+03  0.46858107151E+03  0.00000000000E+00 0. -1.
         25    2    1    2    0    0 -0.41943290962E+02  0.97060379855E+02 -0.16421348722E+03  0.23188731219E+03  0.12500279666E+03 0.  0.
          2    1    1    2  501    0  0.50275084930E+02 -0.57993675066E+02 -0.26366025246E+03  0.27460440499E+03  0.00000000000E+00 0. -1.
          1    1    1    2  502    0 -0.83317939678E+01 -0.39066704789E+02  0.28387253088E+03  0.28666921705E+03  0.00000000000E+00 0. -1.
         22    1    3    3    0    0  0.38954513588E+02  0.21529606561E+01 -0.38513658319E+02  0.54821448773E+02  0.00000000000E+00 0.  1.
         22    1    3    3    0    0 -0.80897804550E+02  0.94907419199E+02 -0.12569982891E+03  0.17706586342E+03  0.00000000000E+00 0.  1.
</event>
<event>
 7    1  0.6078244E-006  0.5970190E+02  0.7818608E-02  0.1548432E+00
          2   -1    0    0  502    0  0.00000000000E+00  0.00000000000E+00  0.24580052432E+03  0.24580052432E+03  0.00000000000E+00 0. -1.
          1   -1    0    0  501    0 -0.00000000000E+00 -0.00000000000E+00 -0.21816305036E+04  0.21816305036E+04  0.00000000000E+00 0. -1.
         25    2    1    2    0    0  0.33879792950E+00 -0.71358608575E+02 -0.10879656292E+04  0.10974457112E+04  0.12500285192E+03 0.  0.
          2    1    1    2  501    0  0.13769313614E+02  0.56429055194E+02 -0.10877109539E+04  0.10892607362E+04  0.00000000000E+00 0. -1.
          1    1    1    2  502    0 -0.14108111544E+02  0.14929553380E+02  0.23984660371E+03  0.24072458056E+03  0.00000000000E+00 0. -1.
         22    1    3    3    0    0 -0.58470748905E+02 -0.55690790664E+02 -0.52058314585E+03  0.52680841335E+03  0.00000000000E+00 0.  1.
         22    1    3    3    0    0  0.58809546835E+02 -0.15667817911E+02 -0.56738248331E+03  0.57063729784E+03  0.00000000000E+00 0.  1.
</event>
<event>
 7    1  0.6078244E-006  0.8080930E+02  0.7818608E-02  0.1465340E+00
          2   -1    0    0  502    0  0.00000000000E+00  0.00000000000E+00  0.62508011450E+03  0.62508011450E+03  0.00000000000E+00 0. -1.
          1   -1    0    0  501    0 -0.00000000000E+00 -0.00000000000E+00 -0.75675714395E+03  0.75675714395E+03  0.00000000000E+00 0. -1.
         25    2    1    2    0    0 -0.54298196659E+01  0.10653392332E+03 -0.16269221952E+03  0.23123951122E+03  0.12499597393E+03 0.  0.
          2    1    1    2  501    0 -0.31550211222E+01 -0.26541509514E+02 -0.55673033681E+03  0.55737157607E+03  0.00000000000E+00 0. -1.
          1    1    1    2  502    0  0.85848407882E+01 -0.79992413802E+02  0.58774552689E+03  0.59322617115E+03  0.00000000000E+00 0. -1.
         22    1    3    3    0    0 -0.43168975175E+02  0.11730676619E+03 -0.12067094584E+03  0.17374094216E+03  0.00000000000E+00 0. -1.
         22    1    3    3    0    0  0.37739155509E+02 -0.10772842878E+02 -0.42021273685E+02  0.57498569063E+02  0.00000000000E+00 0. -1.
</event>
<event>
 7    1  0.6078244E-006  0.7304710E+02  0.7818608E-02  0.1374516E+00
          2   -1    0    0  502    0  0.00000000000E+00  0.00000000000E+00  0.24479820388E+03  0.24479820388E+03  0.00000000000E+00 0. -1.
          1   -1    0    0  501    0 -0.00000000000E+00 -0.00000000000E+00 -0.60279812309E+03  0.60279812309E+03  0.00000000000E+00 0. -1.
         25    2    1    2    0    0  0.39013721772E+02  0.18870175166E+02 -0.72428174868E+02  0.15082776139E+03  0.12500007637E+03 0.  0.
          2    1    1    2  501    0  0.29457395718E+02 -0.51698634171E+02 -0.48226759978E+03  0.48592440228E+03  0.00000000000E+00 0. -1.
          1    1    1    2  502    0 -0.68471117489E+02  0.32828459005E+02  0.19669585543E+03  0.21084416329E+03  0.00000000000E+00 0. -1.
         22    1    3    3    0    0  0.44673339145E+02 -0.42589944074E+02 -0.63344324854E+02  0.88442716250E+02  0.00000000000E+00 0. -1.
         22    1    3    3    0    0 -0.56596173734E+01  0.61460119240E+02 -0.90838500141E+01  0.62385045139E+02  0.00000000000E+00 0. -1.
</event>
<event>
 7    1  0.6078244E-006  0.5353495E+02  0.7818608E-02  0.1539663E+00
          2   -1    0    0  502    0  0.00000000000E+00  0.00000000000E+00  0.74306836608E+03  0.74306836608E+03  0.00000000000E+00 0. -1.
          1   -1    0    0  501    0 -0.00000000000E+00 -0.00000000000E+00 -0.81980330133E+03  0.81980330133E+03  0.00000000000E+00 0. -1.
         25    2    1    2    0    0  0.69641886279E+02  0.34501478075E+02 -0.63663179946E+03  0.65342550834E+03  0.12499801020E+03 0.  0.
          2    1    1    2  501    0 -0.21313424891E+02 -0.11557204087E+02 -0.17295403466E+03  0.17464515210E+03  0.00000000000E+00 0. -1.
          1    1    1    2  502    0 -0.48328461389E+02 -0.22944273988E+02  0.73285089886E+03  0.73480100697E+03  0.00000000000E+00 0. -1.
         22    1    3    3    0    0  0.48389651460E+02  0.33646164913E+02 -0.62752802899E+03  0.63028965560E+03  0.00000000000E+00 0.  1.
         22    1    3    3    0    0  0.21252234820E+02  0.85531316213E+00 -0.91037704655E+01  0.23135852742E+02  0.00000000000E+00 0.  1.
</event>
<event>
 7    1  0.6078244E-006  0.2271533E+03  0.7818608E-02  0.1172450E+00
          2   -1    0    0  502    0  0.00000000000E+00  0.00000000000E+00  0.59430688527E+03  0.59430688527E+03  0.00000000000E+00 0. -1.
          1   -1    0    0  501    0 -0.00000000000E+00 -0.00000000000E+00 -0.33304737234E+03  0.33304737234E+03  0.00000000000E+00 0. -1.
         25    2    1    2    0    0 -0.68470181483E+02  0.26093807661E+03  0.63853996882E+01  0.29739394385E+03  0.12500215573E+03 0.  0.
          2    1    1    2  501    0 -0.89379319600E+02 -0.10151325201E+03 -0.12798605817E+03  0.18620965117E+03  0.00000000000E+00 0. -1.
          1    1    1    2  502    0  0.15784950108E+03 -0.15942482460E+03  0.38286017141E+03  0.44375066258E+03  0.00000000000E+00 0. -1.
         22    1    3    3    0    0  0.23320501802E+02  0.54645538031E+02  0.36305277699E+02  0.69627967224E+02  0.00000000000E+00 0. -1.
         22    1    3    3    0    0 -0.91790683285E+02  0.20629253858E+03 -0.29919878010E+02  0.22776597663E+03  0.00000000000E+00 0. -1.
</event>
<event>
 7    1  0.6078244E-006  0.5597440E+02  0.7818608E-02  0.1469143E+00
          2   -1    0    0  502    0  0.00000000000E+00  0.00000000000E+00  0.85956924688E+02  0.85956924688E+02  0.00000000000E+00 0. -1.
          1   -1    0    0  501    0 -0.00000000000E+00 -0.00000000000E+00 -0.16824046448E+04  0.16824046448E+04  0.00000000000E+00 0. -1.
         25    2    1    2    0    0 -0.87463660212E+02  0.30976417251E+02 -0.45961281579E+02  0.16231378433E+03  0.12499557951E+03 0.  0.
          2    1    1    2  501    0  0.50857699158E+02 -0.22626000505E+02 -0.15648559805E+04  0.15658456760E+04  0.00000000000E+00 0. -1.
          1    1    1    2  502    0  0.36605961054E+02 -0.83504167455E+01  0.14369541935E+02  0.40202109148E+02  0.00000000000E+00 0. -1.
         22    1    3    3    0    0 -0.50823135993E+02 -0.40949915342E+02 -0.48876045003E+02  0.81539895106E+02  0.00000000000E+00 0. -1.
         22    1    3    3    0    0 -0.36640524219E+02  0.71926332593E+02  0.29147634242E+01  0.80773889229E+02  0.00000000000E+00 0. -1.
</event>
<event>
 7    1  0.6078244E-006  0.1478414E+03  0.7818608E-02  0.1237427E+00
          2   -1    0    0  502    0  0.00000000000E+00  0.00000000000E+00  0.30566763144E+04  0.30566763144E+04  0.00000000000E+00 0. -1.
          1   -1    0    0  501    0 -0.00000000000E+00 -0.00000000000E+00 -0.80128093878E+02  0.80128093878E+02  0.00000000000E+00 0. -1.
         25    2    1    2    0    0  0.13017264988E+03  0.45359623362E+02  0.20877332722E+03  0.27966685069E+03  0.12499932404E+03 0.  0.
          2    1    1    2  501    0 -0.90432533307E+02 -0.14057040470E+03  0.11623083082E+03  0.20358705212E+03  0.00000000000E+00 0. -1.
          1    1    1    2  502    0 -0.39740116572E+02  0.95210781339E+02  0.26515440625E+04  0.26535505054E+04  0.00000000000E+00 0. -1.
         22    1    3    3    0    0  0.71913981111E+02  0.12387723595E+02  0.19907238906E+03  0.21202568821E+03  0.00000000000E+00 0.  1.
         22    1    3    3    0    0  0.58258668768E+02  0.32971899767E+02  0.97009381572E+01  0.67641162482E+02  0.00000000000E+00 0.  1.
</event>
<event>
 7    1  0.6078244E-006  0.1535021E+03  0.7818608E-02  0.1284912E+00
          2   -1    0    0  502    0  0.00000000000E+00  0.00000000000E+00  0.79253631700E+03  0.79253631700E+03  0.00000000000E+00 0. -1.
          1   -1    0    0  501    0 -0.00000000000E+00 -0.00000000000E+00 -0.32338316722E+03  0.32338316722E+03  0.00000000000E+00 0. -1.
         25    2    1    2    0    0  0.15789888787E+03 -0.56203280091E+02  0.39405523384E+03  0.44608976315E+03  0.12500272792E+03 0.  0.
          2    1    1    2  501    0 -0.15325903422E+03 -0.59817143966E+01 -0.27464590551E+03  0.31457031947E+03  0.00000000000E+00 0. -1.
          1    1    1    2  502    0 -0.46398536442E+01  0.62184994488E+02  0.34974382145E+03  0.35525940159E+03  0.00000000000E+00 0. -1.
         22    1    3    3    0    0  0.12160072393E+03 -0.92431105284E+02  0.24768080569E+03  0.29099145484E+03  0.00000000000E+00 0.  1.
         22    1    3    3    0    0  0.36298163940E+02  0.36227825193E+02  0.14637442816E+03  0.15509830831E+03  0.00000000000E+00 0.  1.
</event>
<event>
 7    1  0.6078244E-006  0.1085429E+03  0.7818608E-02  0.1338259E+00
          2   -1    0    0  502    0  0.00000000000E+00  0.00000000000E+00  0.10483065400E+04  0.10483065400E+04  0.00000000000E+00 0. -1.
          1   -1    0    0  501    0 -0.00000000000E+00 -0.00000000000E+00 -0.10749033464E+04  0.10749033464E+04  0.00000000000E+00 0. -1.
         25    2    1    2    0    0 -0.70869017281E+02 -0.44442787810E+02 -0.18227552883E+02  0.15150542704E+03  0.12499628690E+03 0.  0.
          2    1    1    2  501    0  0.17480653072E+02 -0.51515054126E+02 -0.98621404169E+03  0.98771327320E+03  0.00000000000E+00 0. -1.
          1    1    1    2  502    0  0.53388364209E+02  0.95957841936E+02  0.97784478813E+03  0.98399118621E+03  0.00000000000E+00 0. -1.
         22    1    3    3    0    0  0.10400090101E+02  0.11968001143E+02 -0.46079486673E+02  0.48731037518E+02  0.00000000000E+00 0. -1.
         22    1    3    3    0    0 -0.81269107381E+02 -0.56410788953E+02  0.27851933790E+02  0.10277438952E+03  0.00000000000E+00 0. -1.
</event>
<event>
 7    1  0.6078244E-006  0.4959758E+02  0.7818608E-02  0.1520417E+00
          2   -1    0    0  502    0  0.00000000000E+00  0.00000000000E+00  0.10669537805E+04  0.10669537805E+04  0.00000000000E+00 0. -1.
          1   -1    0    0  501    0 -0.00000000000E+00 -0.00000000000E+00 -0.64955167414E+02  0.64955167414E+02  0.00000000000E+00 0. -1.
         25    2    1    2    0    0  0.46523516617E+02  0.15473316735E+02  0.79990198999E+03  0.81109314807E+03  0.12500016051E+03 0.  0.
          2    1    1    2  501    0 -0.47643793340E+02  0.14218189934E+02 -0.47911758382E+02  0.69047987372E+02  0.00000000000E+00 0. -1.
          1    1    1    2  502    0  0.11202767228E+01 -0.29691506669E+02  0.25000838149E+03  0.25176781249E+03  0.00000000000E+00 0. -1.
         22    1    3    3    0    0 -0.17408271805E+02 -0.43587925296E+02  0.25496408947E+03  0.25924822483E+03  0.00000000000E+00 0.  1.
         22    1    3    3    0    0  0.63931788422E+02  0.59061242031E+02  0.54493790052E+03  0.55184492324E+03  0.00000000000E+00 0.  1.
</event>
<event>
 7    1  0.6078244E-006  0.7419049E+02  0.7818608E-02  0.1430573E+00
          2   -1    0    0  502    0  0.00000000000E+00  0.00000000000E+00  0.10595752617E+04  0.10595752617E+04  0.00000000000E+00 0. -1.
          1   -1    0    0  501    0 -0.00000000000E+00 -0.00000000000E+00 -0.64613821062E+03  0.64613821062E+03  0.00000000000E+00 0. -1.
         25    2    1    2    0    0  0.65949117271E+02 -0.22906193359E+02  0.51533131869E+02  0.15216430397E+03  0.12499732781E+03 0.  0.
          2    1    1    2  501    0 -0.48712397767E+02  0.56368815158E+02 -0.59312156855E+03  0.59778218115E+03  0.00000000000E+00 0. -1.
          1    1    1    2  502    0 -0.17236719504E+02 -0.33462621799E+02  0.95502548777E+03  0.95576698722E+03  0.00000000000E+00 0. -1.
         22    1    3    3    0    0  0.29165921280E+02  0.50468599799E+02  0.67941370761E+01  0.58684672858E+02  0.00000000000E+00 0. -1.
         22    1    3    3    0    0  0.36783195991E+02 -0.73374793158E+02  0.44738994793E+02  0.93479631115E+02  0.00000000000E+00 0. -1.
</event>
<event>
 7    1  0.6078244E-006  0.5960091E+02  0.7818608E-02  0.1433222E+00
          2   -1    0    0  502    0  0.00000000000E+00  0.00000000000E+00  0.15884517512E+03  0.15884517512E+03  0.00000000000E+00 0. -1.
          1   -1    0    0  501    0 -0.00000000000E+00 -0.00000000000E+00 -0.61701679648E+03  0.61701679648E+03  0.00000000000E+00 0. -1.
         25    2    1    2    0    0  0.55606534941E+02 -0.58746703109E+02 -0.15313585012E+03  0.21358686483E+03  0.12500199351E+03 0.  0.
          2    1    1    2  501    0 -0.57608331744E+02  0.12864028830E+02 -0.42746191641E+03  0.43151812604E+03  0.00000000000E+00 0. -1.
          1    1    1    2  502    0  0.20017968023E+01  0.45882674279E+02  0.12242614517E+03  0.13075698073E+03  0.00000000000E+00 0. -1.
         22    1    3    3    0    0 -0.20157436004E+02  0.21360556602E+02 -0.64295598030E+01  0.30065509207E+02  0.00000000000E+00 0.  1.
         22    1    3    3    0    0  0.75763970945E+02 -0.80107259711E+02 -0.14670629032E+03  0.18352135563E+03  0.00000000000E+00 0.  1.
</event>
<event>
 7    1  0.6078244E-006  0.7791039E+02  0.7818608E-02  0.1511077E+00
          2   -1    0    0  502    0  0.00000000000E+00  0.00000000000E+00  0.30244720595E+03  0.30244720595E+03  0.00000000000E+00 0. -1.
          1   -1    0    0  501    0 -0.00000000000E+00 -0.00000000000E+00 -0.54709207821E+03  0.54709207821E+03  0.00000000000E+00 0. -1.
         25    2    1    2    0    0  0.56774214071E+02  0.47371709485E+02 -0.20481894649E+03  0.25108760728E+03  0.12500718158E+03 0.  0.
          2    1    1    2  501    0 -0.11721260819E+02  0.16379270560E+02 -0.31335474695E+03  0.31400137881E+03  0.00000000000E+00 0. -1.
          1    1    1    2  502    0 -0.45052953252E+02 -0.63750980046E+02  0.27352882118E+03  0.28445029806E+03  0.00000000000E+00 0. -1.
         22    1    3    3    0    0  0.18755201972E+02 -0.33437482386E+02 -0.12691008620E+03  0.13257448023E+03  0.00000000000E+00 0. -1.
         22    1    3    3    0    0  0.38019012099E+02  0.80809191871E+02 -0.77908860296E+02  0.11851312706E+03  0.00000000000E+00 0. -1.
</event>
<event>
 7    1  0.6078244E-006  0.8011001E+02  0.7818608E-02  0.1340565E+00
          2   -1    0    0  502    0  0.00000000000E+00  0.00000000000E+00  0.10778251483E+04  0.10778251483E+04  0.00000000000E+00 0. -1.
          1   -1    0    0  501    0 -0.00000000000E+00 -0.00000000000E+00 -0.17649844772E+04  0.17649844772E+04  0.00000000000E+00 0. -1.
         25    2    1    2    0    0 -0.60730899142E+00 -0.35488243714E+02  0.36201996530E+03  0.38463447502E+03  0.12500175931E+03 0.  0.
          2    1    1    2  501    0  0.80035413049E+02  0.34564212599E+01 -0.17501547232E+04  0.17519872058E+04  0.00000000000E+00 0. -1.
          1    1    1    2  502    0 -0.79428104057E+02  0.32031822454E+02  0.70097542895E+03  0.70618794478E+03  0.00000000000E+00 0. -1.
         22    1    3    3    0    0  0.25889716136E+02 -0.70178338915E+02  0.14380380193E+03  0.16209506502E+03  0.00000000000E+00 0. -1.
         22    1    3    3    0    0 -0.26497025127E+02  0.34690095201E+02  0.21821616337E+03  0.22253941000E+03  0.00000000000E+00 0. -1.
</event>
<event>
 7    1  0.6078244E-006  0.9060565E+02  0.7818608E-02  0.1358612E+00
          2   -1    0    0  502    0  0.00000000000E+00  0.00000000000E+00  0.24944521689E+04  0.24944521689E+04  0.00000000000E+00 0. -1.
          1   -1    0    0  501    0 -0.00000000000E+00 -0.00000000000E+00 -0.52168666744E+02  0.52168666744E+02  0.00000000000E+00 0. -1.
         25    2    1    2    0    0  0.27707972060E+01  0.13864072536E+03  0.55772839708E+03  0.58814531670E+03  0.12500008238E+03 0.  0.
          2    1    1    2  501    0 -0.16586344905E+02 -0.52186083058E+02 -0.15101277352E+02  0.56802664373E+02  0.00000000000E+00 0. -1.
          1    1    1    2  502    0  0.13815547699E+02 -0.86454642300E+02  0.18996563825E+04  0.19016728546E+04  0.00000000000E+00 0. -1.
         22    1    3    3    0    0  0.60355829414E+02  0.40590848198E+02  0.23250586761E+03  0.24361736714E+03  0.00000000000E+00 0.  1.
         22    1    3    3    0    0 -0.57585032208E+02  0.98049877160E+02  0.32522252947E+03  0.34452794955E+03  0.00000000000E+00 0.  1.
</event>
<event>
 7    1  0.6078244E-006  0.6002493E+02  0.7818608E-02  0.1413939E+00
          2   -1    0    0  502    0  0.00000000000E+00  0.00000000000E+00  0.11789962470E+04  0.11789962470E+04  0.00000000000E+00 0. -1.
          1   -1    0    0  501    0 -0.00000000000E+00 -0.00000000000E+00 -0.20979881863E+02  0.20979881863E+02  0.00000000000E+00 0. -1.
         25    2    1    2    0    0 -0.58947946774E+02  0.35787623779E+02  0.70164006836E+03  0.71601700002E+03  0.12500377733E+03 0.  0.
          2    1    1    2  501    0 -0.12714814691E+01 -0.52836050646E+02  0.49878000797E+02  0.72671038774E+02  0.00000000000E+00 0. -1.
          1    1    1    2  502    0  0.60219428243E+02  0.17048426867E+02  0.40649829594E+03  0.41128809003E+03  0.00000000000E+00 0. -1.
         22    1    3    3    0    0  0.24344308539E+02  0.50216936839E+02  0.34578329472E+03  0.35025772370E+03  0.00000000000E+00 0. -1.
         22    1    3    3    0    0 -0.83292255313E+02 -0.14429313060E+02  0.35585677364E+03  0.36575927632E+03  0.00000000000E+00 0. -1.
</event>
<event>
 7    1  0.6078244E-006  0.1045994E+03  0.7818608E-02  0.1311452E+00
          2   -1    0    0  502    0  0.00000000000E+00  0.00000000000E+00  0.11268325402E+04  0.11268325402E+04  0.00000000000E+00 0. -1.
          1   -1    0    0  501    0 -0.00000000000E+00 -0.00000000000E+00 -0.34522879728E+03  0.34522879728E+03  0.00000000000E+00 0. -1.
         25    2    1    2    0    0  0.13644283400E+03 -0.76577552902E+02 -0.16458730742E+03  0.25921983997E+03  0.12500070044E+03 0.  0.
          2    1    1    2  501    0 -0.67283826732E+02  0.58041913816E+02 -0.11718056209E+03  0.14706209992E+03  0.00000000000E+00 0. -1.
          1    1    1    2  502    0 -0.69159007268E+02  0.18535639086E+02  0.10633716124E+04  0.10657793976E+04  0.00000000000E+00 0. -1.
         22    1    3    3    0    0  0.13809572773E+03 -0.10204866834E+03 -0.15680733122E+03  0.23253580338E+03  0.00000000000E+00 0.  1.
         22    1    3    3    0    0 -0.16528937326E+01  0.25471115433E+02 -0.77799761996E+01  0.26684036591E+02  0.00000000000E+00 0.  1.
</event>
<event>
 7    1  0.6078244E-006  0.7282121E+02  0.7818608E-02  0.1425317E+00
          2   -1    0    0  502    0  0.00000000000E+00  0.00000000000E+00  0.43293848124E+03  0.43293848124E+03  0.00000000000E+00 0. -1.
          1   -1    0    0  501    0 -0.00000000000E+00 -0.00000000000E+00 -0.48298653577E+03  0.48298653577E+03  0.00000000000E+00 0. -1.
         25    2    1    2    0    0 -0.57881640500E+02  0.11539492303E+02  0.16852796803E+03  0.21796913733E+03  0.12500169852E+03 0.  0.
          2    1    1    2  501    0  0.52400571144E+02 -0.51073654637E+02 -0.45365212492E+03  0.45951560202E+03  0.00000000000E+00 0. -1.
          1    1    1    2  502    0  0.54810693564E+01  0.39534162334E+02  0.23507610236E+03  0.23844027767E+03  0.00000000000E+00 0. -1.
         22    1    3    3    0    0 -0.21318124738E+02 -0.51950255695E+02  0.36497463007E+02  0.66972802801E+02  0.00000000000E+00 0. -1.
         22    1    3    3    0    0 -0.36563515762E+02  0.63489747999E+02  0.13203050502E+03  0.15099633453E+03  0.00000000000E+00 0. -1.
</event>
<event>
 7    1  0.6078244E-006  0.4037273E+02  0.7818608E-02  0.1569401E+00
          2   -1    0    0  502    0  0.00000000000E+00  0.00000000000E+00  0.17241708763E+04  0.17241708763E+04  0.00000000000E+00 0. -1.
          1   -1    0    0  501    0 -0.00000000000E+00 -0.00000000000E+00 -0.13311563590E+03  0.13311563590E+03  0.00000000000E+00 0. -1.
         25    2    1    2    0    0  0.46410353341E+01  0.31679770437E+02  0.58227844964E+03  0.59640449292E+03  0.12499991678E+03 0.  0.
          2    1    1    2  501    0 -0.30693780274E+02 -0.26364074418E+02 -0.12264538511E+03  0.12914744696E+03  0.00000000000E+00 0. -1.
          1    1    1    2  502    0  0.26052744940E+02 -0.53156960188E+01  0.11314221758E+04  0.11317345723E+04  0.00000000000E+00 0. -1.
         22    1    3    3    0    0 -0.48371123915E+02 -0.18662440197E+02  0.31808245550E+03  0.32228015887E+03  0.00000000000E+00 0. -1.
         22    1    3    3    0    0  0.53012159249E+02  0.50342210634E+02  0.26419599414E+03  0.27412433406E+03  0.00000000000E+00 0. -1.
</event>
<event>
 7    1  0.6078244E-006  0.4509582E+02  0.7818608E-02  0.1475461E+00
          2   -1    0    0  502    0  0.00000000000E+00  0.00000000000E+00  0.20684862890E+04  0.20684862890E+04  0.00000000000E+00 0. -1.
          1   -1    0    0  501    0 -0.00000000000E+00 -0.00000000000E+00 -0.13657276826E+03  0.13657276826E+03  0.00000000000E+00 0. -1.
         25    2    1    2    0    0 -0.37908201449E+02 -0.15298686577E+02 -0.12558221042E+02  0.13211079747E+03  0.12499788936E+03 0.  0.
          2    1    1    2  501    0  0.33249802729E+02 -0.29647790846E+02 -0.56228990177E+02  0.71737300060E+02  0.00000000000E+00 0. -1.
          1    1    1    2  502    0  0.46583987205E+01  0.44946477423E+02  0.20007007320E+04  0.20012109598E+04  0.00000000000E+00 0. -1.
         22    1    3    3    0    0  0.31775316517E+02  0.18337327353E+02 -0.35859735062E+02  0.51301548836E+02  0.00000000000E+00 0. -1.
         22    1    3    3    0    0 -0.69683517966E+02 -0.33636013930E+02  0.23301514020E+02  0.80809248634E+02  0.00000000000E+00 0. -1.
</event>
<event>
 7    1  0.6078244E-006  0.4268410E+02  0.7818608E-02  0.1550956E+00
          2   -1    0    0  502    0  0.00000000000E+00  0.00000000000E+00  0.28890802202E+03  0.28890802202E+03  0.00000000000E+00 0. -1.
          1   -1    0    0  501    0 -0.00000000000E+00 -0.00000000000E+00 -0.33648079665E+03  0.33648079665E+03  0.00000000000E+00 0. -1.
         25    2    1    2    0    0 -0.89759762852E+01 -0.62612326671E+02  0.18341369758E+03  0.23079569888E+03  0.12500079423E+03 0.  0.
          2    1    1    2  501    0  0.14872113430E+02  0.24039849910E+02 -0.30745097663E+03  0.30874778893E+03  0.00000000000E+00 0. -1.
          1    1    1    2  502    0 -0.58961371450E+01  0.38572476760E+02  0.76464504407E+02  0.85845330863E+02  0.00000000000E+00 0. -1.
         22    1    3    3    0    0 -0.92229711180E+01 -0.23685668945E+02 -0.14382734817E+02  0.29205088091E+02  0.00000000000E+00 0. -1.
         22    1    3    3    0    0  0.24699483279E+00 -0.38926657726E+02  0.19779643240E+03  0.20159061079E+03  0.00000000000E+00 0. -1.
</event>
<event>
 7    1  0.6078244E-006  0.1167506E+03  0.7818608E-02  0.1278571E+00
          2   -1    0    0  502    0  0.00000000000E+00  0.00000000000E+00  0.15772267249E+04  0.15772267249E+04  0.00000000000E+00 0. -1.
          1   -1    0    0  501    0 -0.00000000000E+00 -0.00000000000E+00 -0.68829764467E+03  0.68829764467E+03  0.00000000000E+00 0. -1.
         25    2    1    2    0    0 -0.42511591025E+02  0.56247200077E+02  0.49649767752E+03  0.51682333846E+03  0.12500174601E+03 0.  0.
          2    1    1    2  501    0  0.11692549845E+03 -0.11035912400E+02 -0.67125749131E+03  0.68145431483E+03  0.00000000000E+00 0. -1.
          1    1    1    2  502    0 -0.74413907429E+02 -0.45211287678E+02  0.10636888940E+04  0.10672467162E+04  0.00000000000E+00 0. -1.
         22    1    3    3    0    0  0.97168704684E+01  0.10940495358E+02  0.38730375623E+03  0.38758007121E+03  0.00000000000E+00 0.  1.
         22    1    3    3    0    0 -0.52228461494E+02  0.45306704719E+02  0.10919392129E+03  0.12924326725E+03  0.00000000000E+00 0.  1.
</event>
<event>
 7    1  0.6078244E-006  0.4952418E+02  0.7818608E-02  0.1476186E+00
          2   -1    0    0  502    0  0.00000000000E+00  0.00000000000E+00  0.13444032594E+02  0.13444032594E+02  0.00000000000E+00 0. -1.
          1   -1    0    0  501    0 -0.00000000000E+00 -0.00000000000E+00 -0.13873011688E+04  0.13873011688E+04  0.00000000000E+00 0. -1.
         25    2    1    2    0    0 -0.21200168300E+02 -0.66581952687E+01 -0.46480213770E+03  0.48182947660E+03  0.12499935447E+03 0.  0.
          2    1    1    2  501    0 -0.39344061443E+02 -0.89820061399E+01 -0.68810772235E+03  0.68929011973E+03  0.00000000000E+00 0. -1.
          1    1    1    2  502    0  0.60544229743E+02  0.15640201409E+02 -0.22094727619E+03  0.22962560509E+03  0.00000000000E+00 0. -1.
         22    1    3    3    0    0  0.21206267348E+02  0.32340008090E+02 -0.50837857113E+02  0.63875422612E+02  0.00000000000E+00 0.  1.
         22    1    3    3    0    0 -0.42406435648E+02 -0.38998203359E+02 -0.41396428058E+03  0.41795405399E+03  0.00000000000E+00 0.  1.
</event>
<event>
 7    1  0.6078244E-006  0.9917571E+02  0.7818608E-02  0.1325133E+00
          2   -1    0    0  502    0  0.00000000000E+00  0.00000000000E+00  0.75508276392E+03  0.75508276392E+03  0.00000000000E+00 0. -1.
          1   -1    0    0  501    0 -0.00000000000E+00 -0.00000000000E+00 -0.13751427338E+04  0.13751427338E+04  0.00000000000E+00 0. -1.
         25    2    1    2    0    0 -0.41242990228E+02  0.10810483921E+02  0.41647054665E+03  0.43691112555E+03  0.12500305835E+03 0.  0.
          2    1    1    2  501    0 -0.19351648627E+02 -0.97269397230E+02 -0.13545765320E+04  0.13582022688E+04  0.00000000000E+00 0. -1.
          1    1    1    2  502    0  0.60594638855E+02  0.86458913309E+02  0.31804601540E+03  0.33511210343E+03  0.00000000000E+00 0. -1.
         22    1    3    3    0    0 -0.10752151379E+02  0.36653185102E+02  0.30510860402E+02  0.48887394488E+02  0.00000000000E+00 0. -1.
         22    1    3    3    0    0 -0.30490838849E+02 -0.25842701181E+02  0.38595968625E+03  0.38802373106E+03  0.00000000000E+00 0. -1.
</event>
<event>
 7    1  0.6078244E-006  0.1350666E+03  0.7818608E-02  0.1380353E+00
          2   -1    0    0  502    0  0.00000000000E+00  0.00000000000E+00  0.44769015165E+03  0.44769015165E+03  0.00000000000E+00 0. -1.
          1   -1    0    0  501    0 -0.00000000000E+00 -0.00000000000E+00 -0.37775156247E+03  0.37775156247E+03  0.00000000000E+00 0. -1.
         25    2    1    2    0    0  0.19371962055E+02  0.12057867615E+03  0.13601820949E+03  0.22144911135E+03  0.12499706215E+03 0.  0.
          2    1    1    2  501    0 -0.22610899602E+02  0.20734431605E+02 -0.31566932668E+03  0.31715657528E+03  0.00000000000E+00 0. -1.
          1    1    1    2  502    0  0.32389375477E+01 -0.14131310776E+03  0.24958970638E+03  0.28683602750E+03  0.00000000000E+00 0. -1.
         22    1    3    3    0    0 -0.14190608380E+02  0.20345729419E+02  0.10976748417E+03  0.11253542844E+03  0.00000000000E+00 0.  1.
         22    1    3    3    0    0  0.33562570435E+02  0.10023294674E+03  0.26250725318E+02  0.10891368291E+03  0.00000000000E+00 0.  1.
</event>
<event>
 7    1  0.6078244E-006  0.5062521E+02  0.7818608E-02  0.1567693E+00
          2   -1    0    0  502    0  0.00000000000E+00  0.00000000000E+00  0.54048187426E+02  0.54048187426E+02  0.00000000000E+00 0. -1.
          1   -1    0    0  501    0 -0.00000000000E+00 -0.00000000000E+00 -0.13078391533E+04  0.13078391533E+04  0.00000000000E+00 0. -1.
         25    2    1    2    0    0 -0.15369555537E+02  0.25210679320E+02 -0.62033815308E+02  0.14263598013E+03  0.12500010799E+03 0.  0.
          2    1    1    2  501    0  0.28126642969E+02 -0.42433605276E+02 -0.11962664087E+04  0.11973491719E+04  0.00000000000E+00 0. -1.
          1    1    1    2  502    0 -0.12757087433E+02  0.17222925956E+02  0.45092581655E+01  0.21902188645E+02  0.00000000000E+00 0. -1.
         22    1    3    3    0    0 -0.33848553377E+02  0.63228030402E+02 -0.69318407730E+02  0.99742418481E+02  0.00000000000E+00 0.  1.
         22    1    3    3    0    0  0.18478997841E+02 -0.38017351082E+02  0.72845924221E+01  0.42893561652E+02  0.00000000000E+00 0.  1.
</event>
<event>
 7    1  0.6078244E-006  0.1563344E+03  0.7818608E-02  0.1252253E+00
          2   -1    0    0  502    0  0.00000000000E+00  0.00000000000E+00  0.11642821522E+04  0.11642821522E+04  0.00000000000E+00 0. -1.
          1   -1    0    0  501    0 -0.00000000000E+00 -0.00000000000E+00 -0.62283781196E+03  0.62283781196E+03  0.00000000000E+00 0. -1.
         25    2    1    2    0    0  0.13272009602E+03  0.54316353568E+02 -0.22618058941E+03  0.29554436258E+03  0.12499568422E+03 0.  0.
          2    1    1    2  501    0  0.22039444067E+02 -0.81088798310E+02 -0.35154018959E+03  0.36144382026E+03  0.00000000000E+00 0. -1.
          1    1    1    2  502    0 -0.15475954009E+03  0.26772444742E+02  0.11191651192E+04  0.11301317813E+04  0.00000000000E+00 0. -1.
         22    1    3    3    0    0  0.19066525439E+02  0.17404521455E+02  0.12453609550E+02  0.28662556589E+02  0.00000000000E+00 0.  1.
         22    1    3    3    0    0  0.11365357058E+03  0.36911832113E+02 -0.23863419896E+03  0.26688180599E+03  0.00000000000E+00 0.  1.
</event>
<event>
 7    1  0.6078244E-006  0.9350313E+02  0.7818608E-02  0.1321689E+00
          2   -1    0    0  502    0  0.00000000000E+00  0.00000000000E+00  0.45976658178E+02  0.45976658178E+02  0.00000000000E+00 0. -1.
          1   -1    0    0  501    0 -0.00000000000E+00 -0.00000000000E+00 -0.84940885020E+03  0.84940885020E+03  0.00000000000E+00 0. -1.
         25    2    1    2    0    0  0.48520997759E+02  0.16368389862E+02 -0.31229673307E+03  0.34025916166E+03  0.12499934479E+03 0.  0.
          2    1    1    2  501    0 -0.88023345811E+02 -0.77829134956E+02 -0.46160377767E+03  0.47632292745E+03  0.00000000000E+00 0. -1.
          1    1    1    2  502    0  0.39502348052E+02  0.61460745094E+02 -0.29531681287E+02  0.78803419271E+02  0.00000000000E+00 0. -1.
         22    1    3    3    0    0  0.44106939978E+02 -0.47112855943E+02 -0.10342301027E+03  0.12190718766E+03  0.00000000000E+00 0.  1.
         22    1    3    3    0    0  0.44140577807E+01  0.63481245805E+02 -0.20887372279E+03  0.21835197400E+03  0.00000000000E+00 0.  1.
</event>
<event>
 7    1  0.6078244E-006  0.1376612E+03  0.7818608E-02  0.1281180E+00
          2   -1    0    0  502    0  0.00000000000E+00  0.00000000000E+00  0.90535007587E+03  0.90535007587E+03  0.00000000000E+00 0. -1.
          1   -1    0    0  501    0 -0.00000000000E+00 -0.00000000000E+00 -0.18198319938E+03  0.18198319938E+03  0.00000000000E+00 0. -1.
         25    2    1    2    0    0 -0.34746513187E+02  0.10863472386E+03  0.50740853756E+03  0.53488456084E+03  0.12501698299E+03 0.  0.
          2    1    1    2  501    0 -0.60138798961E+02  0.39652297709E+02 -0.13881798424E+03  0.15639505300E+03  0.00000000000E+00 0. -1.
          1    1    1    2  502    0  0.94885312148E+02 -0.14828702157E+03  0.35477632317E+03  0.39605366141E+03  0.00000000000E+00 0. -1.
         22    1    3    3    0    0 -0.49163508001E+02 -0.58100569688E+01  0.10189787514E+03  0.11328717597E+03  0.00000000000E+00 0. -1.
         22    1    3    3    0    0  0.14416994814E+02  0.11444478083E+03  0.40551066242E+03  0.42159738488E+03  0.00000000000E+00 0. -1.
</event>
<event>
 7    1  0.6078244E-006  0.1356105E+03  0.7818608E-02  0.1347294E+00
          2   -1    0    0  502    0  0.00000000000E+00  0.00000000000E+00  0.12029015994E+04  0.12029015994E+04  0.00000000000E+00 0. -1.
          1   -1    0    0  501    0 -0.00000000000E+00 -0.00000000000E+00 -0.14581177393E+03  0.14581177393E+03  0.00000000000E+00 0. -1.
         25    2    1    2    0    0  0.63106554157E+01  0.11279912438E+03  0.90030320929E+02  0.19103400414E+03  0.12500026088E+03 0.  0.
          2    1    1    2  501    0 -0.35245420538E+02 -0.14081801121E+03 -0.39400357832E+02  0.15041389612E+03  0.00000000000E+00 0. -1.
          1    1    1    2  502    0  0.28934765122E+02  0.28018886829E+02  0.10064598624E+04  0.10072654731E+04  0.00000000000E+00 0. -1.
         22    1    3    3    0    0  0.42502089574E+01  0.12505027027E+03  0.28586027559E+02  0.12834638812E+03  0.00000000000E+00 0.  1.
         22    1    3    3    0    0  0.20604464583E+01 -0.12251145891E+02  0.61444293371E+02  0.62687616026E+02  0.00000000000E+00 0.  1.
</event>
<event>
 7    1  0.6078244E-006  0.5202967E+02  0.7818608E-02  0.1475123E+00
          2   -1    0    0  502    0  0.00000000000E+00  0.00000000000E+00  0.24814497238E+04  0.24814497238E+04  0.00000000000E+00 0. -1.
          1   -1    0    0  501    0 -0.00000000000E+00 -0.00000000000E+00 -0.41318935109E+03  0.41318935109E+03  0.00000000000E+00 0. -1.
         25    2    1    2    0    0 -0.78221941146E+02  0.42014417568E+02  0.46159697369E+02  0.16012453439E+03  0.12500106196E+03 0.  0.
          2    1    1    2  501    0  0.29038797585E+02 -0.25588424331E+02 -0.35487196615E+03  0.35697637398E+03  0.00000000000E+00 0. -1.
          1    1    1    2  502    0  0.49183143560E+02 -0.16425993236E+02  0.23769726414E+04  0.23775381665E+04  0.00000000000E+00 0. -1.
         22    1    3    3    0    0 -0.57228996333E+02  0.29876369985E+02 -0.36375434128E+02  0.74100794279E+02  0.00000000000E+00 0. -1.
         22    1    3    3    0    0 -0.20992944813E+02  0.12138047583E+02  0.82535131497E+02  0.86023740109E+02  0.00000000000E+00 0. -1.
</event>
<event>
 7    1  0.6078244E-006  0.1069417E+03  0.7818608E-02  0.1341913E+00
          2   -1    0    0  502    0  0.00000000000E+00  0.00000000000E+00  0.11900237547E+04  0.11900237547E+04  0.00000000000E+00 0. -1.
          1   -1    0    0  501    0 -0.00000000000E+00 -0.00000000000E+00 -0.22734564653E+04  0.22734564653E+04  0.00000000000E+00 0. -1.
         25    2    1    2    0    0 -0.51253795782E+02 -0.40778769785E+02  0.14555407782E+03  0.20273383555E+03  0.12500063545E+03 0.  0.
          2    1    1    2  501    0 -0.53463073430E+02  0.18334912945E+01 -0.22414746851E+04  0.22421129378E+04  0.00000000000E+00 0. -1.
          1    1    1    2  502    0  0.10471686921E+03  0.38945278490E+02  0.10124878967E+04  0.10186334466E+04  0.00000000000E+00 0. -1.
         22    1    3    3    0    0  0.35651384104E+02  0.14082021840E+02  0.38183165078E+02  0.54104330908E+02  0.00000000000E+00 0. -1.
         22    1    3    3    0    0 -0.86905179886E+02 -0.54860791624E+02  0.10737091274E+03  0.14862950465E+03  0.00000000000E+00 0. -1.
</event>
<event>
 7    1  0.6078244E-006  0.6642694E+02  0.7818608E-02  0.1496499E+00
          2   -1    0    0  502    0  0.00000000000E+00  0.00000000000E+00  0.19123013671E+04  0.19123013671E+04  0.00000000000E+00 0. -1.
          1   -1    0    0  501    0 -0.00000000000E+00 -0.00000000000E+00 -0.25989696465E+03  0.25989696465E+03  0.00000000000E+00 0. -1.
         25    2    1    2    0    0 -0.36674735320E+02 -0.33045521914E+02  0.40312643789E+02  0.14030960794E+03  0.12499853640E+03 0.  0.
          2    1    1    2  501    0  0.62033326809E+02  0.26875088520E+02 -0.20435872158E+03  0.21525076330E+03  0.00000000000E+00 0. -1.
          1    1    1    2  502    0 -0.25358591489E+02  0.61704333938E+01  0.18164504803E+04  0.18166379605E+04  0.00000000000E+00 0. -1.
         22    1    3    3    0    0 -0.21200658247E+02  0.11741875591E+01 -0.43534138837E+02  0.48436224778E+02  0.00000000000E+00 0. -1.
         22    1    3    3    0    0 -0.15474077074E+02 -0.34219709473E+02  0.83846782626E+02  0.91873383166E+02  0.00000000000E+00 0. -1.
</event>
<event>
 7    1  0.6078244E-006  0.4557307E+02  0.7818608E-02  0.1511350E+00
          2   -1    0    0  502    0  0.00000000000E+00  0.00000000000E+00  0.24281396053E+03  0.24281396053E+03  0.00000000000E+00 0. -1.
          1   -1    0    0  501    0 -0.00000000000E+00 -0.00000000000E+00 -0.98911502631E+03  0.98911502631E+03  0.00000000000E+00 0. -1.
         25    2    1    2    0    0  0.25480979010E+02  0.10477184249E+01 -0.40283559247E+03  0.42255065187E+03  0.12498864281E+03 0.  0.
          2    1    1    2  501    0 -0.36673821130E+02  0.31447935488E+02 -0.57413419479E+03  0.57616318472E+03  0.00000000000E+00 0. -1.
          1    1    1    2  502    0  0.11192842120E+02 -0.32495653912E+02  0.23066872148E+03  0.23321515025E+03  0.00000000000E+00 0. -1.
         22    1    3    3    0    0 -0.26663517036E+02 -0.23155484688E+02 -0.33196142670E+02  0.48467551001E+02  0.00000000000E+00 0. -1.
         22    1    3    3    0    0  0.52144496046E+02  0.24203203113E+02 -0.36963944980E+03  0.37408310087E+03  0.00000000000E+00 0. -1.
</event>
<event>
 7    1  0.6078244E-006  0.1254378E+03  0.7818608E-02  0.1434578E+00
          2   -1    0    0  502    0  0.00000000000E+00  0.00000000000E+00  0.17161442495E+04  0.17161442495E+04  0.00000000000E+00 0. -1.
          1   -1    0    0  501    0 -0.00000000000E+00 -0.00000000000E+00 -0.34603602421E+03  0.34603602421E+03  0.00000000000E+00 0. -1.
         25    2    1    2    0    0 -0.42224358230E+02 -0.97628983898E+02  0.13233160764E+04  0.13334560488E+04  0.12500112434E+03 0.  0.
          2    1    1    2  501    0  0.39896583133E+02  0.11910270975E+03 -0.32907744931E+03  0.35223452480E+03  0.00000000000E+00 0. -1.
          1    1    1    2  502    0  0.23277750966E+01 -0.21473725853E+02  0.37586959822E+03  0.37648970013E+03  0.00000000000E+00 0. -1.
         22    1    3    3    0    0 -0.40789448367E+02  0.88687445980E+01  0.68875271513E+03  0.69001647541E+03  0.00000000000E+00 0. -1.
         22    1    3    3    0    0 -0.14349098631E+01 -0.10649772850E+03  0.63456336127E+03  0.64343957340E+03  0.00000000000E+00 0. -1.
</event>
<event>
 7    1  0.6078244E-006  0.5448207E+02  0.7818608E-02  0.1488060E+00
          2   -1    0    0  502    0  0.00000000000E+00  0.00000000000E+00  0.54783941835E+02  0.54783941835E+02  0.00000000000E+00 0. -1.
          1   -1    0    0  501    0 -0.00000000000E+00 -0.00000000000E+00 -0.13265346958E+04  0.13265346958E+04  0.00000000000E+00 0. -1.
         25    2    1    2    0    0  0.75957382472E+02 -0.31721568476E+02 -0.81659177780E+03  0.83019420442E+03  0.12499801444E+03 0.  0.
          2    1    1    2  501    0 -0.33686835310E+02 -0.19120050811E+01 -0.48716753985E+03  0.48833458870E+03  0.00000000000E+00 0. -1.
          1    1    1    2  502    0 -0.42270547162E+02  0.33633573557E+02  0.32008563676E+02  0.62789844531E+02  0.00000000000E+00 0. -1.
         22    1    3    3    0    0  0.53578969377E+02  0.39771573152E+02 -0.25324949067E+03  0.26189270420E+03  0.00000000000E+00 0. -1.
         22    1    3    3    0    0  0.22378413095E+02 -0.71493141628E+02 -0.56334228713E+03  0.56830150021E+03  0.00000000000E+00 0. -1.
</event>
<event>
 7    1  0.6078244E-006  0.7355174E+02  0.7818608E-02  0.1401760E+00
          2   -1    0    0  502    0  0.00000000000E+00  0.00000000000E+00  0.35219906651E+04  0.35219906651E+04  0.00000000000E+00 0. -1.
          1   -1    0    0  501    0 -0.00000000000E+00 -0.00000000000E+00 -0.11301796361E+02  0.11301796361E+02  0.00000000000E+00 0. -1.
         25    2    1    2    0    0  0.60721386584E+02  0.29760607817E+02  0.13647064817E+04  0.13720868042E+04  0.12500254624E+03 0.  0.
          2    1    1    2  501    0 -0.26560234093E+02  0.39314970213E+02  0.74724693241E+02  0.88514929237E+02  0.00000000000E+00 0. -1.
          1    1    1    2  502    0 -0.34161152491E+02 -0.69075578030E+02  0.20712576939E+04  0.20726907281E+04  0.00000000000E+00 0. -1.
         22    1    3    3    0    0 -0.17431691713E+02  0.28529780805E+02  0.11050282775E+03  0.11544993378E+03  0.00000000000E+00 0.  1.
         22    1    3    3    0    0  0.78153078297E+02  0.12308270124E+01  0.12542036539E+04  0.12566368704E+04  0.00000000000E+00 0.  1.
</event>
<event>
 7    1  0.6078244E-006  0.1270688E+03  0.7818608E-02  0.1356030E+00
          2   -1    0    0  502    0  0.00000000000E+00  0.00000000000E+00  0.18591314523E+04  0.18591314523E+04  0.00000000000E+00 0. -1.
          1   -1    0    0  501    0 -0.00000000000E+00 -0.00000000000E+00 -0.50268181611E+03  0.50268181611E+03  0.00000000000E+00 0. -1.
         25    2    1    2    0    0 -0.87120515517E+02  0.10270038060E+02  0.11531789319E+04  0.11632465103E+04  0.12500134696E+03 0.  0.
          2    1    1    2  501    0  0.12567515077E+03 -0.20564190992E+02 -0.48891705454E+03  0.50522966628E+03  0.00000000000E+00 0. -1.
          1    1    1    2  502    0 -0.38554635256E+02  0.10294152932E+02  0.69218775882E+03  0.69333709185E+03  0.00000000000E+00 0. -1.
         22    1    3    3    0    0 -0.26875120361E+02 -0.40708925911E+02  0.16874170846E+03  0.17565094056E+03  0.00000000000E+00 0. -1.
         22    1    3    3    0    0 -0.60245395156E+02  0.50978963970E+02  0.98443722347E+03  0.98759556974E+03  0.00000000000E+00 0. -1.
</event>
<event>
 7    1  0.6078244E-006  0.1158734E+03  0.7818608E-02  0.1376052E+00
          2   -1    0    0  502    0  0.00000000000E+00  0.00000000000E+00  0.21619255621E+03  0.21619255621E+03  0.00000000000E+00 0. -1.
          1   -1    0    0  501    0 -0.00000000000E+00 -0.00000000000E+00 -0.23458227989E+03  0.23458227989E+03  0.00000000000E+00 0. -1.
         25    2    1    2    0    0 -0.70328464113E+02  0.53051796351E+02 -0.10690797156E+03  0.18658737670E+03  0.12499979520E+03 0.  0.
          2    1    1    2  501    0 -0.10801923551E+02  0.35429903894E+02 -0.61657300333E+02  0.71927618664E+02  0.00000000000E+00 0. -1.
          1    1    1    2  502    0  0.81130387663E+02 -0.88481700245E+02  0.15017554821E+03  0.19225984074E+03  0.00000000000E+00 0. -1.
         22    1    3    3    0    0 -0.57830417955E+02 -0.73136636759E+01  0.53302291262E+01  0.58534248605E+02  0.00000000000E+00 0. -1.
         22    1    3    3    0    0 -0.12498046158E+02  0.60365460026E+02 -0.11223820069E+03  0.12805312810E+03  0.00000000000E+00 0. -1.
</event>
<event>
 7    1  0.6078244E-006  0.1439989E+03  0.7818608E-02  0.1228112E+00
          2   -1    0    0  502    0  0.00000000000E+00  0.00000000000E+00  0.14886491334E+04  0.14886491334E+04  0.00000000000E+00 0. -1.
          1   -1    0    0  501    0 -0.00000000000E+00 -0.00000000000E+00 -0.25343794333E+03  0.25343794333E+03  0.00000000000E+00 0. -1.
         25    2    1    2    0    0 -0.98963507176E+02  0.65800565506E+02  0.12439118157E+04  0.12558123998E+04  0.12499875161E+03 0.  0.
          2    1    1    2  501    0  0.10157613904E+03  0.10206848237E+03 -0.19050704733E+03  0.23880666280E+03  0.00000000000E+00 0. -1.
          1    1    1    2  502    0 -0.26126318631E+01 -0.16786904787E+03  0.18180642165E+03  0.24746801416E+03  0.00000000000E+00 0. -1.
         22    1    3    3    0    0 -0.85689690519E+02  0.96527959096E+02  0.77208934855E+03  0.78280414670E+03  0.00000000000E+00 0.  1.
         22    1    3    3    0    0 -0.13273816657E+02 -0.30727393590E+02  0.47182246720E+03  0.47300825308E+03  0.00000000000E+00 0.  1.
</event>
<event>
 7    1  0.7548325E-006  0.1028041E+03  0.7818608E-02  0.1364765E+00
          2   -1    0    0  502    0  0.00000000000E+00  0.00000000000E+00  0.13671349835E+04  0.13671349835E+04  0.00000000000E+00 0. -1.
          1   -1    0    0  501    0 -0.00000000000E+00 -0.00000000000E+00 -0.11390622803E+04  0.11390622803E+04  0.00000000000E+00 0. -1.
         25    2    1    2    0    0  0.65535672092E+02  0.28039414052E+02 -0.78664970981E+02  0.16399439307E+03  0.12499940096E+03 0.  0.
          2    1    1    2  501    0  0.74482093366E+01  0.45225650554E+02 -0.10151961046E+04  0.10162302722E+04  0.00000000000E+00 0. -1.
          1    1    1    2  502    0 -0.72983881429E+02 -0.73265064606E+02  0.13219337788E+04  0.13259725986E+04  0.00000000000E+00 0. -1.
         22    1    3    3    0    0  0.68715286691E+01 -0.44795615717E+02 -0.46915359722E+02  0.65229717702E+02  0.00000000000E+00 0. -1.
         22    1    3    3    0    0  0.58664143423E+02  0.72835029768E+02 -0.31749611260E+02  0.98764675365E+02  0.00000000000E+00 0. -1.
</event>
<event>
 7    1  0.6078244E-006  0.2022592E+03  0.7818608E-02  0.1218747E+00
          2   -1    0    0  502    0  0.00000000000E+00  0.00000000000E+00  0.76930937714E+03  0.76930937714E+03  0.00000000000E+00 0. -1.
          1   -1    0    0  501    0 -0.00000000000E+00 -0.00000000000E+00 -0.10024279730E+04  0.10024279730E+04  0.00000000000E+00 0. -1.
         25    2    1    2    0    0 -0.13195070929E+03 -0.86530427573E+01 -0.12580827328E+02  0.18239356749E+03  0.12499308547E+03 0.  0.
          2    1    1    2  501    0  0.20242350346E+03  0.67031608982E+02 -0.88921974582E+03  0.91442892983E+03  0.00000000000E+00 0. -1.
          1    1    1    2  502    0 -0.70472794171E+02 -0.58378566225E+02  0.66868197732E+03  0.67491485278E+03  0.00000000000E+00 0. -1.
         22    1    3    3    0    0 -0.12463801514E+03  0.24739573440E+02  0.27194733834E+02  0.12994704637E+03  0.00000000000E+00 0. -1.
         22    1    3    3    0    0 -0.73126941484E+01 -0.33392616197E+02 -0.39775561162E+02  0.52446521123E+02  0.00000000000E+00 0. -1.
</event>
<event>
 7    1  0.6078244E-006  0.7523557E+02  0.7818608E-02  0.1482128E+00
          2   -1    0    0  502    0  0.00000000000E+00  0.00000000000E+00  0.50827522416E+03  0.50827522416E+03  0.00000000000E+00 0. -1.
          1   -1    0    0  501    0 -0.00000000000E+00 -0.00000000000E+00 -0.41062498552E+02  0.41062498552E+02  0.00000000000E+00 0. -1.
         25    2    1    2    0    0 -0.74368271545E+02 -0.12622471623E+02  0.16606275643E+03  0.22111535916E+03  0.12500078553E+03 0.  0.
          2    1    1    2  501    0 -0.38117907440E+00  0.25468858561E+02  0.10014560583E+02  0.27369681722E+02  0.00000000000E+00 0. -1.
          1    1    1    2  502    0  0.74749450619E+02 -0.12846386938E+02  0.29113540859E+03  0.30085268183E+03  0.00000000000E+00 0. -1.
         22    1    3    3    0    0 -0.47097262771E+02  0.42182091041E+01  0.18004181713E+03  0.18614779441E+03  0.00000000000E+00 0. -1.
         22    1    3    3    0    0 -0.27271008774E+02 -0.16840680727E+02 -0.13979060697E+02  0.34967564755E+02  0.00000000000E+00 0. -1.
</event>
<event>
 7    1  0.6078244E-006  0.2929907E+03  0.7818608E-02  0.1174512E+00
          2   -1    0    0  502    0  0.00000000000E+00  0.00000000000E+00  0.74886275154E+03  0.74886275154E+03  0.00000000000E+00 0. -1.
          1   -1    0    0  501    0 -0.00000000000E+00 -0.00000000000E+00 -0.19946591684E+04  0.19946591684E+04  0.00000000000E+00 0. -1.
         25    2    1    2    0    0 -0.13141027153E+03  0.18690400020E+03 -0.43233257273E+03  0.50471672603E+03  0.12500302130E+03 0.  0.
          2    1    1    2  501    0  0.15040287626E+03 -0.28755961985E+03 -0.15050682620E+04  0.15396564660E+04  0.00000000000E+00 0. -1.
          1    1    1    2  502    0 -0.18992604733E+02  0.10065561965E+03  0.69160441789E+03  0.69914872785E+03  0.00000000000E+00 0. -1.
         22    1    3    3    0    0  0.52812789722E+01  0.79720560815E+02 -0.19394271069E+03  0.20975470139E+03  0.00000000000E+00 0. -1.
         22    1    3    3    0    0 -0.13669155050E+03  0.10718343939E+03 -0.23838986204E+03  0.29496202464E+03  0.00000000000E+00 0. -1.
</event>
<event>
 7    1  0.6078244E-006  0.1312986E+03  0.7818608E-02  0.1348379E+00
          2   -1    0    0  502    0  0.00000000000E+00  0.00000000000E+00  0.95925597314E+03  0.95925597314E+03  0.00000000000E+00 0. -1.
          1   -1    0    0  501    0 -0.00000000000E+00 -0.00000000000E+00 -0.24284462612E+03  0.24284462612E+03  0.00000000000E+00 0. -1.
         25    2    1    2    0    0 -0.16042570266E+03 -0.27453283678E+02  0.42517395716E+03  0.47210931543E+03  0.12499689200E+03 0.  0.
          2    1    1    2  501    0  0.40418526845E+02  0.80664908504E+01 -0.21011112993E+03  0.21411541866E+03  0.00000000000E+00 0. -1.
          1    1    1    2  502    0  0.12000717581E+03  0.19386792828E+02  0.50134851978E+03  0.51587586518E+03  0.00000000000E+00 0. -1.
         22    1    3    3    0    0 -0.13592660577E+03 -0.46672198212E+02  0.20863754127E+03  0.25334553453E+03  0.00000000000E+00 0. -1.
         22    1    3    3    0    0 -0.24499096887E+02  0.19218914534E+02  0.21653641589E+03  0.21876378090E+03  0.00000000000E+00 0. -1.
</event>
<event>
 7    1  0.6078244E-006  0.2037020E+03  0.7818608E-02  0.1292641E+00
          2   -1    0    0  502    0  0.00000000000E+00  0.00000000000E+00  0.90044519311E+03  0.90044519311E+03  0.00000000000E+00 0. -1.
          1   -1    0    0  501    0 -0.00000000000E+00 -0.00000000000E+00 -0.11099717565E+04  0.11099717565E+04  0.00000000000E+00 0. -1.
         25    2    1    2    0    0  0.13184424938E+03  0.11704551265E+03  0.13205881653E+03  0.25327373580E+03  0.12500198437E+03 0.  0.
          2    1    1    2  501    0  0.55196092811E+01  0.43353278819E+02 -0.10331397317E+04  0.10340636722E+04  0.00000000000E+00 0. -1.
          1    1    1    2  502    0 -0.13736385866E+03 -0.16039879147E+03  0.69155435182E+03  0.72307954161E+03  0.00000000000E+00 0. -1.
         22    1    3    3    0    0  0.12617534936E+03  0.11398804113E+03  0.59079540700E+02  0.18001078978E+03  0.00000000000E+00 0.  1.
         22    1    3    3    0    0  0.56689000223E+01  0.30574715220E+01  0.72979275832E+02  0.73262946027E+02  0.00000000000E+00 0.  1.
</event>
<event>
 7    1  0.6078244E-006  0.1059319E+03  0.7818608E-02  0.1307278E+00
          2   -1    0    0  502    0  0.00000000000E+00  0.00000000000E+00  0.14693145637E+04  0.14693145637E+04  0.00000000000E+00 0. -1.
          1   -1    0    0  501    0 -0.00000000000E+00 -0.00000000000E+00 -0.13020380272E+04  0.13020380272E+04  0.00000000000E+00 0. -1.
         25    2    1    2    0    0  0.53082859124E+02 -0.32895917868E+02  0.58777884853E+03  0.60415871746E+03  0.12499539896E+03 0.  0.
          2    1    1    2  501    0 -0.28757886145E+02  0.10218115049E+03 -0.12901208648E+04  0.12944805326E+04  0.00000000000E+00 0. -1.
          1    1    1    2  502    0 -0.24324972979E+02 -0.69285232624E+02  0.86961855284E+03  0.87271334080E+03  0.00000000000E+00 0. -1.
         22    1    3    3    0    0  0.67796978263E+02  0.29972858366E+02  0.27727057531E+03  0.28700831771E+03  0.00000000000E+00 0.  1.
         22    1    3    3    0    0 -0.14714119139E+02 -0.62868776234E+02  0.31050827322E+03  0.31715039975E+03  0.00000000000E+00 0.  1.
</event>
<event>
 7    1  0.6078244E-006  0.1694291E+03  0.7818608E-02  0.1272647E+00
          2   -1    0    0  502    0  0.00000000000E+00  0.00000000000E+00  0.79785946735E+03  0.79785946735E+03  0.00000000000E+00 0. -1.
          1   -1    0    0  501    0 -0.00000000000E+00 -0.00000000000E+00 -0.78843934966E+03  0.78843934966E+03  0.00000000000E+00 0. -1.
         25    2    1    2    0    0  0.38103033441E+02  0.20996461892E+03 -0.28508813087E+03  0.37740822876E+03  0.12499898568E+03 0.  0.
          2    1    1    2  501    0  0.29952330807E+02 -0.55996223311E+02 -0.44548655883E+03  0.44998999238E+03  0.00000000000E+00 0. -1.
          1    1    1    2  502    0 -0.68055364248E+02 -0.15396839561E+03  0.73999480739E+03  0.75890059587E+03  0.00000000000E+00 0. -1.
         22    1    3    3    0    0  0.69046020901E+02  0.17361922002E+03 -0.16918447351E+03  0.25206025597E+03  0.00000000000E+00 0.  1.
         22    1    3    3    0    0 -0.30942987460E+02  0.36345398894E+02 -0.11590365735E+03  0.12534797279E+03  0.00000000000E+00 0.  1.
</event>
<event>
 7    1  0.6078244E-006  0.1180276E+03  0.7818608E-02  0.1330728E+00
          2   -1    0    0  502    0  0.00000000000E+00  0.00000000000E+00  0.14791872997E+04  0.14791872997E+04  0.00000000000E+00 0. -1.
          1   -1    0    0  501    0 -0.00000000000E+00 -0.00000000000E+00 -0.14117274563E+03  0.14117274563E+03  0.00000000000E+00 0. -1.
         25    2    1    2    0    0  0.13052665768E+03 -0.93660724283E+02  0.42774053833E+03  0.47370607102E+03  0.12500373574E+03 0.  0.
          2    1    1    2  501    0 -0.10588582934E+03  0.46251200091E+02 -0.89064233694E+02  0.14588838229E+03  0.00000000000E+00 0. -1.
          1    1    1    2  502    0 -0.24640828340E+02  0.47409524192E+02  0.99933824944E+03  0.10007655920E+04  0.00000000000E+00 0. -1.
         22    1    3    3    0    0  0.92435617088E+01 -0.39873244541E+02  0.21263823212E+02  0.46124497188E+02  0.00000000000E+00 0.  1.
         22    1    3    3    0    0  0.12128309597E+03 -0.53787479742E+02  0.40647671512E+03  0.42758157383E+03  0.00000000000E+00 0.  1.
</event>
<event>
 7    1  0.6078244E-006  0.1168376E+03  0.7818608E-02  0.1441122E+00
          2   -1    0    0  502    0  0.00000000000E+00  0.00000000000E+00  0.53269518301E+03  0.53269518301E+03  0.00000000000E+00 0. -1.
          1   -1    0    0  501    0 -0.00000000000E+00 -0.00000000000E+00 -0.49159784727E+03  0.49159784727E+03  0.00000000000E+00 0. -1.
         25    2    1    2    0    0  0.46099197693E+02 -0.10357778163E+03  0.35279762363E+03  0.39107916244E+03  0.12499302053E+03 0.  0.
          2    1    1    2  501    0  0.21956874248E+02  0.23229391748E+01 -0.44899964394E+03  0.44954219005E+03  0.00000000000E+00 0. -1.
          1    1    1    2  502    0 -0.68056071941E+02  0.10125484245E+03  0.13729935605E+03  0.18367167778E+03  0.00000000000E+00 0. -1.
         22    1    3    3    0    0  0.62492894462E+02 -0.12559362430E+03  0.30958994386E+03  0.33988976692E+03  0.00000000000E+00 0.  1.
         22    1    3    3    0    0 -0.16393696769E+02  0.22015842667E+02  0.43207679775E+02  0.51189395519E+02  0.00000000000E+00 0.  1.
</event>
<event>
 7    1  0.6078244E-006  0.4011281E+02  0.7818608E-02  0.1548665E+00
          2   -1    0    0  502    0  0.00000000000E+00  0.00000000000E+00  0.72074079913E+03  0.72074079913E+03  0.00000000000E+00 0. -1.
          1   -1    0    0  501    0 -0.00000000000E+00 -0.00000000000E+00 -0.11923188334E+04  0.11923188334E+04  0.00000000000E+00 0. -1.
         25    2    1    2    0    0 -0.27237635036E+02  0.15832223428E+02  0.50008556633E+02  0.13826906079E+03  0.12499971750E+03 0.  0.
          2    1    1    2  501    0  0.78493390458E+01 -0.39410627495E+02 -0.11474648733E+04  0.11481683000E+04  0.00000000000E+00 0. -1.
          1    1    1    2  502    0  0.19388295990E+02  0.23578404067E+02  0.62587828236E+03  0.62662227178E+03  0.00000000000E+00 0. -1.
         22    1    3    3    0    0 -0.55880410439E+02 -0.35132661175E+02  0.84607487328E+01  0.66547039162E+02  0.00000000000E+00 0. -1.
         22    1    3    3    0    0  0.28642775403E+02  0.50964884603E+02  0.41547807900E+02  0.71722021630E+02  0.00000000000E+00 0. -1.
</event>
<event>
 7    1  0.6078244E-006  0.6648667E+02  0.7818608E-02  0.1441019E+00
          2   -1    0    0  502    0  0.00000000000E+00  0.00000000000E+00  0.63811964056E+02  0.63811964056E+02  0.00000000000E+00 0. -1.
          1   -1    0    0  501    0 -0.00000000000E+00 -0.00000000000E+00 -0.12911037433E+04  0.12911037433E+04  0.00000000000E+00 0. -1.
         25    2    1    2    0    0  0.26094699129E+01  0.53631057281E+02 -0.30083790737E+03  0.33016828320E+03  0.12499819631E+03 0.  0.
          2    1    1    2  501    0  0.35971083880E+02 -0.58027548798E+02 -0.96653406399E+03  0.96894231622E+03  0.00000000000E+00 0. -1.
          1    1    1    2  502    0 -0.38580553793E+02  0.43964915176E+01  0.40080192138E+02  0.55805107924E+02  0.00000000000E+00 0. -1.
         22    1    3    3    0    0 -0.60579506325E+02  0.31217672527E+02 -0.13324449197E+03  0.14966133203E+03  0.00000000000E+00 0.  1.
         22    1    3    3    0    0  0.63188976238E+02  0.22413384753E+02 -0.16759341540E+03  0.18050695117E+03  0.00000000000E+00 0.  1.
</event>
<event>
 7    1  0.6078244E-006  0.6900080E+02  0.7818608E-02  0.1439804E+00
          2   -1    0    0  502    0  0.00000000000E+00  0.00000000000E+00  0.45353978938E+03  0.45353978938E+03  0.00000000000E+00 0. -1.
          1   -1    0    0  501    0 -0.00000000000E+00 -0.00000000000E+00 -0.99722321294E+02  0.99722321294E+02  0.00000000000E+00 0. -1.
         25    2    1    2    0    0 -0.35432496690E+02  0.27324291715E+02  0.56826557991E+02  0.14441669168E+03  0.12499937761E+03 0.  0.
          2    1    1    2  501    0  0.39688394833E+02 -0.64840159526E+02 -0.28487284288E+02  0.81184606533E+02  0.00000000000E+00 0. -1.
          1    1    1    2  502    0 -0.42558981428E+01  0.37515867811E+02  0.32547819438E+03  0.32766081246E+03  0.00000000000E+00 0. -1.
         22    1    3    3    0    0 -0.56844010349E+02 -0.13885113821E+02 -0.13583037644E+02  0.60071097959E+02  0.00000000000E+00 0. -1.
         22    1    3    3    0    0  0.21411513659E+02  0.41209405536E+02  0.70409595635E+02  0.84345593716E+02  0.00000000000E+00 0. -1.
</event>
<event>
 7    1  0.6078244E-006  0.1163837E+03  0.7818608E-02  0.1320177E+00
          2   -1    0    0  502    0  0.00000000000E+00  0.00000000000E+00  0.77809945493E+03  0.77809945493E+03  0.00000000000E+00 0. -1.
          1   -1    0    0  501    0 -0.00000000000E+00 -0.00000000000E+00 -0.11484742562E+03  0.11484742562E+03  0.00000000000E+00 0. -1.
         25    2    1    2    0    0 -0.14821333855E+03  0.42224981819E+02  0.82444821038E+02  0.21487700072E+03  0.12499933643E+03 0.  0.
          2    1    1    2  501    0  0.89432734436E+02 -0.51412789747E+02  0.94124004886E+01  0.10358611017E+03  0.00000000000E+00 0. -1.
          1    1    1    2  502    0  0.58780604117E+02  0.91878079281E+01  0.57139480779E+03  0.57448376966E+03  0.00000000000E+00 0. -1.
         22    1    3    3    0    0 -0.15955133082E+03  0.65264556864E+02  0.76055212843E+02  0.18841572373E+03  0.00000000000E+00 0.  1.
         22    1    3    3    0    0  0.11337992267E+02 -0.23039575045E+02  0.63896081950E+01  0.26461276987E+02  0.00000000000E+00 0.  1.
</event>
<event>
 7    1  0.6078244E-006  0.6720523E+02  0.7818608E-02  0.1424445E+00
          2   -1    0    0  502    0  0.00000000000E+00  0.00000000000E+00  0.43282585308E+02  0.43282585308E+02  0.00000000000E+00 0. -1.
          1   -1    0    0  501    0 -0.00000000000E+00 -0.00000000000E+00 -0.79624245114E+03  0.79624245114E+03  0.00000000000E+00 0. -1.
         25    2    1    2    0    0  0.26108379337E+02  0.10327217364E+03 -0.17221403688E+03  0.23796981802E+03  0.12500068188E+03 0.  0.
          2    1    1    2  501    0 -0.25406956405E+02 -0.59741116866E+02 -0.53300437973E+03  0.53694337065E+03  0.00000000000E+00 0. -1.
          1    1    1    2  502    0 -0.70142293238E+00 -0.43531056779E+02 -0.47741449233E+02  0.64611847778E+02  0.00000000000E+00 0. -1.
         22    1    3    3    0    0 -0.27960125872E+02  0.62959377099E+02 -0.20394365485E+02  0.71844150402E+02  0.00000000000E+00 0. -1.
         22    1    3    3    0    0  0.54068505209E+02  0.40312796545E+02 -0.15181967139E+03  0.16612566762E+03  0.00000000000E+00 0. -1.
</event>
<event>
 7    1  0.6078244E-006  0.4556070E+02  0.7818608E-02  0.1534998E+00
          2   -1    0    0  502    0  0.00000000000E+00  0.00000000000E+00  0.95362283464E+03  0.95362283464E+03  0.00000000000E+00 0. -1.
          1   -1    0    0  501    0 -0.00000000000E+00 -0.00000000000E+00 -0.34641448679E+03  0.34641448679E+03  0.00000000000E+00 0. -1.
         25    2    1    2    0    0  0.46901272874E+02 -0.29993148065E+02 -0.91071685004E+02  0.16437363380E+03  0.12500128540E+03 0.  0.
          2    1    1    2  501    0 -0.45405050321E+02  0.66109505824E+00 -0.21609623603E+03  0.22081584831E+03  0.00000000000E+00 0. -1.
          1    1    1    2  502    0 -0.14962225539E+01  0.29332053007E+02  0.91437626888E+03  0.91484783932E+03  0.00000000000E+00 0. -1.
         22    1    3    3    0    0  0.14152765771E+02 -0.74818312989E+02 -0.30000125926E+02  0.81841849277E+02  0.00000000000E+00 0. -1.
         22    1    3    3    0    0  0.32748507104E+02  0.44825164924E+02 -0.61071559078E+02  0.82531784521E+02  0.00000000000E+00 0. -1.
</event>
<event>
 7    1  0.6078244E-006  0.6531514E+02  0.7818608E-02  0.1428981E+00
          2   -1    0    0  502    0  0.00000000000E+00  0.00000000000E+00  0.12347656112E+04  0.12347656112E+04  0.00000000000E+00 0. -1.
          1   -1    0    0  501    0 -0.00000000000E+00 -0.00000000000E+00 -0.28389131519E+03  0.28389131519E+03  0.00000000000E+00 0. -1.
         25    2    1    2    0    0 -0.36564489228E+02  0.52240612488E+02 -0.26096686674E+02  0.14273270919E+03  0.12500218299E+03 0.  0.
          2    1    1    2  501    0 -0.26409879616E+02 -0.34282306502E+02 -0.19620562838E+03  0.20092139480E+03  0.00000000000E+00 0. -1.
          1    1    1    2  502    0  0.62974368844E+02 -0.17958305986E+02  0.11731766110E+04  0.11750028224E+04  0.00000000000E+00 0. -1.
         22    1    3    3    0    0  0.30299471585E+02  0.53077780659E+02  0.16679157489E+02  0.63352214424E+02  0.00000000000E+00 0.  1.
         22    1    3    3    0    0 -0.66863960813E+02 -0.83716817097E+00 -0.42775844163E+02  0.79380494770E+02  0.00000000000E+00 0.  1.
</event>
<event>
 7    1  0.7822968E-006  0.7145718E+02  0.7818608E-02  0.1359572E+00
          2   -1    0    0  502    0  0.00000000000E+00  0.00000000000E+00  0.23113711322E+04  0.23113711322E+04  0.00000000000E+00 0. -1.
          1   -1    0    0  501    0 -0.00000000000E+00 -0.00000000000E+00 -0.18731299270E+04  0.18731299270E+04  0.00000000000E+00 0. -1.
         25    2    1    2    0    0  0.13025891386E+03  0.45831454167E+02 -0.10829309250E+03  0.21545767087E+03  0.12500682870E+03 0.  0.
          2    1    1    2  501    0 -0.67933069316E+02 -0.11341514086E+02 -0.17099993144E+04  0.17113857506E+04  0.00000000000E+00 0. -1.
          1    1    1    2  502    0 -0.62325844549E+02 -0.34489940080E+02  0.22565336122E+04  0.22576576378E+04  0.00000000000E+00 0. -1.
         22    1    3    3    0    0  0.19555864917E+02  0.32413685462E+00  0.27945438668E+02  0.34109888005E+02  0.00000000000E+00 0. -1.
         22    1    3    3    0    0  0.11070304895E+03  0.45507317312E+02 -0.13623853117E+03  0.18134778287E+03  0.00000000000E+00 0. -1.
</event>
<event>
 7    1  0.6078244E-006  0.5239946E+02  0.7818608E-02  0.1539848E+00
          2   -1    0    0  502    0  0.00000000000E+00  0.00000000000E+00  0.26064501713E+04  0.26064501713E+04  0.00000000000E+00 0. -1.
          1   -1    0    0  501    0 -0.00000000000E+00 -0.00000000000E+00 -0.32789855199E+03  0.32789855199E+03  0.00000000000E+00 0. -1.
         25    2    1    2    0    0 -0.70234482140E+01 -0.30254116723E+02 -0.26469103579E+02  0.13148936049E+03  0.12499679226E+03 0.  0.
          2    1    1    2  501    0 -0.19779384627E+02 -0.14862124570E+02 -0.24803425363E+03  0.24926511544E+03  0.00000000000E+00 0. -1.
          1    1    1    2  502    0  0.26802832841E+02  0.45116241293E+02  0.25530549765E+04  0.25535942473E+04  0.00000000000E+00 0. -1.
         22    1    3    3    0    0 -0.59527567418E+02 -0.43270463117E+02 -0.67012254854E+01  0.73897027573E+02  0.00000000000E+00 0.  1.
         22    1    3    3    0    0  0.52504119204E+02  0.13016346394E+02 -0.19767878093E+02  0.57592332920E+02  0.00000000000E+00 0.  1.
</event>
<event>
 7    1  0.6078244E-006  0.2854436E+02  0.7818608E-02  0.1654239E+00
          2   -1    0    0  502    0  0.00000000000E+00  0.00000000000E+00  0.16590274850E+03  0.16590274850E+03  0.00000000000E+00 0. -1.
          1   -1    0    0  501    0 -0.00000000000E+00 -0.00000000000E+00 -0.92336940953E+03  0.92336940953E+03  0.00000000000E+00 0. -1.
         25    2    1    2    0    0 -0.11033173837E+02  0.46586152640E+02 -0.13528204934E+03  0.19029854821E+03  0.12498121472E+03 0.  0.
          2    1    1    2  501    0 -0.24502392581E+01 -0.28275025375E+02 -0.75937812819E+03  0.75990829862E+03  0.00000000000E+00 0. -1.
          1    1    1    2  502    0  0.13483413095E+02 -0.18311127265E+02  0.13719351650E+03  0.13906531120E+03  0.00000000000E+00 0. -1.
         22    1    3    3    0    0  0.75262169204E+01 -0.42115334112E+02 -0.36406750650E+02  0.56176479076E+02  0.00000000000E+00 0. -1.
         22    1    3    3    0    0 -0.18559390757E+02  0.88701486752E+02 -0.98875298687E+02  0.13412206913E+03  0.00000000000E+00 0. -1.
</event>
<event>
 7    1  0.6078244E-006  0.1636669E+03  0.7818608E-02  0.1211393E+00
          2   -1    0    0  502    0  0.00000000000E+00  0.00000000000E+00  0.71764600219E+03  0.71764600219E+03  0.00000000000E+00 0. -1.
          1   -1    0    0  501    0 -0.00000000000E+00 -0.00000000000E+00 -0.31777978048E+04  0.31777978048E+04  0.00000000000E+00 0. -1.
         25    2    1    2    0    0 -0.20850086269E+03  0.19105110074E+03 -0.43356355765E+03  0.53251812604E+03  0.12500025283E+03 0.  0.
          2    1    1    2  501    0  0.83051446011E+02 -0.89703665293E+02 -0.26836138004E+04  0.26863967168E+04  0.00000000000E+00 0. -1.
          1    1    1    2  502    0  0.12544941668E+03 -0.10134743545E+03  0.65702555545E+03  0.67652896415E+03  0.00000000000E+00 0. -1.
         22    1    3    3    0    0 -0.56147788602E+02  0.13517386231E+03 -0.18991735995E+03  0.23977729423E+03  0.00000000000E+00 0.  1.
         22    1    3    3    0    0 -0.15235307409E+03  0.55877238430E+02 -0.24364619770E+03  0.29274083181E+03  0.00000000000E+00 0.  1.
</event>
<event>
 7    1  0.6078244E-006  0.7796810E+02  0.7818608E-02  0.1468912E+00
          2   -1    0    0  502    0  0.00000000000E+00  0.00000000000E+00  0.29083231953E+04  0.29083231953E+04  0.00000000000E+00 0. -1.
          1   -1    0    0  501    0 -0.00000000000E+00 -0.00000000000E+00 -0.41470314361E+03  0.41470314361E+03  0.00000000000E+00 0. -1.
         25    2    1    2    0    0  0.19317929323E+01  0.10294229144E+03  0.29542156944E+03  0.33689862290E+03  0.12500372485E+03 0.  0.
          2    1    1    2  501    0 -0.77174226837E+01 -0.25873312306E+02 -0.39292516665E+03  0.39385171510E+03  0.00000000000E+00 0. -1.
          1    1    1    2  502    0  0.57856297514E+01 -0.77068979136E+02  0.25911236489E+04  0.25922760009E+04  0.00000000000E+00 0. -1.
         22    1    3    3    0    0 -0.32078653579E+02  0.22652617719E+02  0.13068160306E+02  0.41387895800E+02  0.00000000000E+00 0.  1.
         22    1    3    3    0    0  0.34010446511E+02  0.80289673723E+02  0.28235340914E+03  0.29551072710E+03  0.00000000000E+00 0.  1.
</event>
<event>
 7    1  0.6078244E-006  0.1054350E+03  0.7818608E-02  0.1389372E+00
          2   -1    0    0  502    0  0.00000000000E+00  0.00000000000E+00  0.10623657549E+04  0.10623657549E+04  0.00000000000E+00 0. -1.
          1   -1    0    0  501    0 -0.00000000000E+00 -0.00000000000E+00 -0.22900214793E+03  0.22900214793E+03  0.00000000000E+00 0. -1.
         25    2    1    2    0    0  0.59811313516E+02  0.53115056996E+02  0.12257610157E+03  0.19248134214E+03  0.12500225555E+03 0.  0.
          2    1    1    2  501    0 -0.60407325612E+02 -0.89642904618E+02 -0.17859136548E+03  0.20875768527E+03  0.00000000000E+00 0. -1.
          1    1    1    2  502    0  0.59601209675E+00  0.36527847622E+02  0.88937887092E+03  0.89012887546E+03  0.00000000000E+00 0. -1.
         22    1    3    3    0    0  0.78756314177E+02  0.77508771252E+02  0.11729496026E+03  0.16114674786E+03  0.00000000000E+00 0. -1.
         22    1    3    3    0    0 -0.18945000661E+02 -0.24393714255E+02  0.52811413103E+01  0.31334594281E+02  0.00000000000E+00 0. -1.
</event>
<event>
 7    1  0.6078244E-006  0.2686167E+03  0.7818608E-02  0.1238216E+00
          2   -1    0    0  502    0  0.00000000000E+00  0.00000000000E+00  0.15468562574E+04  0.15468562574E+04  0.00000000000E+00 0. -1.
          1   -1    0    0  501    0 -0.00000000000E+00 -0.00000000000E+00 -0.35554645097E+04  0.35554645097E+04  0.00000000000E+00 0. -1.
         25    2    1    2    0    0 -0.31658728352E+03 -0.48561485613E+02 -0.35065352424E+03  0.49108913033E+03  0.12499965560E+03 0.  0.
          2    1    1    2  501    0  0.50477319087E+02  0.24999919793E+02 -0.31222539337E+04  0.31227620118E+04  0.00000000000E+00 0. -1.
          1    1    1    2  502    0  0.26610996443E+03  0.23561565820E+02  0.14642992057E+04  0.14884696250E+04  0.00000000000E+00 0. -1.
         22    1    3    3    0    0 -0.24698382927E+03  0.17595380448E+02 -0.24545393998E+03  0.34865204142E+03  0.00000000000E+00 0.  1.
         22    1    3    3    0    0 -0.69603454252E+02 -0.66156866061E+02 -0.10519958425E+03  0.14243708891E+03  0.00000000000E+00 0.  1.
</event>
<event>
 7    1  0.6078244E-006  0.1279138E+03  0.7818608E-02  0.1273458E+00
          2   -1    0    0  502    0  0.00000000000E+00  0.00000000000E+00  0.12257560199E+04  0.12257560199E+04  0.00000000000E+00 0. -1.
          1   -1    0    0  501    0 -0.00000000000E+00 -0.00000000000E+00 -0.55451399352E+02  0.55451399352E+02  0.00000000000E+00 0. -1.
         25    2    1    2    0    0  0.22111374207E+02 -0.94517068938E+02  0.34355771545E+03  0.37825720729E+03  0.12499688729E+03 0.  0.
          2    1    1    2  501    0  0.49668765857E+02  0.13709963049E+03  0.11336364104E+03  0.18470140793E+03  0.00000000000E+00 0. -1.
          1    1    1    2  502    0 -0.71780140064E+02 -0.42582561547E+02  0.71338326410E+03  0.71824880408E+03  0.00000000000E+00 0. -1.
         22    1    3    3    0    0  0.60131487948E+02 -0.79277240477E+02  0.30913179819E+03  0.32475089739E+03  0.00000000000E+00 0.  1.
         22    1    3    3    0    0 -0.38020113741E+02 -0.15239828461E+02  0.34425917257E+02  0.53506309903E+02  0.00000000000E+00 0.  1.
</event>
<event>
 7    1  0.6078244E-006  0.6654124E+02  0.7818608E-02  0.1435659E+00
          2   -1    0    0  502    0  0.00000000000E+00  0.00000000000E+00  0.36325682168E+03  0.36325682168E+03  0.00000000000E+00 0. -1.
          1   -1    0    0  501    0 -0.00000000000E+00 -0.00000000000E+00 -0.46034287843E+03  0.46034287843E+03  0.00000000000E+00 0. -1.
         25    2    1    2    0    0 -0.42477872216E+02 -0.73584254782E+02 -0.79994505992E+01  0.15139645116E+03  0.12505151752E+03 0.  0.
          2    1    1    2  501    0  0.55856141434E+02  0.35476519333E+02 -0.37634585214E+03  0.38211868887E+03  0.00000000000E+00 0. -1.
          1    1    1    2  502    0 -0.13378269217E+02  0.38107735449E+02  0.28725924599E+03  0.29008456008E+03  0.00000000000E+00 0. -1.
         22    1    3    3    0    0 -0.29051148422E+02  0.13067834224E+02 -0.45899290469E+02  0.55870228042E+02  0.00000000000E+00 0.  1.
         22    1    3    3    0    0 -0.13426723794E+02 -0.86652089007E+02  0.37899839870E+02  0.95526223118E+02  0.00000000000E+00 0.  1.
</event>
<event>
 7    1  0.6078244E-006  0.2137711E+03  0.7818608E-02  0.1367074E+00
          2   -1    0    0  502    0  0.00000000000E+00  0.00000000000E+00  0.48386213784E+03  0.48386213784E+03  0.00000000000E+00 0. -1.
          1   -1    0    0  501    0 -0.00000000000E+00 -0.00000000000E+00 -0.38525385014E+03  0.38525385014E+03  0.00000000000E+00 0. -1.
         25    2    1    2    0    0  0.60596864613E+02 -0.21849248980E+03 -0.44752283873E+02  0.26275015854E+03  0.12499572313E+03 0.  0.
          2    1    1    2  501    0 -0.65980317309E+02  0.19755071655E+03 -0.18422819603E+03  0.27806423016E+03  0.00000000000E+00 0. -1.
          1    1    1    2  502    0  0.53834526959E+01  0.20941773243E+02  0.32758876760E+03  0.32830159928E+03  0.00000000000E+00 0. -1.
         22    1    3    3    0    0  0.71064162040E+02 -0.20828787750E+03 -0.47150646906E+01  0.22012766040E+03  0.00000000000E+00 0.  1.
         22    1    3    3    0    0 -0.10467297427E+02 -0.10204612299E+02 -0.40037219183E+02  0.42622498138E+02  0.00000000000E+00 0.  1.
</event>
<event>
 7    1  0.6078244E-006  0.4789978E+03  0.7818608E-02  0.1221651E+00
          2   -1    0    0  502    0  0.00000000000E+00  0.00000000000E+00  0.65018213179E+03  0.65018213179E+03  0.00000000000E+00 0. -1.
          1   -1    0    0  501    0 -0.00000000000E+00 -0.00000000000E+00 -0.10767067006E+04  0.10767067006E+04  0.00000000000E+00 0. -1.
         25    2    1    2    0    0 -0.30914146983E+03 -0.33210592355E+03 -0.14556991446E+03  0.49262372314E+03  0.12499895910E+03 0.  0.
          2    1    1    2  501    0  0.32911555702E+03  0.36382214618E+03 -0.67721067637E+03  0.83624033873E+03  0.00000000000E+00 0. -1.
          1    1    1    2  502    0 -0.19974087188E+02 -0.31716222632E+02  0.39625602204E+03  0.39802477051E+03  0.00000000000E+00 0. -1.
         22    1    3    3    0    0 -0.15804892249E+03 -0.24425478669E+03 -0.56140724235E+02  0.29629654679E+03  0.00000000000E+00 0. -1.
         22    1    3    3    0    0 -0.15109254734E+03 -0.87851136860E+02 -0.89429190224E+02  0.19632717635E+03  0.00000000000E+00 0. -1.
</event>
<event>
 7    1  0.6078244E-006  0.5284041E+02  0.7818608E-02  0.1535801E+00
          2   -1    0    0  502    0  0.00000000000E+00  0.00000000000E+00  0.58720687698E+02  0.58720687698E+02  0.00000000000E+00 0. -1.
          1   -1    0    0  501    0 -0.00000000000E+00 -0.00000000000E+00 -0.59899963752E+03  0.59899963752E+03  0.00000000000E+00 0. -1.
         25    2    1    2    0    0 -0.71309650488E+02 -0.18555739998E+02 -0.39675370352E+03  0.42245672806E+03  0.12500721615E+03 0.  0.
          2    1    1    2  501    0  0.24722893244E+02 -0.48338015904E+01 -0.17337369489E+03  0.17519424981E+03  0.00000000000E+00 0. -1.
          1    1    1    2  502    0  0.46586757244E+02  0.23389541588E+02  0.29848448592E+02  0.60069347337E+02  0.00000000000E+00 0. -1.
         22    1    3    3    0    0  0.24215334744E+01 -0.12313232528E+02 -0.30187341105E+03  0.30213413548E+03  0.00000000000E+00 0. -1.
         22    1    3    3    0    0 -0.73731183962E+02 -0.62425074699E+01 -0.94880292470E+02  0.12032259259E+03  0.00000000000E+00 0. -1.
</event>
<event>
 7    1  0.6078244E-006  0.2083566E+03  0.7818608E-02  0.1272980E+00
          2   -1    0    0  502    0  0.00000000000E+00  0.00000000000E+00  0.17204032331E+04  0.17204032331E+04  0.00000000000E+00 0. -1.
          1   -1    0    0  501    0 -0.00000000000E+00 -0.00000000000E+00 -0.61557655246E+03  0.61557655246E+03  0.00000000000E+00 0. -1.
         25    2    1    2    0    0  0.20116647097E+03  0.67778658081E+02 -0.17289225107E+03  0.30096331357E+03  0.12500116041E+03 0.  0.
          2    1    1    2  501    0  0.65795639715E+01 -0.51051898743E+02 -0.37030524520E+03  0.37386570002E+03  0.00000000000E+00 0. -1.
          1    1    1    2  502    0 -0.20774603494E+03 -0.16726759338E+02  0.16480241769E+04  0.16611507719E+04  0.00000000000E+00 0. -1.
         22    1    3    3    0    0  0.49986999360E+02 -0.23644252120E+02 -0.90421126313E+02  0.10598929591E+03  0.00000000000E+00 0. -1.
         22    1    3    3    0    0  0.15117947161E+03  0.91422910202E+02 -0.82471124756E+02  0.19497401766E+03  0.00000000000E+00 0. -1.
</event>
<event>
 7    1  0.6078244E-006  0.1241755E+03  0.7818608E-02  0.1312453E+00
          2   -1    0    0  502    0  0.00000000000E+00  0.00000000000E+00  0.81570568640E+03  0.81570568640E+03  0.00000000000E+00 0. -1.
          1   -1    0    0  501    0 -0.00000000000E+00 -0.00000000000E+00 -0.84263505819E+03  0.84263505819E+03  0.00000000000E+00 0. -1.
         25    2    1    2    0    0 -0.17799136120E+03 -0.13283818582E+02  0.16947130204E+02  0.21856270297E+03  0.12500026164E+03 0.  0.
          2    1    1    2  501    0  0.11935772370E+03  0.24875108865E+02 -0.73552013104E+03  0.74555677209E+03  0.00000000000E+00 0. -1.
          1    1    1    2  502    0  0.58633637492E+02 -0.11591290283E+02  0.69164362905E+03  0.69422126953E+03  0.00000000000E+00 0. -1.
         22    1    3    3    0    0 -0.10301685265E+03 -0.68103609329E+02  0.22467854877E+02  0.12552042876E+03  0.00000000000E+00 0. -1.
         22    1    3    3    0    0 -0.74974508543E+02  0.54819790747E+02 -0.55207246728E+01  0.93042274207E+02  0.00000000000E+00 0. -1.
</event>
<event>
 7    1  0.6078244E-006  0.1852525E+03  0.7818608E-02  0.1165192E+00
          2   -1    0    0  502    0  0.00000000000E+00  0.00000000000E+00  0.31927213246E+04  0.31927213246E+04  0.00000000000E+00 0. -1.
          1   -1    0    0  501    0 -0.00000000000E+00 -0.00000000000E+00 -0.21180605653E+03  0.21180605653E+03  0.00000000000E+00 0. -1.
         25    2    1    2    0    0 -0.13199865091E+03  0.15623985035E+02  0.26259351164E+03  0.31976346142E+03  0.12500226460E+03 0.  0.
          2    1    1    2  501    0  0.32310415856E+02 -0.18241306454E+03 -0.13222613695E+03  0.22760105532E+03  0.00000000000E+00 0. -1.
          1    1    1    2  502    0  0.99688235054E+02  0.16678907951E+03  0.28505478934E+04  0.28571628644E+04  0.00000000000E+00 0. -1.
         22    1    3    3    0    0 -0.11023955618E+03  0.10803704666E+02  0.82042421678E+02  0.13784207897E+03  0.00000000000E+00 0.  1.
         22    1    3    3    0    0 -0.21759094734E+02  0.48202803691E+01  0.18055108996E+03  0.18192138245E+03  0.00000000000E+00 0.  1.
</event>
<event>
 7    1  0.6078244E-006  0.9010747E+02  0.7818608E-02  0.1391444E+00
          2   -1    0    0  502    0  0.00000000000E+00  0.00000000000E+00  0.41275584344E+02  0.41275584344E+02  0.00000000000E+00 0. -1.
          1   -1    0    0  501    0 -0.00000000000E+00 -0.00000000000E+00 -0.12192601453E+04  0.12192601453E+04  0.00000000000E+00 0. -1.
         25    2    1    2    0    0 -0.57238705066E+02  0.12140162174E+02 -0.41206977729E+03  0.43456828062E+03  0.12499774506E+03 0.  0.
          2    1    1    2  501    0 -0.29228975820E+02  0.30218748798E+02 -0.71651768742E+03  0.71775002765E+03  0.00000000000E+00 0. -1.
          1    1    1    2  502    0  0.86467680887E+02 -0.42358910972E+02 -0.49397096293E+02  0.10821742142E+03  0.00000000000E+00 0. -1.
         22    1    3    3    0    0 -0.24962477785E+02  0.16614337560E+02 -0.39791259233E+03  0.39904084082E+03  0.00000000000E+00 0.  1.
         22    1    3    3    0    0 -0.32276227281E+02 -0.44741753855E+01 -0.14157184966E+02  0.35527439804E+02  0.00000000000E+00 0.  1.
</event>
<event>
 7    1  0.6078244E-006  0.1329680E+03  0.7818608E-02  0.1253176E+00
          2   -1    0    0  502    0  0.00000000000E+00  0.00000000000E+00  0.81913924897E+03  0.81913924897E+03  0.00000000000E+00 0. -1.
          1   -1    0    0  501    0 -0.00000000000E+00 -0.00000000000E+00 -0.24514954476E+03  0.24514954476E+03  0.00000000000E+00 0. -1.
         25    2    1    2    0    0 -0.78789122490E+02 -0.20052896783E+03  0.28687243823E+03  0.37992209038E+03  0.12500162469E+03 0.  0.
          2    1    1    2  501    0  0.21064637284E+02  0.95600428918E+02 -0.17850726869E+03  0.20358783345E+03  0.00000000000E+00 0. -1.
          1    1    1    2  502    0  0.57724485206E+02  0.10492853892E+03  0.46562453466E+03  0.48077886991E+03  0.00000000000E+00 0. -1.
         22    1    3    3    0    0 -0.98439788237E+01 -0.21126091831E+02  0.12931941111E+03  0.13140291383E+03  0.00000000000E+00 0.  1.
         22    1    3    3    0    0 -0.68945143667E+02 -0.17940287600E+03  0.15755302713E+03  0.24851917654E+03  0.00000000000E+00 0.  1.
</event>
<event>
 7    1  0.6078244E-006  0.7034085E+02  0.7818608E-02  0.1411932E+00
          2   -1    0    0  502    0  0.00000000000E+00  0.00000000000E+00  0.16995215754E+04  0.16995215754E+04  0.00000000000E+00 0. -1.
          1   -1    0    0  501    0 -0.00000000000E+00 -0.00000000000E+00 -0.28021803919E+02  0.28021803919E+02  0.00000000000E+00 0. -1.
         25    2    1    2    0    0  0.12337242421E+02  0.97359560343E+02  0.75711445176E+03  0.77361476388E+03  0.12500567306E+03 0.  0.
          2    1    1    2  501    0  0.22506389412E+02 -0.39899224601E+02  0.97937554933E+01  0.46844458955E+02  0.00000000000E+00 0. -1.
          1    1    1    2  502    0 -0.34843631833E+02 -0.57460335743E+02  0.90459156426E+03  0.90708415651E+03  0.00000000000E+00 0. -1.
         22    1    3    3    0    0 -0.41918403369E+02  0.49639100339E+01  0.35383486187E+03  0.35634379807E+03  0.00000000000E+00 0. -1.
         22    1    3    3    0    0  0.54255645790E+02  0.92395650310E+02  0.40327958988E+03  0.41727096582E+03  0.00000000000E+00 0. -1.
</event>
<event>
 7    1  0.6078244E-006  0.8482761E+02  0.7818608E-02  0.1444759E+00
          2   -1    0    0  502    0  0.00000000000E+00  0.00000000000E+00  0.15973406089E+04  0.15973406089E+04  0.00000000000E+00 0. -1.
          1   -1    0    0  501    0 -0.00000000000E+00 -0.00000000000E+00 -0.43208953868E+03  0.43208953868E+03  0.00000000000E+00 0. -1.
         25    2    1    2    0    0 -0.78627718217E+02 -0.42779617607E+02  0.12351781303E+03  0.19721325808E+03  0.12499602103E+03 0.  0.
          2    1    1    2  501    0 -0.51049050279E+01  0.29155668408E+02 -0.39343333875E+03  0.39454518765E+03  0.00000000000E+00 0. -1.
          1    1    1    2  502    0  0.83732623245E+02  0.13623949199E+02  0.14351665959E+04  0.14376717018E+04  0.00000000000E+00 0. -1.
         22    1    3    3    0    0 -0.26536511487E+02  0.29737766310E+02 -0.55817679171E+01  0.40245214872E+02  0.00000000000E+00 0. -1.
         22    1    3    3    0    0 -0.52091206730E+02 -0.72517383917E+02  0.12909958095E+03  0.15696804321E+03  0.00000000000E+00 0. -1.
</event>
<event>
 7    1  0.6078244E-006  0.6520016E+02  0.7818608E-02  0.1532930E+00
          2   -1    0    0  502    0  0.00000000000E+00  0.00000000000E+00  0.33029269571E+03  0.33029269571E+03  0.00000000000E+00 0. -1.
          1   -1    0    0  501    0 -0.00000000000E+00 -0.00000000000E+00 -0.33552168232E+03  0.33552168232E+03  0.00000000000E+00 0. -1.
         25    2    1    2    0    0  0.31795166388E+00  0.57543681360E+02  0.27510227299E+02  0.14033302715E+03  0.12500067818E+03 0.  0.
          2    1    1    2  501    0 -0.20552072602E+02 -0.62378530761E+02 -0.27479432960E+03  0.28253387826E+03  0.00000000000E+00 0. -1.
          1    1    1    2  502    0  0.20234120938E+02  0.48348494010E+01  0.24205511569E+03  0.24294747261E+03  0.00000000000E+00 0. -1.
         22    1    3    3    0    0 -0.59379341147E+02  0.19928460206E+02 -0.46155474508E+01  0.62804083940E+02  0.00000000000E+00 0.  1.
         22    1    3    3    0    0  0.59697292811E+02  0.37615221154E+02  0.32125774750E+02  0.77528943206E+02  0.00000000000E+00 0.  1.
</event>
<event>
 7    1  0.6078244E-006  0.8264146E+02  0.7818608E-02  0.1371043E+00
          2   -1    0    0  502    0  0.00000000000E+00  0.00000000000E+00  0.91156431567E+03  0.91156431567E+03  0.00000000000E+00 0. -1.
          1   -1    0    0  501    0 -0.00000000000E+00 -0.00000000000E+00 -0.10631536847E+04  0.10631536847E+04  0.00000000000E+00 0. -1.
         25    2    1    2    0    0  0.79412862211E+02  0.10132791650E+03  0.42291351713E+03  0.45940655522E+03  0.12499916263E+03 0.  0.
          2    1    1    2  501    0 -0.66533595158E+02 -0.48761309155E+02 -0.10417146206E+04  0.10449754711E+04  0.00000000000E+00 0. -1.
          1    1    1    2  502    0 -0.12879267053E+02 -0.52566607348E+02  0.46721173439E+03  0.47033597405E+03  0.00000000000E+00 0. -1.
         22    1    3    3    0    0  0.96341972618E+02  0.24199831605E+02  0.26100001879E+03  0.27926406383E+03  0.00000000000E+00 0. -1.
         22    1    3    3    0    0 -0.16929110407E+02  0.77128084898E+02  0.16191349834E+03  0.18014249139E+03  0.00000000000E+00 0. -1.
</event>
<event>
 7    1  0.6078244E-006  0.8337176E+02  0.7818608E-02  0.1322525E+00
          2   -1    0    0  502    0  0.00000000000E+00  0.00000000000E+00  0.10301136621E+04  0.10301136621E+04  0.00000000000E+00 0. -1.
          1   -1    0    0  501    0 -0.00000000000E+00 -0.00000000000E+00 -0.13054061854E+03  0.13054061854E+03  0.00000000000E+00 0. -1.
         25    2    1    2    0    0 -0.90608718528E+02 -0.33513685582E+02  0.19230246687E+02  0.15914450606E+03  0.12499625765E+03 0.  0.
          2    1    1    2  501    0  0.72050763493E+02 -0.47766404133E+02 -0.26829957918E+02  0.90514023917E+02  0.00000000000E+00 0. -1.
          1    1    1    2  502    0  0.18557955035E+02  0.81280089715E+02  0.90717275483E+03  0.91099575069E+03  0.00000000000E+00 0. -1.
         22    1    3    3    0    0 -0.61006115458E+02  0.39312531961E+02 -0.13797459587E+02  0.73875511392E+02  0.00000000000E+00 0.  1.
         22    1    3    3    0    0 -0.29602603070E+02 -0.72826217543E+02  0.33027706274E+02  0.85268994669E+02  0.00000000000E+00 0.  1.
</event>
<event>
 7    1  0.6078244E-006  0.1995263E+03  0.7818608E-02  0.1240225E+00
          2   -1    0    0  502    0  0.00000000000E+00  0.00000000000E+00  0.62473614404E+03  0.62473614404E+03  0.00000000000E+00 0. -1.
          1   -1    0    0  501    0 -0.00000000000E+00 -0.00000000000E+00 -0.10595661986E+04  0.10595661986E+04  0.00000000000E+00 0. -1.
         25    2    1    2    0    0 -0.61881286041E+02  0.20099389267E+03  0.17394397681E+03  0.30018287897E+03  0.12500166120E+03 0.  0.
          2    1    1    2  501    0  0.74263688069E+02 -0.23537313974E+01 -0.96938681692E+03  0.97223013543E+03  0.00000000000E+00 0. -1.
          1    1    1    2  502    0 -0.12382402028E+02 -0.19864016128E+03  0.36061278560E+03  0.41188932821E+03  0.00000000000E+00 0. -1.
         22    1    3    3    0    0 -0.83442917959E+02  0.64180595344E+02  0.62622056838E+02  0.12248833160E+03  0.00000000000E+00 0. -1.
         22    1    3    3    0    0  0.21561631918E+02  0.13681329733E+03  0.11132191997E+03  0.17769454736E+03  0.00000000000E+00 0. -1.
</event>
<event>
 7    1  0.6078244E-006  0.1134048E+03  0.7818608E-02  0.1341475E+00
          2   -1    0    0  502    0  0.00000000000E+00  0.00000000000E+00  0.31363523708E+03  0.31363523708E+03  0.00000000000E+00 0. -1.
          1   -1    0    0  501    0 -0.00000000000E+00 -0.00000000000E+00 -0.18927977845E+04  0.18927977845E+04  0.00000000000E+00 0. -1.
         25    2    1    2    0    0 -0.49694768756E+02 -0.13776527499E+03 -0.26687113064E+03  0.32908096301E+03  0.12500095523E+03 0.  0.
          2    1    1    2  501    0 -0.17355421938E+02  0.47570109704E+02 -0.15832243310E+04  0.15840339038E+04  0.00000000000E+00 0. -1.
          1    1    1    2  502    0  0.67050190694E+02  0.90195165291E+02  0.27093291423E+03  0.29331815479E+03  0.00000000000E+00 0. -1.
         22    1    3    3    0    0  0.12743347309E+02 -0.12880574984E+03 -0.18231784243E+03  0.22359139018E+03  0.00000000000E+00 0.  1.
         22    1    3    3    0    0 -0.62438116065E+02 -0.89595251514E+01 -0.84553288213E+02  0.10548957283E+03  0.00000000000E+00 0.  1.
</event>
<event>
 7    1  0.6078244E-006  0.2969586E+03  0.7818608E-02  0.1187997E+00
          2   -1    0    0  502    0  0.00000000000E+00  0.00000000000E+00  0.19335952260E+04  0.19335952260E+04  0.00000000000E+00 0. -1.
          1   -1    0    0  501    0 -0.00000000000E+00 -0.00000000000E+00 -0.18006085618E+04  0.18006085618E+04  0.00000000000E+00 0. -1.
         25    2    1    2    0    0 -0.21577677071E+03  0.54689433153E+02  0.53801353195E+02  0.26090385743E+03  0.12500275334E+03 0.  0.
          2    1    1    2  501    0 -0.73865085430E+02  0.45736685282E+02 -0.16827012586E+04  0.16849425572E+04  0.00000000000E+00 0. -1.
          1    1    1    2  502    0  0.28964185614E+03 -0.10042611843E+03  0.17618865696E+04  0.17883573732E+04  0.00000000000E+00 0. -1.
         22    1    3    3    0    0 -0.12241867121E+03  0.18470538565E+02 -0.33279197927E+02  0.12819905176E+03  0.00000000000E+00 0. -1.
         22    1    3    3    0    0 -0.93358099492E+02  0.36218894588E+02  0.87080551122E+02  0.13270480568E+03  0.00000000000E+00 0. -1.
</event>
<event>
 7    1  0.6078244E-006  0.8605242E+02  0.7818608E-02  0.1360042E+00
          2   -1    0    0  502    0  0.00000000000E+00  0.00000000000E+00  0.81378064041E+03  0.81378064041E+03  0.00000000000E+00 0. -1.
          1   -1    0    0  501    0 -0.00000000000E+00 -0.00000000000E+00 -0.35092170107E+03  0.35092170107E+03  0.00000000000E+00 0. -1.
         25    2    1    2    0    0 -0.40202175839E+02 -0.74232626850E+02 -0.13052670043E+02  0.15140036495E+03  0.12500000193E+03 0.  0.
          2    1    1    2  501    0  0.80964869784E+02  0.34438143100E+02 -0.26036263981E+03  0.27482721854E+03  0.00000000000E+00 0. -1.
          1    1    1    2  502    0 -0.40762693945E+02  0.39794483751E+02  0.73627424919E+03  0.73847475798E+03  0.00000000000E+00 0. -1.
         22    1    3    3    0    0 -0.18937680430E+02 -0.14505258035E+02 -0.65125599459E+02  0.69356917143E+02  0.00000000000E+00 0. -1.
         22    1    3    3    0    0 -0.21264495409E+02 -0.59727368816E+02  0.52072929416E+02  0.82043447810E+02  0.00000000000E+00 0. -1.
</event>
<event>
 7    1  0.6078244E-006  0.1131324E+03  0.7818608E-02  0.1257338E+00
          2   -1    0    0  502    0  0.00000000000E+00  0.00000000000E+00  0.10057646850E+04  0.10057646850E+04  0.00000000000E+00 0. -1.
          1   -1    0    0  501    0 -0.00000000000E+00 -0.00000000000E+00 -0.37917207355E+03  0.37917207355E+03  0.00000000000E+00 0. -1.
         25    2    1    2    0    0  0.82114661318E+02  0.67165834024E+02 -0.24067104311E+03  0.29119597828E+03  0.12497391693E+03 0.  0.
          2    1    1    2  501    0 -0.15623177175E+03  0.14671541952E+02 -0.53949750866E+02  0.16593431311E+03  0.00000000000E+00 0. -1.
          1    1    1    2  502    0  0.74117110431E+02 -0.81837375976E+02  0.92121340543E+03  0.92780646716E+03  0.00000000000E+00 0. -1.
         22    1    3    3    0    0  0.59971027503E+02 -0.27918332307E+02 -0.10333815812E+03  0.12269772754E+03  0.00000000000E+00 0.  1.
         22    1    3    3    0    0  0.22143633815E+02  0.95084166331E+02 -0.13733288499E+03  0.16849825075E+03  0.00000000000E+00 0.  1.
</event>
<event>
 7    1  0.6078244E-006  0.1393208E+03  0.7818608E-02  0.1253246E+00
          2   -1    0    0  502    0  0.00000000000E+00  0.00000000000E+00  0.32415469506E+04  0.32415469506E+04  0.00000000000E+00 0. -1.
          1   -1    0    0  501    0 -0.00000000000E+00 -0.00000000000E+00 -0.42095235790E+03  0.42095235790E+03  0.00000000000E+00 0. -1.
         25    2    1    2    0    0 -0.12148659716E+03 -0.17289678128E+03  0.88938834688E+03  0.92265598256E+03  0.12502055958E+03 0.  0.
          2    1    1    2  501    0  0.17237867817E+02  0.91760254986E+02 -0.39703114614E+03  0.40786127481E+03  0.00000000000E+00 0. -1.
          1    1    1    2  502    0  0.10424872934E+03  0.81136526297E+02  0.23282373920E+04  0.23319820512E+04  0.00000000000E+00 0. -1.
         22    1    3    3    0    0 -0.14245111532E+02 -0.99538556951E+02  0.55258594526E+03  0.56166010578E+03  0.00000000000E+00 0. -1.
         22    1    3    3    0    0 -0.10724148563E+03 -0.73358224332E+02  0.33680240162E+03  0.36099587678E+03  0.00000000000E+00 0. -1.
</event>
<event>
 7    1  0.6078244E-006  0.1081971E+03  0.7818608E-02  0.1343417E+00
          2   -1    0    0  502    0  0.00000000000E+00  0.00000000000E+00  0.14026040696E+04  0.14026040696E+04  0.00000000000E+00 0. -1.
          1   -1    0    0  501    0 -0.00000000000E+00 -0.00000000000E+00 -0.26085783360E+03  0.26085783360E+03  0.00000000000E+00 0. -1.
         25    2    1    2    0    0 -0.15541114479E+02 -0.87152946081E+02 -0.95078985700E+02  0.18028472202E+03  0.12500162087E+03 0.  0.
          2    1    1    2  501    0 -0.52148442881E+02  0.21325653629E+01 -0.11536763669E+03  0.12662424541E+03  0.00000000000E+00 0. -1.
          1    1    1    2  502    0  0.67689557360E+02  0.85020380718E+02  0.13521928584E+04  0.13565529358E+04  0.00000000000E+00 0. -1.
         22    1    3    3    0    0 -0.41373659527E+01  0.28347257691E+02  0.23586235173E+01  0.28744528532E+02  0.00000000000E+00 0. -1.
         22    1    3    3    0    0 -0.11403748526E+02 -0.11550020377E+03 -0.97437609217E+02  0.15154019349E+03  0.00000000000E+00 0. -1.
</event>
<event>
 7    1  0.6078244E-006  0.8110969E+02  0.7818608E-02  0.1387297E+00
          2   -1    0    0  502    0  0.00000000000E+00  0.00000000000E+00  0.25341190204E+04  0.25341190204E+04  0.00000000000E+00 0. -1.
          1   -1    0    0  501    0 -0.00000000000E+00 -0.00000000000E+00 -0.30043584482E+03  0.30043584482E+03  0.00000000000E+00 0. -1.
         25    2    1    2    0    0  0.72654500772E+02 -0.62470401776E+01  0.45813617705E+03  0.48044882025E+03  0.12499844066E+03 0.  0.
          2    1    1    2  501    0 -0.61543961087E+02  0.53241332714E+02 -0.28326769733E+03  0.29472510413E+03  0.00000000000E+00 0. -1.
          1    1    1    2  502    0 -0.11110539685E+02 -0.46994292537E+02  0.20588146958E+04  0.20593809408E+04  0.00000000000E+00 0. -1.
         22    1    3    3    0    0  0.36353790139E+01 -0.14016912529E+02 -0.24229787660E+01  0.14681983637E+02  0.00000000000E+00 0. -1.
         22    1    3    3    0    0  0.69019121758E+02  0.77698723512E+01  0.46055915582E+03  0.46576683662E+03  0.00000000000E+00 0. -1.
</event>
<event>
 7    1  0.6078244E-006  0.5632108E+02  0.7818608E-02  0.1448970E+00
          2   -1    0    0  502    0  0.00000000000E+00  0.00000000000E+00  0.10342053459E+04  0.10342053459E+04  0.00000000000E+00 0. -1.
          1   -1    0    0  501    0 -0.00000000000E+00 -0.00000000000E+00 -0.75559861866E+03  0.75559861866E+03  0.00000000000E+00 0. -1.
         25    2    1    2    0    0  0.37318187759E+02 -0.41708426277E+02  0.46431718784E+03  0.48409437655E+03  0.12499869807E+03 0.  0.
          2    1    1    2  501    0 -0.56285385314E+02  0.28806402368E+01 -0.74380872858E+03  0.74594086053E+03  0.00000000000E+00 0. -1.
          1    1    1    2  502    0  0.18967197556E+02  0.38827786041E+02  0.55809826796E+03  0.55976872747E+03  0.00000000000E+00 0. -1.
         22    1    3    3    0    0  0.69924185073E+02  0.13201745042E+02  0.20386915562E+03  0.21593126300E+03  0.00000000000E+00 0. -1.
         22    1    3    3    0    0 -0.32605997314E+02 -0.54910171319E+02  0.26044803223E+03  0.26816311354E+03  0.00000000000E+00 0. -1.
</event>
<event>
 7    1  0.6078244E-006  0.4219415E+02  0.7818608E-02  0.1539816E+00
          2   -1    0    0  502    0  0.00000000000E+00  0.00000000000E+00  0.12062659482E+04  0.12062659482E+04  0.00000000000E+00 0. -1.
          1   -1    0    0  501    0 -0.00000000000E+00 -0.00000000000E+00 -0.17655881670E+03  0.17655881670E+03  0.00000000000E+00 0. -1.
         25    2    1    2    0    0 -0.32683773309E+02  0.41817792781E+02  0.22477587525E+03  0.26261489020E+03  0.12500171850E+03 0.  0.
          2    1    1    2  501    0 -0.77124088630E+01 -0.29747557859E+02 -0.15567479580E+03  0.15867904870E+03  0.00000000000E+00 0. -1.
          1    1    1    2  502    0  0.40396182172E+02 -0.12070234921E+02  0.96060605209E+03  0.96153082603E+03  0.00000000000E+00 0. -1.
         22    1    3    3    0    0  0.35053222878E+02  0.35528984564E+02  0.16388224747E+03  0.17131382961E+03  0.00000000000E+00 0.  1.
         22    1    3    3    0    0 -0.67736996187E+02  0.62888082169E+01  0.60893627783E+02  0.91301060595E+02  0.00000000000E+00 0.  1.
</event>
<event>
 7    1  0.6078244E-006  0.4520528E+02  0.7818608E-02  0.1489924E+00
          2   -1    0    0  502    0  0.00000000000E+00  0.00000000000E+00  0.95335959122E+03  0.95335959122E+03  0.00000000000E+00 0. -1.
          1   -1    0    0  501    0 -0.00000000000E+00 -0.00000000000E+00 -0.17158247655E+02  0.17158247655E+02  0.00000000000E+00 0. -1.
         25    2    1    2    0    0 -0.37828649263E+01  0.89104322271E+01  0.34110755245E+03  0.36341818830E+03  0.12499884550E+03 0.  0.
          2    1    1    2  501    0 -0.30763263122E+02  0.25784100014E+02  0.78274869059E+02  0.87966773827E+02  0.00000000000E+00 0. -1.
          1    1    1    2  502    0  0.34546128048E+02 -0.34694532241E+02  0.51681892205E+03  0.51913287675E+03  0.00000000000E+00 0. -1.
         22    1    3    3    0    0  0.21671186549E+02 -0.26488528704E+02  0.30469958479E+03  0.30661558906E+03  0.00000000000E+00 0.  1.
         22    1    3    3    0    0 -0.25454051476E+02  0.35398960931E+02  0.36407967662E+02  0.56802599243E+02  0.00000000000E+00 0.  1.
</event>
<event>
 7    1  0.6078244E-006  0.1303679E+03  0.7818608E-02  0.1227103E+00
          2   -1    0    0  502    0  0.00000000000E+00  0.00000000000E+00  0.12677270644E+04  0.12677270644E+04  0.00000000000E+00 0. -1.
          1   -1    0    0  501    0 -0.00000000000E+00 -0.00000000000E+00 -0.32968415429E+03  0.32968415429E+03  0.00000000000E+00 0. -1.
         25    2    1    2    0    0 -0.43548742419E+02  0.57324204572E+02  0.34309840370E+02  0.14827029337E+03  0.12499742939E+03 0.  0.
          2    1    1    2  501    0 -0.88442904766E+02 -0.95779106512E+02 -0.25281576883E+03  0.28444963986E+03  0.00000000000E+00 0. -1.
          1    1    1    2  502    0  0.13199164719E+03  0.38454901940E+02  0.11565488386E+04  0.11646912855E+04  0.00000000000E+00 0. -1.
         22    1    3    3    0    0  0.16067849957E+01  0.87959805041E+02  0.10026844056E+02  0.88544037985E+02  0.00000000000E+00 0. -1.
         22    1    3    3    0    0 -0.45155527415E+02 -0.30635600470E+02  0.24282996314E+02  0.59726255385E+02  0.00000000000E+00 0. -1.
</event>
<event>
 7    1  0.6078244E-006  0.4928867E+02  0.7818608E-02  0.1546540E+00
          2   -1    0    0  502    0  0.00000000000E+00  0.00000000000E+00  0.31668426148E+04  0.31668426148E+04  0.00000000000E+00 0. -1.
          1   -1    0    0  501    0 -0.00000000000E+00 -0.00000000000E+00 -0.27735500837E+03  0.27735500837E+03  0.00000000000E+00 0. -1.
         25    2    1    2    0    0 -0.25147634931E+02  0.69040522040E+01  0.26145693049E+03  0.29097140441E+03  0.12499824880E+03 0.  0.
          2    1    1    2  501    0 -0.18019624356E+02  0.17596021680E+02 -0.26178026692E+03  0.26298903967E+03  0.00000000000E+00 0. -1.
          1    1    1    2  502    0  0.43167259288E+02 -0.24500073884E+02  0.28898109428E+04  0.28902371791E+04  0.00000000000E+00 0. -1.
         22    1    3    3    0    0 -0.34365295985E+02  0.43036726357E+02  0.24337531588E+03  0.24952891168E+03  0.00000000000E+00 0. -1.
         22    1    3    3    0    0  0.92176610540E+01 -0.36132674154E+02  0.18081614612E+02  0.41442492731E+02  0.00000000000E+00 0. -1.
</event>
<event>
 7    1  0.6078244E-006  0.1125934E+03  0.7818608E-02  0.1368160E+00
          2   -1    0    0  502    0  0.00000000000E+00  0.00000000000E+00  0.23839078980E+04  0.23839078980E+04  0.00000000000E+00 0. -1.
          1   -1    0    0  501    0 -0.00000000000E+00 -0.00000000000E+00 -0.56668930591E+02  0.56668930591E+02  0.00000000000E+00 0. -1.
         25    2    1    2    0    0 -0.54089756193E+02 -0.74529436215E+02  0.12694115098E+04  0.12788710222E+04  0.12500068588E+03 0.  0.
          2    1    1    2  501    0  0.32610492763E+02  0.10908141113E+03  0.11325776040E+02  0.11441359925E+03  0.00000000000E+00 0. -1.
          1    1    1    2  502    0  0.21479263430E+02 -0.34551974911E+02  0.10465016816E+04  0.10472922072E+04  0.00000000000E+00 0. -1.
         22    1    3    3    0    0 -0.86765982529E+01  0.59487723443E+01  0.60522731209E+01  0.12136773030E+02  0.00000000000E+00 0. -1.
         22    1    3    3    0    0 -0.45413157940E+02 -0.80478208559E+02  0.12633592367E+04  0.12667342491E+04  0.00000000000E+00 0. -1.
</event>
<event>
 7    1  0.6078244E-006  0.1126833E+03  0.7818608E-02  0.1362811E+00
          2   -1    0    0  502    0  0.00000000000E+00  0.00000000000E+00  0.87574430293E+03  0.87574430293E+03  0.00000000000E+00 0. -1.
          1   -1    0    0  501    0 -0.00000000000E+00 -0.00000000000E+00 -0.21388222978E+03  0.21388222978E+03  0.00000000000E+00 0. -1.
         25    2    1    2    0    0 -0.12067306663E+03 -0.67964461112E+02  0.23909395205E+03  0.30326902083E+03  0.12500009641E+03 0.  0.
          2    1    1    2  501    0  0.15126937047E+02  0.39722179982E+02 -0.17428313675E+03  0.17939143670E+03  0.00000000000E+00 0. -1.
          1    1    1    2  502    0  0.10554612958E+03  0.28242281129E+02  0.59705125786E+03  0.60696607518E+03  0.00000000000E+00 0. -1.
         22    1    3    3    0    0 -0.12239472092E+02  0.34749514423E+02  0.55135507059E+02  0.66311820729E+02  0.00000000000E+00 0. -1.
         22    1    3    3    0    0 -0.10843359454E+03 -0.10271397553E+03  0.18395844499E+03  0.23695720010E+03  0.00000000000E+00 0. -1.
</event>
<event>
 7    1  0.6078244E-006  0.4541374E+02  0.7818608E-02  0.1531283E+00
          2   -1    0    0  502    0  0.00000000000E+00  0.00000000000E+00  0.82153009183E+03  0.82153009183E+03  0.00000000000E+00 0. -1.
          1   -1    0    0  501    0 -0.00000000000E+00 -0.00000000000E+00 -0.42311020857E+03  0.42311020857E+03  0.00000000000E+00 0. -1.
         25    2    1    2    0    0 -0.66976399910E+02 -0.28316449796E+02 -0.54179037054E+02  0.15442933173E+03  0.12500156387E+03 0.  0.
          2    1    1    2  501    0  0.36971428352E+02  0.24951687793E+02 -0.31694843647E+03  0.32007153047E+03  0.00000000000E+00 0. -1.
          1    1    1    2  502    0  0.30004971558E+02  0.33647620031E+01  0.76954735678E+03  0.77013943820E+03  0.00000000000E+00 0. -1.
         22    1    3    3    0    0 -0.61999638087E+02 -0.61593044516E+02  0.37099091151E+01  0.87472405257E+02  0.00000000000E+00 0. -1.
         22    1    3    3    0    0 -0.49767618230E+01  0.33276594720E+02 -0.57888946169E+02  0.66956926475E+02  0.00000000000E+00 0. -1.
</event>
<event>
 7    1  0.6078244E-006  0.1479982E+03  0.7818608E-02  0.1365407E+00
          2   -1    0    0  502    0  0.00000000000E+00  0.00000000000E+00  0.20920702664E+04  0.20920702664E+04  0.00000000000E+00 0. -1.
          1   -1    0    0  501    0 -0.00000000000E+00 -0.00000000000E+00 -0.79791375163E+03  0.79791375163E+03  0.00000000000E+00 0. -1.
         25    2    1    2    0    0  0.12592254503E+03 -0.12777949544E+03  0.12702184041E+04  0.12888998953E+04  0.12499623664E+03 0.  0.
          2    1    1    2  501    0 -0.10535432695E+03  0.10369980872E+03 -0.78133096159E+03  0.79519259055E+03  0.00000000000E+00 0. -1.
          1    1    1    2  502    0 -0.20568218074E+02  0.24079686720E+02  0.80526907234E+03  0.80589153226E+03  0.00000000000E+00 0. -1.
         22    1    3    3    0    0  0.28262390132E+02 -0.72195825237E+00  0.56482436578E+03  0.56553147401E+03  0.00000000000E+00 0. -1.
         22    1    3    3    0    0  0.97660154896E+02 -0.12705753719E+03  0.70539403828E+03  0.72336842125E+03  0.00000000000E+00 0. -1.
</event>
<event>
 7    1  0.6078244E-006  0.9002528E+02  0.7818608E-02  0.1481475E+00
          2   -1    0    0  502    0  0.00000000000E+00  0.00000000000E+00  0.12464922736E+04  0.12464922736E+04  0.00000000000E+00 0. -1.
          1   -1    0    0  501    0 -0.00000000000E+00 -0.00000000000E+00 -0.84485005252E+02  0.84485005252E+02  0.00000000000E+00 0. -1.
         25    2    1    2    0    0  0.48241211112E+02 -0.50398994587E+02  0.57104656188E+03  0.58871596340E+03  0.12500014649E+03 0.  0.
          2    1    1    2  501    0 -0.65072573218E+02  0.63591268079E+02 -0.48049503822E+02  0.10289336217E+03  0.00000000000E+00 0. -1.
          1    1    1    2  502    0  0.16831362106E+02 -0.13192273491E+02  0.63901021034E+03  0.63936795333E+03  0.00000000000E+00 0. -1.
         22    1    3    3    0    0  0.52370423391E+02 -0.37658165172E+02  0.11031417642E+03  0.12778895167E+03  0.00000000000E+00 0.  1.
         22    1    3    3    0    0 -0.41292122792E+01 -0.12740829415E+02  0.46073238546E+03  0.46092701173E+03  0.00000000000E+00 0.  1.
</event>
<event>
 7    1  0.6078244E-006  0.1014601E+03  0.7818608E-02  0.1394882E+00
          2   -1    0    0  502    0  0.00000000000E+00  0.00000000000E+00  0.22073991521E+03  0.22073991521E+03  0.00000000000E+00 0. -1.
          1   -1    0    0  501    0 -0.00000000000E+00 -0.00000000000E+00 -0.58829131489E+03  0.58829131489E+03  0.00000000000E+00 0. -1.
         25    2    1    2    0    0 -0.65060736764E+02 -0.25976385459E+02 -0.10103740810E+03  0.17533661994E+03  0.12500680136E+03 0.  0.
          2    1    1    2  501    0 -0.27107102293E+02 -0.24180753414E+02 -0.43429036287E+03  0.43580686446E+03  0.00000000000E+00 0. -1.
          1    1    1    2  502    0  0.92167839057E+02  0.50157138873E+02  0.16777637129E+03  0.19788774571E+03  0.00000000000E+00 0. -1.
         22    1    3    3    0    0 -0.63962631834E+02 -0.55098807644E+00 -0.12497838075E+03  0.14039628740E+03  0.00000000000E+00 0.  1.
         22    1    3    3    0    0 -0.10981049295E+01 -0.25425397382E+02  0.23940972654E+02  0.34940332541E+02  0.00000000000E+00 0.  1.
</event>
<event>
 7    1  0.6078244E-006  0.1475956E+03  0.7818608E-02  0.1253380E+00
          2   -1    0    0  502    0  0.00000000000E+00  0.00000000000E+00  0.22658420971E+04  0.22658420971E+04  0.00000000000E+00 0. -1.
          1   -1    0    0  501    0 -0.00000000000E+00 -0.00000000000E+00 -0.20174336467E+03  0.20174336467E+03  0.00000000000E+00 0. -1.
         25    2    1    2    0    0  0.68255024056E+02 -0.49052964145E+02  0.30901882059E+03  0.34378790963E+03  0.12503021129E+03 0.  0.
          2    1    1    2  501    0 -0.15282195543E+03  0.24664017512E+02 -0.15066829582E+03  0.21601805292E+03  0.00000000000E+00 0. -1.
          1    1    1    2  502    0  0.84566931373E+02  0.24388946633E+02  0.19057482076E+04  0.19077794992E+04  0.00000000000E+00 0. -1.
         22    1    3    3    0    0  0.27721488931E+02 -0.76876614695E+02  0.26663084584E+03  0.27887363229E+03  0.00000000000E+00 0. -1.
         22    1    3    3    0    0  0.40533535125E+02  0.27823650550E+02  0.42387974748E+02  0.64914277342E+02  0.00000000000E+00 0. -1.
</event>
<event>
 7    1  0.6078244E-006  0.5342026E+02  0.7818608E-02  0.1544682E+00
          2   -1    0    0  502    0  0.00000000000E+00  0.00000000000E+00  0.20508959608E+04  0.20508959608E+04  0.00000000000E+00 0. -1.
          1   -1    0    0  501    0 -0.00000000000E+00 -0.00000000000E+00 -0.51694881340E+03  0.51694881340E+03  0.00000000000E+00 0. -1.
         25    2    1    2    0    0  0.21508610212E+02 -0.58705448277E+02  0.58004677324E+03  0.59664644480E+03  0.12499508378E+03 0.  0.
          2    1    1    2  501    0  0.14014610212E+01  0.53390633805E+02 -0.50715206896E+03  0.50995661082E+03  0.00000000000E+00 0. -1.
          1    1    1    2  502    0 -0.22910071233E+02  0.53148144719E+01  0.14610524431E+04  0.14612417186E+04  0.00000000000E+00 0. -1.
         22    1    3    3    0    0 -0.32414084304E+02  0.20767033895E+02  0.24871192206E+03  0.25167352410E+03  0.00000000000E+00 0. -1.
         22    1    3    3    0    0  0.53922694516E+02 -0.79472482172E+02  0.33133485118E+03  0.34497292070E+03  0.00000000000E+00 0. -1.
</event>
<event>
 7    1  0.6078244E-006  0.1476555E+03  0.7818608E-02  0.1328320E+00
          2   -1    0    0  502    0  0.00000000000E+00  0.00000000000E+00  0.95938718246E+03  0.95938718246E+03  0.00000000000E+00 0. -1.
          1   -1    0    0  501    0 -0.00000000000E+00 -0.00000000000E+00 -0.10144362063E+03  0.10144362063E+03  0.00000000000E+00 0. -1.
         25    2    1    2    0    0 -0.15941001858E+03 -0.54618856048E+02  0.13001113238E+03  0.24682434590E+03  0.12499835890E+03 0.  0.
          2    1    1    2  501    0  0.13533962663E+03  0.18235884150E+02  0.67859515031E+02  0.15249352703E+03  0.00000000000E+00 0. -1.
          1    1    1    2  502    0  0.24070391949E+02  0.36382971898E+02  0.66007291442E+03  0.66151293016E+03  0.00000000000E+00 0. -1.
         22    1    3    3    0    0 -0.14857085382E+03  0.25420388108E+01  0.11148943436E+03  0.18576774354E+03  0.00000000000E+00 0. -1.
         22    1    3    3    0    0 -0.10839164755E+02 -0.57160894859E+02  0.18521698015E+02  0.61056602354E+02  0.00000000000E+00 0. -1.
</event>
<event>
 7    1  0.6078244E-006  0.5917048E+02  0.7818608E-02  0.1437004E+00
          2   -1    0    0  502    0  0.00000000000E+00  0.00000000000E+00  0.42849378417E+03  0.42849378417E+03  0.00000000000E+00 0. -1.
          1   -1    0    0  501    0 -0.00000000000E+00 -0.00000000000E+00 -0.23244603920E+03  0.23244603920E+03  0.00000000000E+00 0. -1.
         25    2    1    2    0    0  0.33329734339E+00  0.97895528872E+02  0.22596809659E+03  0.27617118618E+03  0.12500119094E+03 0.  0.
          2    1    1    2  501    0 -0.17485922364E+01 -0.44928283132E+02 -0.20084672906E+03  0.20581792141E+03  0.00000000000E+00 0. -1.
          1    1    1    2  502    0  0.14152948930E+01 -0.52967245740E+02  0.17092637743E+03  0.17895071579E+03  0.00000000000E+00 0. -1.
         22    1    3    3    0    0 -0.12533635419E+02 -0.25927902212E+02  0.75952884570E+02  0.81229236144E+02  0.00000000000E+00 0.  1.
         22    1    3    3    0    0  0.12866932762E+02  0.12382343108E+03  0.15001521202E+03  0.19494195003E+03  0.00000000000E+00 0.  1.
</event>
<event>
 7    1  0.6078244E-006  0.4245936E+02  0.7818608E-02  0.1513471E+00
          2   -1    0    0  502    0  0.00000000000E+00  0.00000000000E+00  0.13754505936E+03  0.13754505936E+03  0.00000000000E+00 0. -1.
          1   -1    0    0  501    0 -0.00000000000E+00 -0.00000000000E+00 -0.28133986639E+03  0.28133986639E+03  0.00000000000E+00 0. -1.
         25    2    1    2    0    0 -0.86838548920E+01 -0.32006494611E+02 -0.21139223175E+03  0.24781323077E+03  0.12499958667E+03 0.  0.
          2    1    1    2  501    0 -0.23043984969E+02  0.49775969463E+02 -0.33061914181E+02  0.64045004088E+02  0.00000000000E+00 0. -1.
          1    1    1    2  502    0  0.31727839862E+02 -0.17769474852E+02  0.10065933889E+03  0.10702669090E+03  0.00000000000E+00 0. -1.
         22    1    3    3    0    0 -0.63649188044E+02 -0.15459929868E+02 -0.15047201054E+03  0.16410988552E+03  0.00000000000E+00 0.  1.
         22    1    3    3    0    0  0.54965333152E+02 -0.16546564743E+02 -0.60920221209E+02  0.83703345246E+02  0.00000000000E+00 0.  1.
</event>
<event>
 7    1  0.6078244E-006  0.1186475E+03  0.7818608E-02  0.1326480E+00
          2   -1    0    0  502    0  0.00000000000E+00  0.00000000000E+00  0.16694018230E+04  0.16694018230E+04  0.00000000000E+00 0. -1.
          1   -1    0    0  501    0 -0.00000000000E+00 -0.00000000000E+00 -0.18320981332E+03  0.18320981332E+03  0.00000000000E+00 0. -1.
         25    2    1    2    0    0 -0.64958774077E+02 -0.43020574563E+01 -0.90897134025E+02  0.16771099174E+03  0.12500615084E+03 0.  0.
          2    1    1    2  501    0 -0.54540728539E+02  0.83730781211E+01 -0.36969373791E+02  0.66419380494E+02  0.00000000000E+00 0. -1.
          1    1    1    2  502    0  0.11949950262E+03 -0.40710206647E+01  0.16140585175E+04  0.16184812641E+04  0.00000000000E+00 0. -1.
         22    1    3    3    0    0  0.10899881705E+02  0.26729338900E+02 -0.79976364444E+02  0.85026371491E+02  0.00000000000E+00 0.  1.
         22    1    3    3    0    0 -0.75858655782E+02 -0.31031396357E+02 -0.10920769581E+02  0.82684620246E+02  0.00000000000E+00 0.  1.
</event>
<event>
 7    1  0.6078244E-006  0.1246950E+03  0.7818608E-02  0.1289874E+00
          2   -1    0    0  502    0  0.00000000000E+00  0.00000000000E+00  0.14537517099E+03  0.14537517099E+03  0.00000000000E+00 0. -1.
          1   -1    0    0  501    0 -0.00000000000E+00 -0.00000000000E+00 -0.10746668225E+04  0.10746668225E+04  0.00000000000E+00 0. -1.
         25    2    1    2    0    0 -0.23474368169E+02  0.17260162237E+03 -0.58489264688E+02  0.22223895707E+03  0.12500717559E+03 0.  0.
          2    1    1    2  501    0 -0.27182257238E+02 -0.11967252720E+03 -0.90757092636E+03  0.91583042931E+03  0.00000000000E+00 0. -1.
          1    1    1    2  502    0  0.50656625408E+02 -0.52929095175E+02  0.36768539553E+02  0.81972607099E+02  0.00000000000E+00 0. -1.
         22    1    3    3    0    0  0.41153761144E+02  0.62406062420E+02 -0.57791055521E+02  0.94487855205E+02  0.00000000000E+00 0.  1.
         22    1    3    3    0    0 -0.64628129313E+02  0.11019555995E+03 -0.69820916762E+00  0.12775110186E+03  0.00000000000E+00 0.  1.
</event>
<event>
 7    1  0.6078244E-006  0.1653932E+03  0.7818608E-02  0.1280137E+00
          2   -1    0    0  502    0  0.00000000000E+00  0.00000000000E+00  0.39104982979E+03  0.39104982979E+03  0.00000000000E+00 0. -1.
          1   -1    0    0  501    0 -0.00000000000E+00 -0.00000000000E+00 -0.10681812338E+04  0.10681812338E+04  0.00000000000E+00 0. -1.
         25    2    1    2    0    0  0.11058441954E+03 -0.76805567959E+01 -0.29386899636E+02  0.16963814396E+03  0.12500242086E+03 0.  0.
          2    1    1    2  501    0 -0.17113751754E+03  0.75786936486E+01 -0.95814650168E+03  0.97333971726E+03  0.00000000000E+00 0. -1.
          1    1    1    2  502    0  0.60553098006E+02  0.10186314727E+00  0.31040199732E+03  0.31625320235E+03  0.00000000000E+00 0. -1.
         22    1    3    3    0    0  0.99030910926E+02 -0.26641430141E+02  0.29494883459E+02  0.10670911521E+03  0.00000000000E+00 0.  1.
         22    1    3    3    0    0  0.11553508612E+02  0.18960873345E+02 -0.58881783096E+02  0.62929028753E+02  0.00000000000E+00 0.  1.
</event>
<event>
 7    1  0.6078244E-006  0.1085218E+03  0.7818608E-02  0.1358474E+00
          2   -1    0    0  502    0  0.00000000000E+00  0.00000000000E+00  0.18882581920E+04  0.18882581920E+04  0.00000000000E+00 0. -1.
          1   -1    0    0  501    0 -0.00000000000E+00 -0.00000000000E+00 -0.36782632812E+03  0.36782632812E+03  0.00000000000E+00 0. -1.
         25    2    1    2    0    0  0.15238150023E+03 -0.64565553770E-01  0.66592578046E+03  0.69447951060E+03  0.12499807912E+03 0.  0.
          2    1    1    2  501    0 -0.10758215495E+03  0.94483197386E+01 -0.34485551512E+03  0.36137033237E+03  0.00000000000E+00 0. -1.
          1    1    1    2  502    0 -0.44799345275E+02 -0.93837541848E+01  0.11993615985E+04  0.12002346771E+04  0.00000000000E+00 0. -1.
         22    1    3    3    0    0  0.72833701452E+02 -0.44140234695E+02  0.48008220442E+03  0.48757771830E+03  0.00000000000E+00 0.  1.
         22    1    3    3    0    0  0.79547798777E+02  0.44075669141E+02  0.18584357604E+03  0.20690179230E+03  0.00000000000E+00 0.  1.
</event>
<event>
 7    1  0.6078244E-006  0.1013263E+03  0.7818608E-02  0.1298681E+00
          2   -1    0    0  502    0  0.00000000000E+00  0.00000000000E+00  0.65835492354E+03  0.65835492354E+03  0.00000000000E+00 0. -1.
          1   -1    0    0  501    0 -0.00000000000E+00 -0.00000000000E+00 -0.33457991034E+04  0.33457991034E+04  0.00000000000E+00 0. -1.
         25    2    1    2    0    0  0.25223956508E+02  0.18010594465E+02 -0.11233853333E+03  0.17089699137E+03  0.12500082438E+03 0.  0.
          2    1    1    2  501    0 -0.20249782498E+01  0.83044184419E+02 -0.31993663194E+04  0.32004445446E+04  0.00000000000E+00 0. -1.
          1    1    1    2  502    0 -0.23198978258E+02 -0.10105477888E+03  0.62426067293E+03  0.63281249095E+03  0.00000000000E+00 0. -1.
         22    1    3    3    0    0 -0.37764590205E+02 -0.16516885519E+02 -0.84206660658E+02  0.93753578490E+02  0.00000000000E+00 0. -1.
         22    1    3    3    0    0  0.62988546713E+02  0.34527479983E+02 -0.28131872669E+02  0.77143412881E+02  0.00000000000E+00 0. -1.
</event>
<event>
 7    1  0.6078244E-006  0.5111113E+02  0.7818608E-02  0.1458315E+00
          2   -1    0    0  502    0  0.00000000000E+00  0.00000000000E+00  0.15661535347E+04  0.15661535347E+04  0.00000000000E+00 0. -1.
          1   -1    0    0  501    0 -0.00000000000E+00 -0.00000000000E+00 -0.81784133646E+03  0.81784133646E+03  0.00000000000E+00 0. -1.
         25    2    1    2    0    0  0.61690045676E+01  0.78225262166E+02  0.11510864578E+04  0.11605097358E+04  0.12500226204E+03 0.  0.
          2    1    1    2  501    0 -0.30494927084E+02 -0.41003842781E+02 -0.81111874203E+03  0.81272681103E+03  0.00000000000E+00 0. -1.
          1    1    1    2  502    0  0.24325922517E+02 -0.37221419385E+02  0.40834448255E+03  0.41075832431E+03  0.00000000000E+00 0. -1.
         22    1    3    3    0    0  0.52707034905E+02  0.61972040949E+02  0.42273711124E+03  0.43049417023E+03  0.00000000000E+00 0. -1.
         22    1    3    3    0    0 -0.46538030337E+02  0.16253221218E+02  0.72834934652E+03  0.73001556561E+03  0.00000000000E+00 0. -1.
</event>
<event>
 7    1  0.6078244E-006  0.2081196E+03  0.7818608E-02  0.1255485E+00
          2   -1    0    0  502    0  0.00000000000E+00  0.00000000000E+00  0.47575555461E+03  0.47575555461E+03  0.00000000000E+00 0. -1.
          1   -1    0    0  501    0 -0.00000000000E+00 -0.00000000000E+00 -0.23424548292E+04  0.23424548292E+04  0.00000000000E+00 0. -1.
         25    2    1    2    0    0 -0.22113391639E+03  0.47520090395E+02 -0.19664969840E+04  0.19834044473E+04  0.12499778196E+03 0.  0.
          2    1    1    2  501    0  0.16004331432E+03 -0.49673203491E+02 -0.34620763328E+03  0.38463101142E+03  0.00000000000E+00 0. -1.
          1    1    1    2  502    0  0.61090602074E+02  0.21531130956E+01  0.44600534264E+03  0.45017492514E+03  0.00000000000E+00 0. -1.
         22    1    3    3    0    0 -0.23661521258E+03  0.43069322488E+02 -0.18891879958E+04  0.19044350892E+04  0.00000000000E+00 0. -1.
         22    1    3    3    0    0  0.15481296192E+02  0.44507679077E+01 -0.77308988137E+02  0.78969358067E+02  0.00000000000E+00 0. -1.
</event>
<event>
 7    1  0.6078244E-006  0.4487114E+02  0.7818608E-02  0.1503634E+00
          2   -1    0    0  502    0  0.00000000000E+00  0.00000000000E+00  0.76950255851E+02  0.76950255851E+02  0.00000000000E+00 0. -1.
          1   -1    0    0  501    0 -0.00000000000E+00 -0.00000000000E+00 -0.16403869802E+04  0.16403869802E+04  0.00000000000E+00 0. -1.
         25    2    1    2    0    0 -0.41348945561E+02  0.54377386313E+02 -0.23925780119E+03  0.27845260922E+03  0.12499969883E+03 0.  0.
          2    1    1    2  501    0  0.61675782327E+00 -0.36782587827E+02 -0.13726668330E+04  0.13731597043E+04  0.00000000000E+00 0. -1.
          1    1    1    2  502    0  0.40732187738E+02 -0.17594798486E+02  0.48487909783E+02  0.65724922570E+02  0.00000000000E+00 0. -1.
         22    1    3    3    0    0  0.12279081432E+02  0.34131792544E+02 -0.42109633302E+01  0.36516945590E+02  0.00000000000E+00 0.  1.
         22    1    3    3    0    0 -0.53628026993E+02  0.20245593769E+02 -0.23504683786E+03  0.24193566363E+03  0.00000000000E+00 0.  1.
</event>
<event>
 7    1  0.6078244E-006  0.8132983E+02  0.7818608E-02  0.1362052E+00
          2   -1    0    0  502    0  0.00000000000E+00  0.00000000000E+00  0.14260577397E+03  0.14260577397E+03  0.00000000000E+00 0. -1.
          1   -1    0    0  501    0 -0.00000000000E+00 -0.00000000000E+00 -0.23471103076E+04  0.23471103076E+04  0.00000000000E+00 0. -1.
         25    2    1    2    0    0 -0.12146572247E+03 -0.46045241258E+02 -0.12360307514E+04  0.12491077914E+04  0.12499668019E+03 0.  0.
          2    1    1    2  501    0  0.71106420956E+02  0.14797254287E+02 -0.10968289287E+04  0.10992309951E+04  0.00000000000E+00 0. -1.
          1    1    1    2  502    0  0.50359301519E+02  0.31247986971E+02  0.12835514647E+03  0.14137729508E+03  0.00000000000E+00 0. -1.
         22    1    3    3    0    0 -0.66149593885E+02 -0.76091577234E+02 -0.48078911633E+03  0.49124726084E+03  0.00000000000E+00 0.  1.
         22    1    3    3    0    0 -0.55316128590E+02  0.30046335976E+02 -0.75524163510E+03  0.75786053056E+03  0.00000000000E+00 0.  1.
</event>
<event>
 7    1  0.6078244E-006  0.3121541E+02  0.7818608E-02  0.1602351E+00
          2   -1    0    0  502    0  0.00000000000E+00  0.00000000000E+00  0.19351351985E+04  0.19351351985E+04  0.00000000000E+00 0. -1.
          1   -1    0    0  501    0 -0.00000000000E+00 -0.00000000000E+00 -0.12937004407E+03  0.12937004407E+03  0.00000000000E+00 0. -1.
         25    2    1    2    0    0 -0.12024693168E+01  0.43358149318E+02  0.52228211007E+02  0.14225056704E+03  0.12500425094E+03 0.  0.
          2    1    1    2  501    0  0.20783808345E+02 -0.23201116952E+02 -0.81372211873E+02  0.87130335603E+02  0.00000000000E+00 0. -1.
          1    1    1    2  502    0 -0.19581339028E+02 -0.20157032366E+02  0.18349091553E+04  0.18351243399E+04  0.00000000000E+00 0. -1.
         22    1    3    3    0    0 -0.39741212369E+02 -0.19601209256E+02  0.52148076031E+02  0.68432398750E+02  0.00000000000E+00 0.  1.
         22    1    3    3    0    0  0.38538743052E+02  0.62959358575E+02  0.80134976174E-01  0.73818168291E+02  0.00000000000E+00 0.  1.
</event>
<event>
 7    1  0.6078244E-006  0.5340316E+02  0.7818608E-02  0.1438353E+00
          2   -1    0    0  502    0  0.00000000000E+00  0.00000000000E+00  0.11412924719E+03  0.11412924719E+03  0.00000000000E+00 0. -1.
          1   -1    0    0  501    0 -0.00000000000E+00 -0.00000000000E+00 -0.47915700442E+03  0.47915700442E+03  0.00000000000E+00 0. -1.
         25    2    1    2    0    0 -0.20009978975E+02  0.22797203181E+02 -0.36920719365E+03  0.39097057115E+03  0.12499569564E+03 0.  0.
          2    1    1    2  501    0  0.42745492585E+02 -0.71118978436E+02 -0.71608109296E+02  0.10960295410E+03  0.00000000000E+00 0. -1.
          1    1    1    2  502    0 -0.22735513610E+02  0.48321775255E+02  0.75787545720E+02  0.92712726360E+02  0.00000000000E+00 0. -1.
         22    1    3    3    0    0 -0.73106685953E+02  0.16754624759E+02 -0.20525408417E+03  0.21852813103E+03  0.00000000000E+00 0.  1.
         22    1    3    3    0    0  0.53096706978E+02  0.60425784219E+01 -0.16395310948E+03  0.17244244012E+03  0.00000000000E+00 0.  1.
</event>
<event>
 7    1  0.6078244E-006  0.8255683E+02  0.7818608E-02  0.1338679E+00
          2   -1    0    0  502    0  0.00000000000E+00  0.00000000000E+00  0.12136246970E+04  0.12136246970E+04  0.00000000000E+00 0. -1.
          1   -1    0    0  501    0 -0.00000000000E+00 -0.00000000000E+00 -0.16865154803E+03  0.16865154803E+03  0.00000000000E+00 0. -1.
         25    2    1    2    0    0  0.13487476824E+02  0.71461504313E+02  0.51097908021E+03  0.53104965779E+03  0.12500183998E+03 0.  0.
          2    1    1    2  501    0 -0.75256456318E+02 -0.35922815924E+02 -0.14566271777E+03  0.16784400576E+03  0.00000000000E+00 0. -1.
          1    1    1    2  502    0  0.61768979494E+02 -0.35538688389E+02  0.67965678649E+03  0.68338258144E+03  0.00000000000E+00 0. -1.
         22    1    3    3    0    0  0.27485036952E+02  0.62050155212E+02  0.10692464566E+03  0.12664331355E+03  0.00000000000E+00 0.  1.
         22    1    3    3    0    0 -0.13997560128E+02  0.94113491007E+01  0.40405443455E+03  0.40440634424E+03  0.00000000000E+00 0.  1.
</event>
<event>
 7    1  0.6078244E-006  0.1200334E+03  0.7818608E-02  0.1277266E+00
          2   -1    0    0  502    0  0.00000000000E+00  0.00000000000E+00  0.71277988914E+03  0.71277988914E+03  0.00000000000E+00 0. -1.
          1   -1    0    0  501    0 -0.00000000000E+00 -0.00000000000E+00 -0.82921755943E+03  0.82921755943E+03  0.00000000000E+00 0. -1.
         25    2    1    2    0    0  0.97113528067E+02  0.16269290378E+03  0.65795815034E+02  0.23633594270E+03  0.12500228102E+03 0.  0.
          2    1    1    2  501    0 -0.25620508101E+02 -0.11534141278E+03 -0.73593493748E+03  0.74535916453E+03  0.00000000000E+00 0. -1.
          1    1    1    2  502    0 -0.71493019966E+02 -0.47351491001E+02  0.55370145215E+03  0.56030234134E+03  0.00000000000E+00 0. -1.
         22    1    3    3    0    0  0.31722425378E+02  0.11294399151E+03 -0.18336053659E+02  0.11873865569E+03  0.00000000000E+00 0.  1.
         22    1    3    3    0    0  0.65391102689E+02  0.49748912270E+02  0.84131868692E+02  0.11759728701E+03  0.00000000000E+00 0.  1.
</event>
<event>
 7    1  0.6078244E-006  0.1322186E+03  0.7818608E-02  0.1265504E+00
          2   -1    0    0  502    0  0.00000000000E+00  0.00000000000E+00  0.15932464423E+04  0.15932464423E+04  0.00000000000E+00 0. -1.
          1   -1    0    0  501    0 -0.00000000000E+00 -0.00000000000E+00 -0.12924005591E+03  0.12924005591E+03  0.00000000000E+00 0. -1.
         25    2    1    2    0    0  0.37387613790E+02 -0.15341149880E+03  0.88658645645E+03  0.90917107430E+03  0.12499430370E+03 0.  0.
          2    1    1    2  501    0 -0.80418134029E+02  0.33727876722E+02 -0.95009980097E+02  0.12896333691E+03  0.00000000000E+00 0. -1.
          1    1    1    2  502    0  0.43030520240E+02  0.11968362208E+03  0.67242991003E+03  0.68435208699E+03  0.00000000000E+00 0. -1.
         22    1    3    3    0    0  0.23152045935E+02 -0.17182957870E+03  0.83121834037E+03  0.84910856239E+03  0.00000000000E+00 0.  1.
         22    1    3    3    0    0  0.14235567855E+02  0.18418079902E+02  0.55368116075E+02  0.60062511912E+02  0.00000000000E+00 0.  1.
</event>
<event>
 7    1  0.6078244E-006  0.4347055E+02  0.7818608E-02  0.1491438E+00
          2   -1    0    0  502    0  0.00000000000E+00  0.00000000000E+00  0.27848189802E+03  0.27848189802E+03  0.00000000000E+00 0. -1.
          1   -1    0    0  501    0 -0.00000000000E+00 -0.00000000000E+00 -0.51858197125E+03  0.51858197125E+03  0.00000000000E+00 0. -1.
         25    2    1    2    0    0 -0.63602479800E+02  0.36715260156E+02  0.83497279208E+01  0.14521449197E+03  0.12499697979E+03 0.  0.
          2    1    1    2  501    0  0.41303420808E+02 -0.23494925158E+00 -0.44692072709E+03  0.44882531577E+03  0.00000000000E+00 0. -1.
          1    1    1    2  502    0  0.22299058991E+02 -0.36480310904E+02  0.19847092594E+03  0.20302406153E+03  0.00000000000E+00 0. -1.
         22    1    3    3    0    0 -0.74748936728E+02 -0.20474265763E+02  0.29930154918E+02  0.83080763561E+02  0.00000000000E+00 0.  1.
         22    1    3    3    0    0  0.11146456928E+02  0.57189525919E+02 -0.21580426997E+02  0.62133728411E+02  0.00000000000E+00 0.  1.
</event>
<event>
 7    1  0.6078244E-006  0.4271154E+02  0.7818608E-02  0.1537326E+00
          2   -1    0    0  502    0  0.00000000000E+00  0.00000000000E+00  0.11132384373E+04  0.11132384373E+04  0.00000000000E+00 0. -1.
          1   -1    0    0  501    0 -0.00000000000E+00 -0.00000000000E+00 -0.63273715102E+03  0.63273715102E+03  0.00000000000E+00 0. -1.
         25    2    1    2    0    0  0.64289973034E+01 -0.22632162106E+02 -0.13165004868E+03  0.18305952817E+03  0.12500203506E+03 0.  0.
          2    1    1    2  501    0  0.30815211526E+02  0.15826011293E+01 -0.47446030615E+03  0.47546257897E+03  0.00000000000E+00 0. -1.
          1    1    1    2  502    0 -0.37244208829E+02  0.21049560977E+02  0.10866116411E+04  0.10874534812E+04  0.00000000000E+00 0. -1.
         22    1    3    3    0    0 -0.80657382268E+01 -0.37854246418E+02 -0.15015023113E+03  0.15505835035E+03  0.00000000000E+00 0. -1.
         22    1    3    3    0    0  0.14494735530E+02  0.15222084312E+02  0.18500182447E+02  0.28001177823E+02  0.00000000000E+00 0. -1.
</event>
<event>
 7    1  0.6078244E-006  0.6491686E+02  0.7818608E-02  0.1393751E+00
          2   -1    0    0  502    0  0.00000000000E+00  0.00000000000E+00  0.12501168019E+04  0.12501168019E+04  0.00000000000E+00 0. -1.
          1   -1    0    0  501    0 -0.00000000000E+00 -0.00000000000E+00 -0.25327342333E+03  0.25327342333E+03  0.00000000000E+00 0. -1.
         25    2    1    2    0    0  0.87280458148E+01 -0.31957685182E+02  0.23907005742E+03  0.27179873028E+03  0.12499033961E+03 0.  0.
          2    1    1    2  501    0  0.56222205981E+02  0.10999748581E+02 -0.23225376831E+03  0.23921484863E+03  0.00000000000E+00 0. -1.
          1    1    1    2  502    0 -0.64950251795E+02  0.20957936602E+02  0.99002708947E+03  0.99237664634E+03  0.00000000000E+00 0. -1.
         22    1    3    3    0    0  0.51705560296E+02  0.23651027282E+00  0.19674277394E+03  0.20342379408E+03  0.00000000000E+00 0.  1.
         22    1    3    3    0    0 -0.42977514482E+02 -0.32194195455E+02  0.42327283489E+02  0.68374936195E+02  0.00000000000E+00 0.  1.
</event>
<event>
 7    1  0.6078244E-006  0.6867002E+02  0.7818608E-02  0.1505173E+00
          2   -1    0    0  502    0  0.00000000000E+00  0.00000000000E+00  0.10218536674E+04  0.10218536674E+04  0.00000000000E+00 0. -1.
          1   -1    0    0  501    0 -0.00000000000E+00 -0.00000000000E+00 -0.92657044081E+02  0.92657044081E+02  0.00000000000E+00 0. -1.
         25    2    1    2    0    0  0.51424484148E+02  0.30703100697E+02  0.42695251283E+03  0.44888871100E+03  0.12500187477E+03 0.  0.
          2    1    1    2  501    0 -0.43955866268E+02 -0.53287046414E+02 -0.66792875745E+02  0.96088062449E+02  0.00000000000E+00 0. -1.
          1    1    1    2  502    0 -0.74686178798E+01  0.22583945717E+02  0.56903698622E+03  0.56953393801E+03  0.00000000000E+00 0. -1.
         22    1    3    3    0    0 -0.16872938726E+02 -0.17322047857E+02  0.27026409929E+03  0.27134375388E+03  0.00000000000E+00 0.  1.
         22    1    3    3    0    0  0.68297422874E+02  0.48025148554E+02  0.15668841353E+03  0.17754495712E+03  0.00000000000E+00 0.  1.
</event>
<event>
 7    1  0.6078244E-006  0.7563610E+02  0.7818608E-02  0.1411830E+00
          2   -1    0    0  502    0  0.00000000000E+00  0.00000000000E+00  0.40704621961E+04  0.40704621961E+04  0.00000000000E+00 0. -1.
          1   -1    0    0  501    0 -0.00000000000E+00 -0.00000000000E+00 -0.63084638544E+03  0.63084638544E+03  0.00000000000E+00 0. -1.
         25    2    1    2    0    0  0.73091959573E+02 -0.76192638723E+02  0.10164691558E+04  0.10295546886E+04  0.12500223782E+03 0.  0.
          2    1    1    2  501    0 -0.67544295214E+02  0.33919116043E+02 -0.62186618885E+03  0.62644257126E+03  0.00000000000E+00 0. -1.
          1    1    1    2  502    0 -0.55476643590E+01  0.42273522680E+02  0.30450128438E+04  0.30453113217E+04  0.00000000000E+00 0. -1.
         22    1    3    3    0    0  0.50437821049E+02 -0.89509291758E+02  0.41560242286E+03  0.42811360757E+03  0.00000000000E+00 0.  1.
         22    1    3    3    0    0  0.22654138524E+02  0.13316653035E+02  0.60086673293E+03  0.60144108106E+03  0.00000000000E+00 0.  1.
</event>
<event>
 7    1  0.6078244E-006  0.9247185E+02  0.7818608E-02  0.1363305E+00
          2   -1    0    0  502    0  0.00000000000E+00  0.00000000000E+00  0.28451473296E+04  0.28451473296E+04  0.00000000000E+00 0. -1.
          1   -1    0    0  501    0 -0.00000000000E+00 -0.00000000000E+00 -0.23016259457E+02  0.23016259457E+02  0.00000000000E+00 0. -1.
         25    2    1    2    0    0  0.83165143688E+02 -0.10993168437E+03  0.11789675684E+04  0.11935622104E+04  0.12499922578E+03 0.  0.
          2    1    1    2  501    0 -0.60371788488E+02  0.63659228815E+02  0.11061017184E+03  0.14118024073E+03  0.00000000000E+00 0. -1.
          1    1    1    2  502    0 -0.22793355199E+02  0.46272455551E+02  0.15325533300E+04  0.15334211380E+04  0.00000000000E+00 0. -1.
         22    1    3    3    0    0 -0.31344427164E+02 -0.92286188927E+01  0.16655335634E+03  0.16972819750E+03  0.00000000000E+00 0. -1.
         22    1    3    3    0    0  0.11450957085E+03 -0.10070306547E+03  0.10124142121E+04  0.10238340129E+04  0.00000000000E+00 0. -1.
</event>
<event>
 7    1  0.6078244E-006  0.1312782E+03  0.7818608E-02  0.1296665E+00
          2   -1    0    0  502    0  0.00000000000E+00  0.00000000000E+00  0.23523698758E+03  0.23523698758E+03  0.00000000000E+00 0. -1.
          1   -1    0    0  501    0 -0.00000000000E+00 -0.00000000000E+00 -0.19470098376E+04  0.19470098376E+04  0.00000000000E+00 0. -1.
         25    2    1    2    0    0  0.66180615381E+02 -0.12211408839E+03  0.90359194784E+01  0.18708268123E+03  0.12500622920E+03 0.  0.
          2    1    1    2  501    0 -0.64452894661E+02 -0.10627311089E+02 -0.18251471809E+04  0.18263157852E+04  0.00000000000E+00 0. -1.
          1    1    1    2  502    0 -0.17277207196E+01  0.13274139948E+03  0.10433841140E+03  0.16884835874E+03  0.00000000000E+00 0. -1.
         22    1    3    3    0    0  0.39929555994E+02 -0.11155110594E+03 -0.44471965429E+02  0.12655344479E+03  0.00000000000E+00 0.  1.
         22    1    3    3    0    0  0.26251059386E+02 -0.10562982451E+02  0.53507884907E+02  0.60529236443E+02  0.00000000000E+00 0.  1.
</event>
<event>
 7    1  0.6078244E-006  0.1029942E+03  0.7818608E-02  0.1422060E+00
          2   -1    0    0  502    0  0.00000000000E+00  0.00000000000E+00  0.16473223691E+04  0.16473223691E+04  0.00000000000E+00 0. -1.
          1   -1    0    0  501    0 -0.00000000000E+00 -0.00000000000E+00 -0.18547978582E+02  0.18547978582E+02  0.00000000000E+00 0. -1.
         25    2    1    2    0    0 -0.96144940823E+02 -0.66107988229E+02  0.10779659916E+04  0.10914445100E+04  0.12500529420E+03 0.  0.
          2    1    1    2  501    0  0.92703113873E+01  0.27406297554E+02  0.20016695247E+02  0.35181129991E+02  0.00000000000E+00 0. -1.
          1    1    1    2  502    0  0.86874629436E+02  0.38701690675E+02  0.53079170359E+03  0.53924470763E+03  0.00000000000E+00 0. -1.
         22    1    3    3    0    0  0.11669356520E+02  0.19612254689E+02  0.59846079186E+02  0.64049727630E+02  0.00000000000E+00 0. -1.
         22    1    3    3    0    0 -0.10781429734E+03 -0.85720242918E+02  0.10181199124E+04  0.10273947824E+04  0.00000000000E+00 0. -1.
</event>
<event>
 7    1  0.6078244E-006  0.1585650E+03  0.7818608E-02  0.1381225E+00
          2   -1    0    0  502    0  0.00000000000E+00  0.00000000000E+00  0.49086012565E+03  0.49086012565E+03  0.00000000000E+00 0. -1.
          1   -1    0    0  501    0 -0.00000000000E+00 -0.00000000000E+00 -0.55908064669E+03  0.55908064669E+03  0.00000000000E+00 0. -1.
         25    2    1    2    0    0 -0.14836591517E+03 -0.94872167075E+01 -0.92015697515E+02  0.21492902108E+03  0.12500057379E+03 0.  0.
          2    1    1    2  501    0  0.15795501161E+03  0.33597368285E+02 -0.38911116589E+03  0.42129095441E+03  0.00000000000E+00 0. -1.
          1    1    1    2  502    0 -0.95890964397E+01 -0.24110151577E+02  0.41290634237E+03  0.41372079685E+03  0.00000000000E+00 0. -1.
         22    1    3    3    0    0 -0.84828418544E+02  0.55434403471E+02 -0.32876552255E+02  0.10653497721E+03  0.00000000000E+00 0. -1.
         22    1    3    3    0    0 -0.63537496630E+02 -0.64921620179E+02 -0.59139145260E+02  0.10839404387E+03  0.00000000000E+00 0. -1.
</event>
<event>
 7    1  0.6078244E-006  0.5242254E+02  0.7818608E-02  0.1448098E+00
          2   -1    0    0  502    0  0.00000000000E+00  0.00000000000E+00  0.54585049824E+03  0.54585049824E+03  0.00000000000E+00 0. -1.
          1   -1    0    0  501    0 -0.00000000000E+00 -0.00000000000E+00 -0.19794862239E+03  0.19794862239E+03  0.00000000000E+00 0. -1.
         25    2    1    2    0    0  0.84790023541E+02 -0.69777973103E+01  0.27936728943E+03  0.31765961946E+03  0.12499405459E+03 0.  0.
          2    1    1    2  501    0 -0.42836268528E+02 -0.18665414949E+02 -0.17323218756E+03  0.17942333857E+03  0.00000000000E+00 0. -1.
          1    1    1    2  502    0 -0.41953755013E+02  0.25643212259E+02  0.24176677397E+03  0.24671616261E+03  0.00000000000E+00 0. -1.
         22    1    3    3    0    0  0.10792836737E+03  0.21674274396E+02  0.23829769876E+03  0.26249590452E+03  0.00000000000E+00 0. -1.
         22    1    3    3    0    0 -0.23138343831E+02 -0.28652071706E+02  0.41069590674E+02  0.55163714944E+02  0.00000000000E+00 0. -1.
</event>
<event>
 7    1  0.6078244E-006  0.3133614E+02  0.7818608E-02  0.1614252E+00
          2   -1    0    0  502    0  0.00000000000E+00  0.00000000000E+00  0.18488987507E+04  0.18488987507E+04  0.00000000000E+00 0. -1.
          1   -1    0    0  501    0 -0.00000000000E+00 -0.00000000000E+00 -0.42909239427E+02  0.42909239427E+02  0.00000000000E+00 0. -1.
         25    2    1    2    0    0  0.51925796373E+02 -0.72729488453E+01  0.24258592653E+03  0.27788561913E+03  0.12499320563E+03 0.  0.
          2    1    1    2  501    0 -0.21613476708E+02  0.14594147450E+02 -0.18333032984E+02  0.31878387876E+02  0.00000000000E+00 0. -1.
          1    1    1    2  502    0 -0.30312319665E+02 -0.73211986046E+01  0.15817366177E+04  0.15820439831E+04  0.00000000000E+00 0. -1.
         22    1    3    3    0    0 -0.18571495625E+02 -0.36475003358E+02  0.16123078778E+03  0.16634510287E+03  0.00000000000E+00 0. -1.
         22    1    3    3    0    0  0.70497291998E+02  0.29202054513E+02  0.81355138752E+02  0.11154051626E+03  0.00000000000E+00 0. -1.
</event>
<event>
 7    1  0.6078244E-006  0.7332097E+02  0.7818608E-02  0.1433389E+00
          2   -1    0    0  502    0  0.00000000000E+00  0.00000000000E+00  0.88720059368E+02  0.88720059368E+02  0.00000000000E+00 0. -1.
          1   -1    0    0  501    0 -0.00000000000E+00 -0.00000000000E+00 -0.93838547186E+03  0.93838547186E+03  0.00000000000E+00 0. -1.
         25    2    1    2    0    0  0.62324107233E+02  0.47124216886E+02 -0.16232741181E+03  0.21927171038E+03  0.12499963275E+03 0.  0.
          2    1    1    2  501    0 -0.72698204823E+02 -0.11311136932E+02 -0.73981241582E+03  0.74346175517E+03  0.00000000000E+00 0. -1.
          1    1    1    2  502    0  0.10374097590E+02 -0.35813079955E+02  0.52474415134E+02  0.64372065683E+02  0.00000000000E+00 0. -1.
         22    1    3    3    0    0 -0.25082927754E+02 -0.17605437437E+02 -0.10272183482E+02  0.32320619511E+02  0.00000000000E+00 0.  1.
         22    1    3    3    0    0  0.87407034987E+02  0.64729654324E+02 -0.15205522833E+03  0.18695109087E+03  0.00000000000E+00 0.  1.
</event>
<event>
 7    1  0.6078244E-006  0.1129882E+03  0.7818608E-02  0.1414592E+00
          2   -1    0    0  502    0  0.00000000000E+00  0.00000000000E+00  0.15786526110E+04  0.15786526110E+04  0.00000000000E+00 0. -1.
          1   -1    0    0  501    0 -0.00000000000E+00 -0.00000000000E+00 -0.58118145430E+03  0.58118145430E+03  0.00000000000E+00 0. -1.
         25    2    1    2    0    0  0.64437126092E+02  0.11885890449E+03 -0.10110335410E+03  0.21007917744E+03  0.12502715779E+03 0.  0.
          2    1    1    2  501    0 -0.62043277534E+02 -0.91026292992E+02 -0.41833100317E+03  0.43259216650E+03  0.00000000000E+00 0. -1.
          1    1    1    2  502    0 -0.23938485581E+01 -0.27832611498E+02  0.15169055140E+04  0.15171627214E+04  0.00000000000E+00 0. -1.
         22    1    3    3    0    0  0.50776704308E+02  0.12796005161E+03 -0.12169640900E+03  0.18374456310E+03  0.00000000000E+00 0. -1.
         22    1    3    3    0    0  0.13660421784E+02 -0.91011471159E+01  0.20593054894E+02  0.26334614332E+02  0.00000000000E+00 0. -1.
</event>
<event>
 7    1  0.6078244E-006  0.1057920E+03  0.7818608E-02  0.1325734E+00
          2   -1    0    0  502    0  0.00000000000E+00  0.00000000000E+00  0.23590208232E+03  0.23590208232E+03  0.00000000000E+00 0. -1.
          1   -1    0    0  501    0 -0.00000000000E+00 -0.00000000000E+00 -0.15867367210E+04  0.15867367210E+04  0.00000000000E+00 0. -1.
         25    2    1    2    0    0 -0.52493431770E+02  0.13138466476E+03 -0.82387107300E+03  0.84522514376E+03  0.12499803276E+03 0.  0.
          2    1    1    2  501    0  0.66772232193E+02 -0.70748165151E+02 -0.74465588607E+03  0.75098350349E+03  0.00000000000E+00 0. -1.
          1    1    1    2  502    0 -0.14278800422E+02 -0.60636499605E+02  0.21769232038E+03  0.22643015607E+03  0.00000000000E+00 0. -1.
         22    1    3    3    0    0  0.17070507003E+02  0.10462921950E+03 -0.35581564695E+03  0.37127274395E+03  0.00000000000E+00 0. -1.
         22    1    3    3    0    0 -0.69563938773E+02  0.26755445255E+02 -0.46805542605E+03  0.47395239981E+03  0.00000000000E+00 0. -1.
</event>
<event>
 7    1  0.6078244E-006  0.5282503E+02  0.7818608E-02  0.1453103E+00
          2   -1    0    0  502    0  0.00000000000E+00  0.00000000000E+00  0.33800354208E+03  0.33800354208E+03  0.00000000000E+00 0. -1.
          1   -1    0    0  501    0 -0.00000000000E+00 -0.00000000000E+00 -0.16198963580E+04  0.16198963580E+04  0.00000000000E+00 0. -1.
         25    2    1    2    0    0  0.28884819358E+02  0.42310529672E+02 -0.19058543021E+03  0.23360644483E+03  0.12499860457E+03 0.  0.
          2    1    1    2  501    0  0.14923032036E+02 -0.51161467637E+02 -0.14057151526E+04  0.14067250204E+04  0.00000000000E+00 0. -1.
          1    1    1    2  502    0 -0.43807851394E+02  0.88509379649E+01  0.31440776690E+03  0.31756843488E+03  0.00000000000E+00 0. -1.
         22    1    3    3    0    0  0.41963168417E+02 -0.36187523466E+02 -0.82628768460E+02  0.99488480416E+02  0.00000000000E+00 0. -1.
         22    1    3    3    0    0 -0.13078349059E+02  0.78498053139E+02 -0.10795666175E+03  0.13411796441E+03  0.00000000000E+00 0. -1.
</event>
<event>
 7    1  0.6078244E-006  0.8403807E+02  0.7818608E-02  0.1365310E+00
          2   -1    0    0  502    0  0.00000000000E+00  0.00000000000E+00  0.60012992361E+03  0.60012992361E+03  0.00000000000E+00 0. -1.
          1   -1    0    0  501    0 -0.00000000000E+00 -0.00000000000E+00 -0.82530798384E+02  0.82530798384E+02  0.00000000000E+00 0. -1.
         25    2    1    2    0    0  0.81716633845E+01 -0.32518500199E+02  0.17399301090E+02  0.13056150679E+03  0.12497736771E+03 0.  0.
          2    1    1    2  501    0  0.34006998696E+02 -0.44259730438E+02  0.13295657204E+02  0.57377471182E+02  0.00000000000E+00 0. -1.
          1    1    1    2  502    0 -0.42178662080E+02  0.76778230637E+02  0.48690416693E+03  0.49472174402E+03  0.00000000000E+00 0. -1.
         22    1    3    3    0    0  0.50293146078E+02 -0.24616781349E+02 -0.32533140926E+02  0.64759491388E+02  0.00000000000E+00 0. -1.
         22    1    3    3    0    0 -0.42121482693E+02 -0.79017188497E+01  0.49932442015E+02  0.65802015400E+02  0.00000000000E+00 0. -1.
</event>
<event>
 7    1  0.6078244E-006  0.1286540E+03  0.7818608E-02  0.1354778E+00
          2   -1    0    0  502    0  0.00000000000E+00  0.00000000000E+00  0.40911129679E+02  0.40911129679E+02  0.00000000000E+00 0. -1.
          1   -1    0    0  501    0 -0.00000000000E+00 -0.00000000000E+00 -0.14802248187E+04  0.14802248187E+04  0.00000000000E+00 0. -1.
         25    2    1    2    0    0 -0.26356101306E+02  0.13538488219E+03 -0.45295804378E+03  0.48971406652E+03  0.12500066849E+03 0.  0.
          2    1    1    2  501    0 -0.32390507607E+02 -0.23184944559E+02 -0.82657871687E+03  0.82753795189E+03  0.00000000000E+00 0. -1.
          1    1    1    2  502    0  0.58746608913E+02 -0.11219993763E+03 -0.15977692841E+03  0.20388393000E+03  0.00000000000E+00 0. -1.
         22    1    3    3    0    0 -0.50949268636E+02  0.11479454544E+02 -0.20350464469E+03  0.21009937235E+03  0.00000000000E+00 0. -1.
         22    1    3    3    0    0  0.24593167330E+02  0.12390542764E+03 -0.24945339909E+03  0.27961469417E+03  0.00000000000E+00 0. -1.
</event>
<event>
 7    1  0.6078244E-006  0.4407949E+02  0.7818608E-02  0.1513722E+00
          2   -1    0    0  502    0  0.00000000000E+00  0.00000000000E+00  0.91990712467E+03  0.91990712467E+03  0.00000000000E+00 0. -1.
          1   -1    0    0  501    0 -0.00000000000E+00 -0.00000000000E+00 -0.27101224346E+03  0.27101224346E+03  0.00000000000E+00 0. -1.
         25    2    1    2    0    0 -0.85115523663E+01 -0.29552408489E+02  0.30800499478E+03  0.33382083141E+03  0.12499391704E+03 0.  0.
          2    1    1    2  501    0  0.40993886624E+02  0.16601014383E+02 -0.25569389182E+03  0.25949076811E+03  0.00000000000E+00 0. -1.
          1    1    1    2  502    0 -0.32482334258E+02  0.12951394106E+02  0.59658377825E+03  0.59760776862E+03  0.00000000000E+00 0. -1.
         22    1    3    3    0    0 -0.85496628194E+01 -0.30801378970E+02  0.32008457745E+03  0.32167679183E+03  0.00000000000E+00 0.  1.
         22    1    3    3    0    0  0.38110453139E-01  0.12489704807E+01 -0.12079582669E+02  0.12144039572E+02  0.00000000000E+00 0.  1.
</event>
<event>
 7    1  0.6078244E-006  0.6225469E+02  0.7818608E-02  0.1425041E+00
          2   -1    0    0  502    0  0.00000000000E+00  0.00000000000E+00  0.15040361293E+04  0.15040361293E+04  0.00000000000E+00 0. -1.
          1   -1    0    0  501    0 -0.00000000000E+00 -0.00000000000E+00 -0.24632188163E+03  0.24632188163E+03  0.00000000000E+00 0. -1.
         25    2    1    2    0    0 -0.57250963484E+02 -0.86340679480E+02  0.52279241347E+03  0.54742055204E+03  0.12499986986E+03 0.  0.
          2    1    1    2  501    0  0.34571893273E+02  0.31521815487E+02 -0.23074997179E+03  0.23544508943E+03  0.00000000000E+00 0. -1.
          1    1    1    2  502    0  0.22679070211E+02  0.54818863993E+02  0.96567180599E+03  0.96749236946E+03  0.00000000000E+00 0. -1.
         22    1    3    3    0    0 -0.36551384927E+02 -0.11819112909E+03  0.37809976852E+03  0.39782481282E+03  0.00000000000E+00 0. -1.
         22    1    3    3    0    0 -0.20699578557E+02  0.31850449611E+02  0.14469264495E+03  0.14959573923E+03  0.00000000000E+00 0. -1.
</event>
<event>
 7    1  0.6078244E-006  0.1131910E+03  0.7818608E-02  0.1311792E+00
          2   -1    0    0  502    0  0.00000000000E+00  0.00000000000E+00  0.10442909217E+03  0.10442909217E+03  0.00000000000E+00 0. -1.
          1   -1    0    0  501    0 -0.00000000000E+00 -0.00000000000E+00 -0.69873230370E+03  0.69873230370E+03  0.00000000000E+00 0. -1.
         25    2    1    2    0    0  0.49939645181E+02 -0.11995032234E+03 -0.22266217855E+03  0.28650556475E+03  0.12499977956E+03 0.  0.
          2    1    1    2  501    0 -0.65458521382E+02  0.81329346358E+01 -0.39575963958E+03  0.40121896138E+03  0.00000000000E+00 0. -1.
          1    1    1    2  502    0  0.15518876201E+02  0.11181738770E+03  0.24118606595E+02  0.11543686974E+03  0.00000000000E+00 0. -1.
         22    1    3    3    0    0  0.15195871659E+02 -0.71763349168E+02 -0.21430824002E+03  0.22651471153E+03  0.00000000000E+00 0.  1.
         22    1    3    3    0    0  0.34743773522E+02 -0.48186973167E+02 -0.83539385256E+01  0.59990853223E+02  0.00000000000E+00 0.  1.
</event>
<event>
 7    1  0.6078244E-006  0.9293415E+02  0.7818608E-02  0.1308914E+00
          2   -1    0    0  502    0  0.00000000000E+00  0.00000000000E+00  0.22975745818E+03  0.22975745818E+03  0.00000000000E+00 0. -1.
          1   -1    0    0  501    0 -0.00000000000E+00 -0.00000000000E+00 -0.48703808917E+03  0.48703808917E+03  0.00000000000E+00 0. -1.
         25    2    1    2    0    0 -0.38308316805E+02  0.50196491772E+02 -0.91117401099E+02  0.16708172581E+03  0.12500682939E+03 0.  0.
          2    1    1    2  501    0  0.10354905944E+03  0.24097817199E+00 -0.34101602744E+03  0.35639079218E+03  0.00000000000E+00 0. -1.
          1    1    1    2  502    0 -0.65240742639E+02 -0.50437469944E+02  0.17485279754E+03  0.19332302937E+03  0.00000000000E+00 0. -1.
         22    1    3    3    0    0 -0.24193300669E+02 -0.20369816646E+01  0.27513661744E+02  0.36694232164E+02  0.00000000000E+00 0.  1.
         22    1    3    3    0    0 -0.14115016136E+02  0.52233473436E+02 -0.11863106284E+03  0.13038749365E+03  0.00000000000E+00 0.  1.
</event>
<event>
 7    1  0.6078244E-006  0.1052967E+03  0.7818608E-02  0.1308733E+00
          2   -1    0    0  502    0  0.00000000000E+00  0.00000000000E+00  0.15286834470E+04  0.15286834470E+04  0.00000000000E+00 0. -1.
          1   -1    0    0  501    0 -0.00000000000E+00 -0.00000000000E+00 -0.46111647286E+03  0.46111647286E+03  0.00000000000E+00 0. -1.
         25    2    1    2    0    0  0.91762647484E+01 -0.13816923034E+03  0.27847452737E+03  0.33518618742E+03  0.12500711100E+03 0.  0.
          2    1    1    2  501    0  0.48256385079E+02  0.93267009495E+02 -0.42528097834E+03  0.43805401984E+03  0.00000000000E+00 0. -1.
          1    1    1    2  502    0 -0.57432649827E+02  0.44902220845E+02  0.12143734251E+04  0.12165597126E+04  0.00000000000E+00 0. -1.
         22    1    3    3    0    0 -0.31059900580E+02  0.69607036410E+01  0.25541552385E+02  0.40811024459E+02  0.00000000000E+00 0. -1.
         22    1    3    3    0    0  0.40236165328E+02 -0.14512993398E+03  0.25293297498E+03  0.29437516296E+03  0.00000000000E+00 0. -1.
</event>
<event>
 7    1  0.6078244E-006  0.7733051E+02  0.7818608E-02  0.1453855E+00
          2   -1    0    0  502    0  0.00000000000E+00  0.00000000000E+00  0.18039896374E+04  0.18039896374E+04  0.00000000000E+00 0. -1.
          1   -1    0    0  501    0 -0.00000000000E+00 -0.00000000000E+00 -0.71071720681E+03  0.71071720681E+03  0.00000000000E+00 0. -1.
         25    2    1    2    0    0 -0.20314121417E+02  0.90856603583E+02  0.66565577367E+03  0.68365924071E+03  0.12499904981E+03 0.  0.
          2    1    1    2  501    0 -0.67034693620E+01 -0.77003180216E+02 -0.69938188646E+03  0.70364014195E+03  0.00000000000E+00 0. -1.
          1    1    1    2  502    0  0.27017590779E+02 -0.13853423368E+02  0.11269985434E+04  0.11274074615E+04  0.00000000000E+00 0. -1.
         22    1    3    3    0    0 -0.12929154176E+02  0.12130891632E+02  0.51845029610E+01  0.18471616888E+02  0.00000000000E+00 0. -1.
         22    1    3    3    0    0 -0.73849672412E+01  0.78725711952E+02  0.66047127071E+03  0.66518762383E+03  0.00000000000E+00 0. -1.
</event>
<event>
 7    1  0.6078244E-006  0.5563512E+02  0.7818608E-02  0.1417714E+00
          2   -1    0    0  502    0  0.00000000000E+00  0.00000000000E+00  0.34696186108E+04  0.34696186108E+04  0.00000000000E+00 0. -1.
          1   -1    0    0  501    0 -0.00000000000E+00 -0.00000000000E+00 -0.28893776168E+02  0.28893776168E+02  0.00000000000E+00 0. -1.
         25    2    1    2    0    0 -0.19033955451E+02 -0.39403305135E+01  0.13668671539E+04  0.13727082499E+04  0.12499722033E+03 0.  0.
          2    1    1    2  501    0 -0.24237539313E+02  0.49794452876E+02  0.45831433811E+01  0.55569335541E+02  0.00000000000E+00 0. -1.
          1    1    1    2  502    0  0.43271494764E+02 -0.45854122363E+02  0.20692745374E+04  0.20702348016E+04  0.00000000000E+00 0. -1.
         22    1    3    3    0    0 -0.57396934040E+02  0.37280892967E+02  0.63491984200E+03  0.63859805729E+03  0.00000000000E+00 0.  1.
         22    1    3    3    0    0  0.38362978590E+02 -0.41221223481E+02  0.73194731192E+03  0.73411019256E+03  0.00000000000E+00 0.  1.
</event>
<event>
 7    1  0.6078244E-006  0.1791954E+03  0.7818608E-02  0.1291713E+00
          2   -1    0    0  502    0  0.00000000000E+00  0.00000000000E+00  0.73064977961E+03  0.73064977961E+03  0.00000000000E+00 0. -1.
          1   -1    0    0  501    0 -0.00000000000E+00 -0.00000000000E+00 -0.13350827531E+03  0.13350827531E+03  0.00000000000E+00 0. -1.
         25    2    1    2    0    0 -0.14112650902E+03  0.12714971594E+02  0.59151762481E+02  0.19799289847E+03  0.12499557907E+03 0.  0.
          2    1    1    2  501    0 -0.46207661014E+02 -0.19392851443E+02 -0.36415823475E+02  0.61946289823E+02  0.00000000000E+00 0. -1.
          1    1    1    2  502    0  0.18733417004E+03  0.66778798492E+01  0.57440556530E+03  0.60421886663E+03  0.00000000000E+00 0. -1.
         22    1    3    3    0    0 -0.97041806976E+02 -0.51842212237E+02  0.43258136872E+02  0.11822010690E+03  0.00000000000E+00 0. -1.
         22    1    3    3    0    0 -0.44084702047E+02  0.64557183831E+02  0.15893625609E+02  0.79772791562E+02  0.00000000000E+00 0. -1.
</event>
<event>
 7    1  0.6078244E-006  0.1245702E+03  0.7818608E-02  0.1380473E+00
          2   -1    0    0  502    0  0.00000000000E+00  0.00000000000E+00  0.26081869202E+04  0.26081869202E+04  0.00000000000E+00 0. -1.
          1   -1    0    0  501    0 -0.00000000000E+00 -0.00000000000E+00 -0.15022192772E+03  0.15022192772E+03  0.00000000000E+00 0. -1.
         25    2    1    2    0    0 -0.28632435784E+02 -0.88331809523E+02  0.60550762569E+03  0.62521049069E+03  0.12500539166E+03 0.  0.
          2    1    1    2  501    0  0.41014547166E+02  0.11916973712E+03 -0.11191287262E+03  0.16854705688E+03  0.00000000000E+00 0. -1.
          1    1    1    2  502    0 -0.12382111382E+02 -0.30837927596E+02  0.19643702394E+04  0.19646513003E+04  0.00000000000E+00 0. -1.
         22    1    3    3    0    0 -0.19678747831E+02 -0.11997154560E+03  0.50645025276E+03  0.52083805870E+03  0.00000000000E+00 0. -1.
         22    1    3    3    0    0 -0.89536879534E+01  0.31639736079E+02  0.99057372930E+02  0.10437243199E+03  0.00000000000E+00 0. -1.
</event>
<event>
 7    1  0.6078244E-006  0.1002737E+03  0.7818608E-02  0.1345786E+00
          2   -1    0    0  502    0  0.00000000000E+00  0.00000000000E+00  0.12528444346E+03  0.12528444346E+03  0.00000000000E+00 0. -1.
          1   -1    0    0  501    0 -0.00000000000E+00 -0.00000000000E+00 -0.38045133633E+03  0.38045133633E+03  0.00000000000E+00 0. -1.
         25    2    1    2    0    0  0.95280058557E+02  0.72151631583E+02 -0.16596264575E+01  0.17295040697E+03  0.12499976565E+03 0.  0.
          2    1    1    2  501    0 -0.98005060466E+02 -0.17038780520E+02 -0.25888991284E+03  0.27734328708E+03  0.00000000000E+00 0. -1.
          1    1    1    2  502    0  0.27250019089E+01 -0.55112851063E+02  0.53826464392E+01  0.55442085733E+02  0.00000000000E+00 0. -1.
         22    1    3    3    0    0  0.76061701800E+02  0.10796992618E+03 -0.49900774569E+01  0.13216576074E+03  0.00000000000E+00 0.  1.
         22    1    3    3    0    0  0.19218356757E+02 -0.35818294595E+02  0.33304509994E+01  0.40784646228E+02  0.00000000000E+00 0.  1.
</event>
<event>
 7    1  0.6078244E-006  0.8026644E+02  0.7818608E-02  0.1338475E+00
          2   -1    0    0  502    0  0.00000000000E+00  0.00000000000E+00  0.14101833590E+04  0.14101833590E+04  0.00000000000E+00 0. -1.
          1   -1    0    0  501    0 -0.00000000000E+00 -0.00000000000E+00 -0.16574435540E+03  0.16574435540E+03  0.00000000000E+00 0. -1.
         25    2    1    2    0    0 -0.13278810638E+03 -0.17121887137E+02 -0.80100558399E+02  0.19991414980E+03  0.12499491036E+03 0.  0.
          2    1    1    2  501    0  0.57924813121E+02  0.45124090917E+02  0.30502217235E+02  0.79510079942E+02  0.00000000000E+00 0. -1.
          1    1    1    2  502    0  0.74863293263E+02 -0.28002203779E+02  0.12940373448E+04  0.12965034846E+04  0.00000000000E+00 0. -1.
         22    1    3    3    0    0 -0.14408613598E+03 -0.37321883098E+02 -0.90868543146E+02  0.17438701120E+03  0.00000000000E+00 0. -1.
         22    1    3    3    0    0  0.11298029599E+02  0.20199995961E+02  0.10767984747E+02  0.25527138601E+02  0.00000000000E+00 0. -1.
</event>
<event>
 7    1  0.6078244E-006  0.5486610E+02  0.7818608E-02  0.1434508E+00
          2   -1    0    0  502    0  0.00000000000E+00  0.00000000000E+00  0.20482454980E+03  0.20482454980E+03  0.00000000000E+00 0. -1.
          1   -1    0    0  501    0 -0.00000000000E+00 -0.00000000000E+00 -0.21400327321E+04  0.21400327321E+04  0.00000000000E+00 0. -1.
         25    2    1    2    0    0 -0.84669354717E+02 -0.37733119819E+02 -0.18132781667E+03  0.23895069656E+03  0.12499988132E+03 0.  0.
          2    1    1    2  501    0  0.49288680356E+02 -0.34356559040E+01 -0.19253837202E+04  0.19260175617E+04  0.00000000000E+00 0. -1.
          1    1    1    2  502    0  0.35380674361E+02  0.41168775723E+02  0.17150335458E+03  0.17988902369E+03  0.00000000000E+00 0. -1.
         22    1    3    3    0    0 -0.88458908868E+02 -0.56164031667E+02 -0.69929161043E+02  0.12597406311E+03  0.00000000000E+00 0.  1.
         22    1    3    3    0    0  0.37895541512E+01  0.18430911848E+02 -0.11139865562E+03  0.11297663345E+03  0.00000000000E+00 0.  1.
</event>
<event>
 7    1  0.6078244E-006  0.6502572E+02  0.7818608E-02  0.1509415E+00
          2   -1    0    0  502    0  0.00000000000E+00  0.00000000000E+00  0.76074579615E+02  0.76074579615E+02  0.00000000000E+00 0. -1.
          1   -1    0    0  501    0 -0.00000000000E+00 -0.00000000000E+00 -0.25924672467E+04  0.25924672467E+04  0.00000000000E+00 0. -1.
         25    2    1    2    0    0  0.23778606310E+02  0.85831102851E+02 -0.14400231715E+03  0.21046074409E+03  0.12499862848E+03 0.  0.
          2    1    1    2  501    0 -0.18597794121E+02 -0.61981923340E+02 -0.24112906232E+04  0.24121588062E+04  0.00000000000E+00 0. -1.
          1    1    1    2  502    0 -0.51808121891E+01 -0.23849179512E+02  0.38900273254E+02  0.45922276050E+02  0.00000000000E+00 0. -1.
         22    1    3    3    0    0  0.49026006464E+02  0.77961905876E+02 -0.35367268237E+02  0.98653189204E+02  0.00000000000E+00 0.  1.
         22    1    3    3    0    0 -0.25247400154E+02  0.78691969756E+01 -0.10863504892E+03  0.11180755488E+03  0.00000000000E+00 0.  1.
</event>
<event>
 7    1  0.6078244E-006  0.8980007E+02  0.7818608E-02  0.1461750E+00
          2   -1    0    0  502    0  0.00000000000E+00  0.00000000000E+00  0.40669132177E+03  0.40669132177E+03  0.00000000000E+00 0. -1.
          1   -1    0    0  501    0 -0.00000000000E+00 -0.00000000000E+00 -0.16130962272E+04  0.16130962272E+04  0.00000000000E+00 0. -1.
         25    2    1    2    0    0  0.60843620793E+02  0.74785711848E+02  0.70565660696E+02  0.17291491464E+03  0.12500082539E+03 0.  0.
          2    1    1    2  501    0 -0.72446991850E+02 -0.52998417109E+02 -0.15600944772E+04  0.15626746867E+04  0.00000000000E+00 0. -1.
          1    1    1    2  502    0  0.11603371057E+02 -0.21787294739E+02  0.28312391103E+03  0.28419794761E+03  0.00000000000E+00 0. -1.
         22    1    3    3    0    0  0.15374615098E+02  0.16523447910E+02  0.92984568113E+02  0.95684549576E+02  0.00000000000E+00 0. -1.
         22    1    3    3    0    0  0.45469005695E+02  0.58262263938E+02 -0.22418907417E+02  0.77230365063E+02  0.00000000000E+00 0. -1.
</event>
<event>
 7    1  0.6078244E-006  0.1154771E+03  0.7818608E-02  0.1400113E+00
          2   -1    0    0  502    0  0.00000000000E+00  0.00000000000E+00  0.29459422484E+03  0.29459422484E+03  0.00000000000E+00 0. -1.
          1   -1    0    0  501    0 -0.00000000000E+00 -0.00000000000E+00 -0.38462722094E+03  0.38462722094E+03  0.00000000000E+00 0. -1.
         25    2    1    2    0    0 -0.11568249649E+03  0.20955684120E+02 -0.56654497757E+02  0.18071601177E+03  0.12500785616E+03 0.  0.
          2    1    1    2  501    0  0.10461414819E+03 -0.49501004647E+02 -0.25223423424E+03  0.27751860908E+03  0.00000000000E+00 0. -1.
          1    1    1    2  502    0  0.11068348294E+02  0.28545320526E+02  0.21885573589E+03  0.22098682493E+03  0.00000000000E+00 0. -1.
         22    1    3    3    0    0 -0.71851920188E+02 -0.13171836283E+02 -0.90008920999E+02  0.11592153193E+03  0.00000000000E+00 0.  1.
         22    1    3    3    0    0 -0.43830576299E+02  0.34127520404E+02  0.33354423242E+02  0.64794479837E+02  0.00000000000E+00 0.  1.
</event>
<event>
 7    1  0.6078244E-006  0.9280462E+02  0.7818608E-02  0.1472512E+00
          2   -1    0    0  502    0  0.00000000000E+00  0.00000000000E+00  0.15525560888E+04  0.15525560888E+04  0.00000000000E+00 0. -1.
          1   -1    0    0  501    0 -0.00000000000E+00 -0.00000000000E+00 -0.12547817443E+04  0.12547817443E+04  0.00000000000E+00 0. -1.
         25    2    1    2    0    0  0.76266576105E+01 -0.95345395453E+02  0.77141568842E+02  0.17528411520E+03  0.12499915623E+03 0.  0.
          2    1    1    2  501    0 -0.28577318360E+02  0.88290803390E+02 -0.12038389266E+04  0.12074104895E+04  0.00000000000E+00 0. -1.
          1    1    1    2  502    0  0.20950660749E+02  0.70545920627E+01  0.14244717022E+04  0.14246432283E+04  0.00000000000E+00 0. -1.
         22    1    3    3    0    0  0.36027864613E+02 -0.10353278755E+03  0.20683122798E+02  0.11155642830E+03  0.00000000000E+00 0.  1.
         22    1    3    3    0    0 -0.28401207002E+02  0.81873920946E+01  0.56458446044E+02  0.63727686904E+02  0.00000000000E+00 0.  1.
</event>
<event>
 7    1  0.6078244E-006  0.7508865E+02  0.7818608E-02  0.1387047E+00
          2   -1    0    0  502    0  0.00000000000E+00  0.00000000000E+00  0.45857289152E+03  0.45857289152E+03  0.00000000000E+00 0. -1.
          1   -1    0    0  501    0 -0.00000000000E+00 -0.00000000000E+00 -0.21950019160E+03  0.21950019160E+03  0.00000000000E+00 0. -1.
         25    2    1    2    0    0  0.60462306341E+02  0.72898173086E+02  0.10130592396E+03  0.18670681073E+03  0.12500683508E+03 0.  0.
          2    1    1    2  501    0  0.10778714665E+02 -0.51143815222E+02 -0.16837076630E+03  0.17629686744E+03  0.00000000000E+00 0. -1.
          1    1    1    2  502    0 -0.71241021007E+02 -0.21754357864E+02  0.30613754225E+03  0.31506940495E+03  0.00000000000E+00 0. -1.
         22    1    3    3    0    0  0.30348152768E+02 -0.78885064593E+01  0.95248739379E+02  0.10027742151E+03  0.00000000000E+00 0.  1.
         22    1    3    3    0    0  0.30114153573E+02  0.80786679545E+02  0.60571845836E+01  0.86429389229E+02  0.00000000000E+00 0.  1.
</event>
<event>
 7    1  0.6078244E-006  0.3465248E+02  0.7818608E-02  0.1597968E+00
          2   -1    0    0  502    0  0.00000000000E+00  0.00000000000E+00  0.46969409968E+03  0.46969409968E+03  0.00000000000E+00 0. -1.
          1   -1    0    0  501    0 -0.00000000000E+00 -0.00000000000E+00 -0.84102633152E+03  0.84102633152E+03  0.00000000000E+00 0. -1.
         25    2    1    2    0    0  0.14214502184E+02  0.58541421141E+02  0.14254592188E+03  0.19893021643E+03  0.12499896441E+03 0.  0.
          2    1    1    2  501    0 -0.50169266006E+01 -0.34232137290E+02 -0.81190015882E+03  0.81263698948E+03  0.00000000000E+00 0. -1.
          1    1    1    2  502    0 -0.91975755830E+01 -0.24309283851E+02  0.29802200510E+03  0.29915322529E+03  0.00000000000E+00 0. -1.
         22    1    3    3    0    0  0.68573593334E+02  0.18464079061E+02  0.67634639701E+02  0.98069895512E+02  0.00000000000E+00 0.  1.
         22    1    3    3    0    0 -0.54359091150E+02  0.40077342080E+02  0.74911282175E+02  0.10086032092E+03  0.00000000000E+00 0.  1.
</event>
<event>
 7    1  0.6078244E-006  0.2207840E+03  0.7818608E-02  0.1204987E+00
          2   -1    0    0  502    0  0.00000000000E+00  0.00000000000E+00  0.12815127621E+04  0.12815127621E+04  0.00000000000E+00 0. -1.
          1   -1    0    0  501    0 -0.00000000000E+00 -0.00000000000E+00 -0.19504578068E+04  0.19504578068E+04  0.00000000000E+00 0. -1.
         25    2    1    2    0    0 -0.11882525858E+03 -0.88052401284E+02 -0.59096905668E+02  0.20246089365E+03  0.12500120699E+03 0.  0.
          2    1    1    2  501    0 -0.96042486150E+02  0.13994616008E+02 -0.18076920408E+04  0.18102957004E+04  0.00000000000E+00 0. -1.
          1    1    1    2  502    0  0.21486774473E+03  0.74057785276E+02  0.11978439018E+04  0.12192139748E+04  0.00000000000E+00 0. -1.
         22    1    3    3    0    0 -0.91131028628E+01 -0.14577509875E+00  0.33105415823E+02  0.34337129335E+02  0.00000000000E+00 0.  1.
         22    1    3    3    0    0 -0.10971215572E+03 -0.87906626185E+02 -0.92202321491E+02  0.16812376431E+03  0.00000000000E+00 0.  1.
</event>
<event>
 7    1  0.6078244E-006  0.1795115E+03  0.7818608E-02  0.1270047E+00
          2   -1    0    0  502    0  0.00000000000E+00  0.00000000000E+00  0.31773684836E+04  0.31773684836E+04  0.00000000000E+00 0. -1.
          1   -1    0    0  501    0 -0.00000000000E+00 -0.00000000000E+00 -0.56678333439E+02  0.56678333439E+02  0.00000000000E+00 0. -1.
         25    2    1    2    0    0 -0.19196480492E+02  0.14716503497E+03  0.12795646965E+04  0.12941934544E+04  0.12499932974E+03 0.  0.
          2    1    1    2  501    0 -0.37264045113E+02  0.48874380568E+02 -0.22235051876E+02  0.65358332797E+02  0.00000000000E+00 0. -1.
          1    1    1    2  502    0  0.56460525605E+02 -0.19603941554E+03  0.18633605055E+04  0.18744950298E+04  0.00000000000E+00 0. -1.
         22    1    3    3    0    0 -0.47249698932E+01  0.13955591060E+02  0.66622671472E+03  0.66638961522E+03  0.00000000000E+00 0. -1.
         22    1    3    3    0    0 -0.14471510599E+02  0.13320944391E+03  0.61333798177E+03  0.62780383915E+03  0.00000000000E+00 0. -1.
</event>
<event>
 7    1  0.6078244E-006  0.4409740E+02  0.7818608E-02  0.1584369E+00
          2   -1    0    0  502    0  0.00000000000E+00  0.00000000000E+00  0.99526170511E+02  0.99526170511E+02  0.00000000000E+00 0. -1.
          1   -1    0    0  501    0 -0.00000000000E+00 -0.00000000000E+00 -0.24368390780E+04  0.24368390780E+04  0.00000000000E+00 0. -1.
         25    2    1    2    0    0  0.25876054418E+02 -0.42726533788E+02 -0.61264304488E+02  0.14789402341E+03  0.12499680106E+03 0.  0.
          2    1    1    2  501    0 -0.37212045878E+02  0.23654862423E+02 -0.23298539407E+04  0.23302711588E+04  0.00000000000E+00 0. -1.
          1    1    1    2  502    0  0.11335991460E+02  0.19071671365E+02  0.53805337669E+02  0.58200066260E+02  0.00000000000E+00 0. -1.
         22    1    3    3    0    0 -0.35906579509E+02  0.91777264869E+01  0.11947754671E+02  0.38939208482E+02  0.00000000000E+00 0.  1.
         22    1    3    3    0    0  0.61782633927E+02 -0.51904260275E+02 -0.73212059158E+02  0.10895481493E+03  0.00000000000E+00 0.  1.
</event>
<event>
 7    1  0.6078244E-006  0.5613367E+02  0.7818608E-02  0.1438665E+00
          2   -1    0    0  502    0  0.00000000000E+00  0.00000000000E+00  0.10754230716E+04  0.10754230716E+04  0.00000000000E+00 0. -1.
          1   -1    0    0  501    0 -0.00000000000E+00 -0.00000000000E+00 -0.17626127056E+02  0.17626127056E+02  0.00000000000E+00 0. -1.
         25    2    1    2    0    0 -0.29914616874E+02 -0.12536156618E+02  0.35154408985E+03  0.37451314039E+03  0.12499922278E+03 0.  0.
          2    1    1    2  501    0  0.60942413665E+02  0.47583197144E+02  0.30863234612E+03  0.31816986581E+03  0.00000000000E+00 0. -1.
          1    1    1    2  502    0 -0.31027796791E+02 -0.35047040526E+02  0.39762050858E+03  0.40036619246E+03  0.00000000000E+00 0. -1.
         22    1    3    3    0    0 -0.57530903870E+02  0.15316437808E+02  0.31606965899E+03  0.32162777788E+03  0.00000000000E+00 0. -1.
         22    1    3    3    0    0  0.27616286996E+02 -0.27852594426E+02  0.35474430852E+02  0.52885362512E+02  0.00000000000E+00 0. -1.
</event>
<event>
 7    1  0.6078244E-006  0.9716580E+02  0.7818608E-02  0.1439001E+00
          2   -1    0    0  502    0  0.00000000000E+00  0.00000000000E+00  0.35352272975E+02  0.35352272975E+02  0.00000000000E+00 0. -1.
          1   -1    0    0  501    0 -0.00000000000E+00 -0.00000000000E+00 -0.29642138364E+04  0.29642138364E+04  0.00000000000E+00 0. -1.
         25    2    1    2    0    0  0.20592539156E+01 -0.12017748897E+03 -0.72395307099E+03  0.74443282676E+03  0.12500126069E+03 0.  0.
          2    1    1    2  501    0  0.67600795335E+01  0.94686417175E+02 -0.22214593853E+04  0.22234866802E+04  0.00000000000E+00 0. -1.
          1    1    1    2  502    0 -0.88193334491E+01  0.25491071799E+02  0.16550892960E+02  0.31646602373E+02  0.00000000000E+00 0. -1.
         22    1    3    3    0    0  0.32114505964E+02 -0.75957225176E+02 -0.18156598127E+03  0.19941676736E+03  0.00000000000E+00 0.  1.
         22    1    3    3    0    0 -0.30055252048E+02 -0.44220263798E+02 -0.54238708972E+03  0.54501605940E+03  0.00000000000E+00 0.  1.
</event>
<event>
 7    1  0.6078244E-006  0.8796390E+02  0.7818608E-02  0.1350099E+00
          2   -1    0    0  502    0  0.00000000000E+00  0.00000000000E+00  0.44298828118E+03  0.44298828118E+03  0.00000000000E+00 0. -1.
          1   -1    0    0  501    0 -0.00000000000E+00 -0.00000000000E+00 -0.13114854500E+04  0.13114854500E+04  0.00000000000E+00 0. -1.
         25    2    1    2    0    0  0.10955023764E+03 -0.94781643623E+02 -0.31101764013E+03  0.36516043152E+03  0.12500141497E+03 0.  0.
          2    1    1    2  501    0 -0.35012203415E+02  0.49490284808E+02 -0.96786503860E+03  0.96976176230E+03  0.00000000000E+00 0. -1.
          1    1    1    2  502    0 -0.74538034229E+02  0.45291358815E+02  0.41038550992E+03  0.41955153734E+03  0.00000000000E+00 0. -1.
         22    1    3    3    0    0 -0.12444264986E+01 -0.11217320143E+01 -0.14367752929E+03  0.14368729694E+03  0.00000000000E+00 0.  1.
         22    1    3    3    0    0  0.11079466414E+03 -0.93659911608E+02 -0.16734011083E+03  0.22147313458E+03  0.00000000000E+00 0.  1.
</event>
<event>
 7    1  0.6078244E-006  0.1040336E+03  0.7818608E-02  0.1352823E+00
          2   -1    0    0  502    0  0.00000000000E+00  0.00000000000E+00  0.13589908172E+04  0.13589908172E+04  0.00000000000E+00 0. -1.
          1   -1    0    0  501    0 -0.00000000000E+00 -0.00000000000E+00 -0.24115756029E+03  0.24115756029E+03  0.00000000000E+00 0. -1.
         25    2    1    2    0    0 -0.12715792468E+03 -0.12057752942E+02  0.31946891709E+03  0.36606047833E+03  0.12500143036E+03 0.  0.
          2    1    1    2  501    0  0.99208021006E+02 -0.29501502426E+02 -0.20490892312E+03  0.22956532153E+03  0.00000000000E+00 0. -1.
          1    1    1    2  502    0  0.27949903676E+02  0.41559255368E+02  0.10032732629E+04  0.10045225776E+04  0.00000000000E+00 0. -1.
         22    1    3    3    0    0 -0.67542166876E+02 -0.62108991148E+02  0.11399512732E+03  0.14633646210E+03  0.00000000000E+00 0. -1.
         22    1    3    3    0    0 -0.59615757806E+02  0.50051238207E+02  0.20547378977E+03  0.21972401623E+03  0.00000000000E+00 0. -1.
</event>
<event>
 7    1  0.6078244E-006  0.1127170E+03  0.7818608E-02  0.1297967E+00
          2   -1    0    0  502    0  0.00000000000E+00  0.00000000000E+00  0.95316714556E+03  0.95316714556E+03  0.00000000000E+00 0. -1.
          1   -1    0    0  501    0 -0.00000000000E+00 -0.00000000000E+00 -0.31570993262E+03  0.31570993262E+03  0.00000000000E+00 0. -1.
         25    2    1    2    0    0 -0.35510675247E+02 -0.62448892841E+02 -0.32586446596E+02  0.14780901605E+03  0.12499902579E+03 0.  0.
          2    1    1    2  501    0 -0.58232710300E+00  0.12838577947E+03 -0.20549721442E+03  0.24230631979E+03  0.00000000000E+00 0. -1.
          1    1    1    2  502    0  0.36093002350E+02 -0.65936886629E+02  0.87554087396E+03  0.87876174234E+03  0.00000000000E+00 0. -1.
         22    1    3    3    0    0 -0.42334137620E+01 -0.96831352037E+02 -0.29100380497E+02  0.10119814561E+03  0.00000000000E+00 0. -1.
         22    1    3    3    0    0 -0.31277261485E+02  0.34382459195E+02 -0.34860660989E+01  0.46610870440E+02  0.00000000000E+00 0. -1.
</event>
<event>
 7    1  0.6078244E-006  0.1710529E+03  0.7818608E-02  0.1321379E+00
          2   -1    0    0  502    0  0.00000000000E+00  0.00000000000E+00  0.58434746141E+03  0.58434746141E+03  0.00000000000E+00 0. -1.
          1   -1    0    0  501    0 -0.00000000000E+00 -0.00000000000E+00 -0.67339784895E+03  0.67339784895E+03  0.00000000000E+00 0. -1.
         25    2    1    2    0    0  0.31141089702E+02  0.16031639105E+03 -0.22991362859E+03  0.30847360649E+03  0.12499830631E+03 0.  0.
          2    1    1    2  501    0 -0.71178808119E+02 -0.16120765791E+03 -0.38419832568E+03  0.42268508981E+03  0.00000000000E+00 0. -1.
          1    1    1    2  502    0  0.40037718417E+02  0.89126686245E+00  0.52506156673E+03  0.52658661406E+03  0.00000000000E+00 0. -1.
         22    1    3    3    0    0  0.58523543864E+02  0.13657561624E+03 -0.22804934030E+03  0.27218450681E+03  0.00000000000E+00 0. -1.
         22    1    3    3    0    0 -0.27382454162E+02  0.23740774812E+02 -0.18642882965E+01  0.36289099678E+02  0.00000000000E+00 0. -1.
</event>
<event>
 7    1  0.6078244E-006  0.8605777E+02  0.7818608E-02  0.1475668E+00
          2   -1    0    0  502    0  0.00000000000E+00  0.00000000000E+00  0.69951832564E+03  0.69951832564E+03  0.00000000000E+00 0. -1.
          1   -1    0    0  501    0 -0.00000000000E+00 -0.00000000000E+00 -0.73131914332E+03  0.73131914332E+03  0.00000000000E+00 0. -1.
         25    2    1    2    0    0  0.38906116476E+02 -0.98670037692E+02  0.10012093104E+03  0.19208341356E+03  0.12498949833E+03 0.  0.
          2    1    1    2  501    0 -0.15697577954E+02  0.17231701030E+02 -0.68189823882E+03  0.68229652907E+03  0.00000000000E+00 0. -1.
          1    1    1    2  502    0 -0.23208538522E+02  0.81438336662E+02  0.54997649010E+03  0.55645752632E+03  0.00000000000E+00 0. -1.
         22    1    3    3    0    0 -0.65187351067E+01 -0.31515990200E+02  0.10601752929E+03  0.11079471135E+03  0.00000000000E+00 0. -1.
         22    1    3    3    0    0  0.45424851582E+02 -0.67154047492E+02 -0.58965982509E+01  0.81288702209E+02  0.00000000000E+00 0. -1.
</event>
<event>
 7    1  0.6078244E-006  0.8924914E+02  0.7818608E-02  0.1361668E+00
          2   -1    0    0  502    0  0.00000000000E+00  0.00000000000E+00  0.13815617552E+04  0.13815617552E+04  0.00000000000E+00 0. -1.
          1   -1    0    0  501    0 -0.00000000000E+00 -0.00000000000E+00 -0.51001125086E+02  0.51001125086E+02  0.00000000000E+00 0. -1.
         25    2    1    2    0    0 -0.12860273781E+03  0.49606175836E+02  0.10143905469E+04  0.10313160143E+04  0.12500041157E+03 0.  0.
          2    1    1    2  501    0  0.85453200852E+02 -0.16837915752E+02  0.70133420324E+01  0.87378211867E+02  0.00000000000E+00 0. -1.
          1    1    1    2  502    0  0.43149536963E+02 -0.32768260084E+02  0.30915674119E+03  0.31386865411E+03  0.00000000000E+00 0. -1.
         22    1    3    3    0    0  0.20953211101E+02  0.17525089868E+02  0.26965370435E+03  0.27103373609E+03  0.00000000000E+00 0. -1.
         22    1    3    3    0    0 -0.14955594892E+03  0.32081085968E+02  0.74473684257E+03  0.76028227825E+03  0.00000000000E+00 0. -1.
</event>
<event>
 7    1  0.6078244E-006  0.1339108E+03  0.7818608E-02  0.1319859E+00
          2   -1    0    0  502    0  0.00000000000E+00  0.00000000000E+00  0.38225499399E+03  0.38225499399E+03  0.00000000000E+00 0. -1.
          1   -1    0    0  501    0 -0.00000000000E+00 -0.00000000000E+00 -0.41888207534E+03  0.41888207534E+03  0.00000000000E+00 0. -1.
         25    2    1    2    0    0 -0.14277092607E+03 -0.11306112942E+03  0.13466219309E+03  0.25869934558E+03  0.12500035535E+03 0.  0.
          2    1    1    2  501    0  0.10693500865E+03  0.75582317149E+02 -0.34084271143E+03  0.36513221808E+03  0.00000000000E+00 0. -1.
          1    1    1    2  502    0  0.35835917417E+02  0.37478812274E+02  0.16955343699E+03  0.17730550567E+03  0.00000000000E+00 0. -1.
         22    1    3    3    0    0 -0.10316973646E+02 -0.53890099295E+02  0.92633435041E+02  0.10766399600E+03  0.00000000000E+00 0.  1.
         22    1    3    3    0    0 -0.13245395242E+03 -0.59171030128E+02  0.42028758049E+02  0.15103534958E+03  0.00000000000E+00 0.  1.
</event>
<event>
 7    1  0.6078244E-006  0.6589908E+02  0.7818608E-02  0.1426222E+00
          2   -1    0    0  502    0  0.00000000000E+00  0.00000000000E+00  0.15524020043E+04  0.15524020043E+04  0.00000000000E+00 0. -1.
          1   -1    0    0  501    0 -0.00000000000E+00 -0.00000000000E+00 -0.29821635644E+03  0.29821635644E+03  0.00000000000E+00 0. -1.
         25    2    1    2    0    0 -0.33059324176E+02 -0.17809013742E+01  0.11149951738E+02  0.12979031460E+03  0.12500045526E+03 0.  0.
          2    1    1    2  501    0 -0.23067197333E+02  0.37235519790E+02 -0.23613764032E+03  0.24016570259E+03  0.00000000000E+00 0. -1.
          1    1    1    2  502    0  0.56126521510E+02 -0.35454618415E+02  0.14791733364E+04  0.14806623435E+04  0.00000000000E+00 0. -1.
         22    1    3    3    0    0 -0.60209347042E+02 -0.15124565161E+02 -0.37481408187E+02  0.72517404133E+02  0.00000000000E+00 0.  1.
         22    1    3    3    0    0  0.27150022865E+02  0.13343663787E+02  0.48631359925E+02  0.57272910464E+02  0.00000000000E+00 0.  1.
</event>
<event>
 7    1  0.6078244E-006  0.4077442E+03  0.7818608E-02  0.1182218E+00
          2   -1    0    0  502    0  0.00000000000E+00  0.00000000000E+00  0.13124309723E+04  0.13124309723E+04  0.00000000000E+00 0. -1.
          1   -1    0    0  501    0 -0.00000000000E+00 -0.00000000000E+00 -0.44064109364E+04  0.44064109364E+04  0.00000000000E+00 0. -1.
         25    2    1    2    0    0  0.31445983908E+03 -0.15902542729E+03 -0.10078293784E+03  0.38724199113E+03  0.12500032886E+03 0.  0.
          2    1    1    2  501    0  0.67082760144E+02 -0.73197528406E+01 -0.41250702227E+04  0.41256221371E+04  0.00000000000E+00 0. -1.
          1    1    1    2  502    0 -0.38154259922E+03  0.16634518013E+03  0.11318731965E+04  0.12059777805E+04  0.00000000000E+00 0. -1.
         22    1    3    3    0    0  0.23373113922E+03 -0.15250955256E+03 -0.31870576746E+02  0.28090059225E+03  0.00000000000E+00 0.  1.
         22    1    3    3    0    0  0.80728699859E+02 -0.65158747309E+01 -0.68912361091E+02  0.10634139888E+03  0.00000000000E+00 0.  1.
</event>
<event>
 7    1  0.6078244E-006  0.3196704E+02  0.7818608E-02  0.1633308E+00
          2   -1    0    0  502    0  0.00000000000E+00  0.00000000000E+00  0.11758367362E+04  0.11758367362E+04  0.00000000000E+00 0. -1.
          1   -1    0    0  501    0 -0.00000000000E+00 -0.00000000000E+00 -0.13078832530E+04  0.13078832530E+04  0.00000000000E+00 0. -1.
         25    2    1    2    0    0  0.46706322241E+02  0.23509662176E+02 -0.11674723983E+03  0.17885599091E+03  0.12500145088E+03 0.  0.
          2    1    1    2  501    0 -0.22748851687E+02 -0.23876844806E+01 -0.11597460697E+04  0.11599716192E+04  0.00000000000E+00 0. -1.
          1    1    1    2  502    0 -0.23957470554E+02 -0.21121977696E+02  0.11444467927E+04  0.11448923791E+04  0.00000000000E+00 0. -1.
         22    1    3    3    0    0  0.68728469530E+02  0.44426159519E+02 -0.30363164216E+02  0.87288074299E+02  0.00000000000E+00 0. -1.
         22    1    3    3    0    0 -0.22022147289E+02 -0.20916497343E+02 -0.86384075615E+02  0.91567916610E+02  0.00000000000E+00 0. -1.
</event>
<event>
 7    1  0.6078244E-006  0.2962334E+02  0.7818608E-02  0.1661984E+00
          2   -1    0    0  502    0  0.00000000000E+00  0.00000000000E+00  0.44907164400E+03  0.44907164400E+03  0.00000000000E+00 0. -1.
          1   -1    0    0  501    0 -0.00000000000E+00 -0.00000000000E+00 -0.91774534321E+03  0.91774534321E+03  0.00000000000E+00 0. -1.
         25    2    1    2    0    0 -0.27020723085E+01  0.12301571588E+02  0.11440077990E+03  0.16991564692E+03  0.12500063507E+03 0.  0.
          2    1    1    2  501    0 -0.12275311041E+02 -0.26997653196E+02 -0.88938180211E+03  0.88987614108E+03  0.00000000000E+00 0. -1.
          1    1    1    2  502    0  0.14977383349E+02  0.14696081608E+02  0.30630732300E+03  0.30702519921E+03  0.00000000000E+00 0. -1.
         22    1    3    3    0    0 -0.44983386872E+02 -0.26697017088E+02  0.96342518615E+02  0.10962717140E+03  0.00000000000E+00 0. -1.
         22    1    3    3    0    0  0.42281314564E+02  0.38998588675E+02  0.18058261289E+02  0.60288475521E+02  0.00000000000E+00 0. -1.
</event>
<event>
 7    1  0.6078244E-006  0.7110089E+02  0.7818608E-02  0.1433862E+00
          2   -1    0    0  502    0  0.00000000000E+00  0.00000000000E+00  0.27013534231E+04  0.27013534231E+04  0.00000000000E+00 0. -1.
          1   -1    0    0  501    0 -0.00000000000E+00 -0.00000000000E+00 -0.67975828177E+03  0.67975828177E+03  0.00000000000E+00 0. -1.
         25    2    1    2    0    0 -0.16091639740E+02  0.88794011495E+02  0.20758462440E+03  0.25856875493E+03  0.12499242934E+03 0.  0.
          2    1    1    2  501    0 -0.23667300597E+02 -0.30128408050E+02 -0.65319608555E+03  0.65431872071E+03  0.00000000000E+00 0. -1.
          1    1    1    2  502    0  0.39758940337E+02 -0.58665603445E+02  0.24672066024E+04  0.24682242292E+04  0.00000000000E+00 0. -1.
         22    1    3    3    0    0 -0.33333933681E+02  0.21383666983E+01  0.14866371083E+03  0.15237001892E+03  0.00000000000E+00 0. -1.
         22    1    3    3    0    0  0.17242293940E+02  0.86655644797E+02  0.58920913568E+02  0.10619873602E+03  0.00000000000E+00 0. -1.
</event>
<event>
 7    1  0.6078244E-006  0.4864405E+02  0.7818608E-02  0.1555965E+00
          2   -1    0    0  502    0  0.00000000000E+00  0.00000000000E+00  0.23438775500E+02  0.23438775500E+02  0.00000000000E+00 0. -1.
          1   -1    0    0  501    0 -0.00000000000E+00 -0.00000000000E+00 -0.13801435110E+04  0.13801435110E+04  0.00000000000E+00 0. -1.
         25    2    1    2    0    0 -0.44227502889E+02 -0.54114647006E+02 -0.61619074225E+03  0.63261211280E+03  0.12499034919E+03 0.  0.
          2    1    1    2  501    0  0.25253666023E+02  0.39380483420E+02 -0.74505459259E+03  0.74652187916E+03  0.00000000000E+00 0. -1.
          1    1    1    2  502    0  0.18973836866E+02  0.14734163586E+02  0.45405993703E+01  0.24448294514E+02  0.00000000000E+00 0. -1.
         22    1    3    3    0    0 -0.28767772757E+02 -0.72054457551E+02 -0.18290699450E+03  0.19868165048E+03  0.00000000000E+00 0.  1.
         22    1    3    3    0    0 -0.15459730132E+02  0.17939810544E+02 -0.43328374775E+03  0.43393046231E+03  0.00000000000E+00 0.  1.
</event>
<event>
 7    1  0.6078244E-006  0.4149413E+02  0.7818608E-02  0.1576426E+00
          2   -1    0    0  502    0  0.00000000000E+00  0.00000000000E+00  0.24060098953E+03  0.24060098953E+03  0.00000000000E+00 0. -1.
          1   -1    0    0  501    0 -0.00000000000E+00 -0.00000000000E+00 -0.48635030504E+03  0.48635030504E+03  0.00000000000E+00 0. -1.
         25    2    1    2    0    0  0.52319521881E+02 -0.27808509412E+01 -0.28716978193E+03  0.31754401931E+03  0.12499061980E+03 0.  0.
          2    1    1    2  501    0 -0.35044542340E+02  0.20522813339E+02 -0.18105708172E+03  0.18555584781E+03  0.00000000000E+00 0. -1.
          1    1    1    2  502    0 -0.17274979541E+02 -0.17741962397E+02  0.22247754814E+03  0.22385142745E+03  0.00000000000E+00 0. -1.
         22    1    3    3    0    0  0.17264645831E+02  0.53902474928E+02 -0.19976441493E+03  0.20762795156E+03  0.00000000000E+00 0. -1.
         22    1    3    3    0    0  0.35054876050E+02 -0.56683325870E+02 -0.87405367009E+02  0.10991606775E+03  0.00000000000E+00 0. -1.
</event>
<event>
 7    1  0.6078244E-006  0.1452473E+03  0.7818608E-02  0.1238872E+00
          2   -1    0    0  502    0  0.00000000000E+00  0.00000000000E+00  0.41329924836E+03  0.41329924836E+03  0.00000000000E+00 0. -1.
          1   -1    0    0  501    0 -0.00000000000E+00 -0.00000000000E+00 -0.76826977131E+03  0.76826977131E+03  0.00000000000E+00 0. -1.
         25    2    1    2    0    0 -0.10941407381E+03  0.17881500695E+03 -0.12525435583E+02  0.24439328197E+03  0.12499977391E+03 0.  0.
          2    1    1    2  501    0  0.12865901107E+02 -0.14157775824E+03 -0.62254593168E+03  0.63857124120E+03  0.00000000000E+00 0. -1.
          1    1    1    2  502    0  0.96548172700E+02 -0.37237248718E+02  0.28010084431E+03  0.29860449649E+03  0.00000000000E+00 0. -1.
         22    1    3    3    0    0 -0.61349698680E+02  0.37568418861E+02  0.44586743830E+02  0.84635390643E+02  0.00000000000E+00 0.  1.
         22    1    3    3    0    0 -0.48064375127E+02  0.14124658809E+03 -0.57112179413E+02  0.15975789133E+03  0.00000000000E+00 0.  1.
</event>
<event>
 7    1  0.6078244E-006  0.4222224E+02  0.7818608E-02  0.1554035E+00
          2   -1    0    0  502    0  0.00000000000E+00  0.00000000000E+00  0.13773833432E+04  0.13773833432E+04  0.00000000000E+00 0. -1.
          1   -1    0    0  501    0 -0.00000000000E+00 -0.00000000000E+00 -0.61015743721E+02  0.61015743721E+02  0.00000000000E+00 0. -1.
         25    2    1    2    0    0 -0.11696915814E+02  0.46927101035E+02  0.14280717357E+03  0.19585493337E+03  0.12500518170E+03 0.  0.
          2    1    1    2  501    0  0.32076401954E+02 -0.27697488073E+02 -0.21247425611E+02  0.47407800022E+02  0.00000000000E+00 0. -1.
          1    1    1    2  502    0 -0.20379486140E+02 -0.19229612962E+02  0.11948078515E+04  0.11951363535E+04  0.00000000000E+00 0. -1.
         22    1    3    3    0    0 -0.57267626469E+02 -0.10720158131E+02  0.45531969111E+02  0.73943647752E+02  0.00000000000E+00 0.  1.
         22    1    3    3    0    0  0.45570710655E+02  0.57647259166E+02  0.97275204460E+02  0.12191128562E+03  0.00000000000E+00 0.  1.
</event>
<event>
 7    1  0.6078244E-006  0.1272079E+03  0.7818608E-02  0.1331202E+00
          2   -1    0    0  502    0  0.00000000000E+00  0.00000000000E+00  0.37655914364E+04  0.37655914364E+04  0.00000000000E+00 0. -1.
          1   -1    0    0  501    0 -0.00000000000E+00 -0.00000000000E+00 -0.28200275559E+02  0.28200275559E+02  0.00000000000E+00 0. -1.
         25    2    1    2    0    0 -0.18938506469E+02  0.10245907418E+03  0.51721741257E+03  0.54221817802E+03  0.12502068547E+03 0.  0.
          2    1    1    2  501    0 -0.97947077492E+01 -0.14260481726E+03  0.31426725813E+03  0.34524770780E+03  0.00000000000E+00 0. -1.
          1    1    1    2  502    0  0.28733214218E+02  0.40145743087E+02  0.29059064901E+04  0.29063258261E+04  0.00000000000E+00 0. -1.
         22    1    3    3    0    0 -0.29795730604E+02  0.12165027694E+03  0.49617800845E+03  0.51174133262E+03  0.00000000000E+00 0. -1.
         22    1    3    3    0    0  0.10857224135E+02 -0.19191202763E+02  0.21039404119E+02  0.30476845393E+02  0.00000000000E+00 0. -1.
</event>
<event>
 7    1  0.6078244E-006  0.4211931E+02  0.7818608E-02  0.1512458E+00
          2   -1    0    0  502    0  0.00000000000E+00  0.00000000000E+00  0.44163164088E+03  0.44163164088E+03  0.00000000000E+00 0. -1.
          1   -1    0    0  501    0 -0.00000000000E+00 -0.00000000000E+00 -0.89901429869E+03  0.89901429869E+03  0.00000000000E+00 0. -1.
         25    2    1    2    0    0  0.58379013367E+02 -0.51399033846E+02 -0.22348862617E+03  0.26762330869E+03  0.12500039778E+03 0.  0.
          2    1    1    2  501    0 -0.31590264355E+02  0.19089520499E+02 -0.65188534899E+03  0.65292944705E+03  0.00000000000E+00 0. -1.
          1    1    1    2  502    0 -0.26788749012E+02  0.32309513347E+02  0.41799131735E+03  0.42009318384E+03  0.00000000000E+00 0. -1.
         22    1    3    3    0    0  0.71494652977E+02 -0.80778676833E+02 -0.13100350544E+03  0.16970149814E+03  0.00000000000E+00 0. -1.
         22    1    3    3    0    0 -0.13115639610E+02  0.29379642987E+02 -0.92485120728E+02  0.97921810546E+02  0.00000000000E+00 0. -1.
</event>
<event>
 7    1  0.6078244E-006  0.4432340E+02  0.7818608E-02  0.1529720E+00
          2   -1    0    0  502    0  0.00000000000E+00  0.00000000000E+00  0.10549871657E+04  0.10549871657E+04  0.00000000000E+00 0. -1.
          1   -1    0    0  501    0 -0.00000000000E+00 -0.00000000000E+00 -0.67718154662E+03  0.67718154662E+03  0.00000000000E+00 0. -1.
         25    2    1    2    0    0 -0.13122123733E+02  0.91247345296E+00 -0.15385169319E+03  0.19866649450E+03  0.12500003921E+03 0.  0.
          2    1    1    2  501    0 -0.31221410065E+02  0.14771767508E+01 -0.49995672254E+03  0.50093281277E+03  0.00000000000E+00 0. -1.
          1    1    1    2  502    0  0.44343533798E+02 -0.23896502038E+01  0.10316140348E+04  0.10325694051E+04  0.00000000000E+00 0. -1.
         22    1    3    3    0    0  0.16188355810E+02  0.52270557356E+02 -0.11653588228E+03  0.12874348873E+03  0.00000000000E+00 0. -1.
         22    1    3    3    0    0 -0.29310479543E+02 -0.51358083903E+02 -0.37315810908E+02  0.69923005777E+02  0.00000000000E+00 0. -1.
</event>
<event>
 7    1  0.6078244E-006  0.2012653E+03  0.7818608E-02  0.1200637E+00
          2   -1    0    0  502    0  0.00000000000E+00  0.00000000000E+00  0.46186569663E+03  0.46186569663E+03  0.00000000000E+00 0. -1.
          1   -1    0    0  501    0 -0.00000000000E+00 -0.00000000000E+00 -0.86261872080E+03  0.86261872080E+03  0.00000000000E+00 0. -1.
         25    2    1    2    0    0  0.26914545073E+03  0.12949601741E+03 -0.16438039473E+03  0.36311797936E+03  0.12500104237E+03 0.  0.
          2    1    1    2  501    0 -0.86437249064E+02 -0.70582813065E+02 -0.56763395200E+03  0.57849946844E+03  0.00000000000E+00 0. -1.
          1    1    1    2  502    0 -0.18270820167E+03 -0.58913204342E+02  0.33126132256E+03  0.38286696962E+03  0.00000000000E+00 0. -1.
         22    1    3    3    0    0  0.14483239007E+03  0.13576767269E+03 -0.88589369064E+02  0.21738757663E+03  0.00000000000E+00 0. -1.
         22    1    3    3    0    0  0.12431306066E+03 -0.62716552837E+01 -0.75791025664E+02  0.14573040273E+03  0.00000000000E+00 0. -1.
</event>
<event>
 7    1  0.6078244E-006  0.8990754E+02  0.7818608E-02  0.1384612E+00
          2   -1    0    0  502    0  0.00000000000E+00  0.00000000000E+00  0.23974921155E+04  0.23974921155E+04  0.00000000000E+00 0. -1.
          1   -1    0    0  501    0 -0.00000000000E+00 -0.00000000000E+00 -0.10652121226E+03  0.10652121226E+03  0.00000000000E+00 0. -1.
         25    2    1    2    0    0 -0.13295912207E+03  0.11316070758E+02  0.10652540605E+03  0.21161044282E+03  0.12500054311E+03 0.  0.
          2    1    1    2  501    0  0.44520045180E+02  0.83648857272E-01 -0.43752969606E+02  0.62420860049E+02  0.00000000000E+00 0. -1.
          1    1    1    2  502    0  0.88439076890E+02 -0.11399719616E+02  0.22281984668E+04  0.22299820249E+04  0.00000000000E+00 0. -1.
         22    1    3    3    0    0 -0.17998210108E+02  0.47156617993E+02 -0.54129352508E+00  0.50477472068E+02  0.00000000000E+00 0.  1.
         22    1    3    3    0    0 -0.11496091196E+03 -0.35840547235E+02  0.10706669957E+03  0.16113297075E+03  0.00000000000E+00 0.  1.
</event>
<event>
 7    1  0.6078244E-006  0.3793284E+02  0.7818608E-02  0.1524226E+00
          2   -1    0    0  502    0  0.00000000000E+00  0.00000000000E+00  0.33875215595E+03  0.33875215595E+03  0.00000000000E+00 0. -1.
          1   -1    0    0  501    0 -0.00000000000E+00 -0.00000000000E+00 -0.82231801186E+03  0.82231801186E+03  0.00000000000E+00 0. -1.
         25    2    1    2    0    0 -0.38843952134E+02 -0.24663113731E+01  0.17810034440E+02  0.13212254021E+03  0.12499693194E+03 0.  0.
          2    1    1    2  501    0  0.21652163043E+02 -0.31282782110E+02 -0.76332596696E+03  0.76427348538E+03  0.00000000000E+00 0. -1.
          1    1    1    2  502    0  0.17191789091E+02  0.33749093484E+02  0.26195007661E+03  0.26467414222E+03  0.00000000000E+00 0. -1.
         22    1    3    3    0    0  0.28145358329E+02  0.17413987061E+02  0.46087877514E+02  0.56740643234E+02  0.00000000000E+00 0. -1.
         22    1    3    3    0    0 -0.66989310463E+02 -0.19880298434E+02 -0.28277843074E+02  0.75381896972E+02  0.00000000000E+00 0. -1.
</event>
<event>
 7    1  0.6078244E-006  0.6878085E+02  0.7818608E-02  0.1393497E+00
          2   -1    0    0  502    0  0.00000000000E+00  0.00000000000E+00  0.27794708764E+04  0.27794708764E+04  0.00000000000E+00 0. -1.
          1   -1    0    0  501    0 -0.00000000000E+00 -0.00000000000E+00 -0.15331206483E+03  0.15331206483E+03  0.00000000000E+00 0. -1.
         25    2    1    2    0    0  0.62980332396E+01 -0.27879101477E+02  0.18232899826E+03  0.22290234556E+03  0.12499873011E+03 0.  0.
          2    1    1    2  501    0  0.36733575001E+02  0.60799174212E+02 -0.12323617132E+03  0.14224292263E+03  0.00000000000E+00 0. -1.
          1    1    1    2  502    0 -0.43031608241E+02 -0.32920072735E+02  0.25670659847E+04  0.25676376731E+04  0.00000000000E+00 0. -1.
         22    1    3    3    0    0 -0.55171399658E+02 -0.35269262237E+02  0.10635158618E+03  0.12489381123E+03  0.00000000000E+00 0.  1.
         22    1    3    3    0    0  0.61469432898E+02  0.73901607602E+01  0.75977412078E+02  0.98008534337E+02  0.00000000000E+00 0.  1.
</event>
<event>
 7    1  0.6078244E-006  0.8880392E+02  0.7818608E-02  0.1374561E+00
          2   -1    0    0  502    0  0.00000000000E+00  0.00000000000E+00  0.10168322841E+04  0.10168322841E+04  0.00000000000E+00 0. -1.
          1   -1    0    0  501    0 -0.00000000000E+00 -0.00000000000E+00 -0.56201901345E+03  0.56201901345E+03  0.00000000000E+00 0. -1.
         25    2    1    2    0    0 -0.10808720706E+03  0.40123034650E+02  0.55794946679E+03  0.58328828218E+03  0.12499964158E+03 0.  0.
          2    1    1    2  501    0  0.46599490145E+02  0.14907993348E+02 -0.54442824097E+03  0.54662223730E+03  0.00000000000E+00 0. -1.
          1    1    1    2  502    0  0.61487716917E+02 -0.55031027998E+02  0.44129204483E+03  0.44894077806E+03  0.00000000000E+00 0. -1.
         22    1    3    3    0    0 -0.20406932327E+02  0.70843985620E+02  0.19030792770E+03  0.20408924649E+03  0.00000000000E+00 0.  1.
         22    1    3    3    0    0 -0.87680274735E+02 -0.30720950970E+02  0.36764153909E+03  0.37919903569E+03  0.00000000000E+00 0.  1.
</event>
<event>
 7    1  0.6078244E-006  0.1185936E+03  0.7818608E-02  0.1381869E+00
          2   -1    0    0  502    0  0.00000000000E+00  0.00000000000E+00  0.13093389805E+03  0.13093389805E+03  0.00000000000E+00 0. -1.
          1   -1    0    0  501    0 -0.00000000000E+00 -0.00000000000E+00 -0.13673999312E+04  0.13673999312E+04  0.00000000000E+00 0. -1.
         25    2    1    2    0    0 -0.20378557797E+02 -0.91120936119E+02 -0.45564133083E+03  0.48162268608E+03  0.12503231089E+03 0.  0.
          2    1    1    2  501    0 -0.29047705941E+02 -0.18634852839E+02 -0.86762285641E+03  0.86830895880E+03  0.00000000000E+00 0. -1.
          1    1    1    2  502    0  0.49426263738E+02  0.10975578896E+03  0.86798154127E+02  0.14840218434E+03  0.00000000000E+00 0. -1.
         22    1    3    3    0    0 -0.72132107157E+02 -0.37786329553E+02 -0.25315259252E+03  0.26592683709E+03  0.00000000000E+00 0.  1.
         22    1    3    3    0    0  0.51753549360E+02 -0.53334606566E+02 -0.20248873831E+03  0.21569584899E+03  0.00000000000E+00 0.  1.
</event>
<event>
 7    1  0.6078244E-006  0.1102731E+03  0.7818608E-02  0.1338676E+00
          2   -1    0    0  502    0  0.00000000000E+00  0.00000000000E+00  0.12668489763E+04  0.12668489763E+04  0.00000000000E+00 0. -1.
          1   -1    0    0  501    0 -0.00000000000E+00 -0.00000000000E+00 -0.14241267068E+04  0.14241267068E+04  0.00000000000E+00 0. -1.
         25    2    1    2    0    0 -0.12720634076E+02 -0.15991955669E+03 -0.21206072042E+03  0.29382048494E+03  0.12499859632E+03 0.  0.
          2    1    1    2  501    0  0.12188597482E+02  0.10656913641E+03 -0.11681472891E+04  0.11730616488E+04  0.00000000000E+00 0. -1.
          1    1    1    2  502    0  0.53203659372E+00  0.53350420282E+02  0.12229302790E+04  0.12240935494E+04  0.00000000000E+00 0. -1.
         22    1    3    3    0    0 -0.29562751078E+02 -0.13210972599E+03 -0.78778437485E+02  0.15663006788E+03  0.00000000000E+00 0.  1.
         22    1    3    3    0    0  0.16842117002E+02 -0.27809830702E+02 -0.13328228293E+03  0.13719041706E+03  0.00000000000E+00 0.  1.
</event>
<event>
 7    1  0.6078244E-006  0.6456029E+02  0.7818608E-02  0.1480435E+00
          2   -1    0    0  502    0  0.00000000000E+00  0.00000000000E+00  0.22018443193E+04  0.22018443193E+04  0.00000000000E+00 0. -1.
          1   -1    0    0  501    0 -0.00000000000E+00 -0.00000000000E+00 -0.21343872214E+03  0.21343872214E+03  0.00000000000E+00 0. -1.
         25    2    1    2    0    0  0.63522697920E+02 -0.11186086826E+02  0.81864443622E+03  0.83063844990E+03  0.12498503837E+03 0.  0.
          2    1    1    2  501    0 -0.51664022243E+02  0.38786369488E+02 -0.20224352305E+03  0.21231108371E+03  0.00000000000E+00 0. -1.
          1    1    1    2  502    0 -0.11858675676E+02 -0.27600282662E+02  0.13720046840E+04  0.13723335078E+04  0.00000000000E+00 0. -1.
         22    1    3    3    0    0  0.30198232834E+02 -0.47904911251E+02  0.69670349160E+03  0.69900112231E+03  0.00000000000E+00 0. -1.
         22    1    3    3    0    0  0.33324465085E+02  0.36718824425E+02  0.12194094462E+03  0.13163732759E+03  0.00000000000E+00 0. -1.
</event>
<event>
 7    1  0.6078244E-006  0.2263577E+03  0.7818608E-02  0.1298694E+00
          2   -1    0    0  502    0  0.00000000000E+00  0.00000000000E+00  0.23249263884E+04  0.23249263884E+04  0.00000000000E+00 0. -1.
          1   -1    0    0  501    0 -0.00000000000E+00 -0.00000000000E+00 -0.73703115021E+03  0.73703115021E+03  0.00000000000E+00 0. -1.
         25    2    1    2    0    0  0.14913199207E+03  0.18066186175E+03 -0.12080663580E+03  0.29171544788E+03  0.12499839970E+03 0.  0.
          2    1    1    2  501    0 -0.16841117162E+03 -0.14887027292E+03 -0.50680931599E+03  0.55441894237E+03  0.00000000000E+00 0. -1.
          1    1    1    2  502    0  0.19279179550E+02 -0.31791588838E+02  0.22155111900E+04  0.22158231484E+04  0.00000000000E+00 0. -1.
         22    1    3    3    0    0  0.13751057095E+02  0.10005118007E+03 -0.80311135940E+02  0.12903181298E+03  0.00000000000E+00 0. -1.
         22    1    3    3    0    0  0.13538093497E+03  0.80610681683E+02 -0.40495499858E+02  0.16268363490E+03  0.00000000000E+00 0. -1.
</event>
<event>
 7    1  0.6078244E-006  0.1016790E+03  0.7818608E-02  0.1404789E+00
          2   -1    0    0  502    0  0.00000000000E+00  0.00000000000E+00  0.92019853602E+03  0.92019853602E+03  0.00000000000E+00 0. -1.
          1   -1    0    0  501    0 -0.00000000000E+00 -0.00000000000E+00 -0.49978447224E+03  0.49978447224E+03  0.00000000000E+00 0. -1.
         25    2    1    2    0    0 -0.12880492820E+03  0.84214167640E+00 -0.39732687599E+02  0.18383057847E+03  0.12499430542E+03 0.  0.
          2    1    1    2  501    0  0.29277433558E+02  0.16304697335E+02 -0.38426454478E+03  0.38572302452E+03  0.00000000000E+00 0. -1.
          1    1    1    2  502    0  0.99527494642E+02 -0.17146839012E+02  0.84441129616E+03  0.85042940527E+03  0.00000000000E+00 0. -1.
         22    1    3    3    0    0 -0.58608662077E+02  0.57384246082E+02  0.69593559602E+01  0.82318646759E+02  0.00000000000E+00 0.  1.
         22    1    3    3    0    0 -0.70196266123E+02 -0.56542104406E+02 -0.46692043559E+02  0.10151193171E+03  0.00000000000E+00 0.  1.
</event>
<event>
 7    1  0.6078244E-006  0.5296966E+02  0.7818608E-02  0.1456144E+00
          2   -1    0    0  502    0  0.00000000000E+00  0.00000000000E+00  0.21275432944E+04  0.21275432944E+04  0.00000000000E+00 0. -1.
          1   -1    0    0  501    0 -0.00000000000E+00 -0.00000000000E+00 -0.50157491835E+02  0.50157491835E+02  0.00000000000E+00 0. -1.
         25    2    1    2    0    0 -0.72236759558E+02  0.12056726535E+02  0.62837939693E+03  0.64486462140E+03  0.12500479731E+03 0.  0.
          2    1    1    2  501    0  0.36975272970E+02 -0.37683227622E+02 -0.24839709620E+02  0.58345587916E+02  0.00000000000E+00 0. -1.
          1    1    1    2  502    0  0.35261486587E+02  0.25626501087E+02  0.14738461153E+04  0.14744905770E+04  0.00000000000E+00 0. -1.
         22    1    3    3    0    0 -0.10277735384E+03 -0.13990218766E+02  0.41690744576E+03  0.42961695615E+03  0.00000000000E+00 0.  1.
         22    1    3    3    0    0  0.30540594287E+02  0.26046945301E+02  0.21147195118E+03  0.21524766524E+03  0.00000000000E+00 0.  1.
</event>
<event>
 7    1  0.6078244E-006  0.2715778E+02  0.7818608E-02  0.1639875E+00
          2   -1    0    0  502    0  0.00000000000E+00  0.00000000000E+00  0.49371711783E+02  0.49371711783E+02  0.00000000000E+00 0. -1.
          1   -1    0    0  501    0 -0.00000000000E+00 -0.00000000000E+00 -0.14451301030E+04  0.14451301030E+04  0.00000000000E+00 0. -1.
         25    2    1    2    0    0 -0.37532021019E+02  0.17239149518E+02 -0.28430616818E+03  0.31330736893E+03  0.12500267711E+03 0.  0.
          2    1    1    2  501    0  0.11183263397E+02 -0.23392238003E+02 -0.11409050411E+04  0.11411996210E+04  0.00000000000E+00 0. -1.
          1    1    1    2  502    0  0.26348757622E+02  0.61530884845E+01  0.29452818035E+02  0.39994824869E+02  0.00000000000E+00 0. -1.
         22    1    3    3    0    0 -0.82578758110E+02  0.21076482627E+02 -0.16474842505E+03  0.18548723128E+03  0.00000000000E+00 0.  1.
         22    1    3    3    0    0  0.45046737092E+02 -0.38373331089E+01 -0.11955774313E+03  0.12782013765E+03  0.00000000000E+00 0.  1.
</event>
<event>
 7    1  0.6078244E-006  0.2252367E+03  0.7818608E-02  0.1170131E+00
          2   -1    0    0  502    0  0.00000000000E+00  0.00000000000E+00  0.42932530924E+03  0.42932530924E+03  0.00000000000E+00 0. -1.
          1   -1    0    0  501    0 -0.00000000000E+00 -0.00000000000E+00 -0.66922748024E+03  0.66922748024E+03  0.00000000000E+00 0. -1.
         25    2    1    2    0    0 -0.19045577970E+03  0.14059055786E+03 -0.16588538975E+03  0.31493211633E+03  0.12500066552E+03 0.  0.
          2    1    1    2  501    0  0.23311774307E+03 -0.71839769734E+01 -0.38070359221E+03  0.44646468705E+03  0.00000000000E+00 0. -1.
          1    1    1    2  502    0 -0.42661963364E+02 -0.13340658089E+03  0.30668681096E+03  0.33715598610E+03  0.00000000000E+00 0. -1.
         22    1    3    3    0    0 -0.11583050176E+03  0.25666866029E+02 -0.30929389449E+02  0.12260554752E+03  0.00000000000E+00 0.  1.
         22    1    3    3    0    0 -0.74625277937E+02  0.11492369183E+03 -0.13495600030E+03  0.19232656881E+03  0.00000000000E+00 0.  1.
</event>
<event>
 7    1  0.6379434E-006  0.7128651E+02  0.7818608E-02  0.1390008E+00
          2   -1    0    0  502    0  0.00000000000E+00  0.00000000000E+00  0.22115024084E+04  0.22115024084E+04  0.00000000000E+00 0. -1.
          1   -1    0    0  501    0 -0.00000000000E+00 -0.00000000000E+00 -0.39193861309E+03  0.39193861309E+03  0.00000000000E+00 0. -1.
         25    2    1    2    0    0  0.17425699567E+02  0.36219668087E+02 -0.55452460477E+02  0.14254074184E+03  0.12500947304E+03 0.  0.
          2    1    1    2  501    0 -0.70563759702E+02 -0.28082132499E+02 -0.28768003749E+03  0.29753597148E+03  0.00000000000E+00 0. -1.
          1    1    1    2  502    0  0.53138060134E+02 -0.81375355880E+01  0.21626962932E+04  0.21633643081E+04  0.00000000000E+00 0. -1.
         22    1    3    3    0    0  0.57696105743E+02  0.20869319611E+02  0.11979671108E+02  0.62513051747E+02  0.00000000000E+00 0.  1.
         22    1    3    3    0    0 -0.40270406176E+02  0.15350348476E+02 -0.67432131585E+02  0.80027690095E+02  0.00000000000E+00 0.  1.
</event>
<event>
 7    1  0.6078244E-006  0.5855501E+02  0.7818608E-02  0.1409974E+00
          2   -1    0    0  502    0  0.00000000000E+00  0.00000000000E+00  0.34695543983E+04  0.34695543983E+04  0.00000000000E+00 0. -1.
          1   -1    0    0  501    0 -0.00000000000E+00 -0.00000000000E+00 -0.93317533397E+02  0.93317533397E+02  0.00000000000E+00 0. -1.
         25    2    1    2    0    0 -0.54559853461E+02  0.57574315881E+02  0.29819592828E+03  0.33292337957E+03  0.12500234224E+03 0.  0.
          2    1    1    2  501    0 -0.13067485657E+01 -0.58586727906E+02 -0.64365068215E+02  0.87045817159E+02  0.00000000000E+00 0. -1.
          1    1    1    2  502    0  0.55866602027E+02  0.10124120250E+01  0.31424060049E+04  0.31429027350E+04  0.00000000000E+00 0. -1.
         22    1    3    3    0    0  0.19892166323E+02  0.64852343606E+02  0.18684357445E+03  0.19877637200E+03  0.00000000000E+00 0.  1.
         22    1    3    3    0    0 -0.74452019784E+02 -0.72780277256E+01  0.11135235382E+03  0.13414700757E+03  0.00000000000E+00 0.  1.
</event>
<event>
 7    1  0.6078244E-006  0.8849875E+02  0.7818608E-02  0.1322395E+00
          2   -1    0    0  502    0  0.00000000000E+00  0.00000000000E+00  0.55681915555E+03  0.55681915555E+03  0.00000000000E+00 0. -1.
          1   -1    0    0  501    0 -0.00000000000E+00 -0.00000000000E+00 -0.33612845427E+03  0.33612845427E+03  0.00000000000E+00 0. -1.
         25    2    1    2    0    0  0.28171332740E+02 -0.18946260493E-01 -0.11694224812E+03  0.17346741826E+03  0.12498732518E+03 0.  0.
          2    1    1    2  501    0 -0.76586766008E+02 -0.74061916990E+02 -0.17194391565E+03  0.20227558034E+03  0.00000000000E+00 0. -1.
          1    1    1    2  502    0  0.48415433268E+02  0.74080863250E+02  0.50957686504E+03  0.51720461122E+03  0.00000000000E+00 0. -1.
         22    1    3    3    0    0  0.49986590286E+02 -0.21513215093E+02 -0.12942140497E+03  0.14039721399E+03  0.00000000000E+00 0.  1.
         22    1    3    3    0    0 -0.21815257546E+02  0.21494268832E+02  0.12479156855E+02  0.33070204266E+02  0.00000000000E+00 0.  1.
</event>
<event>
 7    1  0.6078244E-006  0.9597973E+02  0.7818608E-02  0.1426727E+00
          2   -1    0    0  502    0  0.00000000000E+00  0.00000000000E+00  0.36937828174E+03  0.36937828174E+03  0.00000000000E+00 0. -1.
          1   -1    0    0  501    0 -0.00000000000E+00 -0.00000000000E+00 -0.15222462237E+03  0.15222462237E+03  0.00000000000E+00 0. -1.
         25    2    1    2    0    0  0.75564846330E+02  0.77741173824E+00  0.18407243587E+03  0.23498607292E+03  0.12500056981E+03 0.  0.
          2    1    1    2  501    0 -0.95643693678E+02  0.21456296336E+02 -0.10598296765E+03  0.14436231581E+03  0.00000000000E+00 0. -1.
          1    1    1    2  502    0  0.20078847348E+02 -0.22233708074E+02  0.13906419115E+03  0.14225451538E+03  0.00000000000E+00 0. -1.
         22    1    3    3    0    0  0.50648478378E+02 -0.59680683595E+02  0.12115432939E+03  0.14424085373E+03  0.00000000000E+00 0. -1.
         22    1    3    3    0    0  0.24916367951E+02  0.60458095333E+02  0.62918106478E+02  0.90745219191E+02  0.00000000000E+00 0. -1.
</event>
<event>
 7    1  0.6078244E-006  0.1613003E+03  0.7818608E-02  0.1224799E+00
          2   -1    0    0  502    0  0.00000000000E+00  0.00000000000E+00  0.69363823396E+03  0.69363823396E+03  0.00000000000E+00 0. -1.
          1   -1    0    0  501    0 -0.00000000000E+00 -0.00000000000E+00 -0.47696776333E+03  0.47696776333E+03  0.00000000000E+00 0. -1.
         25    2    1    2    0    0  0.52307326752E+02 -0.17209382691E+03 -0.15045590553E+03  0.26573281818E+03  0.12499843781E+03 0.  0.
          2    1    1    2  501    0  0.77366701393E+02  0.74933382450E+02 -0.24714249072E+03  0.26959233856E+03  0.00000000000E+00 0. -1.
          1    1    1    2  502    0 -0.12967402814E+03  0.97160444463E+02  0.61426886689E+03  0.63528084055E+03  0.00000000000E+00 0. -1.
         22    1    3    3    0    0 -0.30545580242E+02 -0.14730454684E+02 -0.53049400260E+02  0.62962350937E+02  0.00000000000E+00 0.  1.
         22    1    3    3    0    0  0.82852906994E+02 -0.15736337223E+03 -0.97406505266E+02  0.20277046724E+03  0.00000000000E+00 0.  1.
</event>
<event>
 7    1  0.6078244E-006  0.1053366E+03  0.7818608E-02  0.1285102E+00
          2   -1    0    0  502    0  0.00000000000E+00  0.00000000000E+00  0.95923667814E+03  0.95923667814E+03  0.00000000000E+00 0. -1.
          1   -1    0    0  501    0 -0.00000000000E+00 -0.00000000000E+00 -0.15523266059E+04  0.15523266059E+04  0.00000000000E+00 0. -1.
         25    2    1    2    0    0  0.10543472197E+03 -0.16082678149E+03 -0.21987431893E+03  0.31772755338E+03  0.12499739119E+03 0.  0.
          2    1    1    2  501    0 -0.52552434640E+02  0.87129191449E+02 -0.12792408800E+04  0.12832811397E+04  0.00000000000E+00 0. -1.
          1    1    1    2  502    0 -0.52882287331E+02  0.73697590042E+02  0.90602527119E+03  0.91055459097E+03  0.00000000000E+00 0. -1.
         22    1    3    3    0    0  0.95647626254E+00 -0.11354085786E+03 -0.12517714960E+03  0.16900224860E+03  0.00000000000E+00 0. -1.
         22    1    3    3    0    0  0.10447824571E+03 -0.47285923628E+02 -0.94697169338E+02  0.14872530478E+03  0.00000000000E+00 0. -1.
</event>
<event>
 7    1  0.6078244E-006  0.1770618E+03  0.7818608E-02  0.1232605E+00
          2   -1    0    0  502    0  0.00000000000E+00  0.00000000000E+00  0.12574746513E+04  0.12574746513E+04  0.00000000000E+00 0. -1.
          1   -1    0    0  501    0 -0.00000000000E+00 -0.00000000000E+00 -0.31471104622E+03  0.31471104622E+03  0.00000000000E+00 0. -1.
         25    2    1    2    0    0 -0.60256229083E+02  0.24554288480E+03  0.37202684268E+03  0.46685114203E+03  0.12499558281E+03 0.  0.
          2    1    1    2  501    0  0.68515425409E+01 -0.90245867015E+02 -0.25127572818E+03  0.26707817529E+03  0.00000000000E+00 0. -1.
          1    1    1    2  502    0  0.53404686542E+02 -0.15529701778E+03  0.82201249054E+03  0.83825638016E+03  0.00000000000E+00 0. -1.
         22    1    3    3    0    0 -0.99467974836E+01  0.13636891518E+03  0.99843458049E+02  0.16930486089E+03  0.00000000000E+00 0. -1.
         22    1    3    3    0    0 -0.50309431599E+02  0.10917396962E+03  0.27218338463E+03  0.29754628114E+03  0.00000000000E+00 0. -1.
</event>
<event>
 7    1  0.6078244E-006  0.1677780E+03  0.7818608E-02  0.1211282E+00
          2   -1    0    0  502    0  0.00000000000E+00  0.00000000000E+00  0.16651816961E+04  0.16651816961E+04  0.00000000000E+00 0. -1.
          1   -1    0    0  501    0 -0.00000000000E+00 -0.00000000000E+00 -0.15587279584E+04  0.15587279584E+04  0.00000000000E+00 0. -1.
         25    2    1    2    0    0 -0.26357289348E+03  0.66700924458E+02  0.27575493721E+03  0.40692273500E+03  0.12500257344E+03 0.  0.
          2    1    1    2  501    0  0.14511427492E+03 -0.81605300829E+02 -0.14857934583E+04  0.14950918964E+04  0.00000000000E+00 0. -1.
          1    1    1    2  502    0  0.11845861856E+03  0.14904376372E+02  0.13164922588E+04  0.13218950231E+04  0.00000000000E+00 0. -1.
         22    1    3    3    0    0 -0.58680675931E+02 -0.29103281253E+02  0.10403818442E+03  0.12294049994E+03  0.00000000000E+00 0. -1.
         22    1    3    3    0    0 -0.20489221755E+03  0.95804205711E+02  0.17171675278E+03  0.28398223507E+03  0.00000000000E+00 0. -1.
</event>
<event>
 7    1  0.6078244E-006  0.2612764E+02  0.7818608E-02  0.1660985E+00
          2   -1    0    0  502    0  0.00000000000E+00  0.00000000000E+00  0.16479457973E+04  0.16479457973E+04  0.00000000000E+00 0. -1.
          1   -1    0    0  501    0 -0.00000000000E+00 -0.00000000000E+00 -0.13705477647E+04  0.13705477647E+04  0.00000000000E+00 0. -1.
         25    2    1    2    0    0 -0.50123786703E+01 -0.77452498413E+01  0.19728469440E+03  0.23373387036E+03  0.12500063469E+03 0.  0.
          2    1    1    2  501    0  0.19059008981E+02 -0.14459609986E+02 -0.13520968665E+04  0.13523084939E+04  0.00000000000E+00 0. -1.
          1    1    1    2  502    0 -0.14046630311E+02  0.22204859827E+02  0.14322102047E+04  0.14324511978E+04  0.00000000000E+00 0. -1.
         22    1    3    3    0    0 -0.44105618456E+01 -0.28915727689E+02  0.20796660793E+03  0.21001352903E+03  0.00000000000E+00 0. -1.
         22    1    3    3    0    0 -0.60181682474E+00  0.21170477847E+02 -0.10681913532E+02  0.23720341323E+02  0.00000000000E+00 0. -1.
</event>
<event>
 7    1  0.6078244E-006  0.1622331E+03  0.7818608E-02  0.1231448E+00
          2   -1    0    0  502    0  0.00000000000E+00  0.00000000000E+00  0.32563832408E+04  0.32563832408E+04  0.00000000000E+00 0. -1.
          1   -1    0    0  501    0 -0.00000000000E+00 -0.00000000000E+00 -0.21670257447E+02  0.21670257447E+02  0.00000000000E+00 0. -1.
         25    2    1    2    0    0  0.76831271216E+02  0.14840796675E+03  0.16845886833E+04  0.16974657234E+04  0.12499152483E+03 0.  0.
          2    1    1    2  501    0 -0.97429898614E+02  0.22349326309E+02  0.25172234796E+03  0.27084353046E+03  0.00000000000E+00 0. -1.
          1    1    1    2  502    0  0.20598627398E+02 -0.17075729305E+03  0.12984019520E+04  0.13097442443E+04  0.00000000000E+00 0. -1.
         22    1    3    3    0    0  0.86773715944E+01  0.91188161842E+02  0.12767333644E+04  0.12800151020E+04  0.00000000000E+00 0.  1.
         22    1    3    3    0    0  0.68153899621E+02  0.57219804903E+02  0.40785531897E+03  0.41745062142E+03  0.00000000000E+00 0.  1.
</event>
<event>
 7    1  0.6078244E-006  0.1579850E+03  0.7818608E-02  0.1251550E+00
          2   -1    0    0  502    0  0.00000000000E+00  0.00000000000E+00  0.37824479073E+03  0.37824479073E+03  0.00000000000E+00 0. -1.
          1   -1    0    0  501    0 -0.00000000000E+00 -0.00000000000E+00 -0.32424859863E+04  0.32424859863E+04  0.00000000000E+00 0. -1.
         25    2    1    2    0    0 -0.44892070491E+02 -0.17672721936E+03 -0.86513753470E+02  0.23739768575E+03  0.12500089441E+03 0.  0.
          2    1    1    2  501    0 -0.59327106283E+02  0.59094362258E+02 -0.30595266840E+04  0.30606723738E+04  0.00000000000E+00 0. -1.
          1    1    1    2  502    0  0.10421917677E+03  0.11763285710E+03  0.28179924193E+03  0.32266071752E+03  0.00000000000E+00 0. -1.
         22    1    3    3    0    0 -0.78684676254E+02 -0.13374150615E+03 -0.95180546535E+02  0.18203682370E+03  0.00000000000E+00 0. -1.
         22    1    3    3    0    0  0.33792605763E+02 -0.42985713208E+02  0.86667930651E+01  0.55360862044E+02  0.00000000000E+00 0. -1.
</event>
<event>
 7    1  0.6078244E-006  0.5272983E+02  0.7818608E-02  0.1477989E+00
          2   -1    0    0  502    0  0.00000000000E+00  0.00000000000E+00  0.49758851862E+03  0.49758851862E+03  0.00000000000E+00 0. -1.
          1   -1    0    0  501    0 -0.00000000000E+00 -0.00000000000E+00 -0.93098940560E+03  0.93098940560E+03  0.00000000000E+00 0. -1.
         25    2    1    2    0    0  0.72768633024E+02  0.36005037804E+02 -0.12851511346E+03  0.19680754719E+03  0.12500175816E+03 0.  0.
          2    1    1    2  501    0 -0.37320444484E+02  0.27463441250E+01 -0.76638216102E+03  0.76729523308E+03  0.00000000000E+00 0. -1.
          1    1    1    2  502    0 -0.35448188539E+02 -0.38751381929E+02  0.46149638750E+03  0.46447514395E+03  0.00000000000E+00 0. -1.
         22    1    3    3    0    0 -0.17906120898E+02 -0.29358011644E+02 -0.15064686060E+02  0.37542865892E+02  0.00000000000E+00 0.  1.
         22    1    3    3    0    0  0.90674753922E+02  0.65363049448E+02 -0.11345042740E+03  0.15926468130E+03  0.00000000000E+00 0.  1.
</event>
<event>
 7    1  0.6078244E-006  0.1963311E+03  0.7818608E-02  0.1371197E+00
          2   -1    0    0  502    0  0.00000000000E+00  0.00000000000E+00  0.13942374059E+04  0.13942374059E+04  0.00000000000E+00 0. -1.
          1   -1    0    0  501    0 -0.00000000000E+00 -0.00000000000E+00 -0.56907383665E+03  0.56907383665E+03  0.00000000000E+00 0. -1.
         25    2    1    2    0    0  0.53320115700E+01 -0.21419849791E+03 -0.86929153858E+02  0.26285283784E+03  0.12500203884E+03 0.  0.
          2    1    1    2  501    0  0.11943582908E+02  0.19365491263E+02 -0.38652440185E+03  0.38719347185E+03  0.00000000000E+00 0. -1.
          1    1    1    2  502    0 -0.17275594478E+02  0.19483300665E+03  0.12986171250E+04  0.13132649329E+04  0.00000000000E+00 0. -1.
         22    1    3    3    0    0 -0.31597239711E+02 -0.83265590077E+02 -0.90219563029E+02  0.12677189594E+03  0.00000000000E+00 0. -1.
         22    1    3    3    0    0  0.36929251281E+02 -0.13093290783E+03  0.32904091708E+01  0.13608094189E+03  0.00000000000E+00 0. -1.
</event>
<event>
 7    1  0.6078244E-006  0.8552138E+02  0.7818608E-02  0.1324008E+00
          2   -1    0    0  502    0  0.00000000000E+00  0.00000000000E+00  0.18323144307E+04  0.18323144307E+04  0.00000000000E+00 0. -1.
          1   -1    0    0  501    0 -0.00000000000E+00 -0.00000000000E+00 -0.93537105566E+02  0.93537105566E+02  0.00000000000E+00 0. -1.
         25    2    1    2    0    0  0.90157137019E+01  0.73102847502E+01  0.45678984906E+03  0.47373377881E+03  0.12502801136E+03 0.  0.
          2    1    1    2  501    0 -0.82383028963E+02 -0.34513903147E+02 -0.60160016948E+02  0.10769122810E+03  0.00000000000E+00 0. -1.
          1    1    1    2  502    0  0.73367315261E+02  0.27203618397E+02  0.13421474930E+04  0.13444265293E+04  0.00000000000E+00 0. -1.
         22    1    3    3    0    0  0.12220016811E+02  0.40392838047E+02  0.42706057413E+03  0.42914058786E+03  0.00000000000E+00 0. -1.
         22    1    3    3    0    0 -0.32043031090E+01 -0.33082553296E+02  0.29729274936E+02  0.44593190951E+02  0.00000000000E+00 0. -1.
</event>
<event>
 7    1  0.6078244E-006  0.1344728E+03  0.7818608E-02  0.1286647E+00
          2   -1    0    0  502    0  0.00000000000E+00  0.00000000000E+00  0.29606522823E+04  0.29606522823E+04  0.00000000000E+00 0. -1.
          1   -1    0    0  501    0 -0.00000000000E+00 -0.00000000000E+00 -0.60884636025E+03  0.60884636025E+03  0.00000000000E+00 0. -1.
         25    2    1    2    0    0 -0.11925500394E+03 -0.15266062230E+02 -0.21924408792E+03  0.27954946826E+03  0.12500050598E+03 0.  0.
          2    1    1    2  501    0  0.11932355656E+03  0.85292922622E+02 -0.34404911455E+03  0.37400907345E+03  0.00000000000E+00 0. -1.
          1    1    1    2  502    0 -0.68552615951E-01 -0.70026860393E+02  0.29150991246E+04  0.29159401009E+04  0.00000000000E+00 0. -1.
         22    1    3    3    0    0 -0.12418293069E+03 -0.53002418342E+02 -0.17822487198E+03  0.22359508406E+03  0.00000000000E+00 0. -1.
         22    1    3    3    0    0  0.49279267472E+01  0.37736356113E+02 -0.41019215944E+02  0.55954384201E+02  0.00000000000E+00 0. -1.
</event>
<event>
 7    1  0.6078244E-006  0.8022614E+02  0.7818608E-02  0.1432057E+00
          2   -1    0    0  502    0  0.00000000000E+00  0.00000000000E+00  0.73528611624E+03  0.73528611624E+03  0.00000000000E+00 0. -1.
          1   -1    0    0  501    0 -0.00000000000E+00 -0.00000000000E+00 -0.81218398216E+03  0.81218398216E+03  0.00000000000E+00 0. -1.
         25    2    1    2    0    0  0.11587611870E+02 -0.95739823139E+02 -0.20855552745E+03  0.26157461301E+03  0.12500193461E+03 0.  0.
          2    1    1    2  501    0  0.24483389325E+02  0.24193913363E+02 -0.57433756796E+03  0.57536807677E+03  0.00000000000E+00 0. -1.
          1    1    1    2  502    0 -0.36071001195E+02  0.71545909776E+02  0.70599522949E+03  0.71052740862E+03  0.00000000000E+00 0. -1.
         22    1    3    3    0    0 -0.63285219462E+01 -0.12327501027E+03 -0.14833688348E+03  0.19297826133E+03  0.00000000000E+00 0.  1.
         22    1    3    3    0    0  0.17916133816E+02  0.27535187131E+02 -0.60218643974E+02  0.68596351676E+02  0.00000000000E+00 0.  1.
</event>
<event>
 7    1  0.6078244E-006  0.1046696E+03  0.7818608E-02  0.1387638E+00
          2   -1    0    0  502    0  0.00000000000E+00  0.00000000000E+00  0.12026903900E+03  0.12026903900E+03  0.00000000000E+00 0. -1.
          1   -1    0    0  501    0 -0.00000000000E+00 -0.00000000000E+00 -0.70307343634E+03  0.70307343634E+03  0.00000000000E+00 0. -1.
         25    2    1    2    0    0  0.65449590552E+02  0.10900325043E+03 -0.34986023418E+03  0.39267191104E+03  0.12499475489E+03 0.  0.
          2    1    1    2  501    0 -0.32109023228E+02 -0.92240561739E+02 -0.32073566532E+03  0.33527701623E+03  0.00000000000E+00 0. -1.
          1    1    1    2  502    0 -0.33340567324E+02 -0.16762688691E+02  0.87791502160E+02  0.95393548069E+02  0.00000000000E+00 0. -1.
         22    1    3    3    0    0  0.25875714250E+02  0.38953173994E+02 -0.28642204846E+03  0.29021456235E+03  0.00000000000E+00 0.  1.
         22    1    3    3    0    0  0.39573876302E+02  0.70050076436E+02 -0.63438185721E+02  0.10245734870E+03  0.00000000000E+00 0.  1.
</event>
<event>
 7    1  0.6078244E-006  0.1635325E+03  0.7818608E-02  0.1256651E+00
          2   -1    0    0  502    0  0.00000000000E+00  0.00000000000E+00  0.53920494215E+03  0.53920494215E+03  0.00000000000E+00 0. -1.
          1   -1    0    0  501    0 -0.00000000000E+00 -0.00000000000E+00 -0.10768696648E+04  0.10768696648E+04  0.00000000000E+00 0. -1.
         25    2    1    2    0    0  0.31000560289E+01  0.19852969582E+03 -0.74637718523E+01  0.23474285364E+03  0.12499939590E+03 0.  0.
          2    1    1    2  501    0  0.57794060875E+02 -0.15156125199E+03 -0.94532706177E+03  0.95914244004E+03  0.00000000000E+00 0. -1.
          1    1    1    2  502    0 -0.60894116904E+02 -0.46968443830E+02  0.41512611100E+03  0.42218931325E+03  0.00000000000E+00 0. -1.
         22    1    3    3    0    0 -0.33778010866E+01  0.18013063353E+03 -0.50826765231E+02  0.18719459057E+03  0.00000000000E+00 0.  1.
         22    1    3    3    0    0  0.64778571156E+01  0.18399062290E+02  0.43362993379E+02  0.47548263068E+02  0.00000000000E+00 0.  1.
</event>
<event>
 7    1  0.6078244E-006  0.1237554E+03  0.7818608E-02  0.1376144E+00
          2   -1    0    0  502    0  0.00000000000E+00  0.00000000000E+00  0.13764671668E+03  0.13764671668E+03  0.00000000000E+00 0. -1.
          1   -1    0    0  501    0 -0.00000000000E+00 -0.00000000000E+00 -0.73491260724E+03  0.73491260724E+03  0.00000000000E+00 0. -1.
         25    2    1    2    0    0 -0.79900580955E+02 -0.11474776260E+03 -0.44921496173E+03  0.48679597874E+03  0.12500036489E+03 0.  0.
          2    1    1    2  501    0  0.34651231587E+02  0.49195578736E+00 -0.23351791488E+03  0.23607534060E+03  0.00000000000E+00 0. -1.
          1    1    1    2  502    0  0.45249349367E+02  0.11425580681E+03  0.85466986044E+02  0.14968800457E+03  0.00000000000E+00 0. -1.
         22    1    3    3    0    0 -0.22077632607E+02 -0.10057545405E+03 -0.38789575282E+03  0.40133023668E+03  0.00000000000E+00 0.  1.
         22    1    3    3    0    0 -0.57822948348E+02 -0.14172308555E+02 -0.61319208909E+02  0.85465742064E+02  0.00000000000E+00 0.  1.
</event>
<event>
 7    1  0.6078244E-006  0.5426258E+02  0.7818608E-02  0.1459651E+00
          2   -1    0    0  502    0  0.00000000000E+00  0.00000000000E+00  0.27104466304E+04  0.27104466304E+04  0.00000000000E+00 0. -1.
          1   -1    0    0  501    0 -0.00000000000E+00 -0.00000000000E+00 -0.38879958583E+02  0.38879958583E+02  0.00000000000E+00 0. -1.
         25    2    1    2    0    0 -0.35029732676E+02 -0.81584726930E+02  0.15685619897E+04  0.15760372463E+04  0.12499414593E+03 0.  0.
          2    1    1    2  501    0  0.43328031595E+01  0.53690209575E+02 -0.13888338853E+02  0.55626412283E+02  0.00000000000E+00 0. -1.
          1    1    1    2  502    0  0.30696929517E+02  0.27894517355E+02  0.11168930210E+04  0.11176629304E+04  0.00000000000E+00 0. -1.
         22    1    3    3    0    0 -0.53697503721E+02 -0.63757228599E+02  0.15067231826E+04  0.15090272215E+04  0.00000000000E+00 0. -1.
         22    1    3    3    0    0  0.18667771044E+02 -0.17827498332E+02  0.61838807020E+02  0.67010024819E+02  0.00000000000E+00 0. -1.
</event>
<event>
 7    1  0.6078244E-006  0.8794345E+02  0.7818608E-02  0.1358713E+00
          2   -1    0    0  502    0  0.00000000000E+00  0.00000000000E+00  0.15823624493E+04  0.15823624493E+04  0.00000000000E+00 0. -1.
          1   -1    0    0  501    0 -0.00000000000E+00 -0.00000000000E+00 -0.68649196452E+02  0.68649196452E+02  0.00000000000E+00 0. -1.
         25    2    1    2    0    0 -0.98513618423E+02  0.17988749431E+01  0.16982118082E+03  0.23274972680E+03  0.12500013161E+03 0.  0.
          2    1    1    2  501    0  0.74017700683E+02  0.48968633998E+02  0.17235064931E+02  0.90407934348E+02  0.00000000000E+00 0. -1.
          1    1    1    2  502    0  0.24495917740E+02 -0.50767508941E+02  0.13266570071E+04  0.13278539846E+04  0.00000000000E+00 0. -1.
         22    1    3    3    0    0 -0.10322485737E+03  0.29160635288E+02  0.67516727066E+02  0.12674471296E+03  0.00000000000E+00 0. -1.
         22    1    3    3    0    0  0.47112389441E+01 -0.27361760345E+02  0.10230445375E+03  0.10600501384E+03  0.00000000000E+00 0. -1.
</event>
<event>
 7    1  0.6078244E-006  0.2304423E+03  0.7818608E-02  0.1218609E+00
          2   -1    0    0  502    0  0.00000000000E+00  0.00000000000E+00  0.12987930162E+04  0.12987930162E+04  0.00000000000E+00 0. -1.
          1   -1    0    0  501    0 -0.00000000000E+00 -0.00000000000E+00 -0.71189922858E+03  0.71189922858E+03  0.00000000000E+00 0. -1.
         25    2    1    2    0    0 -0.23095959574E+03 -0.19337156130E+03  0.46226142941E+02  0.32938888512E+03  0.12500114307E+03 0.  0.
          2    1    1    2  501    0  0.73348383602E+02  0.33018246564E+02 -0.55601800173E+03  0.56180620166E+03  0.00000000000E+00 0. -1.
          1    1    1    2  502    0  0.15761121214E+03  0.16035331474E+03  0.10966856464E+04  0.11194971580E+04  0.00000000000E+00 0. -1.
         22    1    3    3    0    0 -0.83006671835E+02 -0.14660211491E+01  0.18420919439E+01  0.83040051119E+02  0.00000000000E+00 0.  1.
         22    1    3    3    0    0 -0.14795292391E+03 -0.19190554015E+03  0.44384050997E+02  0.24634883401E+03  0.00000000000E+00 0.  1.
</event>
<event>
 7    1  0.6078244E-006  0.6123599E+02  0.7818608E-02  0.1498293E+00
          2   -1    0    0  502    0  0.00000000000E+00  0.00000000000E+00  0.38182103921E+03  0.38182103921E+03  0.00000000000E+00 0. -1.
          1   -1    0    0  501    0 -0.00000000000E+00 -0.00000000000E+00 -0.32053369920E+03  0.32053369920E+03  0.00000000000E+00 0. -1.
         25    2    1    2    0    0 -0.40051247803E+02 -0.56323355571E+02  0.82411129552E+02  0.16490229437E+03  0.12499899833E+03 0.  0.
          2    1    1    2  501    0  0.52556265295E+02  0.31312565670E+02 -0.27516156026E+03  0.28188033283E+03  0.00000000000E+00 0. -1.
          1    1    1    2  502    0 -0.12505017492E+02  0.25010789901E+02  0.25403777072E+03  0.25557211121E+03  0.00000000000E+00 0. -1.
         22    1    3    3    0    0 -0.71747931993E+02 -0.46400186944E+02  0.96440769451E+02  0.12884706091E+03  0.00000000000E+00 0. -1.
         22    1    3    3    0    0  0.31696684190E+02 -0.99231686273E+01 -0.14029639899E+02  0.36055233461E+02  0.00000000000E+00 0. -1.
</event>
<event>
 7    1  0.6078244E-006  0.4928167E+02  0.7818608E-02  0.1474402E+00
          2   -1    0    0  502    0  0.00000000000E+00  0.00000000000E+00  0.52294798896E+03  0.52294798896E+03  0.00000000000E+00 0. -1.
          1   -1    0    0  501    0 -0.00000000000E+00 -0.00000000000E+00 -0.76847005208E+03  0.76847005208E+03  0.00000000000E+00 0. -1.
         25    2    1    2    0    0  0.67565592369E+00 -0.25878427130E+02  0.89067941708E+02  0.15569713174E+03  0.12505338496E+03 0.  0.
          2    1    1    2  501    0 -0.41741201534E+02  0.26641838951E+02 -0.73326531977E+03  0.73493546973E+03  0.00000000000E+00 0. -1.
          1    1    1    2  502    0  0.41065545611E+02 -0.76341182062E+00  0.39867531494E+03  0.40078543958E+03  0.00000000000E+00 0. -1.
         22    1    3    3    0    0  0.31231278964E+01  0.17530263556E+02 -0.26666798534E+02  0.32065280480E+02  0.00000000000E+00 0.  1.
         22    1    3    3    0    0 -0.24474719727E+01 -0.43408690686E+02  0.11573474024E+03  0.12363185126E+03  0.00000000000E+00 0.  1.
</event>
<event>
 7    1  0.6078244E-006  0.8159009E+02  0.7818608E-02  0.1372478E+00
          2   -1    0    0  502    0  0.00000000000E+00  0.00000000000E+00  0.15121154874E+02  0.15121154874E+02  0.00000000000E+00 0. -1.
          1   -1    0    0  501    0 -0.00000000000E+00 -0.00000000000E+00 -0.27612819166E+04  0.27612819166E+04  0.00000000000E+00 0. -1.
         25    2    1    2    0    0  0.80560236141E+01 -0.33598887136E+02 -0.13241571245E+04  0.13304927054E+04  0.12499985618E+03 0.  0.
          2    1    1    2  501    0 -0.45199561138E+01 -0.53984417564E+02 -0.12644887879E+04  0.12656487040E+04  0.00000000000E+00 0. -1.
          1    1    1    2  502    0 -0.35360675003E+01  0.87583304700E+02 -0.15751484935E+03  0.18026166204E+03  0.00000000000E+00 0. -1.
         22    1    3    3    0    0 -0.14980558867E+02 -0.18725221244E+02 -0.12656643981E+04  0.12658915513E+04  0.00000000000E+00 0. -1.
         22    1    3    3    0    0  0.23036582481E+02 -0.14873665892E+02 -0.58492726415E+02  0.64601154114E+02  0.00000000000E+00 0. -1.
</event>
<event>
 7    1  0.6078244E-006  0.1930202E+03  0.7818608E-02  0.1350799E+00
          2   -1    0    0  502    0  0.00000000000E+00  0.00000000000E+00  0.78586645117E+03  0.78586645117E+03  0.00000000000E+00 0. -1.
          1   -1    0    0  501    0 -0.00000000000E+00 -0.00000000000E+00 -0.68161108613E+03  0.68161108613E+03  0.00000000000E+00 0. -1.
         25    2    1    2    0    0  0.16315999622E+02 -0.16696461283E+03  0.19435062260E+03  0.28555474420E+03  0.12500381453E+03 0.  0.
          2    1    1    2  501    0 -0.12648529098E+02  0.19418163400E+03 -0.62076121612E+03  0.65054667758E+03  0.00000000000E+00 0. -1.
          1    1    1    2  502    0 -0.36674705241E+01 -0.27217021170E+02  0.53066595856E+03  0.53137611553E+03  0.00000000000E+00 0. -1.
         22    1    3    3    0    0 -0.52360532730E+02 -0.44511009457E+02  0.67856353469E+02  0.96578155174E+02  0.00000000000E+00 0.  1.
         22    1    3    3    0    0  0.68676532352E+02 -0.12245360338E+03  0.12649426913E+03  0.18897658902E+03  0.00000000000E+00 0.  1.
</event>
<event>
 7    1  0.6078244E-006  0.1487888E+03  0.7818608E-02  0.1324758E+00
          2   -1    0    0  502    0  0.00000000000E+00  0.00000000000E+00  0.14143008039E+04  0.14143008039E+04  0.00000000000E+00 0. -1.
          1   -1    0    0  501    0 -0.00000000000E+00 -0.00000000000E+00 -0.16754548911E+04  0.16754548911E+04  0.00000000000E+00 0. -1.
         25    2    1    2    0    0 -0.13494383736E+03  0.17647915576E+02  0.26456849651E+03  0.32271191697E+03  0.12500081535E+03 0.  0.
          2    1    1    2  501    0  0.13534415173E+03 -0.62323798810E+02 -0.16425642535E+04  0.16493088317E+04  0.00000000000E+00 0. -1.
          1    1    1    2  502    0 -0.40031437451E+00  0.44675883234E+02  0.11168416698E+04  0.11177349463E+04  0.00000000000E+00 0. -1.
         22    1    3    3    0    0 -0.57105886061E+01  0.23461222714E+02  0.14354954230E+03  0.14556617357E+03  0.00000000000E+00 0. -1.
         22    1    3    3    0    0 -0.12923324875E+03 -0.58133071383E+01  0.12101895421E+03  0.17714574339E+03  0.00000000000E+00 0. -1.
</event>
<event>
 7    1  0.6078244E-006  0.7329811E+02  0.7818608E-02  0.1357490E+00
          2   -1    0    0  502    0  0.00000000000E+00  0.00000000000E+00  0.14177083382E+04  0.14177083382E+04  0.00000000000E+00 0. -1.
          1   -1    0    0  501    0 -0.00000000000E+00 -0.00000000000E+00 -0.11961371907E+03  0.11961371907E+03  0.00000000000E+00 0. -1.
         25    2    1    2    0    0  0.17200150239E+02 -0.74043074890E+02  0.61455867698E+03  0.63173145839E+03  0.12499618379E+03 0.  0.
          2    1    1    2  501    0 -0.68143891764E+02  0.28502575269E+02 -0.97082197816E+02  0.12198745802E+03  0.00000000000E+00 0. -1.
          1    1    1    2  502    0  0.50943741525E+02  0.45540499620E+02  0.78061813995E+03  0.78360314083E+03  0.00000000000E+00 0. -1.
         22    1    3    3    0    0  0.44506641187E+02  0.14030730513E+02  0.31084947388E+03  0.31433278213E+03  0.00000000000E+00 0.  1.
         22    1    3    3    0    0 -0.27306490949E+02 -0.88073805403E+02  0.30370920310E+03  0.31739867626E+03  0.00000000000E+00 0.  1.
</event>
<event>
 7    1  0.6078244E-006  0.1219516E+03  0.7818608E-02  0.1269845E+00
          2   -1    0    0  502    0  0.00000000000E+00  0.00000000000E+00  0.13666371537E+03  0.13666371537E+03  0.00000000000E+00 0. -1.
          1   -1    0    0  501    0 -0.00000000000E+00 -0.00000000000E+00 -0.43091530220E+03  0.43091530220E+03  0.00000000000E+00 0. -1.
         25    2    1    2    0    0  0.69549564894E+02  0.81960715111E+02  0.85943559078E+01  0.16508627343E+03  0.12499965569E+03 0.  0.
          2    1    1    2  501    0 -0.27743561099E+02  0.86295486311E+02 -0.12172753402E+03  0.15177024965E+03  0.00000000000E+00 0. -1.
          1    1    1    2  502    0 -0.41806003795E+02 -0.16825620142E+03 -0.18111840872E+03  0.25072249450E+03  0.00000000000E+00 0. -1.
         22    1    3    3    0    0  0.24554999502E+02  0.52354781627E+02  0.65064793295E+02  0.87048253781E+02  0.00000000000E+00 0. -1.
         22    1    3    3    0    0  0.44994565392E+02  0.29605933484E+02 -0.56470437388E+02  0.78038019651E+02  0.00000000000E+00 0. -1.
</event>
<event>
 7    1  0.6078244E-006  0.1379036E+03  0.7818608E-02  0.1314921E+00
          2   -1    0    0  502    0  0.00000000000E+00  0.00000000000E+00  0.20944218198E+04  0.20944218198E+04  0.00000000000E+00 0. -1.
          1   -1    0    0  501    0 -0.00000000000E+00 -0.00000000000E+00 -0.22542311236E+04  0.22542311236E+04  0.00000000000E+00 0. -1.
         25    2    1    2    0    0 -0.44615091417E+02 -0.17947656206E+03  0.74236466647E+03  0.77519960531E+03  0.12500714917E+03 0.  0.
          2    1    1    2  501    0  0.52403835413E+02  0.12742253057E+03 -0.22351731345E+04  0.22394154605E+04  0.00000000000E+00 0. -1.
          1    1    1    2  502    0 -0.77887439965E+01  0.52054031485E+02  0.13329991643E+04  0.13340378775E+04  0.00000000000E+00 0. -1.
         22    1    3    3    0    0 -0.41986738645E+02  0.13971119876E+01  0.12429386973E+03  0.13120138793E+03  0.00000000000E+00 0.  1.
         22    1    3    3    0    0 -0.26283527722E+01 -0.18087367405E+03  0.61807079675E+03  0.64399821738E+03  0.00000000000E+00 0.  1.
</event>
<event>
 7    1  0.6078244E-006  0.6088513E+02  0.7818608E-02  0.1415007E+00
          2   -1    0    0  502    0  0.00000000000E+00  0.00000000000E+00  0.21543704540E+03  0.21543704540E+03  0.00000000000E+00 0. -1.
          1   -1    0    0  501    0 -0.00000000000E+00 -0.00000000000E+00 -0.70213157405E+03  0.70213157405E+03  0.00000000000E+00 0. -1.
         25    2    1    2    0    0 -0.30888505733E+02  0.31697321997E+02  0.13423249228E+03  0.18868626659E+03  0.12500130082E+03 0.  0.
          2    1    1    2  501    0 -0.38282127326E+02 -0.47344253309E+02 -0.64955615390E+03  0.65240340025E+03  0.00000000000E+00 0. -1.
          1    1    1    2  502    0  0.69170633059E+02  0.15646931312E+02  0.28629132971E+02  0.76478952608E+02  0.00000000000E+00 0. -1.
         22    1    3    3    0    0  0.46276939801E+02 -0.32799601991E+01  0.34434881900E+02  0.57776071065E+02  0.00000000000E+00 0.  1.
         22    1    3    3    0    0 -0.77165445535E+02  0.34977282196E+02  0.99797610384E+02  0.13091019553E+03  0.00000000000E+00 0.  1.
</event>
<event>
 7    1  0.6078244E-006  0.5608312E+02  0.7818608E-02  0.1416164E+00
          2   -1    0    0  502    0  0.00000000000E+00  0.00000000000E+00  0.38345322904E+03  0.38345322904E+03  0.00000000000E+00 0. -1.
          1   -1    0    0  501    0 -0.00000000000E+00 -0.00000000000E+00 -0.14768888461E+03  0.14768888461E+03  0.00000000000E+00 0. -1.
         25    2    1    2    0    0 -0.20539518767E+02  0.43898629596E+02 -0.55963567906E+01  0.13418189400E+03  0.12499799981E+03 0.  0.
          2    1    1    2  501    0 -0.36769032060E+02 -0.41705437531E+02 -0.64852135673E+02  0.85423092543E+02  0.00000000000E+00 0. -1.
          1    1    1    2  502    0  0.57308550827E+02 -0.21931920652E+01  0.30621283689E+03  0.31153712711E+03  0.00000000000E+00 0. -1.
         22    1    3    3    0    0  0.91988531425E+01  0.83538715901E+02 -0.89186991254E+01  0.84515555655E+02  0.00000000000E+00 0.  1.
         22    1    3    3    0    0 -0.29738371909E+02 -0.39640086305E+02  0.33223423348E+01  0.49666338346E+02  0.00000000000E+00 0.  1.
</event>
<event>
 7    1  0.6078244E-006  0.1928564E+03  0.7818608E-02  0.1300026E+00
          2   -1    0    0  502    0  0.00000000000E+00  0.00000000000E+00  0.20576224777E+04  0.20576224777E+04  0.00000000000E+00 0. -1.
          1   -1    0    0  501    0 -0.00000000000E+00 -0.00000000000E+00 -0.35676645611E+03  0.35676645611E+03  0.00000000000E+00 0. -1.
         25    2    1    2    0    0  0.10445045944E+03  0.20152606428E+03  0.41174118368E+03  0.48649492826E+03  0.12499543917E+03 0.  0.
          2    1    1    2  501    0 -0.33058547522E+02 -0.27663510127E+02 -0.31241427282E+03  0.31537408774E+03  0.00000000000E+00 0. -1.
          1    1    1    2  502    0 -0.71391911922E+02 -0.17386255416E+03  0.16015291107E+04  0.16125199178E+04  0.00000000000E+00 0. -1.
         22    1    3    3    0    0  0.10239657860E+03  0.85250290211E+02  0.15340053097E+03  0.20318561512E+03  0.00000000000E+00 0. -1.
         22    1    3    3    0    0  0.20538808415E+01  0.11627577407E+03  0.25834065272E+03  0.28330931314E+03  0.00000000000E+00 0. -1.
</event>
<event>
 7    1  0.6078244E-006  0.9435616E+02  0.7818608E-02  0.1410319E+00
          2   -1    0    0  502    0  0.00000000000E+00  0.00000000000E+00  0.32723582979E+02  0.32723582979E+02  0.00000000000E+00 0. -1.
          1   -1    0    0  501    0 -0.00000000000E+00 -0.00000000000E+00 -0.21893362581E+04  0.21893362581E+04  0.00000000000E+00 0. -1.
         25    2    1    2    0    0  0.34864316697E+02  0.11802430056E+03 -0.96191604659E+03  0.97777925831E+03  0.12499816479E+03 0.  0.
          2    1    1    2  501    0 -0.25098997954E+02 -0.84849817801E+02 -0.12049626060E+04  0.12082070738E+04  0.00000000000E+00 0. -1.
          1    1    1    2  502    0 -0.97653187424E+01 -0.33174482754E+02  0.10265977477E+02  0.36073508974E+02  0.00000000000E+00 0. -1.
         22    1    3    3    0    0  0.91824494957E+01  0.11081508974E+02 -0.58418131059E+03  0.58435855505E+03  0.00000000000E+00 0.  1.
         22    1    3    3    0    0  0.25681867201E+02  0.10694279158E+03 -0.37773473600E+03  0.39342070326E+03  0.00000000000E+00 0.  1.
</event>
<event>
 7    1  0.6078244E-006  0.2851464E+02  0.7818608E-02  0.1666786E+00
          2   -1    0    0  502    0  0.00000000000E+00  0.00000000000E+00  0.29078054145E+02  0.29078054145E+02  0.00000000000E+00 0. -1.
          1   -1    0    0  501    0 -0.00000000000E+00 -0.00000000000E+00 -0.25702774136E+04  0.25702774136E+04  0.00000000000E+00 0. -1.
         25    2    1    2    0    0 -0.48221535807E+02  0.23328858294E+01 -0.16611356404E+04  0.16665317518E+04  0.12500282133E+03 0.  0.
          2    1    1    2  501    0  0.20688932495E+02  0.47449449193E+01 -0.89862319033E+03  0.89887384244E+03  0.00000000000E+00 0. -1.
          1    1    1    2  502    0  0.27532603312E+02 -0.70778307487E+01  0.18559471258E+02  0.33949873440E+02  0.00000000000E+00 0. -1.
         22    1    3    3    0    0 -0.36727548087E+02  0.60426703468E+02 -0.11026698037E+04  0.11049348376E+04  0.00000000000E+00 0.  1.
         22    1    3    3    0    0 -0.11493987720E+02 -0.58093817639E+02 -0.55846583662E+03  0.56159691423E+03  0.00000000000E+00 0.  1.
</event>
<event>
 7    1  0.6078244E-006  0.8869708E+02  0.7818608E-02  0.1320196E+00
          2   -1    0    0  502    0  0.00000000000E+00  0.00000000000E+00  0.12318341811E+03  0.12318341811E+03  0.00000000000E+00 0. -1.
          1   -1    0    0  501    0 -0.00000000000E+00 -0.00000000000E+00 -0.33723552407E+03  0.33723552407E+03  0.00000000000E+00 0. -1.
         25    2    1    2    0    0 -0.40391573538E+01  0.13642726660E+03 -0.74842562049E+02  0.19963644040E+03  0.12499834150E+03 0.  0.
          2    1    1    2  501    0 -0.38655887917E+02 -0.67807138680E+02 -0.15939713417E+03  0.17748107535E+03  0.00000000000E+00 0. -1.
          1    1    1    2  502    0  0.42695045270E+02 -0.68620127916E+02  0.20187590253E+02  0.83301426435E+02  0.00000000000E+00 0. -1.
         22    1    3    3    0    0  0.31968354873E+02 -0.80073569836E+01 -0.28954461524E+02  0.43868602911E+02  0.00000000000E+00 0. -1.
         22    1    3    3    0    0 -0.36007512227E+02  0.14443462358E+03 -0.45888100525E+02  0.15576783749E+03  0.00000000000E+00 0. -1.
</event>
<event>
 7    1  0.6078244E-006  0.6809088E+02  0.7818608E-02  0.1374779E+00
          2   -1    0    0  502    0  0.00000000000E+00  0.00000000000E+00  0.11328946086E+04  0.11328946086E+04  0.00000000000E+00 0. -1.
          1   -1    0    0  501    0 -0.00000000000E+00 -0.00000000000E+00 -0.18520335585E+03  0.18520335585E+03  0.00000000000E+00 0. -1.
         25    2    1    2    0    0 -0.97910084287E+01  0.90157515377E+02  0.15835913113E+03  0.22118656999E+03  0.12498657090E+03 0.  0.
          2    1    1    2  501    0  0.52783519162E+02 -0.43160306588E+02 -0.14509453049E+03  0.16031635830E+03  0.00000000000E+00 0. -1.
          1    1    1    2  502    0 -0.42992510733E+02 -0.46997208789E+02  0.93442665207E+03  0.93659503614E+03  0.00000000000E+00 0. -1.
         22    1    3    3    0    0 -0.46180321328E+02 -0.10278456284E+02  0.54926295974E+02  0.72492528795E+02  0.00000000000E+00 0.  1.
         22    1    3    3    0    0  0.36389312900E+02  0.10043597166E+03  0.10343283516E+03  0.14869404119E+03  0.00000000000E+00 0.  1.
</event>
<event>
 7    1  0.6078244E-006  0.4894359E+02  0.7818608E-02  0.1556677E+00
          2   -1    0    0  502    0  0.00000000000E+00  0.00000000000E+00  0.99507664875E+03  0.99507664875E+03  0.00000000000E+00 0. -1.
          1   -1    0    0  501    0 -0.00000000000E+00 -0.00000000000E+00 -0.37053057487E+02  0.37053057487E+02  0.00000000000E+00 0. -1.
         25    2    1    2    0    0 -0.56090956910E+01 -0.56766265657E+02  0.49875503872E+03  0.51733540440E+03  0.12500184448E+03 0.  0.
          2    1    1    2  501    0  0.21140413095E+02  0.10862492906E+02 -0.21223613075E+02  0.31864597438E+02  0.00000000000E+00 0. -1.
          1    1    1    2  502    0 -0.15531317404E+02  0.45903772751E+02  0.48049216562E+03  0.48292970440E+03  0.00000000000E+00 0. -1.
         22    1    3    3    0    0  0.12554254913E+01  0.27294054286E+02  0.30241966054E+03  0.30365143269E+03  0.00000000000E+00 0. -1.
         22    1    3    3    0    0 -0.68645211823E+01 -0.84060319943E+02  0.19633537818E+03  0.21368397171E+03  0.00000000000E+00 0. -1.
</event>
<event>
 7    1  0.6078244E-006  0.5924061E+02  0.7818608E-02  0.1428213E+00
          2   -1    0    0  502    0  0.00000000000E+00  0.00000000000E+00  0.46083462460E+03  0.46083462460E+03  0.00000000000E+00 0. -1.
          1   -1    0    0  501    0 -0.00000000000E+00 -0.00000000000E+00 -0.21598906436E+03  0.21598906436E+03  0.00000000000E+00 0. -1.
         25    2    1    2    0    0  0.66363092209E+02 -0.25042134914E+02  0.46408207129E+02  0.15103103877E+03  0.12500193780E+03 0.  0.
          2    1    1    2  501    0 -0.55456553738E+02 -0.21693833358E+02 -0.15659298528E+03  0.16753332444E+03  0.00000000000E+00 0. -1.
          1    1    1    2  502    0 -0.10906538471E+02  0.46735968272E+02  0.35503033839E+03  0.35825932575E+03  0.00000000000E+00 0. -1.
         22    1    3    3    0    0  0.19198810724E+02  0.46182562620E+02  0.42306348163E+02  0.65507637098E+02  0.00000000000E+00 0.  1.
         22    1    3    3    0    0  0.47164281485E+02 -0.71224697534E+02  0.41018589669E+01  0.85523401673E+02  0.00000000000E+00 0.  1.
</event>
<event>
 7    1  0.6078244E-006  0.7187107E+02  0.7818608E-02  0.1388084E+00
          2   -1    0    0  502    0  0.00000000000E+00  0.00000000000E+00  0.21324324757E+03  0.21324324757E+03  0.00000000000E+00 0. -1.
          1   -1    0    0  501    0 -0.00000000000E+00 -0.00000000000E+00 -0.65830342213E+03  0.65830342213E+03  0.00000000000E+00 0. -1.
         25    2    1    2    0    0  0.68875549838E+02 -0.60831001210E+02 -0.15280248985E+03  0.21775711149E+03  0.12500122651E+03 0.  0.
          2    1    1    2  501    0 -0.15477818998E+02  0.69840562538E+02 -0.46617752444E+03  0.47163412869E+03  0.00000000000E+00 0. -1.
          1    1    1    2  502    0 -0.53397730840E+02 -0.90095613279E+01  0.17391983973E+03  0.18215542952E+03  0.00000000000E+00 0. -1.
         22    1    3    3    0    0  0.91307250685E+01 -0.41567134733E+02  0.96149932924E+01  0.43630779573E+02  0.00000000000E+00 0. -1.
         22    1    3    3    0    0  0.59744824769E+02 -0.19263866477E+02 -0.16241748314E+03  0.17412633192E+03  0.00000000000E+00 0. -1.
</event>
<event>
 7    1  0.6078244E-006  0.8155132E+02  0.7818608E-02  0.1438557E+00
          2   -1    0    0  502    0  0.00000000000E+00  0.00000000000E+00  0.12312065690E+04  0.12312065690E+04  0.00000000000E+00 0. -1.
          1   -1    0    0  501    0 -0.00000000000E+00 -0.00000000000E+00 -0.46722524382E+03  0.46722524382E+03  0.00000000000E+00 0. -1.
         25    2    1    2    0    0  0.26858736600E+02 -0.83845016271E+02  0.79585389245E+03  0.81040743443E+03  0.12500165265E+03 0.  0.
          2    1    1    2  501    0 -0.51591446093E+02  0.63155711266E+02 -0.45571654019E+03  0.46295559850E+03  0.00000000000E+00 0. -1.
          1    1    1    2  502    0  0.24732709493E+02  0.20689305004E+02  0.42384397291E+03  0.42506877989E+03  0.00000000000E+00 0. -1.
         22    1    3    3    0    0  0.39594370152E+02  0.22469877070E+02  0.21506235027E+03  0.21982816932E+03  0.00000000000E+00 0. -1.
         22    1    3    3    0    0 -0.12735633552E+02 -0.10631489334E+03  0.58079154217E+03  0.59057926510E+03  0.00000000000E+00 0. -1.
</event>
<event>
 7    1  0.6078244E-006  0.1255548E+03  0.7818608E-02  0.1321494E+00
          2   -1    0    0  502    0  0.00000000000E+00  0.00000000000E+00  0.29885340075E+03  0.29885340075E+03  0.00000000000E+00 0. -1.
          1   -1    0    0  501    0 -0.00000000000E+00 -0.00000000000E+00 -0.74285844669E+03  0.74285844669E+03  0.00000000000E+00 0. -1.
         25    2    1    2    0    0 -0.12374052843E+03  0.33722373913E+02 -0.22334874446E+03  0.28628680412E+03  0.12500622258E+03 0.  0.
          2    1    1    2  501    0 -0.58422454208E+00 -0.54501099885E+02 -0.47152772838E+03  0.47466736757E+03  0.00000000000E+00 0. -1.
          1    1    1    2  502    0  0.12432475297E+03  0.20778725972E+02  0.25087142690E+03  0.28075767575E+03  0.00000000000E+00 0. -1.
         22    1    3    3    0    0 -0.72373450413E+02 -0.40252239197E+02 -0.14468567310E+03  0.16670963705E+03  0.00000000000E+00 0.  1.
         22    1    3    3    0    0 -0.51367078012E+02  0.73974613110E+02 -0.78663071358E+02  0.11957716707E+03  0.00000000000E+00 0.  1.
</event>
<event>
 7    1  0.6078244E-006  0.6292968E+02  0.7818608E-02  0.1404268E+00
          2   -1    0    0  502    0  0.00000000000E+00  0.00000000000E+00  0.19735967302E+04  0.19735967302E+04  0.00000000000E+00 0. -1.
          1   -1    0    0  501    0 -0.00000000000E+00 -0.00000000000E+00 -0.84893396163E+02  0.84893396163E+02  0.00000000000E+00 0. -1.
         25    2    1    2    0    0 -0.10669178231E+02  0.25080159646E+02  0.14013478238E+03  0.18975113954E+03  0.12499956780E+03 0.  0.
          2    1    1    2  501    0  0.64886974090E+02 -0.21034756426E+02 -0.40179096470E+02  0.79165271285E+02  0.00000000000E+00 0. -1.
          1    1    1    2  502    0 -0.54217795859E+02 -0.40454032198E+01  0.17887476481E+04  0.17895737155E+04  0.00000000000E+00 0. -1.
         22    1    3    3    0    0 -0.19165038743E+02 -0.47781647230E+02  0.78828478258E+02  0.94150483305E+02  0.00000000000E+00 0. -1.
         22    1    3    3    0    0  0.84958605113E+01  0.72861806876E+02  0.61306304126E+02  0.95600656236E+02  0.00000000000E+00 0. -1.
</event>
<event>
 7    1  0.6078244E-006  0.7912141E+02  0.7818608E-02  0.1397116E+00
          2   -1    0    0  502    0  0.00000000000E+00  0.00000000000E+00  0.10236636757E+04  0.10236636757E+04  0.00000000000E+00 0. -1.
          1   -1    0    0  501    0 -0.00000000000E+00 -0.00000000000E+00 -0.19264928950E+03  0.19264928950E+03  0.00000000000E+00 0. -1.
         25    2    1    2    0    0 -0.65456630032E+01  0.86943447649E+02  0.24780410419E+03  0.29091914887E+03  0.12500027333E+03 0.  0.
          2    1    1    2  501    0 -0.36170546267E+02 -0.70535519559E+02 -0.16116976164E+03  0.17960863009E+03  0.00000000000E+00 0. -1.
          1    1    1    2  502    0  0.42716209270E+02 -0.16407928089E+02  0.74438004366E+03  0.74578518626E+03  0.00000000000E+00 0. -1.
         22    1    3    3    0    0 -0.33465642739E+02  0.10829803821E+03  0.21677186261E+03  0.24461899915E+03  0.00000000000E+00 0. -1.
         22    1    3    3    0    0  0.26919979736E+02 -0.21354590563E+02  0.31032241586E+02  0.46300149730E+02  0.00000000000E+00 0. -1.
</event>
<event>
 7    1  0.6078244E-006  0.1126582E+03  0.7818608E-02  0.1332348E+00
          2   -1    0    0  502    0  0.00000000000E+00  0.00000000000E+00  0.32071178995E+03  0.32071178995E+03  0.00000000000E+00 0. -1.
          1   -1    0    0  501    0 -0.00000000000E+00 -0.00000000000E+00 -0.74231525350E+03  0.74231525350E+03  0.00000000000E+00 0. -1.
         25    2    1    2    0    0  0.10424620212E+03  0.87182610841E+02  0.11148428186E+03  0.21568910435E+03  0.12499986538E+03 0.  0.
          2    1    1    2  501    0 -0.21468537635E+01 -0.55145077655E+02 -0.67072816675E+03  0.67299469704E+03  0.00000000000E+00 0. -1.
          1    1    1    2  502    0 -0.10209934836E+03 -0.32037533186E+02  0.13764042133E+03  0.17434324206E+03  0.00000000000E+00 0. -1.
         22    1    3    3    0    0  0.87712110601E+01  0.74999113876E+02  0.89245584582E+02  0.11690412992E+03  0.00000000000E+00 0. -1.
         22    1    3    3    0    0  0.95474991060E+02  0.12183496964E+02  0.22238697276E+02  0.98784974428E+02  0.00000000000E+00 0. -1.
</event>
<event>
 7    1  0.6078244E-006  0.5029167E+02  0.7818608E-02  0.1460611E+00
          2   -1    0    0  502    0  0.00000000000E+00  0.00000000000E+00  0.69932826257E+02  0.69932826257E+02  0.00000000000E+00 0. -1.
          1   -1    0    0  501    0 -0.00000000000E+00 -0.00000000000E+00 -0.15772495853E+04  0.15772495853E+04  0.00000000000E+00 0. -1.
         25    2    1    2    0    0  0.53072471228E+01 -0.11248925022E+02 -0.70836357955E+03  0.71941500508E+03  0.12499713407E+03 0.  0.
          2    1    1    2  501    0 -0.17619560716E+02  0.53951235551E+02 -0.85463897798E+03  0.85652143430E+03  0.00000000000E+00 0. -1.
          1    1    1    2  502    0  0.12312313593E+02 -0.42702310529E+02  0.55685798513E+02  0.71245972142E+02  0.00000000000E+00 0. -1.
         22    1    3    3    0    0 -0.26650361256E+02  0.48367138922E+02 -0.39441771278E+03  0.39826492946E+03  0.00000000000E+00 0.  1.
         22    1    3    3    0    0  0.31957608378E+02 -0.59616063945E+02 -0.31394586676E+03  0.32115007562E+03  0.00000000000E+00 0.  1.
</event>
<event>
 7    1  0.6078244E-006  0.6515426E+02  0.7818608E-02  0.1382575E+00
          2   -1    0    0  502    0  0.00000000000E+00  0.00000000000E+00  0.95122127618E+03  0.95122127618E+03  0.00000000000E+00 0. -1.
          1   -1    0    0  501    0 -0.00000000000E+00 -0.00000000000E+00 -0.20382060175E+03  0.20382060175E+03  0.00000000000E+00 0. -1.
         25    2    1    2    0    0 -0.27827990372E+02  0.86927496029E+02  0.16479492423E+03  0.22608251023E+03  0.12500059105E+03 0.  0.
          2    1    1    2  501    0 -0.27929304157E+02 -0.58783086465E+02 -0.16571513117E+03  0.17803651868E+03  0.00000000000E+00 0. -1.
          1    1    1    2  502    0  0.55757294528E+02 -0.28144409564E+02  0.74832088137E+03  0.75092284902E+03  0.00000000000E+00 0. -1.
         22    1    3    3    0    0  0.10805681279E+02  0.44654184532E+02  0.16239038067E+03  0.16876431695E+03  0.00000000000E+00 0. -1.
         22    1    3    3    0    0 -0.38633671651E+02  0.42273311497E+02  0.24045435667E+01  0.57318193271E+02  0.00000000000E+00 0. -1.
</event>
<event>
 7    1  0.6078244E-006  0.6369500E+02  0.7818608E-02  0.1400581E+00
          2   -1    0    0  502    0  0.00000000000E+00  0.00000000000E+00  0.36219110493E+04  0.36219110493E+04  0.00000000000E+00 0. -1.
          1   -1    0    0  501    0 -0.00000000000E+00 -0.00000000000E+00 -0.28442780274E+04  0.28442780274E+04  0.00000000000E+00 0. -1.
         25    2    1    2    0    0  0.11799204607E+03 -0.15245561306E+02  0.10268061529E+04  0.10412061412E+04  0.12499921154E+03 0.  0.
          2    1    1    2  501    0 -0.63087705461E+02  0.86348639342E+01 -0.28364252360E+04  0.28371398871E+04  0.00000000000E+00 0. -1.
          1    1    1    2  502    0 -0.54904340606E+02  0.66106973714E+01  0.25872521051E+04  0.25878430484E+04  0.00000000000E+00 0. -1.
         22    1    3    3    0    0  0.16948739980E+02  0.47588399010E+02  0.40295990691E+03  0.40611402596E+03  0.00000000000E+00 0. -1.
         22    1    3    3    0    0  0.10104330609E+03 -0.62833960315E+02  0.62384624595E+03  0.63509211526E+03  0.00000000000E+00 0. -1.
</event>
<event>
 7    1  0.6078244E-006  0.6838665E+02  0.7818608E-02  0.1413532E+00
          2   -1    0    0  502    0  0.00000000000E+00  0.00000000000E+00  0.20527054015E+04  0.20527054015E+04  0.00000000000E+00 0. -1.
          1   -1    0    0  501    0 -0.00000000000E+00 -0.00000000000E+00 -0.64452102828E+03  0.64452102828E+03  0.00000000000E+00 0. -1.
         25    2    1    2    0    0 -0.23116469084E+02  0.71354108309E+02  0.19030325440E+03  0.23972002150E+03  0.12499832063E+03 0.  0.
          2    1    1    2  501    0 -0.33377578134E+02 -0.32427515060E+02 -0.61829762260E+03  0.62004641485E+03  0.00000000000E+00 0. -1.
          1    1    1    2  502    0  0.56494047218E+02 -0.38926593249E+02  0.18361787414E+04  0.18374599934E+04  0.00000000000E+00 0. -1.
         22    1    3    3    0    0  0.11777218837E+02  0.48179549557E+02  0.19149595713E+03  0.19781474534E+03  0.00000000000E+00 0.  1.
         22    1    3    3    0    0 -0.34893687921E+02  0.23174558752E+02 -0.11927027305E+01  0.41905276158E+02  0.00000000000E+00 0.  1.
</event>
<event>
 7    1  0.6078244E-006  0.3276641E+02  0.7818608E-02  0.1601326E+00
          2   -1    0    0  502    0  0.00000000000E+00  0.00000000000E+00  0.17596782257E+04  0.17596782257E+04  0.00000000000E+00 0. -1.
          1   -1    0    0  501    0 -0.00000000000E+00 -0.00000000000E+00 -0.59883644424E+03  0.59883644424E+03  0.00000000000E+00 0. -1.
         25    2    1    2    0    0  0.16723521974E+02 -0.53518986448E+02  0.12552606288E+03  0.18581165630E+03  0.12500088422E+03 0.  0.
          2    1    1    2  501    0  0.21218729004E+01  0.26853431942E+02 -0.56820836308E+03  0.56884651096E+03  0.00000000000E+00 0. -1.
          1    1    1    2  502    0 -0.18845394875E+02  0.26665554505E+02  0.16035240817E+04  0.16038565027E+04  0.00000000000E+00 0. -1.
         22    1    3    3    0    0  0.61639536039E+02 -0.12471646128E+02  0.23730097102E+02  0.67216752888E+02  0.00000000000E+00 0. -1.
         22    1    3    3    0    0 -0.44916014065E+02 -0.41047340320E+02  0.10179596577E+03  0.11859490341E+03  0.00000000000E+00 0. -1.
</event>
<event>
 7    1  0.6078244E-006  0.3067981E+02  0.7818608E-02  0.1638667E+00
          2   -1    0    0  502    0  0.00000000000E+00  0.00000000000E+00  0.41194155714E+03  0.41194155714E+03  0.00000000000E+00 0. -1.
          1   -1    0    0  501    0 -0.00000000000E+00 -0.00000000000E+00 -0.14827992494E+03  0.14827992494E+03  0.00000000000E+00 0. -1.
         25    2    1    2    0    0  0.44783724826E+02  0.24737281900E+02  0.28638286938E+03  0.31663519826E+03  0.12500074310E+03 0.  0.
          2    1    1    2  501    0 -0.29704117278E+02 -0.72242258517E+01 -0.13015400260E+03  0.13369588033E+03  0.00000000000E+00 0. -1.
          1    1    1    2  502    0 -0.15079607548E+02 -0.17513056049E+02  0.10743276542E+03  0.10989040350E+03  0.00000000000E+00 0. -1.
         22    1    3    3    0    0 -0.13883001041E+02  0.31469195472E+02  0.12717619896E+02  0.36671321730E+02  0.00000000000E+00 0.  1.
         22    1    3    3    0    0  0.58666725867E+02 -0.67319135720E+01  0.27366524948E+03  0.27996387653E+03  0.00000000000E+00 0.  1.
</event>
<event>
 7    1  0.6078244E-006  0.6901773E+02  0.7818608E-02  0.1373851E+00
          2   -1    0    0  502    0  0.00000000000E+00  0.00000000000E+00  0.28221405214E+03  0.28221405214E+03  0.00000000000E+00 0. -1.
          1   -1    0    0  501    0 -0.00000000000E+00 -0.00000000000E+00 -0.22383574188E+03  0.22383574188E+03  0.00000000000E+00 0. -1.
         25    2    1    2    0    0 -0.21547688812E+01  0.10263352313E+02 -0.33559076191E+02  0.12985345768E+03  0.12500291775E+03 0.  0.
          2    1    1    2  501    0  0.83665257101E+01  0.62766027368E+02 -0.12884626877E+03  0.14356508601E+03  0.00000000000E+00 0. -1.
          1    1    1    2  502    0 -0.62117568289E+01 -0.73029379681E+02  0.22078365522E+03  0.23263125033E+03  0.00000000000E+00 0. -1.
         22    1    3    3    0    0  0.59795484877E+02  0.13966317263E+02 -0.28172775438E+02  0.67559331742E+02  0.00000000000E+00 0.  1.
         22    1    3    3    0    0 -0.61950253759E+02 -0.37029649502E+01 -0.53863007532E+01  0.62294125935E+02  0.00000000000E+00 0.  1.
</event>
<event>
 7    1  0.6078244E-006  0.2141466E+03  0.7818608E-02  0.1192618E+00
          2   -1    0    0  502    0  0.00000000000E+00  0.00000000000E+00  0.76432030233E+03  0.76432030233E+03  0.00000000000E+00 0. -1.
          1   -1    0    0  501    0 -0.00000000000E+00 -0.00000000000E+00 -0.11355761243E+04  0.11355761243E+04  0.00000000000E+00 0. -1.
         25    2    1    2    0    0 -0.15672602475E+02  0.31459728886E+03 -0.10340680657E+03  0.35431004049E+03  0.12500221006E+03 0.  0.
          2    1    1    2  501    0  0.35603544901E+02 -0.20186401336E+03 -0.88984185151E+03  0.91314577862E+03  0.00000000000E+00 0. -1.
          1    1    1    2  502    0 -0.19930942426E+02 -0.11273327550E+03  0.62199283612E+03  0.63244060753E+03  0.00000000000E+00 0. -1.
         22    1    3    3    0    0  0.54120628305E+02  0.11072903325E+03 -0.32518370517E+02  0.12746531150E+03  0.00000000000E+00 0.  1.
         22    1    3    3    0    0 -0.69793230780E+02  0.20386825560E+03 -0.70888436054E+02  0.22684472899E+03  0.00000000000E+00 0.  1.
</event>
<event>
 7    1  0.6078244E-006  0.7918126E+02  0.7818608E-02  0.1399927E+00
          2   -1    0    0  502    0  0.00000000000E+00  0.00000000000E+00  0.97231206276E+02  0.97231206276E+02  0.00000000000E+00 0. -1.
          1   -1    0    0  501    0 -0.00000000000E+00 -0.00000000000E+00 -0.45831798397E+03  0.45831798397E+03  0.00000000000E+00 0. -1.
         25    2    1    2    0    0 -0.72341370172E+01 -0.39309266863E+02 -0.15921881200E+03  0.20633426114E+03  0.12500258408E+03 0.  0.
          2    1    1    2  501    0 -0.28644629615E+01 -0.44624175107E+02 -0.24862036190E+03  0.25260959305E+03  0.00000000000E+00 0. -1.
          1    1    1    2  502    0  0.10098599979E+02  0.83933441970E+02  0.46752396205E+02  0.96605336050E+02  0.00000000000E+00 0. -1.
         22    1    3    3    0    0  0.22957642409E+02 -0.75439218969E+02 -0.69950013552E+02  0.10540936154E+03  0.00000000000E+00 0.  1.
         22    1    3    3    0    0 -0.30191779427E+02  0.36129952106E+02 -0.89268798450E+02  0.10092489961E+03  0.00000000000E+00 0.  1.
</event>
<event>
 7    1  0.6078244E-006  0.1249437E+03  0.7818608E-02  0.1317249E+00
          2   -1    0    0  502    0  0.00000000000E+00  0.00000000000E+00  0.20769411300E+04  0.20769411300E+04  0.00000000000E+00 0. -1.
          1   -1    0    0  501    0 -0.00000000000E+00 -0.00000000000E+00 -0.11868451186E+03  0.11868451186E+03  0.00000000000E+00 0. -1.
         25    2    1    2    0    0  0.28403151830E+02 -0.15537916309E+03  0.71024197619E+03  0.73825333937E+03  0.12499962000E+03 0.  0.
          2    1    1    2  501    0  0.17924461467E+02  0.12236081220E+03 -0.67323469463E+02  0.14080448936E+03  0.00000000000E+00 0. -1.
          1    1    1    2  502    0 -0.46327613298E+02  0.33018350884E+02  0.13153381114E+04  0.13165678131E+04  0.00000000000E+00 0. -1.
         22    1    3    3    0    0 -0.54308941355E+01  0.19002477974E+02  0.12802106207E+03  0.12953756642E+03  0.00000000000E+00 0.  1.
         22    1    3    3    0    0  0.33834045966E+02 -0.17438164106E+03  0.58222091412E+03  0.60871577295E+03  0.00000000000E+00 0.  1.
</event>
<event>
 7    1  0.6078244E-006  0.9683886E+02  0.7818608E-02  0.1362683E+00
          2   -1    0    0  502    0  0.00000000000E+00  0.00000000000E+00  0.47728626189E+03  0.47728626189E+03  0.00000000000E+00 0. -1.
          1   -1    0    0  501    0 -0.00000000000E+00 -0.00000000000E+00 -0.70899118964E+03  0.70899118964E+03  0.00000000000E+00 0. -1.
         25    2    1    2    0    0 -0.52635912191E+02 -0.38965961087E+02 -0.13202225050E+03  0.19324436211E+03  0.12499849393E+03 0.  0.
          2    1    1    2  501    0 -0.44087946767E+02  0.22532535624E+02 -0.53982391701E+03  0.54208977447E+03  0.00000000000E+00 0. -1.
          1    1    1    2  502    0  0.96723858958E+02  0.16433425463E+02  0.44014123976E+03  0.45094331495E+03  0.00000000000E+00 0. -1.
         22    1    3    3    0    0 -0.27019540811E+02 -0.84457680532E+02 -0.77684132965E+02  0.11788969379E+03  0.00000000000E+00 0. -1.
         22    1    3    3    0    0 -0.25616371381E+02  0.45491719444E+02 -0.54338117536E+02  0.75354668323E+02  0.00000000000E+00 0. -1.
</event>
<event>
 7    1  0.6078244E-006  0.8857349E+02  0.7818608E-02  0.1337687E+00
          2   -1    0    0  502    0  0.00000000000E+00  0.00000000000E+00  0.89945654098E+03  0.89945654098E+03  0.00000000000E+00 0. -1.
          1   -1    0    0  501    0 -0.00000000000E+00 -0.00000000000E+00 -0.77435371979E+03  0.77435371979E+03  0.00000000000E+00 0. -1.
         25    2    1    2    0    0  0.34375226923E+02  0.86518163264E+02  0.18941668355E+03  0.24530025653E+03  0.12500594804E+03 0.  0.
          2    1    1    2  501    0  0.32510386783E+02 -0.82658061579E+02 -0.74211212039E+03  0.74740864300E+03  0.00000000000E+00 0. -1.
          1    1    1    2  502    0 -0.66885613706E+02 -0.38601016851E+01  0.67779825803E+03  0.68110136125E+03  0.00000000000E+00 0. -1.
         22    1    3    3    0    0 -0.21712127919E+02  0.15317540149E+02  0.13913406402E+03  0.14164861915E+03  0.00000000000E+00 0. -1.
         22    1    3    3    0    0  0.56087354842E+02  0.71200623115E+02  0.50282619532E+02  0.10365163738E+03  0.00000000000E+00 0. -1.
</event>
<event>
 7    1  0.6078244E-006  0.4858392E+02  0.7818608E-02  0.1454285E+00
          2   -1    0    0  502    0  0.00000000000E+00  0.00000000000E+00  0.16527756490E+04  0.16527756490E+04  0.00000000000E+00 0. -1.
          1   -1    0    0  501    0 -0.00000000000E+00 -0.00000000000E+00 -0.93242802885E+02  0.93242802885E+02  0.00000000000E+00 0. -1.
         25    2    1    2    0    0  0.13827439702E+02  0.10095013571E+02  0.57479021124E+03  0.58847452984E+03  0.12500151175E+03 0.  0.
          2    1    1    2  501    0  0.29975493140E+02 -0.38234373412E+02 -0.78883422817E+02  0.92644438012E+02  0.00000000000E+00 0. -1.
          1    1    1    2  502    0 -0.43802932842E+02  0.28139359841E+02  0.10636260577E+04  0.10648994841E+04  0.00000000000E+00 0. -1.
         22    1    3    3    0    0 -0.55803846837E+02  0.69125648965E+01  0.23894568174E+03  0.24547279217E+03  0.00000000000E+00 0.  1.
         22    1    3    3    0    0  0.69631286539E+02  0.31824486748E+01  0.33584452950E+03  0.34300173767E+03  0.00000000000E+00 0.  1.
</event>
<event>
 7    1  0.6078244E-006  0.8289359E+02  0.7818608E-02  0.1332921E+00
          2   -1    0    0  502    0  0.00000000000E+00  0.00000000000E+00  0.79647222194E+03  0.79647222194E+03  0.00000000000E+00 0. -1.
          1   -1    0    0  501    0 -0.00000000000E+00 -0.00000000000E+00 -0.40004048707E+02  0.40004048707E+02  0.00000000000E+00 0. -1.
         25    2    1    2    0    0 -0.26744774099E+02  0.35074219226E+02  0.23000038920E+03  0.26546457861E+03  0.12500311862E+03 0.  0.
          2    1    1    2  501    0  0.21048812780E+02 -0.10948423346E+03  0.14820624813E+03  0.18545873363E+03  0.00000000000E+00 0. -1.
          1    1    1    2  502    0  0.56959613191E+01  0.74410014237E+02  0.37826153590E+03  0.38555295841E+03  0.00000000000E+00 0. -1.
         22    1    3    3    0    0  0.86392988020E+01  0.75538151721E+02  0.10729854759E+03  0.13150524006E+03  0.00000000000E+00 0.  1.
         22    1    3    3    0    0 -0.35384072901E+02 -0.40463932494E+02  0.12270184161E+03  0.13395933854E+03  0.00000000000E+00 0.  1.
</event>
<event>
 7    1  0.6078244E-006  0.9856098E+02  0.7818608E-02  0.1300628E+00
          2   -1    0    0  502    0  0.00000000000E+00  0.00000000000E+00  0.14905295282E+04  0.14905295282E+04  0.00000000000E+00 0. -1.
          1   -1    0    0  501    0 -0.00000000000E+00 -0.00000000000E+00 -0.20884691963E+03  0.20884691963E+03  0.00000000000E+00 0. -1.
         25    2    1    2    0    0  0.43067921507E+02 -0.52890356552E+02  0.56593125353E+02  0.15326687291E+03  0.12504285991E+03 0.  0.
          2    1    1    2  501    0  0.57426496689E+02  0.61139700030E+02 -0.14757448157E+03  0.16974714446E+03  0.00000000000E+00 0. -1.
          1    1    1    2  502    0 -0.10049441820E+03 -0.82493434780E+01  0.13726639648E+04  0.13763624305E+04  0.00000000000E+00 0. -1.
         22    1    3    3    0    0 -0.14829046887E+02 -0.69784588830E+02  0.11626821804E+01  0.71352234020E+02  0.00000000000E+00 0. -1.
         22    1    3    3    0    0  0.57896968395E+02  0.16894232278E+02  0.55430443172E+02  0.81914638886E+02  0.00000000000E+00 0. -1.
</event>
<event>
 7    1  0.6078244E-006  0.8310699E+02  0.7818608E-02  0.1471383E+00
          2   -1    0    0  502    0  0.00000000000E+00  0.00000000000E+00  0.91494875075E+03  0.91494875075E+03  0.00000000000E+00 0. -1.
          1   -1    0    0  501    0 -0.00000000000E+00 -0.00000000000E+00 -0.88923484024E+03  0.88923484024E+03  0.00000000000E+00 0. -1.
         25    2    1    2    0    0  0.65694764938E+02  0.16261039380E+02  0.45717696475E+03  0.47876381539E+03  0.12499516105E+03 0.  0.
          2    1    1    2  501    0  0.23678514374E+02 -0.76574379540E+01 -0.87375351940E+03  0.87410784292E+03  0.00000000000E+00 0. -1.
          1    1    1    2  502    0 -0.89373279311E+02 -0.86036014256E+01  0.44229046516E+03  0.45131193268E+03  0.00000000000E+00 0. -1.
         22    1    3    3    0    0  0.98923327816E+02 -0.55075157283E+01  0.36867207116E+03  0.38175286976E+03  0.00000000000E+00 0. -1.
         22    1    3    3    0    0 -0.33228562879E+02  0.21768555108E+02  0.88504893588E+02  0.97010945627E+02  0.00000000000E+00 0. -1.
</event>
<event>
 7    1  0.6078244E-006  0.5589371E+02  0.7818608E-02  0.1422587E+00
          2   -1    0    0  502    0  0.00000000000E+00  0.00000000000E+00  0.14108543121E+03  0.14108543121E+03  0.00000000000E+00 0. -1.
          1   -1    0    0  501    0 -0.00000000000E+00 -0.00000000000E+00 -0.27391104695E+03  0.27391104695E+03  0.00000000000E+00 0. -1.
         25    2    1    2    0    0  0.11399753050E+02  0.51574839455E+02 -0.72717252012E+02  0.15395772312E+03  0.12500105332E+03 0.  0.
          2    1    1    2  501    0  0.42849807683E+02 -0.31355432243E+02 -0.14718650084E+03  0.15647087646E+03  0.00000000000E+00 0. -1.
          1    1    1    2  502    0 -0.54249560733E+02 -0.20219407212E+02  0.87078137121E+02  0.10456787859E+03  0.00000000000E+00 0. -1.
         22    1    3    3    0    0  0.32729490200E+02  0.24693424343E+02  0.26604373084E+02  0.48875120478E+02  0.00000000000E+00 0. -1.
         22    1    3    3    0    0 -0.21329737151E+02  0.26881415112E+02 -0.99321625096E+02  0.10508260264E+03  0.00000000000E+00 0. -1.
</event>
<event>
 7    1  0.6078244E-006  0.7642915E+02  0.7818608E-02  0.1348788E+00
          2   -1    0    0  502    0  0.00000000000E+00  0.00000000000E+00  0.14529156363E+04  0.14529156363E+04  0.00000000000E+00 0. -1.
          1   -1    0    0  501    0 -0.00000000000E+00 -0.00000000000E+00 -0.41246918623E+03  0.41246918623E+03  0.00000000000E+00 0. -1.
         25    2    1    2    0    0 -0.71824048427E+02 -0.37896433242E+02 -0.26084150443E+02  0.15132931866E+03  0.12500138479E+03 0.  0.
          2    1    1    2  501    0  0.13229065981E+02  0.77202908615E+02 -0.31811350078E+03  0.32761486026E+03  0.00000000000E+00 0. -1.
          1    1    1    2  502    0  0.58594982446E+02 -0.39306475373E+02  0.13846441013E+04  0.13864406436E+04  0.00000000000E+00 0. -1.
         22    1    3    3    0    0  0.22582984898E+02 -0.22613224131E+02 -0.43644613482E+02  0.54094374925E+02  0.00000000000E+00 0. -1.
         22    1    3    3    0    0 -0.94407033325E+02 -0.15283209110E+02  0.17560463038E+02  0.97234943740E+02  0.00000000000E+00 0. -1.
</event>
<event>
 7    1  0.6078244E-006  0.5652121E+02  0.7818608E-02  0.1428710E+00
          2   -1    0    0  502    0  0.00000000000E+00  0.00000000000E+00  0.20259182059E+04  0.20259182059E+04  0.00000000000E+00 0. -1.
          1   -1    0    0  501    0 -0.00000000000E+00 -0.00000000000E+00 -0.49599591820E+03  0.49599591820E+03  0.00000000000E+00 0. -1.
         25    2    1    2    0    0  0.53928269499E+02  0.25948570447E+02  0.11773024630E+03  0.18184245638E+03  0.12499872595E+03 0.  0.
          2    1    1    2  501    0 -0.40685979618E+02  0.29253974393E+02 -0.46215565444E+03  0.46486448873E+03  0.00000000000E+00 0. -1.
          1    1    1    2  502    0 -0.13242289881E+02 -0.55202544840E+02  0.18743476958E+04  0.18752071790E+04  0.00000000000E+00 0. -1.
         22    1    3    3    0    0 -0.10040831335E+02  0.50694381064E+02  0.97471982122E+02  0.11032463852E+03  0.00000000000E+00 0.  1.
         22    1    3    3    0    0  0.63969100834E+02 -0.24745810617E+02  0.20258264179E+02  0.71517817864E+02  0.00000000000E+00 0.  1.
</event>
<event>
 7    1  0.6078244E-006  0.7093381E+02  0.7818608E-02  0.1418422E+00
          2   -1    0    0  502    0  0.00000000000E+00  0.00000000000E+00  0.16600591508E+04  0.16600591508E+04  0.00000000000E+00 0. -1.
          1   -1    0    0  501    0 -0.00000000000E+00 -0.00000000000E+00 -0.44657643602E+03  0.44657643602E+03  0.00000000000E+00 0. -1.
         25    2    1    2    0    0 -0.62751812733E+02 -0.63332784875E+02  0.45410027150E+03  0.47935406737E+03  0.12499773472E+03 0.  0.
          2    1    1    2  501    0  0.43006560825E+02 -0.40766754070E+01 -0.43183727734E+03  0.43399264701E+03  0.00000000000E+00 0. -1.
          1    1    1    2  502    0  0.19745251908E+02  0.67409460282E+02  0.11912197206E+04  0.11932888725E+04  0.00000000000E+00 0. -1.
         22    1    3    3    0    0 -0.63209213521E+02 -0.97057687077E+02  0.29947972848E+03  0.32109765970E+03  0.00000000000E+00 0. -1.
         22    1    3    3    0    0  0.45740078764E+00  0.33724902202E+02  0.15462054302E+03  0.15825640767E+03  0.00000000000E+00 0. -1.
</event>
<event>
 7    1  0.6078244E-006  0.2686176E+03  0.7818608E-02  0.1295487E+00
          2   -1    0    0  502    0  0.00000000000E+00  0.00000000000E+00  0.28496404163E+03  0.28496404163E+03  0.00000000000E+00 0. -1.
          1   -1    0    0  501    0 -0.00000000000E+00 -0.00000000000E+00 -0.89602158539E+03  0.89602158539E+03  0.00000000000E+00 0. -1.
         25    2    1    2    0    0 -0.21071171862E+03 -0.18500401103E+03  0.50163592802E+02  0.31107528915E+03  0.12500214804E+03 0.  0.
          2    1    1    2  501    0  0.72639266760E+01  0.31447321943E+02 -0.60883431545E+03  0.60968920145E+03  0.00000000000E+00 0. -1.
          1    1    1    2  502    0  0.20344779195E+03  0.15355668909E+03 -0.52386821111E+02  0.26022113642E+03  0.00000000000E+00 0. -1.
         22    1    3    3    0    0 -0.13205009345E+03 -0.58647069197E+02 -0.21157449718E+02  0.14602857113E+03  0.00000000000E+00 0.  1.
         22    1    3    3    0    0 -0.78661625170E+02 -0.12635694184E+03  0.71321042521E+02  0.16504671802E+03  0.00000000000E+00 0.  1.
</event>
<event>
 7    1  0.6078244E-006  0.1157329E+03  0.7818608E-02  0.1303263E+00
          2   -1    0    0  502    0  0.00000000000E+00  0.00000000000E+00  0.69815079461E+03  0.69815079461E+03  0.00000000000E+00 0. -1.
          1   -1    0    0  501    0 -0.00000000000E+00 -0.00000000000E+00 -0.92308656777E+03  0.92308656777E+03  0.00000000000E+00 0. -1.
         25    2    1    2    0    0  0.11391218511E+03  0.10362392876E+03 -0.17127286915E+03  0.26205624654E+03  0.12500070445E+03 0.  0.
          2    1    1    2  501    0 -0.38816946445E+01 -0.69617233656E+02 -0.69959582767E+03  0.70306183858E+03  0.00000000000E+00 0. -1.
          1    1    1    2  502    0 -0.11003049046E+03 -0.34006695101E+02  0.64593292366E+03  0.65611927727E+03  0.00000000000E+00 0. -1.
         22    1    3    3    0    0  0.72523443036E+02  0.11608837260E+03 -0.73978743561E+02  0.15559246300E+03  0.00000000000E+00 0.  1.
         22    1    3    3    0    0  0.41388742072E+02 -0.12464443842E+02 -0.97294125593E+02  0.10646378354E+03  0.00000000000E+00 0.  1.
</event>
<event>
 7    1  0.6078244E-006  0.2324538E+03  0.7818608E-02  0.1332085E+00
          2   -1    0    0  502    0  0.00000000000E+00  0.00000000000E+00  0.31156193955E+04  0.31156193955E+04  0.00000000000E+00 0. -1.
          1   -1    0    0  501    0 -0.00000000000E+00 -0.00000000000E+00 -0.36423663504E+03  0.36423663504E+03  0.00000000000E+00 0. -1.
         25    2    1    2    0    0 -0.70584738127E+02  0.24488772615E+03  0.24770574824E+04  0.24932691760E+04  0.12500083704E+03 0.  0.
          2    1    1    2  501    0  0.77193913694E+02 -0.21890718069E+03 -0.31797271735E+03  0.39368249015E+03  0.00000000000E+00 0. -1.
          1    1    1    2  502    0 -0.66091755678E+01 -0.25980545461E+02  0.59229799539E+03  0.59290436437E+03  0.00000000000E+00 0. -1.
         22    1    3    3    0    0 -0.73611630211E+02  0.24739557147E+03  0.24756872356E+04  0.24891063717E+04  0.00000000000E+00 0. -1.
         22    1    3    3    0    0  0.30268920842E+01 -0.25078453211E+01  0.13702467999E+01  0.41628043596E+01  0.00000000000E+00 0. -1.
</event>
<event>
 7    1  0.6078244E-006  0.2598580E+02  0.7818608E-02  0.1674366E+00
          2   -1    0    0  502    0  0.00000000000E+00  0.00000000000E+00  0.31499376505E+02  0.31499376505E+02  0.00000000000E+00 0. -1.
          1   -1    0    0  501    0 -0.00000000000E+00 -0.00000000000E+00 -0.49554653129E+03  0.49554653129E+03  0.00000000000E+00 0. -1.
         25    2    1    2    0    0 -0.19507279832E+02  0.26068066601E+02 -0.17677948037E+03  0.21894579998E+03  0.12500480225E+03 0.  0.
          2    1    1    2  501    0  0.22339667459E+02 -0.11269643318E+00 -0.28014802643E+03  0.28103734655E+03  0.00000000000E+00 0. -1.
          1    1    1    2  502    0 -0.28323876265E+01 -0.25955370167E+02 -0.71196479891E+01  0.27062761272E+02  0.00000000000E+00 0. -1.
         22    1    3    3    0    0  0.87538075777E+01  0.10097113501E+02 -0.18498181400E+03  0.18546388424E+03  0.00000000000E+00 0.  1.
         22    1    3    3    0    0 -0.28261087410E+02  0.15970953099E+02  0.82023336265E+01  0.33481915737E+02  0.00000000000E+00 0.  1.
</event>
<event>
 7    1  0.6078244E-006  0.1362602E+03  0.7818608E-02  0.1312521E+00
          2   -1    0    0  502    0  0.00000000000E+00  0.00000000000E+00  0.30956426631E+03  0.30956426631E+03  0.00000000000E+00 0. -1.
          1   -1    0    0  501    0 -0.00000000000E+00 -0.00000000000E+00 -0.13113669012E+04  0.13113669012E+04  0.00000000000E+00 0. -1.
         25    2    1    2    0    0 -0.14719862598E+03  0.21180194954E+02  0.20097794743E+03  0.27952211432E+03  0.12499776355E+03 0.  0.
          2    1    1    2  501    0  0.38784792561E+02  0.38194283448E+02 -0.12158901477E+04  0.12171080127E+04  0.00000000000E+00 0. -1.
          1    1    1    2  502    0  0.10841383342E+03 -0.59374478403E+02  0.13109565332E+02  0.12430104048E+03  0.00000000000E+00 0. -1.
         22    1    3    3    0    0 -0.26565786011E+02 -0.17761848717E+02  0.13076482332E+03  0.13461301302E+03  0.00000000000E+00 0. -1.
         22    1    3    3    0    0 -0.12063283997E+03  0.38942043671E+02  0.70213124117E+02  0.14490910131E+03  0.00000000000E+00 0. -1.
</event>
<event>
 7    1  0.6078244E-006  0.1085806E+03  0.7818608E-02  0.1332330E+00
          2   -1    0    0  502    0  0.00000000000E+00  0.00000000000E+00  0.35692486456E+03  0.35692486456E+03  0.00000000000E+00 0. -1.
          1   -1    0    0  501    0 -0.00000000000E+00 -0.00000000000E+00 -0.55952369075E+03  0.55952369075E+03  0.00000000000E+00 0. -1.
         25    2    1    2    0    0  0.11549280251E+02  0.65330252993E+02 -0.12016379753E+03  0.18564782427E+03  0.12499739433E+03 0.  0.
          2    1    1    2  501    0 -0.45044543155E+02 -0.11178151342E+03 -0.39502926855E+03  0.41300392325E+03  0.00000000000E+00 0. -1.
          1    1    1    2  502    0  0.33495262904E+02  0.46451260427E+02  0.31259423989E+03  0.31779680780E+03  0.00000000000E+00 0. -1.
         22    1    3    3    0    0 -0.25198754482E+02 -0.27004222429E+02 -0.12173461555E+02  0.38889567015E+02  0.00000000000E+00 0.  1.
         22    1    3    3    0    0  0.36748034733E+02  0.92334475421E+02 -0.10799033598E+03  0.14675825725E+03  0.00000000000E+00 0.  1.
</event>
<event>
 7    1  0.6078244E-006  0.4824558E+02  0.7818608E-02  0.1548766E+00
          2   -1    0    0  502    0  0.00000000000E+00  0.00000000000E+00  0.72893152750E+02  0.72893152750E+02  0.00000000000E+00 0. -1.
          1   -1    0    0  501    0 -0.00000000000E+00 -0.00000000000E+00 -0.72268408918E+03  0.72268408918E+03  0.00000000000E+00 0. -1.
         25    2    1    2    0    0 -0.58364128977E+02  0.30279486079E+02 -0.27339011994E+03  0.30771681172E+03  0.12499703877E+03 0.  0.
          2    1    1    2  501    0  0.25058879664E+02  0.39215290305E+01 -0.42145573159E+03  0.42221826054E+03  0.00000000000E+00 0. -1.
          1    1    1    2  502    0  0.33305249313E+02 -0.34201015109E+02  0.45054915097E+02  0.65642169683E+02  0.00000000000E+00 0. -1.
         22    1    3    3    0    0 -0.48399950523E+02 -0.20458702402E+02 -0.33498492002E+02  0.62315830100E+02  0.00000000000E+00 0. -1.
         22    1    3    3    0    0 -0.99641784534E+01  0.50738188481E+02 -0.23989162794E+03  0.24540098162E+03  0.00000000000E+00 0. -1.
</event>
<event>
 7    1  0.6078244E-006  0.5488120E+02  0.7818608E-02  0.1447788E+00
          2   -1    0    0  502    0  0.00000000000E+00  0.00000000000E+00  0.41430589914E+03  0.41430589914E+03  0.00000000000E+00 0. -1.
          1   -1    0    0  501    0 -0.00000000000E+00 -0.00000000000E+00 -0.21556807384E+04  0.21556807384E+04  0.00000000000E+00 0. -1.
         25    2    1    2    0    0  0.46685480158E+02 -0.85732943960E+02 -0.14806579988E+03  0.21697688381E+03  0.12500326106E+03 0.  0.
          2    1    1    2  501    0 -0.33313731222E+02  0.43042676187E+02 -0.19714653562E+04  0.19722165519E+04  0.00000000000E+00 0. -1.
          1    1    1    2  502    0 -0.13371748935E+02  0.42690267772E+02  0.37815631684E+03  0.38079320188E+03  0.00000000000E+00 0. -1.
         22    1    3    3    0    0  0.18658069371E+02 -0.51224488779E+02  0.76395231265E+01  0.55049378897E+02  0.00000000000E+00 0. -1.
         22    1    3    3    0    0  0.28027410786E+02 -0.34508455180E+02 -0.15570532301E+03  0.16192750491E+03  0.00000000000E+00 0. -1.
</event>
<event>
 7    1  0.6078244E-006  0.6927247E+02  0.7818608E-02  0.1377061E+00
          2   -1    0    0  502    0  0.00000000000E+00  0.00000000000E+00  0.37972044692E+03  0.37972044692E+03  0.00000000000E+00 0. -1.
          1   -1    0    0  501    0 -0.00000000000E+00 -0.00000000000E+00 -0.74904365661E+03  0.74904365661E+03  0.00000000000E+00 0. -1.
         25    2    1    2    0    0 -0.13043022593E+02  0.12537450913E+03 -0.10809673939E+03  0.20784417146E+03  0.12500162625E+03 0.  0.
          2    1    1    2  501    0  0.19527812399E+02 -0.64270571678E+02 -0.58627697447E+03  0.59011247457E+03  0.00000000000E+00 0. -1.
          1    1    1    2  502    0 -0.64847898054E+01 -0.61103937450E+02  0.32505050418E+03  0.33080745751E+03  0.00000000000E+00 0. -1.
         22    1    3    3    0    0  0.28286818385E+02 -0.60332514248E+01  0.53195099731E+01  0.29408185994E+02  0.00000000000E+00 0.  1.
         22    1    3    3    0    0 -0.41329840978E+02  0.13140776055E+03 -0.11341624937E+03  0.17843598547E+03  0.00000000000E+00 0.  1.
</event>
<event>
 7    1  0.6078244E-006  0.8629160E+02  0.7818608E-02  0.1433917E+00
          2   -1    0    0  502    0  0.00000000000E+00  0.00000000000E+00  0.12789921553E+04  0.12789921553E+04  0.00000000000E+00 0. -1.
          1   -1    0    0  501    0 -0.00000000000E+00 -0.00000000000E+00 -0.44568278445E+02  0.44568278445E+02  0.00000000000E+00 0. -1.
         25    2    1    2    0    0  0.67411485478E+02  0.25526717305E+01  0.62682373330E+03  0.64271587908E+03  0.12499953635E+03 0.  0.
          2    1    1    2  501    0 -0.84887362683E+02  0.23721004622E+02  0.17448465042E+02  0.89849871096E+02  0.00000000000E+00 0. -1.
          1    1    1    2  502    0  0.17475877205E+02 -0.26273676353E+02  0.59015167848E+03  0.59099468353E+03  0.00000000000E+00 0. -1.
         22    1    3    3    0    0  0.31799970201E+02  0.12593083082E+02  0.32305839847E+02  0.47047753767E+02  0.00000000000E+00 0.  1.
         22    1    3    3    0    0  0.35611515277E+02 -0.10040411351E+02  0.59451789345E+03  0.59566812532E+03  0.00000000000E+00 0.  1.
</event>
<event>
 7    1  0.6078244E-006  0.3357549E+02  0.7818608E-02  0.1596966E+00
          2   -1    0    0  502    0  0.00000000000E+00  0.00000000000E+00  0.14396304872E+03  0.14396304872E+03  0.00000000000E+00 0. -1.
          1   -1    0    0  501    0 -0.00000000000E+00 -0.00000000000E+00 -0.84237036356E+03  0.84237036356E+03  0.00000000000E+00 0. -1.
         25    2    1    2    0    0 -0.19665350079E+02 -0.54157748032E+02 -0.31485112796E+03  0.34362240368E+03  0.12500134346E+03 0.  0.
          2    1    1    2  501    0  0.34655727114E+01  0.32573238785E+02 -0.51119847676E+03  0.51224692163E+03  0.00000000000E+00 0. -1.
          1    1    1    2  502    0  0.16199777368E+02  0.21584509247E+02  0.12764228987E+03  0.13046408697E+03  0.00000000000E+00 0. -1.
         22    1    3    3    0    0  0.11003122502E+02 -0.72711141093E+02 -0.91383770218E+02  0.11729864536E+03  0.00000000000E+00 0.  1.
         22    1    3    3    0    0 -0.30668472582E+02  0.18553393061E+02 -0.22346735774E+03  0.22632375832E+03  0.00000000000E+00 0.  1.
</event>
<event>
 7    1  0.6078244E-006  0.4051812E+02  0.7818608E-02  0.1526626E+00
          2   -1    0    0  502    0  0.00000000000E+00  0.00000000000E+00  0.27770316859E+03  0.27770316859E+03  0.00000000000E+00 0. -1.
          1   -1    0    0  501    0 -0.00000000000E+00 -0.00000000000E+00 -0.10678819393E+04  0.10678819393E+04  0.00000000000E+00 0. -1.
         25    2    1    2    0    0 -0.27511858368E+02 -0.44426201166E+02 -0.48478045707E+03  0.50335667235E+03  0.12500103336E+03 0.  0.
          2    1    1    2  501    0 -0.11365582500E+02  0.32995924606E+02 -0.57174884882E+03  0.57281293074E+03  0.00000000000E+00 0. -1.
          1    1    1    2  502    0  0.38877440868E+02  0.11430276560E+02  0.26635053518E+03  0.26941550479E+03  0.00000000000E+00 0. -1.
         22    1    3    3    0    0  0.80959168386E+01 -0.72361522697E+02 -0.16450010299E+03  0.17989446273E+03  0.00000000000E+00 0. -1.
         22    1    3    3    0    0 -0.35607775207E+02  0.27935321531E+02 -0.32028035408E+03  0.32346220962E+03  0.00000000000E+00 0. -1.
</event>
<event>
 7    1  0.6078244E-006  0.1298334E+03  0.7818608E-02  0.1253571E+00
          2   -1    0    0  502    0  0.00000000000E+00  0.00000000000E+00  0.11471605479E+04  0.11471605479E+04  0.00000000000E+00 0. -1.
          1   -1    0    0  501    0 -0.00000000000E+00 -0.00000000000E+00 -0.21105910679E+04  0.21105910679E+04  0.00000000000E+00 0. -1.
         25    2    1    2    0    0  0.66553220450E+02  0.20236722787E+03  0.15929782916E+03  0.29390901578E+03  0.12499954047E+03 0.  0.
          2    1    1    2  501    0  0.13890350308E+01 -0.12917655079E+03 -0.20385264363E+04  0.20426156129E+04  0.00000000000E+00 0. -1.
          1    1    1    2  502    0 -0.67942255481E+02 -0.73190677072E+02  0.91579808712E+03  0.92122698705E+03  0.00000000000E+00 0. -1.
         22    1    3    3    0    0 -0.17347026753E+02 -0.87132694843E+01  0.80409601751E+01  0.21011840538E+02  0.00000000000E+00 0.  1.
         22    1    3    3    0    0  0.83900247203E+02  0.21108049735E+03  0.15125686898E+03  0.27289717524E+03  0.00000000000E+00 0.  1.
</event>
<event>
 7    1  0.6078244E-006  0.1909711E+03  0.7818608E-02  0.1221416E+00
          2   -1    0    0  502    0  0.00000000000E+00  0.00000000000E+00  0.57660008374E+03  0.57660008374E+03  0.00000000000E+00 0. -1.
          1   -1    0    0  501    0 -0.00000000000E+00 -0.00000000000E+00 -0.11991935189E+04  0.11991935189E+04  0.00000000000E+00 0. -1.
         25    2    1    2    0    0 -0.13602659834E+02 -0.23217060475E+03  0.20426010372E+03  0.33381849068E+03  0.12499749072E+03 0.  0.
          2    1    1    2  501    0 -0.62506146526E+02  0.70533294506E+02 -0.11062952744E+04  0.11103023003E+04  0.00000000000E+00 0. -1.
          1    1    1    2  502    0  0.76108806360E+02  0.16163731024E+03  0.27944173547E+03  0.33167281166E+03  0.00000000000E+00 0. -1.
         22    1    3    3    0    0  0.42163729892E+02 -0.18605535903E+03  0.16004720850E+03  0.24901703896E+03  0.00000000000E+00 0.  1.
         22    1    3    3    0    0 -0.55766389726E+02 -0.46115245718E+02  0.44212895217E+02  0.84801451722E+02  0.00000000000E+00 0.  1.
</event>
<event>
 7    1  0.6078244E-006  0.1266555E+03  0.7818608E-02  0.1263664E+00
          2   -1    0    0  502    0  0.00000000000E+00  0.00000000000E+00  0.78747406695E+03  0.78747406695E+03  0.00000000000E+00 0. -1.
          1   -1    0    0  501    0 -0.00000000000E+00 -0.00000000000E+00 -0.24553213706E+03  0.24553213706E+03  0.00000000000E+00 0. -1.
         25    2    1    2    0    0  0.43597167256E+02 -0.45616552594E+01 -0.78702342095E+02  0.15408084030E+03  0.12500130001E+03 0.  0.
          2    1    1    2  501    0 -0.16757654474E+03 -0.21336645687E+02 -0.65504459179E+02  0.18118494686E+03  0.00000000000E+00 0. -1.
          1    1    1    2  502    0  0.12397937749E+03  0.25898300947E+02  0.68614873116E+03  0.69774041685E+03  0.00000000000E+00 0. -1.
         22    1    3    3    0    0 -0.31074322987E+02 -0.59945446631E+01  0.14362440667E+02  0.34753817298E+02  0.00000000000E+00 0. -1.
         22    1    3    3    0    0  0.74671490243E+02  0.14328894037E+01 -0.93064782762E+02  0.11932702300E+03  0.00000000000E+00 0. -1.
</event>
<event>
 7    1  0.6078244E-006  0.4991279E+02  0.7818608E-02  0.1574490E+00
          2   -1    0    0  502    0  0.00000000000E+00  0.00000000000E+00  0.13175044858E+04  0.13175044858E+04  0.00000000000E+00 0. -1.
          1   -1    0    0  501    0 -0.00000000000E+00 -0.00000000000E+00 -0.11600530157E+02  0.11600530157E+02  0.00000000000E+00 0. -1.
         25    2    1    2    0    0  0.50416226169E+02 -0.10131288939E+02  0.70813771559E+03  0.72092102238E+03  0.12499462949E+03 0.  0.
          2    1    1    2  501    0 -0.49150971087E+02 -0.10665488122E+02  0.12198303179E+03  0.13194480149E+03  0.00000000000E+00 0. -1.
          1    1    1    2  502    0 -0.12652550812E+01  0.20796777060E+02  0.47578320830E+03  0.47623919212E+03  0.00000000000E+00 0. -1.
         22    1    3    3    0    0  0.76072374165E+02  0.31841340443E+02  0.35999730791E+03  0.36932226953E+03  0.00000000000E+00 0. -1.
         22    1    3    3    0    0 -0.25656147996E+02 -0.41972629382E+02  0.34814040768E+03  0.35159875285E+03  0.00000000000E+00 0. -1.
</event>
<event>
 7    1  0.6078244E-006  0.5331566E+02  0.7818608E-02  0.1453396E+00
          2   -1    0    0  502    0  0.00000000000E+00  0.00000000000E+00  0.14652364718E+04  0.14652364718E+04  0.00000000000E+00 0. -1.
          1   -1    0    0  501    0 -0.00000000000E+00 -0.00000000000E+00 -0.99804366541E+03  0.99804366541E+03  0.00000000000E+00 0. -1.
         25    2    1    2    0    0 -0.83567062441E+02 -0.21880647068E+02  0.71211237792E+03  0.72814235887E+03  0.12500015740E+03 0.  0.
          2    1    1    2  501    0  0.52440384867E+02 -0.94818717175E+01 -0.98865534457E+03  0.99009054646E+03  0.00000000000E+00 0. -1.
          1    1    1    2  502    0  0.31126677574E+02  0.31362518785E+02  0.74373577308E+03  0.74504723193E+03  0.00000000000E+00 0. -1.
         22    1    3    3    0    0 -0.45956140621E+01  0.89112167630E+01  0.49454701238E+03  0.49464863985E+03  0.00000000000E+00 0.  1.
         22    1    3    3    0    0 -0.78971448378E+02 -0.30791863831E+02  0.21756536553E+03  0.23349371901E+03  0.00000000000E+00 0.  1.
</event>
<event>
 7    1  0.6078244E-006  0.4441969E+03  0.7818608E-02  0.1221164E+00
          2   -1    0    0  502    0  0.00000000000E+00  0.00000000000E+00  0.54570669243E+03  0.54570669243E+03  0.00000000000E+00 0. -1.
          1   -1    0    0  501    0 -0.00000000000E+00 -0.00000000000E+00 -0.19533418952E+04  0.19533418952E+04  0.00000000000E+00 0. -1.
         25    2    1    2    0    0 -0.49516024767E+02 -0.41396143504E+03 -0.26507275087E+03  0.50961608521E+03  0.12501633747E+03 0.  0.
          2    1    1    2  501    0  0.31676599538E+02  0.45046001841E+03 -0.15323659468E+04  0.15975177714E+04  0.00000000000E+00 0. -1.
          1    1    1    2  502    0  0.17839425228E+02 -0.36498583370E+02  0.38980349493E+03  0.39191473096E+03  0.00000000000E+00 0. -1.
         22    1    3    3    0    0  0.41000439916E+02 -0.93071246094E+02 -0.67443816516E+02  0.12203262395E+03  0.00000000000E+00 0.  1.
         22    1    3    3    0    0 -0.90516464682E+02 -0.32089018895E+03 -0.19762893436E+03  0.38758346125E+03  0.00000000000E+00 0.  1.
</event>
<event>
 7    1  0.6078244E-006  0.1283580E+03  0.7818608E-02  0.1336180E+00
          2   -1    0    0  502    0  0.00000000000E+00  0.00000000000E+00  0.14350957984E+04  0.14350957984E+04  0.00000000000E+00 0. -1.
          1   -1    0    0  501    0 -0.00000000000E+00 -0.00000000000E+00 -0.12846649569E+03  0.12846649569E+03  0.00000000000E+00 0. -1.
         25    2    1    2    0    0  0.10779231219E+03  0.13068795801E+03  0.45379756542E+03  0.50025418477E+03  0.12499397609E+03 0.  0.
          2    1    1    2  501    0 -0.68949865587E+02 -0.10450741283E+03 -0.67191250849E+02  0.14209344634E+03  0.00000000000E+00 0. -1.
          1    1    1    2  502    0 -0.38842446607E+02 -0.26180545182E+02  0.92002298812E+03  0.92121466298E+03  0.00000000000E+00 0. -1.
         22    1    3    3    0    0  0.12288210858E+03  0.11117696205E+03  0.28508438862E+03  0.32974753697E+03  0.00000000000E+00 0.  1.
         22    1    3    3    0    0 -0.15089796391E+02  0.19510995964E+02  0.16871317680E+03  0.17050664780E+03  0.00000000000E+00 0.  1.
</event>
<event>
 7    1  0.6078244E-006  0.9236353E+02  0.7818608E-02  0.1326935E+00
          2   -1    0    0  502    0  0.00000000000E+00  0.00000000000E+00  0.18887128021E+04  0.18887128021E+04  0.00000000000E+00 0. -1.
          1   -1    0    0  501    0 -0.00000000000E+00 -0.00000000000E+00 -0.77288292576E+03  0.77288292576E+03  0.00000000000E+00 0. -1.
         25    2    1    2    0    0  0.17255725708E+02  0.25850222676E+02  0.82925621466E+02  0.15320277888E+03  0.12501375396E+03 0.  0.
          2    1    1    2  501    0  0.97887639308E+00 -0.94052534376E+02 -0.73403864571E+03  0.74004024945E+03  0.00000000000E+00 0. -1.
          1    1    1    2  502    0 -0.18234602101E+02  0.68202311701E+02  0.17669429005E+04  0.17683526995E+04  0.00000000000E+00 0. -1.
         22    1    3    3    0    0 -0.54296460922E+02  0.15631169042E+02  0.34504726161E+02  0.66204344583E+02  0.00000000000E+00 0. -1.
         22    1    3    3    0    0  0.71552186630E+02  0.10219053634E+02  0.48420895305E+02  0.86998434301E+02  0.00000000000E+00 0. -1.
</event>
<event>
 7    1  0.6078244E-006  0.9548615E+02  0.7818608E-02  0.1319796E+00
          2   -1    0    0  502    0  0.00000000000E+00  0.00000000000E+00  0.22099259173E+03  0.22099259173E+03  0.00000000000E+00 0. -1.
          1   -1    0    0  501    0 -0.00000000000E+00 -0.00000000000E+00 -0.23871718409E+04  0.23871718409E+04  0.00000000000E+00 0. -1.
         25    2    1    2    0    0  0.46638660076E+02  0.24829760865E+02 -0.51501431564E+02  0.14515373487E+03  0.12500211061E+03 0.  0.
          2    1    1    2  501    0 -0.91076941101E+02  0.32786104915E+02 -0.22801727670E+04  0.22822264974E+04  0.00000000000E+00 0. -1.
          1    1    1    2  502    0  0.44438281025E+02 -0.57615865780E+02  0.16549494944E+03  0.18078420036E+03  0.00000000000E+00 0. -1.
         22    1    3    3    0    0 -0.34285145252E+01  0.24350940198E+02  0.36437848418E+02  0.43959524539E+02  0.00000000000E+00 0.  1.
         22    1    3    3    0    0  0.50067174601E+02  0.47882066684E+00 -0.87939279982E+02  0.10119421034E+03  0.00000000000E+00 0.  1.
</event>
<event>
 7    1  0.6078244E-006  0.7153902E+02  0.7818608E-02  0.1405377E+00
          2   -1    0    0  502    0  0.00000000000E+00  0.00000000000E+00  0.17421635227E+04  0.17421635227E+04  0.00000000000E+00 0. -1.
          1   -1    0    0  501    0 -0.00000000000E+00 -0.00000000000E+00 -0.46743380994E+03  0.46743380994E+03  0.00000000000E+00 0. -1.
         25    2    1    2    0    0 -0.16203648602E+01  0.26220808589E+02  0.30477115874E+03  0.33044925129E+03  0.12498436739E+03 0.  0.
          2    1    1    2  501    0  0.24965687969E+02 -0.67485281896E+02 -0.45134968446E+03  0.45704932613E+03  0.00000000000E+00 0. -1.
          1    1    1    2  502    0 -0.23345323109E+02  0.41264473307E+02  0.14213082385E+04  0.14220987552E+04  0.00000000000E+00 0. -1.
         22    1    3    3    0    0  0.18251255015E+02 -0.42997363152E+02  0.18400798098E+03  0.18984419562E+03  0.00000000000E+00 0.  1.
         22    1    3    3    0    0 -0.19871619875E+02  0.69218171740E+02  0.12076317776E+03  0.14060505566E+03  0.00000000000E+00 0.  1.
</event>
<event>
 7    1  0.6078244E-006  0.1525192E+03  0.7818608E-02  0.1411296E+00
          2   -1    0    0  502    0  0.00000000000E+00  0.00000000000E+00  0.15405042531E+04  0.15405042531E+04  0.00000000000E+00 0. -1.
          1   -1    0    0  501    0 -0.00000000000E+00 -0.00000000000E+00 -0.30230170682E+04  0.30230170682E+04  0.00000000000E+00 0. -1.
         25    2    1    2    0    0  0.93497849204E+02  0.99582624151E+02 -0.61794911444E+03  0.64509089303E+03  0.12499042120E+03 0.  0.
          2    1    1    2  501    0 -0.11369330308E+03 -0.10613483003E+03 -0.23888942266E+04  0.23939520453E+04  0.00000000000E+00 0. -1.
          1    1    1    2  502    0  0.20195453880E+02  0.65522058806E+01  0.15243305260E+04  0.15244783830E+04  0.00000000000E+00 0. -1.
         22    1    3    3    0    0 -0.89788071119E+00  0.86506592848E+02 -0.23362773614E+03  0.24913072048E+03  0.00000000000E+00 0.  1.
         22    1    3    3    0    0  0.94395729915E+02  0.13076031303E+02 -0.38432137831E+03  0.39596017255E+03  0.00000000000E+00 0.  1.
</event>
<event>
 7    1  0.6078244E-006  0.1048332E+03  0.7818608E-02  0.1376573E+00
          2   -1    0    0  502    0  0.00000000000E+00  0.00000000000E+00  0.30089500057E+03  0.30089500057E+03  0.00000000000E+00 0. -1.
          1   -1    0    0  501    0 -0.00000000000E+00 -0.00000000000E+00 -0.15561711631E+04  0.15561711631E+04  0.00000000000E+00 0. -1.
         25    2    1    2    0    0 -0.35968354993E+01  0.11544413419E+03 -0.28891539712E+03  0.33531483630E+03  0.12499458951E+03 0.  0.
          2    1    1    2  501    0 -0.36271341114E+02 -0.18608704165E+02 -0.12338345747E+04  0.12345078581E+04  0.00000000000E+00 0. -1.
          1    1    1    2  502    0  0.39868176613E+02 -0.96835430020E+02  0.26747380925E+03  0.28724346929E+03  0.00000000000E+00 0. -1.
         22    1    3    3    0    0  0.30366614089E+02  0.27597928889E+02 -0.11897250142E+02  0.42723781330E+02  0.00000000000E+00 0.  1.
         22    1    3    3    0    0 -0.33963449588E+02  0.87846205296E+02 -0.27701814698E+03  0.29259105497E+03  0.00000000000E+00 0.  1.
</event>
<event>
 7    1  0.6078244E-006  0.4248879E+02  0.7818608E-02  0.1504811E+00
          2   -1    0    0  502    0  0.00000000000E+00  0.00000000000E+00  0.35615118078E+03  0.35615118078E+03  0.00000000000E+00 0. -1.
          1   -1    0    0  501    0 -0.00000000000E+00 -0.00000000000E+00 -0.10459655032E+03  0.10459655032E+03  0.00000000000E+00 0. -1.
         25    2    1    2    0    0 -0.27269866505E+02 -0.11205767166E+02  0.19370643318E+03  0.23241313821E+03  0.12499787887E+03 0.  0.
          2    1    1    2  501    0  0.33957316436E+02 -0.26748759056E+02 -0.76881798404E+02  0.88200943172E+02  0.00000000000E+00 0. -1.
          1    1    1    2  502    0 -0.66874499309E+01  0.37954526222E+02  0.13472999568E+03  0.14013364972E+03  0.00000000000E+00 0. -1.
         22    1    3    3    0    0  0.48861599538E+02 -0.11392855815E+02  0.56988102463E+02  0.75926918121E+02  0.00000000000E+00 0.  1.
         22    1    3    3    0    0 -0.76131466043E+02  0.18708864885E+00  0.13671833072E+03  0.15648622009E+03  0.00000000000E+00 0.  1.
</event>
<event>
 7    1  0.6078244E-006  0.9500743E+02  0.7818608E-02  0.1425063E+00
          2   -1    0    0  502    0  0.00000000000E+00  0.00000000000E+00  0.54329021291E+03  0.54329021291E+03  0.00000000000E+00 0. -1.
          1   -1    0    0  501    0 -0.00000000000E+00 -0.00000000000E+00 -0.35075389879E+03  0.35075389879E+03  0.00000000000E+00 0. -1.
         25    2    1    2    0    0  0.11359889178E+03 -0.46242772739E+02 -0.21270106512E+03  0.27551660649E+03  0.12499822041E+03 0.  0.
          2    1    1    2  501    0 -0.22583952435E+02  0.20723668252E+02 -0.99964809107E+02  0.10455844487E+03  0.00000000000E+00 0. -1.
          1    1    1    2  502    0 -0.91014939348E+02  0.25519104487E+02  0.50520218834E+03  0.51396906034E+03  0.00000000000E+00 0. -1.
         22    1    3    3    0    0  0.84508760864E+02 -0.82201799803E+02 -0.10332832855E+03  0.15676609976E+03  0.00000000000E+00 0.  1.
         22    1    3    3    0    0  0.29090130919E+02  0.35959027064E+02 -0.10937273657E+03  0.11875050673E+03  0.00000000000E+00 0.  1.
</event>
<event>
 7    1  0.6078244E-006  0.2958920E+03  0.7818608E-02  0.1170543E+00
          2   -1    0    0  502    0  0.00000000000E+00  0.00000000000E+00  0.15474942806E+04  0.15474942806E+04  0.00000000000E+00 0. -1.
          1   -1    0    0  501    0 -0.00000000000E+00 -0.00000000000E+00 -0.21965853625E+04  0.21965853625E+04  0.00000000000E+00 0. -1.
         25    2    1    2    0    0  0.10146623227E+03  0.30352365005E+03 -0.25363536012E+03  0.42705622760E+03  0.12499649274E+03 0.  0.
          2    1    1    2  501    0 -0.10581737686E+03 -0.79673576197E+01 -0.18397419494E+04  0.18427998363E+04  0.00000000000E+00 0. -1.
          1    1    1    2  502    0  0.43511445815E+01 -0.29555629243E+03  0.14442862276E+04  0.14742235793E+04  0.00000000000E+00 0. -1.
         22    1    3    3    0    0  0.12475859665E+03  0.26613596090E+03 -0.19118947721E+03  0.35063723892E+03  0.00000000000E+00 0. -1.
         22    1    3    3    0    0 -0.23292364377E+02  0.37387689145E+02 -0.62445882909E+02  0.76418988675E+02  0.00000000000E+00 0. -1.
</event>
<event>
 7    1  0.6078244E-006  0.1342111E+03  0.7818608E-02  0.1394484E+00
          2   -1    0    0  502    0  0.00000000000E+00  0.00000000000E+00  0.39718854602E+03  0.39718854602E+03  0.00000000000E+00 0. -1.
          1   -1    0    0  501    0 -0.00000000000E+00 -0.00000000000E+00 -0.77987936492E+03  0.77987936492E+03  0.00000000000E+00 0. -1.
         25    2    1    2    0    0 -0.44129315777E+02 -0.10787947831E+03 -0.12388427137E+03  0.21108672944E+03  0.12499966520E+03 0.  0.
          2    1    1    2  501    0  0.33622967367E+02  0.13334537860E+03 -0.60411807119E+03  0.61957254447E+03  0.00000000000E+00 0. -1.
          1    1    1    2  502    0  0.10506348410E+02 -0.25465900287E+02  0.34531152366E+03  0.34640863703E+03  0.00000000000E+00 0. -1.
         22    1    3    3    0    0  0.38652605259E+02 -0.43505222941E+02 -0.76219103318E+02  0.95896194018E+02  0.00000000000E+00 0.  1.
         22    1    3    3    0    0 -0.82781921036E+02 -0.64374255370E+02 -0.47665168055E+02  0.11519053542E+03  0.00000000000E+00 0.  1.
</event>
<event>
 7    1  0.6078244E-006  0.8922069E+02  0.7818608E-02  0.1387121E+00
          2   -1    0    0  502    0  0.00000000000E+00  0.00000000000E+00  0.23967519323E+04  0.23967519323E+04  0.00000000000E+00 0. -1.
          1   -1    0    0  501    0 -0.00000000000E+00 -0.00000000000E+00 -0.14074124188E+03  0.14074124188E+03  0.00000000000E+00 0. -1.
         25    2    1    2    0    0  0.15407145523E+02 -0.54123583979E+02  0.30882958570E+03  0.33788670809E+03  0.12499988810E+03 0.  0.
          2    1    1    2  501    0 -0.23242712479E+02 -0.37315574237E+02 -0.12133591624E+03  0.12905456340E+03  0.00000000000E+00 0. -1.
          1    1    1    2  502    0  0.78355669561E+01  0.91439158216E+02  0.20685170210E+04  0.20705519027E+04  0.00000000000E+00 0. -1.
         22    1    3    3    0    0 -0.49225252279E+02 -0.52344870092E+02  0.17787450833E+03  0.19183965075E+03  0.00000000000E+00 0. -1.
         22    1    3    3    0    0  0.64632397802E+02 -0.17787138872E+01  0.13095507737E+03  0.14604705734E+03  0.00000000000E+00 0. -1.
</event>
<event>
 7    1  0.6078244E-006  0.3062415E+02  0.7818608E-02  0.1621031E+00
          2   -1    0    0  502    0  0.00000000000E+00  0.00000000000E+00  0.26042383923E+03  0.26042383923E+03  0.00000000000E+00 0. -1.
          1   -1    0    0  501    0 -0.00000000000E+00 -0.00000000000E+00 -0.10314434728E+03  0.10314434728E+03  0.00000000000E+00 0. -1.
         25    2    1    2    0    0  0.15312559285E+02  0.16538305890E+02  0.55455298603E+02  0.13859603623E+03  0.12500232431E+03 0.  0.
          2    1    1    2  501    0  0.60283169167E+01 -0.30754667372E+02 -0.56486536224E+02  0.64598134219E+02  0.00000000000E+00 0. -1.
          1    1    1    2  502    0 -0.21340876202E+02  0.14216361482E+02  0.15831072957E+03  0.16037401606E+03  0.00000000000E+00 0. -1.
         22    1    3    3    0    0  0.16176399449E+02 -0.54046053940E+02  0.23635165001E+02  0.61165945347E+02  0.00000000000E+00 0.  1.
         22    1    3    3    0    0 -0.86384016441E+00  0.70584359830E+02  0.31820133601E+02  0.77430090887E+02  0.00000000000E+00 0.  1.
</event>
<event>
 7    1  0.6078244E-006  0.9160676E+02  0.7818608E-02  0.1329680E+00
          2   -1    0    0  502    0  0.00000000000E+00  0.00000000000E+00  0.19533472519E+04  0.19533472519E+04  0.00000000000E+00 0. -1.
          1   -1    0    0  501    0 -0.00000000000E+00 -0.00000000000E+00 -0.53560695048E+03  0.53560695048E+03  0.00000000000E+00 0. -1.
         25    2    1    2    0    0  0.53457389142E+02 -0.49830493855E+02  0.12455103097E+04  0.12538986027E+04  0.12500001489E+03 0.  0.
          2    1    1    2  501    0  0.19715046894E+01  0.91721892799E+02 -0.52571544923E+03  0.53366049695E+03  0.00000000000E+00 0. -1.
          1    1    1    2  502    0 -0.55428893831E+02 -0.41891398943E+02  0.69794544099E+03  0.70139510276E+03  0.00000000000E+00 0. -1.
         22    1    3    3    0    0  0.48760074709E+02 -0.89960830509E+02  0.78988206872E+03  0.79648237795E+03  0.00000000000E+00 0.  1.
         22    1    3    3    0    0  0.46973144325E+01  0.40130336654E+02  0.45562824098E+03  0.45741622475E+03  0.00000000000E+00 0.  1.
</event>
<event>
 7    1  0.6078244E-006  0.6882537E+02  0.7818608E-02  0.1425800E+00
          2   -1    0    0  502    0  0.00000000000E+00  0.00000000000E+00  0.27978830289E+03  0.27978830289E+03  0.00000000000E+00 0. -1.
          1   -1    0    0  501    0 -0.00000000000E+00 -0.00000000000E+00 -0.57714850938E+03  0.57714850938E+03  0.00000000000E+00 0. -1.
         25    2    1    2    0    0 -0.26775466539E+02 -0.71936885597E+01  0.11914861359E+03  0.17490100150E+03  0.12500117377E+03 0.  0.
          2    1    1    2  501    0  0.64322197115E+02  0.26180157831E+02 -0.54367377654E+03  0.54809116122E+03  0.00000000000E+00 0. -1.
          1    1    1    2  502    0 -0.37546730576E+02 -0.18986469271E+02  0.12716495646E+03  0.13394464956E+03  0.00000000000E+00 0. -1.
         22    1    3    3    0    0 -0.65936518348E+02 -0.22686482581E+02  0.29230336159E+02  0.75608951162E+02  0.00000000000E+00 0.  1.
         22    1    3    3    0    0  0.39161051809E+02  0.15492794021E+02  0.89918277426E+02  0.99292050340E+02  0.00000000000E+00 0.  1.
</event>
<event>
 7    1  0.6078244E-006  0.7108506E+02  0.7818608E-02  0.1379592E+00
          2   -1    0    0  502    0  0.00000000000E+00  0.00000000000E+00  0.35009517257E+03  0.35009517257E+03  0.00000000000E+00 0. -1.
          1   -1    0    0  501    0 -0.00000000000E+00 -0.00000000000E+00 -0.74790493638E+03  0.74790493638E+03  0.00000000000E+00 0. -1.
         25    2    1    2    0    0 -0.66174632041E+02  0.55808518994E+02 -0.25696164865E+01  0.15207113115E+03  0.12500141313E+03 0.  0.
          2    1    1    2  501    0 -0.52023010458E+01 -0.58423162823E+02 -0.66463925518E+03  0.66722235381E+03  0.00000000000E+00 0. -1.
          1    1    1    2  502    0  0.71376933087E+02  0.26146438287E+01  0.26939910785E+03  0.27870662398E+03  0.00000000000E+00 0. -1.
         22    1    3    3    0    0 -0.35816109394E+02 -0.33537271498E+02  0.23168076258E+02  0.54261423029E+02  0.00000000000E+00 0. -1.
         22    1    3    3    0    0 -0.30358522648E+02  0.89345790492E+02 -0.25737692744E+02  0.97809708126E+02  0.00000000000E+00 0. -1.
</event>
<event>
 7    1  0.6078244E-006  0.4264547E+02  0.7818608E-02  0.1530417E+00
          2   -1    0    0  502    0  0.00000000000E+00  0.00000000000E+00  0.18114199935E+04  0.18114199935E+04  0.00000000000E+00 0. -1.
          1   -1    0    0  501    0 -0.00000000000E+00 -0.00000000000E+00 -0.10460887894E+03  0.10460887894E+03  0.00000000000E+00 0. -1.
         25    2    1    2    0    0  0.35870368363E+02 -0.16415034531E+02  0.90058654248E+03  0.91007353616E+03  0.12498633542E+03 0.  0.
          2    1    1    2  501    0 -0.20464657490E+02 -0.25037689464E+02 -0.96692214460E+02  0.10195622804E+03  0.00000000000E+00 0. -1.
          1    1    1    2  502    0 -0.15405710873E+02  0.41452723996E+02  0.90291678652E+03  0.90399910821E+03  0.00000000000E+00 0. -1.
         22    1    3    3    0    0 -0.36382014182E+02  0.58500133561E+01  0.55931408731E+03  0.56052664689E+03  0.00000000000E+00 0.  1.
         22    1    3    3    0    0  0.72252382544E+02 -0.22265047887E+02  0.34127245517E+03  0.34954688927E+03  0.00000000000E+00 0.  1.
</event>
<event>
 7    1  0.6078244E-006  0.5642932E+02  0.7818608E-02  0.1452793E+00
          2   -1    0    0  502    0  0.00000000000E+00  0.00000000000E+00  0.41468413487E+03  0.41468413487E+03  0.00000000000E+00 0. -1.
          1   -1    0    0  501    0 -0.00000000000E+00 -0.00000000000E+00 -0.21106273997E+03  0.21106273997E+03  0.00000000000E+00 0. -1.
         25    2    1    2    0    0 -0.15076937887E+02 -0.14345756206E+02 -0.37697583540E+02  0.13220900703E+03  0.12499999583E+03 0.  0.
          2    1    1    2  501    0  0.37607617860E+02  0.49712210872E+02 -0.11710883644E+03  0.13266543033E+03  0.00000000000E+00 0. -1.
          1    1    1    2  502    0 -0.22530679973E+02 -0.35366454666E+02  0.35842781488E+03  0.36087243749E+03  0.00000000000E+00 0. -1.
         22    1    3    3    0    0 -0.88765765995E+00  0.30087880338E+02  0.34793944765E+02  0.46007467564E+02  0.00000000000E+00 0.  1.
         22    1    3    3    0    0 -0.14189280227E+02 -0.44433636544E+02 -0.72491528305E+02  0.86201539464E+02  0.00000000000E+00 0.  1.
</event>
<event>
 7    1  0.6078244E-006  0.1452216E+03  0.7818608E-02  0.1358642E+00
          2   -1    0    0  502    0  0.00000000000E+00  0.00000000000E+00  0.63538947784E+03  0.63538947784E+03  0.00000000000E+00 0. -1.
          1   -1    0    0  501    0 -0.00000000000E+00 -0.00000000000E+00 -0.53137646845E+03  0.53137646845E+03  0.00000000000E+00 0. -1.
         25    2    1    2    0    0  0.46043155105E+02  0.15936711913E+03 -0.24445599842E+03  0.32079582757E+03  0.12503350362E+03 0.  0.
          2    1    1    2  501    0 -0.23899356371E+02 -0.13336176333E+03 -0.22976040468E+03  0.26673279272E+03  0.00000000000E+00 0. -1.
          1    1    1    2  502    0 -0.22143798734E+02 -0.26005355801E+02  0.57822941250E+03  0.57923732600E+03  0.00000000000E+00 0. -1.
         22    1    3    3    0    0  0.25807786552E+02  0.40320318776E+02 -0.17513192655E+03  0.18155704792E+03  0.00000000000E+00 0.  1.
         22    1    3    3    0    0  0.20235368553E+02  0.11904680036E+03 -0.69324071871E+02  0.13923877964E+03  0.00000000000E+00 0.  1.
</event>
<event>
 7    1  0.6078244E-006  0.3719012E+02  0.7818608E-02  0.1591306E+00
          2   -1    0    0  502    0  0.00000000000E+00  0.00000000000E+00  0.18931705669E+04  0.18931705669E+04  0.00000000000E+00 0. -1.
          1   -1    0    0  501    0 -0.00000000000E+00 -0.00000000000E+00 -0.38758344959E+02  0.38758344959E+02  0.00000000000E+00 0. -1.
         25    2    1    2    0    0 -0.37076847742E+02 -0.39224145306E+02  0.77214436174E+03  0.78405798011E+03  0.12500709816E+03 0.  0.
          2    1    1    2  501    0  0.12226939780E+02  0.34948967672E+02 -0.22162934930E+02  0.43152335771E+02  0.00000000000E+00 0. -1.
          1    1    1    2  502    0  0.24849907962E+02  0.42751776333E+01  0.11044307951E+04  0.11047185960E+04  0.00000000000E+00 0. -1.
         22    1    3    3    0    0 -0.49178384256E+02 -0.79535445838E+02  0.49834038110E+03  0.50703800258E+03  0.00000000000E+00 0.  1.
         22    1    3    3    0    0  0.12101536514E+02  0.40311300532E+02  0.27380398064E+03  0.27701997753E+03  0.00000000000E+00 0.  1.
</event>
<event>
 7    1  0.6078244E-006  0.3272410E+03  0.7818608E-02  0.1182050E+00
          2   -1    0    0  502    0  0.00000000000E+00  0.00000000000E+00  0.17000392066E+04  0.17000392066E+04  0.00000000000E+00 0. -1.
          1   -1    0    0  501    0 -0.00000000000E+00 -0.00000000000E+00 -0.42904486111E+03  0.42904486111E+03  0.00000000000E+00 0. -1.
         25    2    1    2    0    0  0.12934489444E+03 -0.24483063573E+03  0.39552589992E+03  0.49873378373E+03  0.12499003004E+03 0.  0.
          2    1    1    2  501    0 -0.96447379938E+02  0.32238093005E+03 -0.30063433797E+03  0.45123449151E+03  0.00000000000E+00 0. -1.
          1    1    1    2  502    0 -0.32897514504E+02 -0.77550294320E+02  0.11761027836E+04  0.11791157925E+04  0.00000000000E+00 0. -1.
         22    1    3    3    0    0  0.78360971401E+02 -0.50202606440E+02  0.18753110849E+03  0.20935295600E+03  0.00000000000E+00 0.  1.
         22    1    3    3    0    0  0.50983923041E+02 -0.19462802929E+03  0.20799479143E+03  0.28938082773E+03  0.00000000000E+00 0.  1.
</event>
<event>
 7    1  0.6078244E-006  0.8936644E+02  0.7818608E-02  0.1388245E+00
          2   -1    0    0  502    0  0.00000000000E+00  0.00000000000E+00  0.36495365054E+04  0.36495365054E+04  0.00000000000E+00 0. -1.
          1   -1    0    0  501    0 -0.00000000000E+00 -0.00000000000E+00 -0.12583435641E+04  0.12583435641E+04  0.00000000000E+00 0. -1.
         25    2    1    2    0    0 -0.31107545832E+02 -0.10568905737E+03  0.50877407538E+03  0.53536343522E+03  0.12500036695E+03 0.  0.
          2    1    1    2  501    0  0.55713713281E+02  0.69823987752E+02 -0.12432951624E+04  0.12465000072E+04  0.00000000000E+00 0. -1.
          1    1    1    2  502    0 -0.24606167449E+02  0.35865069614E+02  0.31257140282E+04  0.31260166271E+04  0.00000000000E+00 0. -1.
         22    1    3    3    0    0 -0.25136571284E+02 -0.65127347599E+02  0.86741470816E+02  0.11134406756E+03  0.00000000000E+00 0. -1.
         22    1    3    3    0    0 -0.59709745481E+01 -0.40561709767E+02  0.42203260456E+03  0.42401936766E+03  0.00000000000E+00 0. -1.
</event>
<event>
 7    1  0.6078244E-006  0.7195341E+02  0.7818608E-02  0.1406123E+00
          2   -1    0    0  502    0  0.00000000000E+00  0.00000000000E+00  0.16917441026E+04  0.16917441026E+04  0.00000000000E+00 0. -1.
          1   -1    0    0  501    0 -0.00000000000E+00 -0.00000000000E+00 -0.34898906520E+03  0.34898906520E+03  0.00000000000E+00 0. -1.
         25    2    1    2    0    0 -0.46449511073E+02 -0.72586714147E+02 -0.16121876555E+03  0.22144622924E+03  0.12498221445E+03 0.  0.
          2    1    1    2  501    0 -0.19053339393E+02  0.42813952338E+02 -0.15337633264E+03  0.16037569539E+03  0.00000000000E+00 0. -1.
          1    1    1    2  502    0  0.65502850466E+02  0.29772761809E+02  0.16573501356E+04  0.16589112431E+04  0.00000000000E+00 0. -1.
         22    1    3    3    0    0 -0.35226302756E+02  0.70486573841E+01  0.55006241779E+01  0.36343264068E+02  0.00000000000E+00 0.  1.
         22    1    3    3    0    0 -0.11223208317E+02 -0.79635371531E+02 -0.16671938973E+03  0.18510296517E+03  0.00000000000E+00 0.  1.
</event>
<event>
 7    1  0.6078244E-006  0.2606174E+03  0.7818608E-02  0.1275412E+00
          2   -1    0    0  502    0  0.00000000000E+00  0.00000000000E+00  0.50607168443E+03  0.50607168443E+03  0.00000000000E+00 0. -1.
          1   -1    0    0  501    0 -0.00000000000E+00 -0.00000000000E+00 -0.58523311763E+03  0.58523311763E+03  0.00000000000E+00 0. -1.
         25    2    1    2    0    0  0.18220677824E+03  0.14962858120E+03 -0.22037927645E+03  0.34609309814E+03  0.12500153896E+03 0.  0.
          2    1    1    2  501    0  0.16916465115E+01  0.40166391580E+02 -0.26092575601E+03  0.26400464168E+03  0.00000000000E+00 0. -1.
          1    1    1    2  502    0 -0.18389842476E+03 -0.18979497278E+03  0.40214359926E+03  0.48120706224E+03  0.00000000000E+00 0. -1.
         22    1    3    3    0    0  0.68646298726E+02 -0.98415454224E+01 -0.40962177119E+02  0.80542350967E+02  0.00000000000E+00 0.  1.
         22    1    3    3    0    0  0.11356047952E+03  0.15947012662E+03 -0.17941709933E+03  0.26555074717E+03  0.00000000000E+00 0.  1.
</event>
<event>
 7    1  0.6078244E-006  0.5218782E+02  0.7818608E-02  0.1476696E+00
          2   -1    0    0  502    0  0.00000000000E+00  0.00000000000E+00  0.24888729291E+04  0.24888729291E+04  0.00000000000E+00 0. -1.
          1   -1    0    0  501    0 -0.00000000000E+00 -0.00000000000E+00 -0.62880563125E+02  0.62880563125E+02  0.00000000000E+00 0. -1.
         25    2    1    2    0    0 -0.51414950803E+02  0.37248491951E+01  0.74004292402E+02  0.15413980371E+03  0.12500028851E+03 0.  0.
          2    1    1    2  501    0  0.15922033668E+02  0.34677725219E+02 -0.63610688133E+01  0.38684867571E+02  0.00000000000E+00 0. -1.
          1    1    1    2  502    0  0.35492917135E+02 -0.38402574414E+02  0.23583491424E+04  0.23589288210E+04  0.00000000000E+00 0. -1.
         22    1    3    3    0    0 -0.57662191086E+02  0.41292077954E+01  0.10642909402E+03  0.12111618675E+03  0.00000000000E+00 0.  1.
         22    1    3    3    0    0  0.62472402832E+01 -0.40435860032E+00 -0.32424801622E+02  0.33023616962E+02  0.00000000000E+00 0.  1.
</event>
<event>
 7    1  0.6078244E-006  0.9262220E+02  0.7818608E-02  0.1434409E+00
          2   -1    0    0  502    0  0.00000000000E+00  0.00000000000E+00  0.94633854560E+03  0.94633854560E+03  0.00000000000E+00 0. -1.
          1   -1    0    0  501    0 -0.00000000000E+00 -0.00000000000E+00 -0.11376130958E+03  0.11376130958E+03  0.00000000000E+00 0. -1.
         25    2    1    2    0    0  0.95035881448E+02 -0.60466751762E+02  0.14665301034E+02  0.16889874670E+03  0.12499467489E+03 0.  0.
          2    1    1    2  501    0 -0.29053271353E+02 -0.37128270222E+01 -0.27866875560E+02  0.40428213098E+02  0.00000000000E+00 0. -1.
          1    1    1    2  502    0 -0.65982610095E+02  0.64179578784E+02  0.84577881055E+03  0.85077289539E+03  0.00000000000E+00 0. -1.
         22    1    3    3    0    0  0.80655859407E+02 -0.14419718225E+02  0.60893137577E+02  0.10208462242E+03  0.00000000000E+00 0.  1.
         22    1    3    3    0    0  0.14380022040E+02 -0.46047033537E+02 -0.46227836544E+02  0.66814124277E+02  0.00000000000E+00 0.  1.
</event>
<event>
 7    1  0.6078244E-006  0.7600456E+02  0.7818608E-02  0.1371068E+00
          2   -1    0    0  502    0  0.00000000000E+00  0.00000000000E+00  0.34367664260E+04  0.34367664260E+04  0.00000000000E+00 0. -1.
          1   -1    0    0  501    0 -0.00000000000E+00 -0.00000000000E+00 -0.83945433800E+01  0.83945433800E+01  0.00000000000E+00 0. -1.
         25    2    1    2    0    0  0.49293240094E+02  0.10965366745E+03  0.25445311289E+04  0.25504360350E+04  0.12502620641E+03 0.  0.
          2    1    1    2  501    0 -0.49817761878E+02 -0.50820476241E+02  0.31973024549E+03  0.32755451467E+03  0.00000000000E+00 0. -1.
          1    1    1    2  502    0  0.52452178409E+00 -0.58833191209E+02  0.56411050815E+03  0.56717041964E+03  0.00000000000E+00 0. -1.
         22    1    3    3    0    0  0.56313658698E+02  0.81758935845E+02  0.86810526681E+03  0.87376341535E+03  0.00000000000E+00 0.  1.
         22    1    3    3    0    0 -0.70204186042E+01  0.27894731605E+02  0.16764258621E+04  0.16766726197E+04  0.00000000000E+00 0.  1.
</event>
<event>
 7    1  0.6078244E-006  0.4420442E+02  0.7818608E-02  0.1506280E+00
          2   -1    0    0  502    0  0.00000000000E+00  0.00000000000E+00  0.51450350761E+03  0.51450350761E+03  0.00000000000E+00 0. -1.
          1   -1    0    0  501    0 -0.00000000000E+00 -0.00000000000E+00 -0.82813919637E+03  0.82813919637E+03  0.00000000000E+00 0. -1.
         25    2    1    2    0    0  0.21299642762E+02 -0.43264152578E+02 -0.28178656046E+03  0.31201723041E+03  0.12500249891E+03 0.  0.
          2    1    1    2  501    0 -0.42747959566E+02  0.13515820640E+02 -0.52961556230E+03  0.53150983931E+03  0.00000000000E+00 0. -1.
          1    1    1    2  502    0  0.21448316804E+02  0.29748331938E+02  0.49776643401E+03  0.49911563427E+03  0.00000000000E+00 0. -1.
         22    1    3    3    0    0 -0.51661881183E+02 -0.58716644817E+01 -0.10854091144E+03  0.12035180043E+03  0.00000000000E+00 0.  1.
         22    1    3    3    0    0  0.72961523945E+02 -0.37392488096E+02 -0.17324564902E+03  0.19166542997E+03  0.00000000000E+00 0.  1.
</event>
<event>
 7    1  0.6078244E-006  0.5439846E+02  0.7818608E-02  0.1481755E+00
          2   -1    0    0  502    0  0.00000000000E+00  0.00000000000E+00  0.46237838743E+03  0.46237838743E+03  0.00000000000E+00 0. -1.
          1   -1    0    0  501    0 -0.00000000000E+00 -0.00000000000E+00 -0.53556616241E+02  0.53556616241E+02  0.00000000000E+00 0. -1.
         25    2    1    2    0    0  0.99955396664E+01  0.27640179371E+02  0.28475428332E+03  0.31236862512E+03  0.12500106304E+03 0.  0.
          2    1    1    2  501    0  0.12131202977E+02 -0.55171886840E+02 -0.16322924610E+02  0.58800859271E+02  0.00000000000E+00 0. -1.
          1    1    1    2  502    0 -0.22126742643E+02  0.27531707469E+02  0.14039041248E+03  0.14476551928E+03  0.00000000000E+00 0. -1.
         22    1    3    3    0    0 -0.31293913833E+02  0.47831913515E+02  0.24506171048E+03  0.25163950989E+03  0.00000000000E+00 0.  1.
         22    1    3    3    0    0  0.41289453500E+02 -0.20191734144E+02  0.39692572839E+02  0.60729115230E+02  0.00000000000E+00 0.  1.
</event>
<event>
 7    1  0.6078244E-006  0.6593501E+02  0.7818608E-02  0.1491003E+00
          2   -1    0    0  502    0  0.00000000000E+00  0.00000000000E+00  0.28592777364E+03  0.28592777364E+03  0.00000000000E+00 0. -1.
          1   -1    0    0  501    0 -0.00000000000E+00 -0.00000000000E+00 -0.23082372648E+03  0.23082372648E+03  0.00000000000E+00 0. -1.
         25    2    1    2    0    0  0.31311600937E+02 -0.26952889381E+02 -0.43484323073E+02  0.13864779695E+03  0.12500180257E+03 0.  0.
          2    1    1    2  501    0  0.11885989631E+02 -0.24592251588E+02 -0.13360419255E+03  0.13636764959E+03  0.00000000000E+00 0. -1.
          1    1    1    2  502    0 -0.43197590567E+02  0.51545140969E+02  0.23219256278E+03  0.24173605358E+03  0.00000000000E+00 0. -1.
         22    1    3    3    0    0  0.57484202486E+02  0.37403634942E+01 -0.69788185803E+02  0.90492069996E+02  0.00000000000E+00 0. -1.
         22    1    3    3    0    0 -0.26172601549E+02 -0.30693252875E+02  0.26303862730E+02  0.48155726954E+02  0.00000000000E+00 0. -1.
</event>
<event>
 7    1  0.6078244E-006  0.3979305E+02  0.7818608E-02  0.1538081E+00
          2   -1    0    0  502    0  0.00000000000E+00  0.00000000000E+00  0.13475733952E+03  0.13475733952E+03  0.00000000000E+00 0. -1.
          1   -1    0    0  501    0 -0.00000000000E+00 -0.00000000000E+00 -0.70484078820E+03  0.70484078820E+03  0.00000000000E+00 0. -1.
         25    2    1    2    0    0  0.41304133975E+02 -0.31449402970E+02 -0.52934003237E+03  0.54637189922E+03  0.12500514375E+03 0.  0.
          2    1    1    2  501    0 -0.89785479598E+01  0.37864782025E+02 -0.16249676972E+03  0.16709146062E+03  0.00000000000E+00 0. -1.
          1    1    1    2  502    0 -0.32325586015E+02 -0.64153790553E+01  0.12175335342E+03  0.12613476788E+03  0.00000000000E+00 0. -1.
         22    1    3    3    0    0 -0.10395583180E+02  0.37659241279E+02 -0.27560229802E+03  0.27835752779E+03  0.00000000000E+00 0. -1.
         22    1    3    3    0    0  0.51699717155E+02 -0.69108644249E+02 -0.25373773435E+03  0.26801437144E+03  0.00000000000E+00 0. -1.
</event>
<event>
 7    1  0.6078244E-006  0.3253792E+02  0.7818608E-02  0.1614391E+00
          2   -1    0    0  502    0  0.00000000000E+00  0.00000000000E+00  0.25035392115E+03  0.25035392115E+03  0.00000000000E+00 0. -1.
          1   -1    0    0  501    0 -0.00000000000E+00 -0.00000000000E+00 -0.60542347982E+02  0.60542347982E+02  0.00000000000E+00 0. -1.
         25    2    1    2    0    0 -0.11809195097E+02 -0.48321417375E+01  0.11099254277E+03  0.16765173887E+03  0.12499981725E+03 0.  0.
          2    1    1    2  501    0  0.32906304666E+02 -0.87580721100E+01 -0.21208865965E+02  0.40116638810E+02  0.00000000000E+00 0. -1.
          1    1    1    2  502    0 -0.21097109569E+02  0.13590213847E+02  0.10002789637E+03  0.10312789146E+03  0.00000000000E+00 0. -1.
         22    1    3    3    0    0 -0.10356540721E+02 -0.34899449055E+02  0.12800072558E+03  0.13307672685E+03  0.00000000000E+00 0. -1.
         22    1    3    3    0    0 -0.14526543763E+01  0.30067307318E+02 -0.17008182807E+02  0.34575012024E+02  0.00000000000E+00 0. -1.
</event>
<event>
 7    1  0.6078244E-006  0.2372593E+03  0.7818608E-02  0.1333081E+00
          2   -1    0    0  502    0  0.00000000000E+00  0.00000000000E+00  0.62232663047E+03  0.62232663047E+03  0.00000000000E+00 0. -1.
          1   -1    0    0  501    0 -0.00000000000E+00 -0.00000000000E+00 -0.29908751080E+03  0.29908751080E+03  0.00000000000E+00 0. -1.
         25    2    1    2    0    0 -0.82693468958E+02 -0.21732749714E+03  0.38799534659E+03  0.46929210407E+03  0.12500095656E+03 0.  0.
          2    1    1    2  501    0  0.60120977198E+02  0.23030448121E+03 -0.20215131314E+03  0.31228166672E+03  0.00000000000E+00 0. -1.
          1    1    1    2  502    0  0.22572491760E+02 -0.12976984071E+02  0.13739508622E+03  0.13984037048E+03  0.00000000000E+00 0. -1.
         22    1    3    3    0    0  0.13833460411E+02  0.99608068219E+01  0.23844886453E+02  0.29311446730E+02  0.00000000000E+00 0.  1.
         22    1    3    3    0    0 -0.96526929369E+02 -0.22728830396E+03  0.36415046014E+03  0.43998065734E+03  0.00000000000E+00 0.  1.
</event>
<event>
 7    1  0.6078244E-006  0.9106770E+02  0.7818608E-02  0.1446666E+00
          2   -1    0    0  502    0  0.00000000000E+00  0.00000000000E+00  0.79126523373E+03  0.79126523373E+03  0.00000000000E+00 0. -1.
          1   -1    0    0  501    0 -0.00000000000E+00 -0.00000000000E+00 -0.15969022046E+03  0.15969022046E+03  0.00000000000E+00 0. -1.
         25    2    1    2    0    0  0.21224922845E+02 -0.83051181116E+02 -0.77299275557E+02  0.17013897848E+03  0.12499639180E+03 0.  0.
          2    1    1    2  501    0 -0.47758393590E+02  0.88962742382E+02  0.35704890761E+02  0.10709842629E+03  0.00000000000E+00 0. -1.
          1    1    1    2  502    0  0.26533470746E+02 -0.59115612663E+01  0.67316939806E+03  0.67371804942E+03  0.00000000000E+00 0. -1.
         22    1    3    3    0    0 -0.21727813122E+02 -0.73193212689E+02  0.52840436432E+01  0.76532773137E+02  0.00000000000E+00 0. -1.
         22    1    3    3    0    0  0.42952735966E+02 -0.98579684264E+01 -0.82583319200E+02  0.93606205342E+02  0.00000000000E+00 0. -1.
</event>
<event>
 7    1  0.6078244E-006  0.7301524E+02  0.7818608E-02  0.1405533E+00
          2   -1    0    0  502    0  0.00000000000E+00  0.00000000000E+00  0.28777442541E+03  0.28777442541E+03  0.00000000000E+00 0. -1.
          1   -1    0    0  501    0 -0.00000000000E+00 -0.00000000000E+00 -0.36746793020E+03  0.36746793020E+03  0.00000000000E+00 0. -1.
         25    2    1    2    0    0 -0.10978780145E+02 -0.28212077204E+02 -0.12292314757E+02  0.12919862832E+03  0.12499891857E+03 0.  0.
          2    1    1    2  501    0  0.27157169013E+02  0.71694922583E+02 -0.28933111145E+03  0.29931616362E+03  0.00000000000E+00 0. -1.
          1    1    1    2  502    0 -0.16178388868E+02 -0.43482845379E+02  0.22192992141E+03  0.22672756367E+03  0.00000000000E+00 0. -1.
         22    1    3    3    0    0 -0.38750159719E+02 -0.47567107950E+02  0.35309381357E+02  0.70788113754E+02  0.00000000000E+00 0. -1.
         22    1    3    3    0    0  0.27771379575E+02  0.19355030746E+02 -0.47601696114E+02  0.58410514563E+02  0.00000000000E+00 0. -1.
</event>
<event>
 7    1  0.6078244E-006  0.7454668E+02  0.7818608E-02  0.1448111E+00
          2   -1    0    0  502    0  0.00000000000E+00  0.00000000000E+00  0.73332323626E+03  0.73332323626E+03  0.00000000000E+00 0. -1.
          1   -1    0    0  501    0 -0.00000000000E+00 -0.00000000000E+00 -0.44459802137E+03  0.44459802137E+03  0.00000000000E+00 0. -1.
         25    2    1    2    0    0 -0.43897844044E+02  0.41567445141E+02 -0.14889215147E+03  0.20358907494E+03  0.12499906183E+03 0.  0.
          2    1    1    2  501    0 -0.27201676799E+02 -0.18427118025E+02 -0.26536168154E+03  0.26738794275E+03  0.00000000000E+00 0. -1.
          1    1    1    2  502    0  0.71099520843E+02 -0.23140327117E+02  0.70297904790E+03  0.70694423994E+03  0.00000000000E+00 0. -1.
         22    1    3    3    0    0 -0.13489919433E+01  0.56693216842E+02 -0.10056423239E+02  0.57594029756E+02  0.00000000000E+00 0. -1.
         22    1    3    3    0    0 -0.42548852101E+02 -0.15125771701E+02 -0.13883572823E+03  0.14599504518E+03  0.00000000000E+00 0. -1.
</event>
<event>
 7    1  0.6078244E-006  0.3846660E+02  0.7818608E-02  0.1601471E+00
          2   -1    0    0  502    0  0.00000000000E+00  0.00000000000E+00  0.56822658396E+03  0.56822658396E+03  0.00000000000E+00 0. -1.
          1   -1    0    0  501    0 -0.00000000000E+00 -0.00000000000E+00 -0.52900185969E+03  0.52900185969E+03  0.00000000000E+00 0. -1.
         25    2    1    2    0    0  0.16853313769E+02 -0.54309719891E+02 -0.90521293498E+02  0.16447460839E+03  0.12499684944E+03 0.  0.
          2    1    1    2  501    0  0.45692283500E+01  0.22465472856E+02 -0.40048249246E+03  0.40113813342E+03  0.00000000000E+00 0. -1.
          1    1    1    2  502    0 -0.21422542119E+02  0.31844247034E+02  0.53022851023E+03  0.53161570184E+03  0.00000000000E+00 0. -1.
         22    1    3    3    0    0  0.99111499914E+01 -0.95112666657E+02 -0.58050514563E+02  0.11186828189E+03  0.00000000000E+00 0. -1.
         22    1    3    3    0    0  0.69421637778E+01  0.40802946766E+02 -0.32470778936E+02  0.52606326496E+02  0.00000000000E+00 0. -1.
</event>
<event>
 7    1  0.6078244E-006  0.1585736E+03  0.7818608E-02  0.1323110E+00
          2   -1    0    0  502    0  0.00000000000E+00  0.00000000000E+00  0.89662779183E+03  0.89662779183E+03  0.00000000000E+00 0. -1.
          1   -1    0    0  501    0 -0.00000000000E+00 -0.00000000000E+00 -0.15453086013E+04  0.15453086013E+04  0.00000000000E+00 0. -1.
         25    2    1    2    0    0 -0.15336863908E+03  0.10536403999E+03  0.15899808598E+03  0.27482485909E+03  0.12499916580E+03 0.  0.
          2    1    1    2  501    0  0.42463129417E+02  0.25370971224E+01 -0.14782791563E+04  0.14788910771E+04  0.00000000000E+00 0. -1.
          1    1    1    2  502    0  0.11090550967E+03 -0.10790113711E+03  0.67060026082E+03  0.68822045689E+03  0.00000000000E+00 0. -1.
         22    1    3    3    0    0 -0.12310931825E+03  0.65083870914E+02  0.38896649918E+02  0.14458479819E+03  0.00000000000E+00 0. -1.
         22    1    3    3    0    0 -0.30259320831E+02  0.40280169072E+02  0.12010143606E+03  0.13024006089E+03  0.00000000000E+00 0. -1.
</event>
<event>
 7    1  0.6078244E-006  0.5682676E+02  0.7818608E-02  0.1429813E+00
          2   -1    0    0  502    0  0.00000000000E+00  0.00000000000E+00  0.35290856257E+04  0.35290856257E+04  0.00000000000E+00 0. -1.
          1   -1    0    0  501    0 -0.00000000000E+00 -0.00000000000E+00 -0.74419687090E+02  0.74419687090E+02  0.00000000000E+00 0. -1.
         25    2    1    2    0    0 -0.35078807022E+02  0.19377226161E+02  0.28007923511E+03  0.30931394029E+03  0.12499894447E+03 0.  0.
          2    1    1    2  501    0 -0.15284952904E+02 -0.47003515944E+02 -0.49289945377E+02  0.69803001451E+02  0.00000000000E+00 0. -1.
          1    1    1    2  502    0  0.50363759925E+02  0.27626289783E+02  0.32238766489E+04  0.32243883710E+04  0.00000000000E+00 0. -1.
         22    1    3    3    0    0  0.24196871824E+01  0.38877250296E+02  0.25931298728E+03  0.26222227374E+03  0.00000000000E+00 0. -1.
         22    1    3    3    0    0 -0.37498494204E+02 -0.19500024135E+02  0.20766247836E+02  0.47091666545E+02  0.00000000000E+00 0. -1.
</event>
<event>
 7    1  0.6078244E-006  0.7054008E+02  0.7818608E-02  0.1388528E+00
          2   -1    0    0  502    0  0.00000000000E+00  0.00000000000E+00  0.86935088979E+03  0.86935088979E+03  0.00000000000E+00 0. -1.
          1   -1    0    0  501    0 -0.00000000000E+00 -0.00000000000E+00 -0.20376682055E+03  0.20376682055E+03  0.00000000000E+00 0. -1.
         25    2    1    2    0    0  0.23184127365E+02  0.78775494705E+02  0.58413534159E+02  0.16056008236E+03  0.12499726696E+03 0.  0.
          2    1    1    2  501    0 -0.53014382835E+02 -0.14558859160E+02 -0.14603008391E+03  0.15603611946E+03  0.00000000000E+00 0. -1.
          1    1    1    2  502    0  0.29830255470E+02 -0.64216635545E+02  0.75320061899E+03  0.75652150853E+03  0.00000000000E+00 0. -1.
         22    1    3    3    0    0  0.54864485880E+02  0.70585865194E+02  0.81130725057E+02  0.12072560095E+03  0.00000000000E+00 0. -1.
         22    1    3    3    0    0 -0.31680358515E+02  0.81896295114E+01 -0.22717190898E+02  0.39834481413E+02  0.00000000000E+00 0. -1.
</event>
<event>
 7    1  0.6078244E-006  0.1481583E+03  0.7818608E-02  0.1326631E+00
          2   -1    0    0  502    0  0.00000000000E+00  0.00000000000E+00  0.17166176973E+03  0.17166176973E+03  0.00000000000E+00 0. -1.
          1   -1    0    0  501    0 -0.00000000000E+00 -0.00000000000E+00 -0.21691841675E+04  0.21691841675E+04  0.00000000000E+00 0. -1.
         25    2    1    2    0    0  0.10721514067E+03 -0.54771992794E+02 -0.59827894582E+03  0.62294284285E+03  0.12500012348E+03 0.  0.
          2    1    1    2  501    0  0.58539809765E+01 -0.43739865202E+02 -0.15228955158E+04  0.15235347705E+04  0.00000000000E+00 0. -1.
          1    1    1    2  502    0 -0.11306912165E+03  0.98511857996E+02  0.12365206383E+03  0.19436832388E+03  0.00000000000E+00 0. -1.
         22    1    3    3    0    0  0.10385346650E+03 -0.70349895881E+02 -0.59304955307E+03  0.60617029188E+03  0.00000000000E+00 0. -1.
         22    1    3    3    0    0  0.33616741686E+01  0.15577903087E+02 -0.52293927474E+01  0.16772550978E+02  0.00000000000E+00 0. -1.
</event>
<event>
 7    1  0.6078244E-006  0.2224524E+03  0.7818608E-02  0.1239568E+00
          2   -1    0    0  502    0  0.00000000000E+00  0.00000000000E+00  0.36208376794E+03  0.36208376794E+03  0.00000000000E+00 0. -1.
          1   -1    0    0  501    0 -0.00000000000E+00 -0.00000000000E+00 -0.25076282793E+04  0.25076282793E+04  0.00000000000E+00 0. -1.
         25    2    1    2    0    0 -0.38720872965E+02  0.19172946054E+03 -0.75620884749E+03  0.79103421865E+03  0.12499528795E+03 0.  0.
          2    1    1    2  501    0 -0.11076596935E+02 -0.23668777482E+03 -0.17225531859E+04  0.17387734964E+04  0.00000000000E+00 0. -1.
          1    1    1    2  502    0  0.49797469900E+02  0.44958314280E+02  0.33321752202E+03  0.33990433214E+03  0.00000000000E+00 0. -1.
         22    1    3    3    0    0 -0.42498574250E+02  0.19776575645E+02 -0.74963460166E+02  0.88412454539E+02  0.00000000000E+00 0.  1.
         22    1    3    3    0    0  0.37777012843E+01  0.17195288490E+03 -0.68124538733E+03  0.70262176411E+03  0.00000000000E+00 0.  1.
</event>
<event>
 7    1  0.6078244E-006  0.3764151E+02  0.7818608E-02  0.1578004E+00
          2   -1    0    0  502    0  0.00000000000E+00  0.00000000000E+00  0.66019139099E+02  0.66019139099E+02  0.00000000000E+00 0. -1.
          1   -1    0    0  501    0 -0.00000000000E+00 -0.00000000000E+00 -0.79300643387E+03  0.79300643387E+03  0.00000000000E+00 0. -1.
         25    2    1    2    0    0 -0.46389118742E+02 -0.28165603193E+01 -0.82379928866E+02  0.15674726303E+03  0.12499347358E+03 0.  0.
          2    1    1    2  501    0  0.31886450498E+02 -0.19995370213E+02 -0.66645786562E+03  0.66751977289E+03  0.00000000000E+00 0. -1.
          1    1    1    2  502    0  0.14502668244E+02  0.22811930532E+02  0.21850499708E+02  0.34758537056E+02  0.00000000000E+00 0. -1.
         22    1    3    3    0    0 -0.85257244298E+02 -0.18414478587E+02 -0.73206935595E+02  0.11387337769E+03  0.00000000000E+00 0.  1.
         22    1    3    3    0    0  0.38868125556E+02  0.15597918268E+02 -0.91729932704E+01  0.42873885339E+02  0.00000000000E+00 0.  1.
</event>
<event>
 7    1  0.6078244E-006  0.5632314E+02  0.7818608E-02  0.1524420E+00
          2   -1    0    0  502    0  0.00000000000E+00  0.00000000000E+00  0.74653852256E+03  0.74653852256E+03  0.00000000000E+00 0. -1.
          1   -1    0    0  501    0 -0.00000000000E+00 -0.00000000000E+00 -0.17335021678E+04  0.17335021678E+04  0.00000000000E+00 0. -1.
         25    2    1    2    0    0 -0.12038784634E+02 -0.41996544003E+02 -0.24203126043E+03  0.27588760454E+03  0.12500478897E+03 0.  0.
          2    1    1    2  501    0 -0.25475519370E+02 -0.11060442940E+00 -0.14733427154E+04  0.14735629512E+04  0.00000000000E+00 0. -1.
          1    1    1    2  502    0  0.37514304004E+02  0.42107148432E+02  0.72841033061E+03  0.73059013454E+03  0.00000000000E+00 0. -1.
         22    1    3    3    0    0  0.16112996811E+02  0.30965410806E+02 -0.19433631369E+02  0.39951863045E+02  0.00000000000E+00 0. -1.
         22    1    3    3    0    0 -0.28151781445E+02 -0.72961954809E+02 -0.22259762907E+03  0.23593574149E+03  0.00000000000E+00 0. -1.
</event>
<event>
 7    1  0.6078244E-006  0.6910413E+02  0.7818608E-02  0.1460008E+00
          2   -1    0    0  502    0  0.00000000000E+00  0.00000000000E+00  0.54049771966E+03  0.54049771966E+03  0.00000000000E+00 0. -1.
          1   -1    0    0  501    0 -0.00000000000E+00 -0.00000000000E+00 -0.59210717064E+03  0.59210717064E+03  0.00000000000E+00 0. -1.
         25    2    1    2    0    0  0.41342370694E+01  0.41070559300E+02  0.49604115388E+02  0.14067390683E+03  0.12499878816E+03 0.  0.
          2    1    1    2  501    0  0.13216858176E+02 -0.68533841571E+02 -0.54374624159E+03  0.54820757749E+03  0.00000000000E+00 0. -1.
          1    1    1    2  502    0 -0.17351095245E+02  0.27463282270E+02  0.44253267521E+03  0.44372340598E+03  0.00000000000E+00 0. -1.
         22    1    3    3    0    0  0.44799935136E+02  0.34419255467E+02 -0.19879451713E+02  0.59890833484E+02  0.00000000000E+00 0.  1.
         22    1    3    3    0    0 -0.40665698066E+02  0.66513038335E+01  0.69483567100E+02  0.80783073344E+02  0.00000000000E+00 0.  1.
</event>
<event>
 7    1  0.6078244E-006  0.1552527E+03  0.7818608E-02  0.1205658E+00
          2   -1    0    0  502    0  0.00000000000E+00  0.00000000000E+00  0.17170537845E+03  0.17170537845E+03  0.00000000000E+00 0. -1.
          1   -1    0    0  501    0 -0.00000000000E+00 -0.00000000000E+00 -0.15172593043E+04  0.15172593043E+04  0.00000000000E+00 0. -1.
         25    2    1    2    0    0 -0.59166020131E+02 -0.19736859324E+02 -0.23906960363E+03  0.27688861343E+03  0.12499146896E+03 0.  0.
          2    1    1    2  501    0  0.19428986162E+03 -0.30460303397E+01 -0.12192344291E+04  0.12346215703E+04  0.00000000000E+00 0. -1.
          1    1    1    2  502    0 -0.13512384149E+03  0.22782889663E+02  0.11275010695E+03  0.17745449900E+03  0.00000000000E+00 0. -1.
         22    1    3    3    0    0  0.15696622163E+02  0.40606225077E+02 -0.74526290539E+02  0.86310007785E+02  0.00000000000E+00 0. -1.
         22    1    3    3    0    0 -0.74862642294E+02 -0.60343084401E+02 -0.16454331309E+03  0.19057860564E+03  0.00000000000E+00 0. -1.
</event>
<event>
 7    1  0.6078244E-006  0.8564397E+02  0.7818608E-02  0.1378325E+00
          2   -1    0    0  502    0  0.00000000000E+00  0.00000000000E+00  0.12510487759E+04  0.12510487759E+04  0.00000000000E+00 0. -1.
          1   -1    0    0  501    0 -0.00000000000E+00 -0.00000000000E+00 -0.74817748038E+03  0.74817748038E+03  0.00000000000E+00 0. -1.
         25    2    1    2    0    0 -0.67072794273E+02 -0.45787103976E+02 -0.45711391634E+03  0.48080450660E+03  0.12499848972E+03 0.  0.
          2    1    1    2  501    0  0.93676158035E+02  0.44120200107E+01 -0.27083873424E+03  0.28661526210E+03  0.00000000000E+00 0. -1.
          1    1    1    2  502    0 -0.26603363762E+02  0.41375083965E+02  0.12308239462E+04  0.12318064876E+04  0.00000000000E+00 0. -1.
         22    1    3    3    0    0 -0.63449606381E+01 -0.58999421299E+02 -0.36432223041E+03  0.36912312012E+03  0.00000000000E+00 0.  1.
         22    1    3    3    0    0 -0.60727833635E+02  0.13212317324E+02 -0.92791685932E+02  0.11168138648E+03  0.00000000000E+00 0.  1.
</event>
<event>
 7    1  0.6078244E-006  0.1612018E+03  0.7818608E-02  0.1399311E+00
          2   -1    0    0  502    0  0.00000000000E+00  0.00000000000E+00  0.12732104225E+04  0.12732104225E+04  0.00000000000E+00 0. -1.
          1   -1    0    0  501    0 -0.00000000000E+00 -0.00000000000E+00 -0.42047865193E+03  0.42047865193E+03  0.00000000000E+00 0. -1.
         25    2    1    2    0    0 -0.16882879520E+03  0.40125690876E+02 -0.79509730446E+02  0.22816693918E+03  0.12500048696E+03 0.  0.
          2    1    1    2  501    0  0.14925576229E+03 -0.50326373033E+02 -0.24326598092E+03  0.28980746000E+03  0.00000000000E+00 0. -1.
          1    1    1    2  502    0  0.19573032910E+02  0.10200682157E+02  0.11755074819E+04  0.11757146752E+04  0.00000000000E+00 0. -1.
         22    1    3    3    0    0 -0.93215749907E+02  0.66618594103E+01  0.23218711171E+02  0.96294677682E+02  0.00000000000E+00 0. -1.
         22    1    3    3    0    0 -0.75613045297E+02  0.33463831466E+02 -0.10272844162E+03  0.13187226150E+03  0.00000000000E+00 0. -1.
</event>
<event>
 7    1  0.6078244E-006  0.1063645E+03  0.7818608E-02  0.1316301E+00
          2   -1    0    0  502    0  0.00000000000E+00  0.00000000000E+00  0.25324105491E+04  0.25324105491E+04  0.00000000000E+00 0. -1.
          1   -1    0    0  501    0 -0.00000000000E+00 -0.00000000000E+00 -0.67565207347E+03  0.67565207347E+03  0.00000000000E+00 0. -1.
         25    2    1    2    0    0 -0.14237635895E+03  0.50906570829E+02 -0.11015227108E+03  0.22499025413E+03  0.12499834033E+03 0.  0.
          2    1    1    2  501    0  0.10307550289E+03  0.38470288373E+01 -0.50238118177E+03  0.51286081029E+03  0.00000000000E+00 0. -1.
          1    1    1    2  502    0  0.39300856063E+02 -0.54753599666E+02  0.24692919284E+04  0.24702115581E+04  0.00000000000E+00 0. -1.
         22    1    3    3    0    0  0.22883579830E+02 -0.10376374078E+01 -0.11370252348E+02  0.25573766944E+02  0.00000000000E+00 0. -1.
         22    1    3    3    0    0 -0.16525993878E+03  0.51944208237E+02 -0.98782018736E+02  0.19941648718E+03  0.00000000000E+00 0. -1.
</event>
<event>
 7    1  0.6078244E-006  0.2051807E+03  0.7818608E-02  0.1212035E+00
          2   -1    0    0  502    0  0.00000000000E+00  0.00000000000E+00  0.15379102896E+04  0.15379102896E+04  0.00000000000E+00 0. -1.
          1   -1    0    0  501    0 -0.00000000000E+00 -0.00000000000E+00 -0.11701094791E+03  0.11701094791E+03  0.00000000000E+00 0. -1.
         25    2    1    2    0    0  0.34957894970E+02 -0.12383080561E+03  0.47168779886E+03  0.50464929414E+03  0.12500163057E+03 0.  0.
          2    1    1    2  501    0 -0.61357804540E+02  0.21701140973E+03  0.31785048353E+02  0.22774771443E+03  0.00000000000E+00 0. -1.
          1    1    1    2  502    0  0.26399909570E+02 -0.93180604120E+02  0.91742649452E+03  0.92252422898E+03  0.00000000000E+00 0. -1.
         22    1    3    3    0    0  0.34171783160E+02 -0.51444878603E+02  0.58164049234E+02  0.84837155316E+02  0.00000000000E+00 0.  1.
         22    1    3    3    0    0  0.78611181006E+00 -0.72385927005E+02  0.41352374963E+03  0.41981213883E+03  0.00000000000E+00 0.  1.
</event>
<event>
 7    1  0.6078244E-006  0.8019740E+02  0.7818608E-02  0.1433283E+00
          2   -1    0    0  502    0  0.00000000000E+00  0.00000000000E+00  0.99030673028E+03  0.99030673028E+03  0.00000000000E+00 0. -1.
          1   -1    0    0  501    0 -0.00000000000E+00 -0.00000000000E+00 -0.73354246425E+03  0.73354246425E+03  0.00000000000E+00 0. -1.
         25    2    1    2    0    0  0.41210783616E+02  0.48972195473E+02  0.13579876353E+03  0.19535518630E+03  0.12500296005E+03 0.  0.
          2    1    1    2  501    0 -0.22280837070E+02 -0.77353948759E+02 -0.70110737289E+03  0.70571355195E+03  0.00000000000E+00 0. -1.
          1    1    1    2  502    0 -0.18929946546E+02  0.28381753287E+02  0.82207287538E+03  0.82278045628E+03  0.00000000000E+00 0. -1.
         22    1    3    3    0    0 -0.25725485528E+02  0.69730095294E+01 -0.10844894740E+02  0.28775600940E+02  0.00000000000E+00 0.  1.
         22    1    3    3    0    0  0.66936269144E+02  0.41999185943E+02  0.14664365827E+03  0.16657958536E+03  0.00000000000E+00 0.  1.
</event>
<event>
 7    1  0.6078244E-006  0.5911268E+02  0.7818608E-02  0.1427654E+00
          2   -1    0    0  502    0  0.00000000000E+00  0.00000000000E+00  0.26093096088E+03  0.26093096088E+03  0.00000000000E+00 0. -1.
          1   -1    0    0  501    0 -0.00000000000E+00 -0.00000000000E+00 -0.25105841168E+03  0.25105841168E+03  0.00000000000E+00 0. -1.
         25    2    1    2    0    0  0.26248593096E+02 -0.40427259141E+02  0.10124494410E+03  0.16792442782E+03  0.12499889132E+03 0.  0.
          2    1    1    2  501    0  0.19164604278E+02  0.56876141829E+02 -0.20871363050E+03  0.21717172266E+03  0.00000000000E+00 0. -1.
          1    1    1    2  502    0 -0.45413197374E+02 -0.16448882689E+02  0.11734123559E+03  0.12689322207E+03  0.00000000000E+00 0. -1.
         22    1    3    3    0    0  0.47001396440E+01  0.22938560951E+02 -0.19101960827E+02  0.30218434748E+02  0.00000000000E+00 0. -1.
         22    1    3    3    0    0  0.21548453452E+02 -0.63365820092E+02  0.12034690493E+03  0.13770599307E+03  0.00000000000E+00 0. -1.
</event>
<event>
 7    1  0.6078244E-006  0.7722306E+02  0.7818608E-02  0.1510353E+00
          2   -1    0    0  502    0  0.00000000000E+00  0.00000000000E+00  0.18178745138E+03  0.18178745138E+03  0.00000000000E+00 0. -1.
          1   -1    0    0  501    0 -0.00000000000E+00 -0.00000000000E+00 -0.39365475132E+03  0.39365475132E+03  0.00000000000E+00 0. -1.
         25    2    1    2    0    0 -0.37221355973E+02  0.53371583781E+02 -0.29174731390E+02  0.14391169084E+03  0.12500181804E+03 0.  0.
          2    1    1    2  501    0  0.57640626295E+02 -0.53158404479E+02 -0.30121926439E+03  0.31125761518E+03  0.00000000000E+00 0. -1.
          1    1    1    2  502    0 -0.20419270322E+02 -0.21317930259E+00  0.11852669584E+03  0.12027289667E+03  0.00000000000E+00 0. -1.
         22    1    3    3    0    0  0.37968880217E+02  0.19698917619E+02  0.20789172698E+02  0.47559151819E+02  0.00000000000E+00 0.  1.
         22    1    3    3    0    0 -0.75190236190E+02  0.33672666162E+02 -0.49963904087E+02  0.96352539024E+02  0.00000000000E+00 0.  1.
</event>
<event>
 7    1  0.6078244E-006  0.1013537E+03  0.7818608E-02  0.1303564E+00
          2   -1    0    0  502    0  0.00000000000E+00  0.00000000000E+00  0.11665666188E+04  0.11665666188E+04  0.00000000000E+00 0. -1.
          1   -1    0    0  501    0 -0.00000000000E+00 -0.00000000000E+00 -0.40102285706E+03  0.40102285706E+03  0.00000000000E+00 0. -1.
         25    2    1    2    0    0  0.37692259537E+02 -0.14938760642E+03  0.93675979980E+02  0.21940392920E+03  0.12500212615E+03 0.  0.
          2    1    1    2  501    0  0.22083904939E+02  0.97130851888E+02 -0.32921742988E+03  0.34395670859E+03  0.00000000000E+00 0. -1.
          1    1    1    2  502    0 -0.59776164476E+02  0.52256754531E+02  0.10010852116E+04  0.10042288381E+04  0.00000000000E+00 0. -1.
         22    1    3    3    0    0 -0.31973421460E+02 -0.10554196845E+03  0.27162018824E+02  0.11357456604E+03  0.00000000000E+00 0. -1.
         22    1    3    3    0    0  0.69665680997E+02 -0.43845637965E+02  0.66513961156E+02  0.10582936316E+03  0.00000000000E+00 0. -1.
</event>
<event>
 7    1  0.6078244E-006  0.8013128E+02  0.7818608E-02  0.1422939E+00
          2   -1    0    0  502    0  0.00000000000E+00  0.00000000000E+00  0.10322762702E+04  0.10322762702E+04  0.00000000000E+00 0. -1.
          1   -1    0    0  501    0 -0.00000000000E+00 -0.00000000000E+00 -0.21885242937E+03  0.21885242937E+03  0.00000000000E+00 0. -1.
         25    2    1    2    0    0  0.46961577092E+02 -0.63129526251E+02  0.25001154432E+03  0.29038173663E+03  0.12500021547E+03 0.  0.
          2    1    1    2  501    0 -0.71951496442E+02  0.35929688729E+02 -0.19005716158E+03  0.20637268482E+03  0.00000000000E+00 0. -1.
          1    1    1    2  502    0  0.24989919350E+02  0.27199837521E+02  0.75346945805E+03  0.75437427809E+03  0.00000000000E+00 0. -1.
         22    1    3    3    0    0  0.18633785986E+02  0.15623096605E+02  0.17893724673E+03  0.18058194094E+03  0.00000000000E+00 0.  1.
         22    1    3    3    0    0  0.28327791106E+02 -0.78752622855E+02  0.71074297592E+02  0.10979979569E+03  0.00000000000E+00 0.  1.
</event>
<event>
 7    1  0.6078244E-006  0.1111430E+03  0.7818608E-02  0.1270963E+00
          2   -1    0    0  502    0  0.00000000000E+00  0.00000000000E+00  0.93081672093E+03  0.93081672093E+03  0.00000000000E+00 0. -1.
          1   -1    0    0  501    0 -0.00000000000E+00 -0.00000000000E+00 -0.40398090964E+03  0.40398090964E+03  0.00000000000E+00 0. -1.
         25    2    1    2    0    0 -0.40357584876E+02  0.89386261869E+02  0.10283761832E+03  0.18926542515E+03  0.12500874749E+03 0.  0.
          2    1    1    2  501    0  0.11225592712E+03 -0.22218967556E+02 -0.34849298299E+03  0.36680026566E+03  0.00000000000E+00 0. -1.
          1    1    1    2  502    0 -0.71898342240E+02 -0.67167294313E+02  0.77249117597E+03  0.77873193975E+03  0.00000000000E+00 0. -1.
         22    1    3    3    0    0  0.80102103252E+01 -0.11069437493E+02 -0.19457341086E+02  0.23775702682E+02  0.00000000000E+00 0.  1.
         22    1    3    3    0    0 -0.48367795201E+02  0.10045569936E+03  0.12229495940E+03  0.16548972247E+03  0.00000000000E+00 0.  1.
</event>
<event>
 7    1  0.6078244E-006  0.8709124E+02  0.7818608E-02  0.1384099E+00
          2   -1    0    0  502    0  0.00000000000E+00  0.00000000000E+00  0.21091143285E+04  0.21091143285E+04  0.00000000000E+00 0. -1.
          1   -1    0    0  501    0 -0.00000000000E+00 -0.00000000000E+00 -0.75568687125E+02  0.75568687125E+02  0.00000000000E+00 0. -1.
         25    2    1    2    0    0 -0.42108123250E+02  0.23798399961E+02  0.13892250345E+03  0.19304368337E+03  0.12500777511E+03 0.  0.
          2    1    1    2  501    0 -0.45283990652E+02 -0.89057369993E+01 -0.36278701848E+02  0.58703459596E+02  0.00000000000E+00 0. -1.
          1    1    1    2  502    0  0.87392113902E+02 -0.14892662962E+02  0.19309018398E+04  0.19329358727E+04  0.00000000000E+00 0. -1.
         22    1    3    3    0    0 -0.40605533028E+02 -0.78443489463E+01  0.15291779913E+03  0.15841147817E+03  0.00000000000E+00 0.  1.
         22    1    3    3    0    0 -0.15025902221E+01  0.31642748908E+02 -0.13995295684E+02  0.34632205201E+02  0.00000000000E+00 0.  1.
</event>
<event>
 7    1  0.6078244E-006  0.5894585E+02  0.7818608E-02  0.1443126E+00
          2   -1    0    0  502    0  0.00000000000E+00  0.00000000000E+00  0.14283171433E+04  0.14283171433E+04  0.00000000000E+00 0. -1.
          1   -1    0    0  501    0 -0.00000000000E+00 -0.00000000000E+00 -0.18989284038E+02  0.18989284038E+02  0.00000000000E+00 0. -1.
         25    2    1    2    0    0 -0.38226008254E+02  0.96597164704E+01  0.30880881458E+03  0.33547081932E+03  0.12499299511E+03 0.  0.
          2    1    1    2  501    0  0.66463013058E+01  0.42600227184E+02  0.93445361750E+02  0.10291252747E+03  0.00000000000E+00 0. -1.
          1    1    1    2  502    0  0.31579706948E+02 -0.52259943654E+02  0.10070736829E+04  0.10089230805E+04  0.00000000000E+00 0. -1.
         22    1    3    3    0    0  0.16834654546E+02 -0.10468855111E+02 -0.13023278429E+01  0.19867022395E+02  0.00000000000E+00 0.  1.
         22    1    3    3    0    0 -0.55060662800E+02  0.20128571581E+02  0.31011114242E+03  0.31560379693E+03  0.00000000000E+00 0.  1.
</event>
<event>
 7    1  0.6078244E-006  0.9139356E+02  0.7818608E-02  0.1350134E+00
          2   -1    0    0  502    0  0.00000000000E+00  0.00000000000E+00  0.97884646601E+03  0.97884646601E+03  0.00000000000E+00 0. -1.
          1   -1    0    0  501    0 -0.00000000000E+00 -0.00000000000E+00 -0.52357239616E+03  0.52357239616E+03  0.00000000000E+00 0. -1.
         25    2    1    2    0    0 -0.10896067792E+03 -0.53662727826E+02 -0.26281709287E+03  0.31535696398E+03  0.12500029094E+03 0.  0.
          2    1    1    2  501    0  0.85087988766E+02  0.44137205497E+00 -0.22583613880E+03  0.24133404698E+03  0.00000000000E+00 0. -1.
          1    1    1    2  502    0  0.23872689152E+02  0.53221355771E+02  0.94392730153E+03  0.94572785122E+03  0.00000000000E+00 0. -1.
         22    1    3    3    0    0 -0.10135728805E+03 -0.87623825245E+02 -0.23615845040E+03  0.27151804413E+03  0.00000000000E+00 0. -1.
         22    1    3    3    0    0 -0.76033898723E+01  0.33961097418E+02 -0.26658642469E+02  0.43838919851E+02  0.00000000000E+00 0. -1.
</event>
<event>
 7    1  0.6078244E-006  0.1509534E+03  0.7818608E-02  0.1217181E+00
          2   -1    0    0  502    0  0.00000000000E+00  0.00000000000E+00  0.11999612406E+04  0.11999612406E+04  0.00000000000E+00 0. -1.
          1   -1    0    0  501    0 -0.00000000000E+00 -0.00000000000E+00 -0.35668149666E+03  0.35668149666E+03  0.00000000000E+00 0. -1.
         25    2    1    2    0    0  0.33748580908E+02  0.53362757419E+02  0.46200251969E+02  0.14746505640E+03  0.12499971594E+03 0.  0.
          2    1    1    2  501    0 -0.10401800947E+02 -0.17581174537E+03 -0.27680431149E+03  0.32808321221E+03  0.00000000000E+00 0. -1.
          1    1    1    2  502    0 -0.23346779960E+02  0.12244898795E+03  0.10738838035E+04  0.10810944687E+04  0.00000000000E+00 0. -1.
         22    1    3    3    0    0  0.34754892154E+02  0.59863735396E+02  0.84142614887E+02  0.10895663809E+03  0.00000000000E+00 0. -1.
         22    1    3    3    0    0 -0.10063112464E+01 -0.65009779768E+01 -0.37942362918E+02  0.38508418310E+02  0.00000000000E+00 0. -1.
</event>
<event>
 7    1  0.6078244E-006  0.1030580E+03  0.7818608E-02  0.1429865E+00
          2   -1    0    0  502    0  0.00000000000E+00  0.00000000000E+00  0.23026616516E+03  0.23026616516E+03  0.00000000000E+00 0. -1.
          1   -1    0    0  501    0 -0.00000000000E+00 -0.00000000000E+00 -0.10735468851E+04  0.10735468851E+04  0.00000000000E+00 0. -1.
         25    2    1    2    0    0  0.11923702386E+03  0.70057991637E+01  0.92980661843E+02  0.19630805783E+03  0.12499960404E+03 0.  0.
          2    1    1    2  501    0 -0.10185083179E+03  0.13968339674E+02 -0.10170572226E+04  0.10222397471E+04  0.00000000000E+00 0. -1.
          1    1    1    2  502    0 -0.17386192070E+02 -0.20974138838E+02  0.80795840809E+02  0.85265245363E+02  0.00000000000E+00 0. -1.
         22    1    3    3    0    0 -0.13251932818E+02  0.21422604761E+02  0.50493886297E+02  0.56428488120E+02  0.00000000000E+00 0.  1.
         22    1    3    3    0    0  0.13248895668E+03 -0.14416805597E+02  0.42486775546E+02  0.13987956971E+03  0.00000000000E+00 0.  1.
</event>
<event>
 7    1  0.6078244E-006  0.6352009E+02  0.7818608E-02  0.1497299E+00
          2   -1    0    0  502    0  0.00000000000E+00  0.00000000000E+00  0.11741765239E+04  0.11741765239E+04  0.00000000000E+00 0. -1.
          1   -1    0    0  501    0 -0.00000000000E+00 -0.00000000000E+00 -0.10125995193E+04  0.10125995193E+04  0.00000000000E+00 0. -1.
         25    2    1    2    0    0 -0.54724433336E+02  0.24302170941E+02  0.32093045691E+03  0.34958041453E+03  0.12499899571E+03 0.  0.
          2    1    1    2  501    0  0.41585241893E+02 -0.48052487254E+02 -0.99704317157E+03  0.99906629402E+03  0.00000000000E+00 0. -1.
          1    1    1    2  502    0  0.13139191443E+02  0.23750316312E+02  0.83768971927E+03  0.83812933468E+03  0.00000000000E+00 0. -1.
         22    1    3    3    0    0  0.16902696868E+02  0.51933949151E+02  0.19108480559E+03  0.19873660751E+03  0.00000000000E+00 0.  1.
         22    1    3    3    0    0 -0.71627130204E+02 -0.27631778210E+02  0.12984565132E+03  0.15084380702E+03  0.00000000000E+00 0.  1.
</event>
<event>
 7    1  0.6078244E-006  0.7677991E+02  0.7818608E-02  0.1460347E+00
          2   -1    0    0  502    0  0.00000000000E+00  0.00000000000E+00  0.53969093704E+03  0.53969093704E+03  0.00000000000E+00 0. -1.
          1   -1    0    0  501    0 -0.00000000000E+00 -0.00000000000E+00 -0.26352808253E+03  0.26352808253E+03  0.00000000000E+00 0. -1.
         25    2    1    2    0    0  0.39032497369E+02 -0.65502363377E+02  0.19523258963E+03  0.24403760293E+03  0.12499796851E+03 0.  0.
          2    1    1    2  501    0 -0.26879689196E+02 -0.11319011564E+02 -0.23347971836E+03  0.23529431910E+03  0.00000000000E+00 0. -1.
          1    1    1    2  502    0 -0.12152808172E+02  0.76821374941E+02  0.31440998323E+03  0.32388709754E+03  0.00000000000E+00 0. -1.
         22    1    3    3    0    0 -0.16270688889E+02  0.26976496326E+02  0.81449087942E+02  0.87329379922E+02  0.00000000000E+00 0. -1.
         22    1    3    3    0    0  0.55303186258E+02 -0.92478859704E+02  0.11378350169E+03  0.15670822301E+03  0.00000000000E+00 0. -1.
</event>
<event>
 7    1  0.6078244E-006  0.6075819E+02  0.7818608E-02  0.1488477E+00
          2   -1    0    0  502    0  0.00000000000E+00  0.00000000000E+00  0.14476406536E+04  0.14476406536E+04  0.00000000000E+00 0. -1.
          1   -1    0    0  501    0 -0.00000000000E+00 -0.00000000000E+00 -0.19142541002E+04  0.19142541002E+04  0.00000000000E+00 0. -1.
         25    2    1    2    0    0  0.21797595102E+02  0.47049169170E+02  0.90880483407E+02  0.16300496936E+03  0.12499039283E+03 0.  0.
          2    1    1    2  501    0 -0.49562110499E+02 -0.35249978923E+02 -0.18775271164E+04  0.18785119208E+04  0.00000000000E+00 0. -1.
          1    1    1    2  502    0  0.27764515397E+02 -0.11799190247E+02  0.13200331865E+04  0.13203778635E+04  0.00000000000E+00 0. -1.
         22    1    3    3    0    0 -0.22030365413E+02  0.78311192286E+02  0.51126831252E+02  0.96082947038E+02  0.00000000000E+00 0.  1.
         22    1    3    3    0    0  0.43827960516E+02 -0.31262023116E+02  0.39753652155E+02  0.66922022324E+02  0.00000000000E+00 0.  1.
</event>
<event>
 7    1  0.6078244E-006  0.1529016E+03  0.7818608E-02  0.1252792E+00
          2   -1    0    0  502    0  0.00000000000E+00  0.00000000000E+00  0.88837375114E+02  0.88837375114E+02  0.00000000000E+00 0. -1.
          1   -1    0    0  501    0 -0.00000000000E+00 -0.00000000000E+00 -0.83806783266E+03  0.83806783266E+03  0.00000000000E+00 0. -1.
         25    2    1    2    0    0  0.61269135450E+02  0.11743503609E+03 -0.11791013443E+03  0.21695925982E+03  0.12499450372E+03 0.  0.
          2    1    1    2  501    0 -0.13884264659E+03 -0.81583965307E+02 -0.59617857870E+03  0.61754523851E+03  0.00000000000E+00 0. -1.
          1    1    1    2  502    0  0.77573511135E+02 -0.35851070780E+02 -0.35141744423E+02  0.92400709451E+02  0.00000000000E+00 0. -1.
         22    1    3    3    0    0  0.90658879052E+02  0.10170106215E+03 -0.12261352890E+03  0.18329270543E+03  0.00000000000E+00 0.  1.
         22    1    3    3    0    0 -0.29389743603E+02  0.15733973940E+02  0.47033944755E+01  0.33666554391E+02  0.00000000000E+00 0.  1.
</event>
<event>
 7    1  0.6078244E-006  0.7499003E+02  0.7818608E-02  0.1463565E+00
          2   -1    0    0  502    0  0.00000000000E+00  0.00000000000E+00  0.53127523706E+03  0.53127523706E+03  0.00000000000E+00 0. -1.
          1   -1    0    0  501    0 -0.00000000000E+00 -0.00000000000E+00 -0.36649709256E+03  0.36649709256E+03  0.00000000000E+00 0. -1.
         25    2    1    2    0    0 -0.13261648201E+02  0.50287149150E+02  0.20368245289E+03  0.24456962908E+03  0.12499237245E+03 0.  0.
          2    1    1    2  501    0 -0.11039084533E+02  0.27004775558E+02 -0.34007493763E+03  0.34132401394E+03  0.00000000000E+00 0. -1.
          1    1    1    2  502    0  0.24300732734E+02 -0.77291924708E+02  0.30117062925E+03  0.31187868661E+03  0.00000000000E+00 0. -1.
         22    1    3    3    0    0  0.19903611359E+02  0.28649941212E+02  0.20194103656E+03  0.20493207441E+03  0.00000000000E+00 0. -1.
         22    1    3    3    0    0 -0.33165259560E+02  0.21637207938E+02  0.17414163296E+01  0.39637554666E+02  0.00000000000E+00 0. -1.
</event>
<event>
 7    1  0.6078244E-006  0.9305510E+02  0.7818608E-02  0.1357398E+00
          2   -1    0    0  502    0  0.00000000000E+00  0.00000000000E+00  0.85688101080E+03  0.85688101080E+03  0.00000000000E+00 0. -1.
          1   -1    0    0  501    0 -0.00000000000E+00 -0.00000000000E+00 -0.11595725726E+04  0.11595725726E+04  0.00000000000E+00 0. -1.
         25    2    1    2    0    0 -0.65698761323E+01  0.41616706765E+02 -0.70599142452E+02  0.14961307392E+03  0.12499887767E+03 0.  0.
          2    1    1    2  501    0  0.97202594971E+01 -0.95389934206E+02 -0.10463846842E+04  0.10507685902E+04  0.00000000000E+00 0. -1.
          1    1    1    2  502    0 -0.31503833648E+01  0.53773227442E+02  0.81429226479E+03  0.81607191926E+03  0.00000000000E+00 0. -1.
         22    1    3    3    0    0 -0.40387114906E+02 -0.16622873690E+02 -0.69710135215E+02  0.82261424324E+02  0.00000000000E+00 0. -1.
         22    1    3    3    0    0  0.33817238774E+02  0.58239580455E+02 -0.88900723740E+00  0.67351649599E+02  0.00000000000E+00 0. -1.
</event>
<event>
 7    1  0.6078244E-006  0.6342877E+02  0.7818608E-02  0.1447034E+00
          2   -1    0    0  502    0  0.00000000000E+00  0.00000000000E+00  0.67748771697E+03  0.67748771697E+03  0.00000000000E+00 0. -1.
          1   -1    0    0  501    0 -0.00000000000E+00 -0.00000000000E+00 -0.30392793011E+03  0.30392793011E+03  0.00000000000E+00 0. -1.
         25    2    1    2    0    0  0.58440123578E+02 -0.19146530303E+02  0.23322053514E+02  0.14125589208E+03  0.12500988441E+03 0.  0.
          2    1    1    2  501    0  0.22601633078E+01  0.38857713625E+02 -0.24168862851E+03  0.24480282555E+03  0.00000000000E+00 0. -1.
          1    1    1    2  502    0 -0.60700286886E+02 -0.19711183322E+02  0.59192636186E+03  0.59535692944E+03  0.00000000000E+00 0. -1.
         22    1    3    3    0    0 -0.35029238953E+02  0.84378968778E+01 -0.11413756072E+02  0.37795760517E+02  0.00000000000E+00 0.  1.
         22    1    3    3    0    0  0.93469362532E+02 -0.27584427180E+02  0.34735809586E+02  0.10346013156E+03  0.00000000000E+00 0.  1.
</event>
<event>
 7    1  0.6078244E-006  0.6468122E+02  0.7818608E-02  0.1410356E+00
          2   -1    0    0  502    0  0.00000000000E+00  0.00000000000E+00  0.62874645978E+03  0.62874645978E+03  0.00000000000E+00 0. -1.
          1   -1    0    0  501    0 -0.00000000000E+00 -0.00000000000E+00 -0.32598214681E+03  0.32598214681E+03  0.00000000000E+00 0. -1.
         25    2    1    2    0    0 -0.39183327659E+02  0.32660227890E+01 -0.10788505466E+03  0.16972496936E+03  0.12498551970E+03 0.  0.
          2    1    1    2  501    0  0.21522275421E+01  0.50387156509E+02 -0.18195968665E+03  0.18881955723E+03  0.00000000000E+00 0. -1.
          1    1    1    2  502    0  0.37031100117E+02 -0.53653179298E+02  0.59260905428E+03  0.59618408000E+03  0.00000000000E+00 0. -1.
         22    1    3    3    0    0 -0.49387619636E+02  0.56267036025E+02 -0.47173067457E+02  0.88489629955E+02  0.00000000000E+00 0.  1.
         22    1    3    3    0    0  0.10204291977E+02 -0.53001013236E+02 -0.60711987204E+02  0.81235339409E+02  0.00000000000E+00 0.  1.
</event>
<event>
 7    1  0.6078244E-006  0.1834045E+03  0.7818608E-02  0.1174320E+00
          2   -1    0    0  502    0  0.00000000000E+00  0.00000000000E+00  0.44388175367E+03  0.44388175367E+03  0.00000000000E+00 0. -1.
          1   -1    0    0  501    0 -0.00000000000E+00 -0.00000000000E+00 -0.83596048541E+03  0.83596048541E+03  0.00000000000E+00 0. -1.
         25    2    1    2    0    0  0.55519969862E+02 -0.11149658643E+03  0.84082547013E+02  0.19546952886E+03  0.12499802463E+03 0.  0.
          2    1    1    2  501    0  0.16278203605E+03 -0.19888891964E+02 -0.71595019479E+03  0.73449182481E+03  0.00000000000E+00 0. -1.
          1    1    1    2  502    0 -0.21830200592E+03  0.13138547839E+03  0.23978891605E+03  0.34988088542E+03  0.00000000000E+00 0. -1.
         22    1    3    3    0    0 -0.27896266523E+02  0.66205533545E+01  0.97895600370E+00  0.28687833092E+02  0.00000000000E+00 0.  1.
         22    1    3    3    0    0  0.83416236386E+02 -0.11811713979E+03  0.83103591009E+02  0.16678169577E+03  0.00000000000E+00 0.  1.
</event>
<event>
 7    1  0.6078244E-006  0.1179405E+03  0.7818608E-02  0.1295571E+00
          2   -1    0    0  502    0  0.00000000000E+00  0.00000000000E+00  0.41667265173E+04  0.41667265173E+04  0.00000000000E+00 0. -1.
          1   -1    0    0  501    0 -0.00000000000E+00 -0.00000000000E+00 -0.46617270190E+02  0.46617270190E+02  0.00000000000E+00 0. -1.
         25    2    1    2    0    0  0.76451613618E+02 -0.16897872908E+03  0.10545185418E+04  0.10779764079E+04  0.12500048337E+03 0.  0.
          2    1    1    2  501    0 -0.42911564592E+02  0.10363083441E+03  0.56883336116E+02  0.12576353264E+03  0.00000000000E+00 0. -1.
          1    1    1    2  502    0 -0.33540049025E+02  0.65347894674E+02  0.30087073692E+04  0.30096038470E+04  0.00000000000E+00 0. -1.
         22    1    3    3    0    0  0.15959207157E+02 -0.16051498143E+03  0.71087250462E+03  0.72894408111E+03  0.00000000000E+00 0.  1.
         22    1    3    3    0    0  0.60492406461E+02 -0.84637476475E+01  0.34364603721E+03  0.34903232680E+03  0.00000000000E+00 0.  1.
</event>
<event>
 7    1  0.6078244E-006  0.1026793E+03  0.7818608E-02  0.1276043E+00
          2   -1    0    0  502    0  0.00000000000E+00  0.00000000000E+00  0.33315468294E+04  0.33315468294E+04  0.00000000000E+00 0. -1.
          1   -1    0    0  501    0 -0.00000000000E+00 -0.00000000000E+00 -0.29629533495E+03  0.29629533495E+03  0.00000000000E+00 0. -1.
         25    2    1    2    0    0 -0.11305034963E+03 -0.79756490609E+02  0.27131244030E+03  0.32921038453E+03  0.12501023030E+03 0.  0.
          2    1    1    2  501    0  0.12315775084E+02  0.10067380888E+03 -0.25681953668E+03  0.27612165531E+03  0.00000000000E+00 0. -1.
          1    1    1    2  502    0  0.10073457455E+03 -0.20917318274E+02  0.30207585908E+04  0.30225101245E+04  0.00000000000E+00 0. -1.
         22    1    3    3    0    0 -0.44545941500E+02 -0.96762388483E+02  0.10996749888E+03  0.15310176857E+03  0.00000000000E+00 0.  1.
         22    1    3    3    0    0 -0.68504408130E+02  0.17005897874E+02  0.16134494142E+03  0.17610861596E+03  0.00000000000E+00 0.  1.
</event>
<event>
 7    1  0.6078244E-006  0.1062816E+03  0.7818608E-02  0.1344915E+00
          2   -1    0    0  502    0  0.00000000000E+00  0.00000000000E+00  0.97832189271E+02  0.97832189271E+02  0.00000000000E+00 0. -1.
          1   -1    0    0  501    0 -0.00000000000E+00 -0.00000000000E+00 -0.43650268822E+03  0.43650268822E+03  0.00000000000E+00 0. -1.
         25    2    1    2    0    0  0.14048475262E+02 -0.66629458162E+02 -0.61294087256E+02  0.15499585077E+03  0.12501961554E+03 0.  0.
          2    1    1    2  501    0 -0.51546424698E+02  0.10330518271E+03 -0.30057570080E+03  0.32198563102E+03  0.00000000000E+00 0. -1.
          1    1    1    2  502    0  0.37497949436E+02 -0.36675724543E+02  0.23199289111E+02  0.57353395696E+02  0.00000000000E+00 0. -1.
         22    1    3    3    0    0  0.66463941583E+01 -0.79691624663E+02  0.11391750025E+02  0.80775624822E+02  0.00000000000E+00 0. -1.
         22    1    3    3    0    0  0.74020811042E+01  0.13062166501E+02 -0.72685837281E+02  0.74220225947E+02  0.00000000000E+00 0. -1.
</event>
<event>
 7    1  0.6078244E-006  0.3728314E+02  0.7818608E-02  0.1581670E+00
          2   -1    0    0  502    0  0.00000000000E+00  0.00000000000E+00  0.10486408652E+04  0.10486408652E+04  0.00000000000E+00 0. -1.
          1   -1    0    0  501    0 -0.00000000000E+00 -0.00000000000E+00 -0.20960523802E+03  0.20960523802E+03  0.00000000000E+00 0. -1.
         25    2    1    2    0    0 -0.59613146326E+02 -0.13735678002E+02  0.67531430372E+03  0.68950577856E+03  0.12500565503E+03 0.  0.
          2    1    1    2  501    0  0.25718980392E+02  0.70983347079E+01 -0.20081090123E+03  0.20257559172E+03  0.00000000000E+00 0. -1.
          1    1    1    2  502    0  0.33894165934E+02  0.66373432937E+01  0.36453222466E+03  0.36616473291E+03  0.00000000000E+00 0. -1.
         22    1    3    3    0    0  0.83948862622E+01 -0.29337809321E+02  0.49833733824E+03  0.49927075205E+03  0.00000000000E+00 0.  1.
         22    1    3    3    0    0 -0.68008032589E+02  0.15602131320E+02  0.17697696548E+03  0.19023502650E+03  0.00000000000E+00 0.  1.
</event>
<event>
 7    1  0.6078244E-006  0.1273372E+03  0.7818608E-02  0.1247292E+00
          2   -1    0    0  502    0  0.00000000000E+00  0.00000000000E+00  0.76790552320E+03  0.76790552320E+03  0.00000000000E+00 0. -1.
          1   -1    0    0  501    0 -0.00000000000E+00 -0.00000000000E+00 -0.66282142171E+03  0.66282142171E+03  0.00000000000E+00 0. -1.
         25    2    1    2    0    0 -0.16625734972E+02  0.22621769608E+02  0.38854927380E+02  0.13388235060E+03  0.12500647542E+03 0.  0.
          2    1    1    2  501    0  0.96305837841E+02 -0.96130603217E+02 -0.60337151989E+03  0.61852493749E+03  0.00000000000E+00 0. -1.
          1    1    1    2  502    0 -0.79680102868E+02  0.73508833609E+02  0.66960069401E+03  0.67831965682E+03  0.00000000000E+00 0. -1.
         22    1    3    3    0    0  0.48689930548E+01  0.13684245894E+02 -0.44775548250E+02  0.47072448419E+02  0.00000000000E+00 0.  1.
         22    1    3    3    0    0 -0.21494728027E+02  0.89375237146E+01  0.83630475630E+02  0.86809902184E+02  0.00000000000E+00 0.  1.
</event>
<event>
 7    1  0.6078244E-006  0.1126546E+03  0.7818608E-02  0.1295494E+00
          2   -1    0    0  502    0  0.00000000000E+00  0.00000000000E+00  0.15547552839E+04  0.15547552839E+04  0.00000000000E+00 0. -1.
          1   -1    0    0  501    0 -0.00000000000E+00 -0.00000000000E+00 -0.10918607260E+03  0.10918607260E+03  0.00000000000E+00 0. -1.
         25    2    1    2    0    0 -0.56740799412E+02  0.46474858827E+02  0.58243674551E+02  0.15619487895E+03  0.12500033506E+03 0.  0.
          2    1    1    2  501    0  0.13070840856E+03 -0.67704385833E+02  0.32513193591E+02  0.15075038868E+03  0.00000000000E+00 0. -1.
          1    1    1    2  502    0 -0.73967609150E+02  0.21229527006E+02  0.13548123432E+04  0.13569960889E+04  0.00000000000E+00 0. -1.
         22    1    3    3    0    0 -0.33792739599E+02  0.88998110317E+02  0.48737869675E+02  0.10694855226E+03  0.00000000000E+00 0. -1.
         22    1    3    3    0    0 -0.22948059813E+02 -0.42523251489E+02  0.95058048755E+01  0.49246326693E+02  0.00000000000E+00 0. -1.
</event>
<event>
 7    1  0.6078244E-006  0.7641318E+02  0.7818608E-02  0.1383142E+00
          2   -1    0    0  502    0  0.00000000000E+00  0.00000000000E+00  0.65025790453E+03  0.65025790453E+03  0.00000000000E+00 0. -1.
          1   -1    0    0  501    0 -0.00000000000E+00 -0.00000000000E+00 -0.43311888805E+03  0.43311888805E+03  0.00000000000E+00 0. -1.
         25    2    1    2    0    0 -0.19525995159E+02 -0.19962266816E+02  0.35740011682E+03  0.37965764088E+03  0.12500129674E+03 0.  0.
          2    1    1    2  501    0  0.72100171866E+02  0.26749765860E+02 -0.41594018106E+03  0.42298962041E+03  0.00000000000E+00 0. -1.
          1    1    1    2  502    0 -0.52574176707E+02 -0.67874990433E+01  0.27567908072E+03  0.28072953130E+03  0.00000000000E+00 0. -1.
         22    1    3    3    0    0 -0.91231285398E+00  0.13800818339E+01  0.35050817246E+03  0.35051207669E+03  0.00000000000E+00 0. -1.
         22    1    3    3    0    0 -0.18613682305E+02 -0.21342348650E+02  0.68919443603E+01  0.29145564189E+02  0.00000000000E+00 0. -1.
</event>
<event>
 7    1  0.6078244E-006  0.6592959E+02  0.7818608E-02  0.1375006E+00
          2   -1    0    0  502    0  0.00000000000E+00  0.00000000000E+00  0.32254650024E+03  0.32254650024E+03  0.00000000000E+00 0. -1.
          1   -1    0    0  501    0 -0.00000000000E+00 -0.00000000000E+00 -0.17965389755E+03  0.17965389755E+03  0.00000000000E+00 0. -1.
         25    2    1    2    0    0 -0.54107222585E+00  0.53270381359E+02  0.38491929094E+02  0.14122469475E+03  0.12499903804E+03 0.  0.
          2    1    1    2  501    0  0.62689034310E+02 -0.31262623565E+02 -0.11346792460E+03  0.13335005275E+03  0.00000000000E+00 0. -1.
          1    1    1    2  502    0 -0.62147962084E+02 -0.22007757795E+02  0.21786859819E+03  0.22762565030E+03  0.00000000000E+00 0. -1.
         22    1    3    3    0    0  0.14866789831E+02  0.71719140021E+02  0.70188457392E+02  0.10144494091E+03  0.00000000000E+00 0.  1.
         22    1    3    3    0    0 -0.15407862057E+02 -0.18448758661E+02 -0.31696528298E+02  0.39779753838E+02  0.00000000000E+00 0.  1.
</event>
<event>
 7    1  0.6079929E-006  0.8145810E+02  0.7818608E-02  0.1354897E+00
          2   -1    0    0  502    0  0.00000000000E+00  0.00000000000E+00  0.95750926742E+03  0.95750926742E+03  0.00000000000E+00 0. -1.
          1   -1    0    0  501    0 -0.00000000000E+00 -0.00000000000E+00 -0.11778206806E+04  0.11778206806E+04  0.00000000000E+00 0. -1.
         25    2    1    2    0    0 -0.28606555205E+02  0.13110594229E+03 -0.10568077494E+03  0.21165979243E+03  0.12499735371E+03 0.  0.
          2    1    1    2  501    0 -0.75698274889E+01 -0.79713329275E+02 -0.10164823230E+04  0.10196312226E+04  0.00000000000E+00 0. -1.
          1    1    1    2  502    0  0.36176382694E+02 -0.51392613019E+02  0.90185168468E+03  0.90403893306E+03  0.00000000000E+00 0. -1.
         22    1    3    3    0    0 -0.39456775620E+02 -0.10926618781E+02 -0.23821063823E+02  0.47367406748E+02  0.00000000000E+00 0. -1.
         22    1    3    3    0    0  0.10850220415E+02  0.14203256107E+03 -0.81859711113E+02  0.16429238568E+03  0.00000000000E+00 0. -1.
</event>
<event>
 7    1  0.6078244E-006  0.5557558E+02  0.7818608E-02  0.1475398E+00
          2   -1    0    0  502    0  0.00000000000E+00  0.00000000000E+00  0.49926096354E+03  0.49926096354E+03  0.00000000000E+00 0. -1.
          1   -1    0    0  501    0 -0.00000000000E+00 -0.00000000000E+00 -0.83140678977E+03  0.83140678977E+03  0.00000000000E+00 0. -1.
         25    2    1    2    0    0 -0.29630138692E+02  0.14578537972E+02 -0.12731916454E+02  0.12991201467E+03  0.12499820387E+03 0.  0.
          2    1    1    2  501    0  0.24636172191E+02 -0.50396021148E+02 -0.75830512407E+03  0.76037711770E+03  0.00000000000E+00 0. -1.
          1    1    1    2  502    0  0.49939665016E+01  0.35817483176E+02  0.43889121429E+03  0.44037862094E+03  0.00000000000E+00 0. -1.
         22    1    3    3    0    0 -0.34747411667E+02 -0.51922259362E+02 -0.88696438261E+01  0.63102885959E+02  0.00000000000E+00 0. -1.
         22    1    3    3    0    0  0.51172729748E+01  0.66500797334E+02 -0.38622726281E+01  0.66809128707E+02  0.00000000000E+00 0. -1.
</event>
<event>
 7    1  0.6078244E-006  0.1510096E+03  0.7818608E-02  0.1412599E+00
          2   -1    0    0  502    0  0.00000000000E+00  0.00000000000E+00  0.47142596557E+03  0.47142596557E+03  0.00000000000E+00 0. -1.
          1   -1    0    0  501    0 -0.00000000000E+00 -0.00000000000E+00 -0.37444958270E+03  0.37444958270E+03  0.00000000000E+00 0. -1.
         25    2    1    2    0    0 -0.17010621774E+02 -0.15811980763E+03 -0.28620615451E+03  0.35047350208E+03  0.12500591172E+03 0.  0.
          2    1    1    2  501    0 -0.17857614129E+02  0.11476866214E+02 -0.40488898116E+02  0.45716120911E+02  0.00000000000E+00 0. -1.
          1    1    1    2  502    0  0.34868235903E+02  0.14664294142E+03  0.42367143549E+03  0.44968592528E+03  0.00000000000E+00 0. -1.
         22    1    3    3    0    0  0.12662968369E+02 -0.43393226561E+02 -0.19707617444E+03  0.20219382140E+03  0.00000000000E+00 0. -1.
         22    1    3    3    0    0 -0.29673590143E+02 -0.11472658107E+03 -0.89129980063E+02  0.14827968068E+03  0.00000000000E+00 0. -1.
</event>
<event>
 7    1  0.6078244E-006  0.1021073E+03  0.7818608E-02  0.1294485E+00
          2   -1    0    0  502    0  0.00000000000E+00  0.00000000000E+00  0.35134661388E+03  0.35134661388E+03  0.00000000000E+00 0. -1.
          1   -1    0    0  501    0 -0.00000000000E+00 -0.00000000000E+00 -0.29505328822E+03  0.29505328822E+03  0.00000000000E+00 0. -1.
         25    2    1    2    0    0 -0.64226824762E+02 -0.79829650262E+02 -0.58153602740E+01  0.16176014478E+03  0.12503866579E+03 0.  0.
          2    1    1    2  501    0 -0.17379847628E+02  0.10600739105E+03 -0.19005349083E+03  0.21831160170E+03  0.00000000000E+00 0. -1.
          1    1    1    2  502    0  0.81606672390E+02 -0.26177740789E+02  0.25216217676E+03  0.26632815563E+03  0.00000000000E+00 0. -1.
         22    1    3    3    0    0  0.32053586357E+01 -0.54309243018E+02  0.47393701163E+02  0.72152138646E+02  0.00000000000E+00 0.  1.
         22    1    3    3    0    0 -0.67432183398E+02 -0.25520407244E+02 -0.53209061437E+02  0.89608006131E+02  0.00000000000E+00 0.  1.
</event>
<event>
 7    1  0.7656861E-006  0.1098234E+03  0.7818608E-02  0.1293150E+00
          2   -1    0    0  502    0  0.00000000000E+00  0.00000000000E+00  0.11604900171E+04  0.11604900171E+04  0.00000000000E+00 0. -1.
          1   -1    0    0  501    0 -0.00000000000E+00 -0.00000000000E+00 -0.17015672502E+04  0.17015672502E+04  0.00000000000E+00 0. -1.
         25    2    1    2    0    0  0.13928434928E+03  0.10853392306E+02 -0.13245395688E+03  0.22953232580E+03  0.12499244703E+03 0.  0.
          2    1    1    2  501    0 -0.44969978249E+02 -0.66981229206E+02 -0.15167912661E+04  0.15189353274E+04  0.00000000000E+00 0. -1.
          1    1    1    2  502    0 -0.94314371035E+02  0.56127836901E+02  0.11081679899E+04  0.11135896140E+04  0.00000000000E+00 0. -1.
         22    1    3    3    0    0  0.67837411492E+02 -0.52686502195E+02 -0.91552922335E+02  0.12553772142E+03  0.00000000000E+00 0. -1.
         22    1    3    3    0    0  0.71446937792E+02  0.63539894500E+02 -0.40901034542E+02  0.10399460438E+03  0.00000000000E+00 0. -1.
</event>
<event>
 7    1  0.6078244E-006  0.1515820E+03  0.7818608E-02  0.1354000E+00
          2   -1    0    0  502    0  0.00000000000E+00  0.00000000000E+00  0.55652416763E+03  0.55652416763E+03  0.00000000000E+00 0. -1.
          1   -1    0    0  501    0 -0.00000000000E+00 -0.00000000000E+00 -0.11079295466E+04  0.11079295466E+04  0.00000000000E+00 0. -1.
         25    2    1    2    0    0  0.63623650197E+02  0.14874005658E+03  0.30985679081E+03  0.37122417542E+03  0.12499833723E+03 0.  0.
          2    1    1    2  501    0 -0.33264875580E+02 -0.71837360680E+01 -0.10526790342E+04  0.10532289908E+04  0.00000000000E+00 0. -1.
          1    1    1    2  502    0 -0.30358774618E+02 -0.14155632051E+03  0.19141686442E+03  0.24000054803E+03  0.00000000000E+00 0. -1.
         22    1    3    3    0    0  0.59480995917E+02  0.13164650102E+03  0.14239959276E+03  0.20284583832E+03  0.00000000000E+00 0.  1.
         22    1    3    3    0    0  0.41426542806E+01  0.17093555558E+02  0.16745719805E+03  0.16837833710E+03  0.00000000000E+00 0.  1.
</event>
<event>
 7    1  0.6078244E-006  0.1426167E+03  0.7818608E-02  0.1340040E+00
          2   -1    0    0  502    0  0.00000000000E+00  0.00000000000E+00  0.41726579339E+03  0.41726579339E+03  0.00000000000E+00 0. -1.
          1   -1    0    0  501    0 -0.00000000000E+00 -0.00000000000E+00 -0.30602425513E+04  0.30602425513E+04  0.00000000000E+00 0. -1.
         25    2    1    2    0    0  0.51858184977E+02 -0.10006998180E+03  0.38342717118E+01  0.16835825031E+03  0.12500610466E+03 0.  0.
          2    1    1    2  501    0 -0.91292986978E+02  0.11041116057E+03 -0.29749955232E+04  0.29784431163E+04  0.00000000000E+00 0. -1.
          1    1    1    2  502    0  0.39434802002E+02 -0.10341178776E+02  0.32818449354E+03  0.33070697814E+03  0.00000000000E+00 0. -1.
         22    1    3    3    0    0 -0.10605813727E+02 -0.88972208823E+02 -0.32421129621E+02  0.95287286002E+02  0.00000000000E+00 0.  1.
         22    1    3    3    0    0  0.62463998703E+02 -0.11097772972E+02  0.36255401333E+02  0.73070964307E+02  0.00000000000E+00 0.  1.
</event>
<event>
 7    1  0.6078244E-006  0.3674326E+02  0.7818608E-02  0.1534941E+00
          2   -1    0    0  502    0  0.00000000000E+00  0.00000000000E+00  0.32172773029E+03  0.32172773029E+03  0.00000000000E+00 0. -1.
          1   -1    0    0  501    0 -0.00000000000E+00 -0.00000000000E+00 -0.30497849544E+03  0.30497849544E+03  0.00000000000E+00 0. -1.
         25    2    1    2    0    0  0.65833441081E+01 -0.13618694818E+02  0.66424409413E+00  0.12591475548E+03  0.12500110064E+03 0.  0.
          2    1    1    2  501    0  0.28073133512E+02  0.24853188801E+02 -0.23960410255E+03  0.24251991212E+03  0.00000000000E+00 0. -1.
          1    1    1    2  502    0 -0.34656477620E+02 -0.11234493983E+02  0.25568909331E+03  0.25827155812E+03  0.00000000000E+00 0. -1.
         22    1    3    3    0    0  0.26739821302E+01 -0.60483546491E+02 -0.32170106539E+02  0.68558918685E+02  0.00000000000E+00 0.  1.
         22    1    3    3    0    0  0.39093619779E+01  0.46864851673E+02  0.32834350633E+02  0.57355836799E+02  0.00000000000E+00 0.  1.
</event>
<event>
 7    1  0.6078244E-006  0.6776826E+02  0.7818608E-02  0.1460428E+00
          2   -1    0    0  502    0  0.00000000000E+00  0.00000000000E+00  0.11895150447E+04  0.11895150447E+04  0.00000000000E+00 0. -1.
          1   -1    0    0  501    0 -0.00000000000E+00 -0.00000000000E+00 -0.23137939414E+03  0.23137939414E+03  0.00000000000E+00 0. -1.
         25    2    1    2    0    0 -0.97212815953E+02  0.12436300908E+02  0.23111453001E+03  0.28043427426E+03  0.12499785210E+03 0.  0.
          2    1    1    2  501    0  0.30865622810E+02 -0.11744777526E+02 -0.20421259406E+03  0.20686568116E+03  0.00000000000E+00 0. -1.
          1    1    1    2  502    0  0.66347193142E+02 -0.69152338170E+00  0.93123371457E+03  0.93359448338E+03  0.00000000000E+00 0. -1.
         22    1    3    3    0    0 -0.18887891741E+02  0.12729255330E+01 -0.13560126349E+02  0.23286258189E+02  0.00000000000E+00 0.  1.
         22    1    3    3    0    0 -0.78324924211E+02  0.11163375375E+02  0.24467465636E+03  0.25714801607E+03  0.00000000000E+00 0.  1.
</event>
<event>
 7    1  0.6078244E-006  0.4192966E+02  0.7818608E-02  0.1591912E+00
          2   -1    0    0  502    0  0.00000000000E+00  0.00000000000E+00  0.44188885914E+03  0.44188885914E+03  0.00000000000E+00 0. -1.
          1   -1    0    0  501    0 -0.00000000000E+00 -0.00000000000E+00 -0.15972383426E+04  0.15972383426E+04  0.00000000000E+00 0. -1.
         25    2    1    2    0    0 -0.36924468216E+01  0.27718475199E+02 -0.78483062664E+03  0.79521418287E+03  0.12499814435E+03 0.  0.
          2    1    1    2  501    0  0.24133999237E+02 -0.36587092684E+02 -0.80633613241E+03  0.80752648483E+03  0.00000000000E+00 0. -1.
          1    1    1    2  502    0 -0.20441552416E+02  0.88686174849E+01  0.43581727556E+03  0.43638653407E+03  0.00000000000E+00 0. -1.
         22    1    3    3    0    0  0.39529012679E+02  0.17079521243E+02 -0.99233680271E+02  0.10817382396E+03  0.00000000000E+00 0. -1.
         22    1    3    3    0    0 -0.43221459501E+02  0.10638953955E+02 -0.68559694637E+03  0.68704035891E+03  0.00000000000E+00 0. -1.
</event>
<event>
 7    1  0.6078244E-006  0.4355030E+02  0.7818608E-02  0.1529137E+00
          2   -1    0    0  502    0  0.00000000000E+00  0.00000000000E+00  0.24995489732E+03  0.24995489732E+03  0.00000000000E+00 0. -1.
          1   -1    0    0  501    0 -0.00000000000E+00 -0.00000000000E+00 -0.50705917756E+02  0.50705917756E+02  0.00000000000E+00 0. -1.
         25    2    1    2    0    0  0.19156248992E+02 -0.30901864420E+02  0.10190034408E+03  0.16530872125E+03  0.12498562357E+03 0.  0.
          2    1    1    2  501    0 -0.28453847828E+02 -0.14496459379E+02  0.54015326020E+01  0.32387425726E+02  0.00000000000E+00 0. -1.
          1    1    1    2  502    0  0.92975988352E+01  0.45398323799E+02  0.91947102884E+02  0.10296466810E+03  0.00000000000E+00 0. -1.
         22    1    3    3    0    0 -0.16756456605E+01  0.27250064543E+02 -0.16402715756E+02  0.31850006125E+02  0.00000000000E+00 0.  1.
         22    1    3    3    0    0  0.20831894653E+02 -0.58151928963E+02  0.11830305984E+03  0.13345871513E+03  0.00000000000E+00 0.  1.
</event>
<event>
 7    1  0.6078244E-006  0.1038797E+03  0.7818608E-02  0.1290894E+00
          2   -1    0    0  502    0  0.00000000000E+00  0.00000000000E+00  0.19151049566E+03  0.19151049566E+03  0.00000000000E+00 0. -1.
          1   -1    0    0  501    0 -0.00000000000E+00 -0.00000000000E+00 -0.10743169445E+04  0.10743169445E+04  0.00000000000E+00 0. -1.
         25    2    1    2    0    0  0.31906015329E+02 -0.43872446788E+01 -0.18592648047E+03  0.22634229410E+03  0.12499974491E+03 0.  0.
          2    1    1    2  501    0 -0.11836520603E+03 -0.62328472443E+01 -0.85273799377E+03  0.86093626733E+03  0.00000000000E+00 0. -1.
          1    1    1    2  502    0  0.86459190705E+02  0.10620091923E+02  0.15585802541E+03  0.17854887873E+03  0.00000000000E+00 0. -1.
         22    1    3    3    0    0  0.36444119934E+02 -0.35293154182E+02 -0.18830038285E+03  0.19501490915E+03  0.00000000000E+00 0.  1.
         22    1    3    3    0    0 -0.45381046051E+01  0.30905909503E+02  0.23739023731E+01  0.31327384955E+02  0.00000000000E+00 0.  1.
</event>
<event>
 7    1  0.6078244E-006  0.1249970E+03  0.7818608E-02  0.1345981E+00
          2   -1    0    0  502    0  0.00000000000E+00  0.00000000000E+00  0.13065043129E+04  0.13065043129E+04  0.00000000000E+00 0. -1.
          1   -1    0    0  501    0 -0.00000000000E+00 -0.00000000000E+00 -0.60625979929E+03  0.60625979929E+03  0.00000000000E+00 0. -1.
         25    2    1    2    0    0  0.34879893278E+02  0.12181170350E+03 -0.79273860598E+02  0.19484265723E+03  0.12499847215E+03 0.  0.
          2    1    1    2  501    0 -0.74151636059E+02 -0.10154633874E+03 -0.46037686629E+03  0.47723891612E+03  0.00000000000E+00 0. -1.
          1    1    1    2  502    0  0.39271742781E+02 -0.20265364753E+02  0.12398952405E+04  0.12406825388E+04  0.00000000000E+00 0. -1.
         22    1    3    3    0    0 -0.17781976857E+01  0.11937666770E+03 -0.97209170106E+02  0.15395964903E+03  0.00000000000E+00 0. -1.
         22    1    3    3    0    0  0.36658090964E+02  0.24350357997E+01  0.17935309509E+02  0.40883008202E+02  0.00000000000E+00 0. -1.
</event>
<event>
 7    1  0.6078244E-006  0.1144599E+03  0.7818608E-02  0.1382119E+00
          2   -1    0    0  502    0  0.00000000000E+00  0.00000000000E+00  0.38048482861E+03  0.38048482861E+03  0.00000000000E+00 0. -1.
          1   -1    0    0  501    0 -0.00000000000E+00 -0.00000000000E+00 -0.69035047269E+03  0.69035047269E+03  0.00000000000E+00 0. -1.
         25    2    1    2    0    0 -0.60169445154E+02  0.92640888590E+02 -0.14117207934E+03  0.21853325097E+03  0.12499811768E+03 0.  0.
          2    1    1    2  501    0 -0.29265324308E+02 -0.20419553931E+02 -0.50017887199E+03  0.50145021824E+03  0.00000000000E+00 0. -1.
          1    1    1    2  502    0  0.89434769462E+02 -0.72221334659E+02  0.33148530724E+03  0.35085183210E+03  0.00000000000E+00 0. -1.
         22    1    3    3    0    0  0.16352815814E+02 -0.48183668522E+01  0.12491115754E+02  0.21134313733E+02  0.00000000000E+00 0. -1.
         22    1    3    3    0    0 -0.76522260968E+02  0.97459255443E+02 -0.15366319509E+03  0.19739893723E+03  0.00000000000E+00 0. -1.
</event>
<event>
 7    1  0.6078244E-006  0.1083562E+03  0.7818608E-02  0.1322317E+00
          2   -1    0    0  502    0  0.00000000000E+00  0.00000000000E+00  0.10113108039E+04  0.10113108039E+04  0.00000000000E+00 0. -1.
          1   -1    0    0  501    0 -0.00000000000E+00 -0.00000000000E+00 -0.12036945910E+04  0.12036945910E+04  0.00000000000E+00 0. -1.
         25    2    1    2    0    0 -0.23715963233E+02 -0.15516425114E+03 -0.12607984199E+03  0.23698181250E+03  0.12500344457E+03 0.  0.
          2    1    1    2  501    0 -0.23172510288E+02  0.58254083556E+02 -0.10181651904E+04  0.10200935538E+04  0.00000000000E+00 0. -1.
          1    1    1    2  502    0  0.46888473521E+02  0.96910167589E+02  0.95186124524E+03  0.95793002862E+03  0.00000000000E+00 0. -1.
         22    1    3    3    0    0 -0.14119078940E+02 -0.11565154625E+03 -0.14990206957E+03  0.18985589009E+03  0.00000000000E+00 0.  1.
         22    1    3    3    0    0 -0.95968842923E+01 -0.39512704898E+02  0.23822227581E+02  0.47125922414E+02  0.00000000000E+00 0.  1.
</event>
<event>
 7    1  0.6078244E-006  0.1455482E+03  0.7818608E-02  0.1278770E+00
          2   -1    0    0  502    0  0.00000000000E+00  0.00000000000E+00  0.11934675683E+04  0.11934675683E+04  0.00000000000E+00 0. -1.
          1   -1    0    0  501    0 -0.00000000000E+00 -0.00000000000E+00 -0.41213002652E+03  0.41213002652E+03  0.00000000000E+00 0. -1.
         25    2    1    2    0    0  0.76094907659E+02 -0.52561143556E+02  0.85009661176E+02  0.17721458607E+03  0.12500103296E+03 0.  0.
          2    1    1    2  501    0 -0.94200891280E+02  0.11988022300E+03 -0.34893943876E+03  0.38079365502E+03  0.00000000000E+00 0. -1.
          1    1    1    2  502    0  0.18105983621E+02 -0.67319079444E+02  0.10452673193E+04  0.10475893537E+04  0.00000000000E+00 0. -1.
         22    1    3    3    0    0  0.47998289216E+02 -0.66207355929E+02 -0.50109257113E+01  0.81928988297E+02  0.00000000000E+00 0.  1.
         22    1    3    3    0    0  0.28096618443E+02  0.13646212373E+02  0.90020586887E+02  0.95285597776E+02  0.00000000000E+00 0.  1.
</event>
<event>
 7    1  0.6078244E-006  0.6726496E+02  0.7818608E-02  0.1389059E+00
          2   -1    0    0  502    0  0.00000000000E+00  0.00000000000E+00  0.38972997569E+03  0.38972997569E+03  0.00000000000E+00 0. -1.
          1   -1    0    0  501    0 -0.00000000000E+00 -0.00000000000E+00 -0.18693648792E+04  0.18693648792E+04  0.00000000000E+00 0. -1.
         25    2    1    2    0    0  0.83807327731E+02  0.48371689787E+02 -0.13211138769E+04  0.13305375059E+04  0.12499876039E+03 0.  0.
          2    1    1    2  501    0 -0.55956234021E+02  0.12828351863E+02 -0.53906776031E+03  0.54211596264E+03  0.00000000000E+00 0. -1.
          1    1    1    2  502    0 -0.27851093710E+02 -0.61200041650E+02  0.38054673376E+03  0.38644138637E+03  0.00000000000E+00 0. -1.
         22    1    3    3    0    0  0.23246569295E+00  0.37085068931E+02 -0.91542061252E+03  0.91617152008E+03  0.00000000000E+00 0.  1.
         22    1    3    3    0    0  0.83574862038E+02  0.11286620856E+02 -0.40569326443E+03  0.41436598579E+03  0.00000000000E+00 0.  1.
</event>
<event>
 7    1  0.6078244E-006  0.6998105E+02  0.7818608E-02  0.1379436E+00
          2   -1    0    0  502    0  0.00000000000E+00  0.00000000000E+00  0.10838098619E+04  0.10838098619E+04  0.00000000000E+00 0. -1.
          1   -1    0    0  501    0 -0.00000000000E+00 -0.00000000000E+00 -0.17914266541E+03  0.17914266541E+03  0.00000000000E+00 0. -1.
         25    2    1    2    0    0 -0.11593355115E+03 -0.35121766603E+02  0.37303166325E+03  0.41164509829E+03  0.12499975354E+03 0.  0.
          2    1    1    2  501    0  0.59652778547E+02  0.54823864454E+00 -0.15262343693E+03  0.16386783716E+03  0.00000000000E+00 0. -1.
          1    1    1    2  502    0  0.56280772601E+02  0.34573527958E+02  0.68425897022E+03  0.68743959191E+03  0.00000000000E+00 0. -1.
         22    1    3    3    0    0 -0.57508491140E+02 -0.62013176650E+02  0.99188415634E+02  0.13035030659E+03  0.00000000000E+00 0. -1.
         22    1    3    3    0    0 -0.58425060008E+02  0.26891410048E+02  0.27384324762E+03  0.28129479170E+03  0.00000000000E+00 0. -1.
</event>
<event>
 7    1  0.6078244E-006  0.9588268E+02  0.7818608E-02  0.1322294E+00
          2   -1    0    0  502    0  0.00000000000E+00  0.00000000000E+00  0.14897297683E+04  0.14897297683E+04  0.00000000000E+00 0. -1.
          1   -1    0    0  501    0 -0.00000000000E+00 -0.00000000000E+00 -0.31595381518E+03  0.31595381518E+03  0.00000000000E+00 0. -1.
         25    2    1    2    0    0 -0.81142362588E+02  0.92254709073E+02  0.48143236605E+03  0.51234457637E+03  0.12499930998E+03 0.  0.
          2    1    1    2  501    0  0.93146876551E+02 -0.22414124083E+02 -0.29155456308E+03  0.30689215830E+03  0.00000000000E+00 0. -1.
          1    1    1    2  502    0 -0.12004513963E+02 -0.69840584991E+02  0.98389815011E+03  0.98644684877E+03  0.00000000000E+00 0. -1.
         22    1    3    3    0    0 -0.10729738461E+03  0.88322772966E+02  0.45148349842E+03  0.47238860095E+03  0.00000000000E+00 0. -1.
         22    1    3    3    0    0  0.26155022021E+02  0.39319361069E+01  0.29948867635E+02  0.39955975411E+02  0.00000000000E+00 0. -1.
</event>
<event>
 7    1  0.6078244E-006  0.9386406E+02  0.7818608E-02  0.1299943E+00
          2   -1    0    0  502    0  0.00000000000E+00  0.00000000000E+00  0.65327967784E+03  0.65327967784E+03  0.00000000000E+00 0. -1.
          1   -1    0    0  501    0 -0.00000000000E+00 -0.00000000000E+00 -0.24032087250E+03  0.24032087250E+03  0.00000000000E+00 0. -1.
         25    2    1    2    0    0  0.62982065871E+02 -0.59521139248E+02  0.99553147358E+02  0.18176472044E+03  0.12497230817E+03 0.  0.
          2    1    1    2  501    0  0.33389597421E+02  0.82105321420E+02 -0.18423467972E+03  0.20444697658E+03  0.00000000000E+00 0. -1.
          1    1    1    2  502    0 -0.96371663292E+02 -0.22584182171E+02  0.49764033770E+03  0.50738885333E+03  0.00000000000E+00 0. -1.
         22    1    3    3    0    0  0.98576255710E+02 -0.61656831700E+02  0.79544208080E+02  0.14087627240E+03  0.00000000000E+00 0.  1.
         22    1    3    3    0    0 -0.35594189839E+02  0.21356924518E+01  0.20008939278E+02  0.40888448046E+02  0.00000000000E+00 0.  1.
</event>
<event>
 7    1  0.6078244E-006  0.1420888E+03  0.7818608E-02  0.1263109E+00
          2   -1    0    0  502    0  0.00000000000E+00  0.00000000000E+00  0.62464886430E+03  0.62464886430E+03  0.00000000000E+00 0. -1.
          1   -1    0    0  501    0 -0.00000000000E+00 -0.00000000000E+00 -0.24689066015E+03  0.24689066015E+03  0.00000000000E+00 0. -1.
         25    2    1    2    0    0  0.18240099490E+03 -0.92787635938E+02  0.18910421133E+03  0.30539326266E+03  0.12499989523E+03 0.  0.
          2    1    1    2  501    0 -0.55733636329E+02  0.61592280027E+02 -0.16743864643E+03  0.18691053340E+03  0.00000000000E+00 0. -1.
          1    1    1    2  502    0 -0.12666735857E+03  0.31195355911E+02  0.35609263925E+03  0.37923572839E+03  0.00000000000E+00 0. -1.
         22    1    3    3    0    0  0.61498178447E+02 -0.40561084178E+02 -0.15349430515E+01  0.73685707924E+02  0.00000000000E+00 0.  1.
         22    1    3    3    0    0  0.12090281646E+03 -0.52226551759E+02  0.19063915438E+03  0.23170755473E+03  0.00000000000E+00 0.  1.
</event>
<event>
 7    1  0.6078244E-006  0.4062617E+02  0.7818608E-02  0.1553440E+00
          2   -1    0    0  502    0  0.00000000000E+00  0.00000000000E+00  0.39848779636E+02  0.39848779636E+02  0.00000000000E+00 0. -1.
          1   -1    0    0  501    0 -0.00000000000E+00 -0.00000000000E+00 -0.78030116698E+03  0.78030116698E+03  0.00000000000E+00 0. -1.
         25    2    1    2    0    0  0.32933977506E+02 -0.34721883146E+02 -0.18875139434E+03  0.23140168421E+03  0.12501757694E+03 0.  0.
          2    1    1    2  501    0 -0.42754838178E+01  0.40480580410E+02 -0.55746908370E+03  0.55895325067E+03  0.00000000000E+00 0. -1.
          1    1    1    2  502    0 -0.28658493688E+02 -0.57586972643E+01  0.57680906913E+01  0.29795011744E+02  0.00000000000E+00 0. -1.
         22    1    3    3    0    0  0.61817290469E+02 -0.40543318331E+02 -0.49266372236E+02  0.88838693684E+02  0.00000000000E+00 0.  1.
         22    1    3    3    0    0 -0.28883312964E+02  0.58214351853E+01 -0.13948502210E+03  0.14256299052E+03  0.00000000000E+00 0.  1.
</event>
<event>
 7    1  0.6078244E-006  0.8472637E+02  0.7818608E-02  0.1318642E+00
          2   -1    0    0  502    0  0.00000000000E+00  0.00000000000E+00  0.35934908935E+04  0.35934908935E+04  0.00000000000E+00 0. -1.
          1   -1    0    0  501    0 -0.00000000000E+00 -0.00000000000E+00 -0.15285319692E+03  0.15285319692E+03  0.00000000000E+00 0. -1.
         25    2    1    2    0    0  0.51589880222E+02  0.19338378394E+02  0.24179973841E+03  0.27771651405E+03  0.12499544017E+03 0.  0.
          2    1    1    2  501    0 -0.61777210126E+02  0.62886031812E+02 -0.11992026302E+03  0.14883529881E+03  0.00000000000E+00 0. -1.
          1    1    1    2  502    0  0.10187329903E+02 -0.82224410206E+02  0.33187582212E+04  0.33197922776E+04  0.00000000000E+00 0. -1.
         22    1    3    3    0    0  0.18272674576E+02  0.68428174993E+02  0.17259582178E+03  0.18656265292E+03  0.00000000000E+00 0.  1.
         22    1    3    3    0    0  0.33317205646E+02 -0.49089796599E+02  0.69203916624E+02  0.91153861127E+02  0.00000000000E+00 0.  1.
</event>
<event>
 7    1  0.6078244E-006  0.8959793E+02  0.7818608E-02  0.1436650E+00
          2   -1    0    0  502    0  0.00000000000E+00  0.00000000000E+00  0.16416634976E+03  0.16416634976E+03  0.00000000000E+00 0. -1.
          1   -1    0    0  501    0 -0.00000000000E+00 -0.00000000000E+00 -0.63141541472E+03  0.63141541472E+03  0.00000000000E+00 0. -1.
         25    2    1    2    0    0 -0.92982848293E+02  0.19776968659E+02 -0.63375344341E+02  0.16934264690E+03  0.12499423675E+03 0.  0.
          2    1    1    2  501    0  0.15766005257E+02  0.25254915380E+02 -0.49657160851E+03  0.49746330523E+03  0.00000000000E+00 0. -1.
          1    1    1    2  502    0  0.77216843036E+02 -0.45031884039E+02  0.92697887891E+02  0.12877581236E+03  0.00000000000E+00 0. -1.
         22    1    3    3    0    0 -0.73032467561E+02  0.29482417465E+02 -0.99531044757E+02  0.12692274472E+03  0.00000000000E+00 0. -1.
         22    1    3    3    0    0 -0.19950380732E+02 -0.97054488060E+01  0.36155700416E+02  0.42419902174E+02  0.00000000000E+00 0. -1.
</event>
<event>
 7    1  0.6078244E-006  0.8389194E+02  0.7818608E-02  0.1368071E+00
          2   -1    0    0  502    0  0.00000000000E+00  0.00000000000E+00  0.13720874936E+04  0.13720874936E+04  0.00000000000E+00 0. -1.
          1   -1    0    0  501    0 -0.00000000000E+00 -0.00000000000E+00 -0.82996084909E+03  0.82996084909E+03  0.00000000000E+00 0. -1.
         25    2    1    2    0    0  0.10085564103E+03 -0.14074286615E+02  0.41366135558E+03  0.44397122899E+03  0.12499915681E+03 0.  0.
          2    1    1    2  501    0 -0.37299216096E+02 -0.39933237655E+02 -0.81204225365E+03  0.81387868673E+03  0.00000000000E+00 0. -1.
          1    1    1    2  502    0 -0.63556424934E+02  0.54007524270E+02  0.94050754261E+03  0.94419842699E+03  0.00000000000E+00 0. -1.
         22    1    3    3    0    0  0.41583915463E+02 -0.32175807071E+02  0.35421259061E+03  0.35809365246E+03  0.00000000000E+00 0. -1.
         22    1    3    3    0    0  0.59271725568E+02  0.18101520456E+02  0.59448764966E+02  0.85877576529E+02  0.00000000000E+00 0. -1.
</event>
<event>
 7    1  0.6078244E-006  0.9695790E+02  0.7818608E-02  0.1372551E+00
          2   -1    0    0  502    0  0.00000000000E+00  0.00000000000E+00  0.34069863018E+03  0.34069863018E+03  0.00000000000E+00 0. -1.
          1   -1    0    0  501    0 -0.00000000000E+00 -0.00000000000E+00 -0.62171765430E+03  0.62171765430E+03  0.00000000000E+00 0. -1.
         25    2    1    2    0    0  0.30792323714E+02  0.79833869455E+02 -0.10941738884E+03  0.18686712450E+03  0.12500217329E+03 0.  0.
          2    1    1    2  501    0 -0.42023045874E+02  0.17598938218E+02 -0.46446767261E+03  0.46669677299E+03  0.00000000000E+00 0. -1.
          1    1    1    2  502    0  0.11230722160E+02 -0.97432807674E+02  0.29286603733E+03  0.30885238699E+03  0.00000000000E+00 0. -1.
         22    1    3    3    0    0 -0.40021406398E+02  0.33270707913E+02 -0.83230103336E+02  0.98162635847E+02  0.00000000000E+00 0. -1.
         22    1    3    3    0    0  0.70813730113E+02  0.46563161543E+02 -0.26187285501E+02  0.88704488653E+02  0.00000000000E+00 0. -1.
</event>
<event>
 7    1  0.6078244E-006  0.1511253E+03  0.7818608E-02  0.1313914E+00
          2   -1    0    0  502    0  0.00000000000E+00  0.00000000000E+00  0.57520562850E+02  0.57520562850E+02  0.00000000000E+00 0. -1.
          1   -1    0    0  501    0 -0.00000000000E+00 -0.00000000000E+00 -0.10529012565E+04  0.10529012565E+04  0.00000000000E+00 0. -1.
         25    2    1    2    0    0 -0.81805981509E+02  0.13729118650E+03 -0.28530339160E+03  0.35009215827E+03  0.12500162208E+03 0.  0.
          2    1    1    2  501    0  0.34222854305E+02 -0.14650173576E+03 -0.69268898246E+03  0.70883847861E+03  0.00000000000E+00 0. -1.
          1    1    1    2  502    0  0.47583127204E+02  0.92105492683E+01 -0.17388319567E+02  0.51491182446E+02  0.00000000000E+00 0. -1.
         22    1    3    3    0    0  0.19992203161E+02  0.72346304711E+02 -0.66966332455E+02  0.10058909322E+03  0.00000000000E+00 0.  1.
         22    1    3    3    0    0 -0.10179818467E+03  0.64944881784E+02 -0.21833705915E+03  0.24950306505E+03  0.00000000000E+00 0.  1.
</event>
<event>
 7    1  0.6078244E-006  0.4491478E+02  0.7818608E-02  0.1538056E+00
          2   -1    0    0  502    0  0.00000000000E+00  0.00000000000E+00  0.10553761276E+04  0.10553761276E+04  0.00000000000E+00 0. -1.
          1   -1    0    0  501    0 -0.00000000000E+00 -0.00000000000E+00 -0.24146135354E+03  0.24146135354E+03  0.00000000000E+00 0. -1.
         25    2    1    2    0    0  0.23706929960E+02  0.31726163753E+02  0.34607188613E+02  0.13561459432E+03  0.12500037078E+03 0.  0.
          2    1    1    2  501    0 -0.44061490241E+02 -0.10786029640E+02 -0.18804020118E+03  0.19343440909E+03  0.00000000000E+00 0. -1.
          1    1    1    2  502    0  0.20354560282E+02 -0.20940134113E+02  0.96734778666E+03  0.96778847777E+03  0.00000000000E+00 0. -1.
         22    1    3    3    0    0  0.13013022298E+02  0.13560353532E+02 -0.47374430695E+02  0.50966249822E+02  0.00000000000E+00 0.  1.
         22    1    3    3    0    0  0.10693907662E+02  0.18165810221E+02  0.81981619308E+02  0.84648344499E+02  0.00000000000E+00 0.  1.
</event>
<event>
 7    1  0.6078244E-006  0.5103296E+02  0.7818608E-02  0.1441675E+00
          2   -1    0    0  502    0  0.00000000000E+00  0.00000000000E+00  0.25560540410E+04  0.25560540410E+04  0.00000000000E+00 0. -1.
          1   -1    0    0  501    0 -0.00000000000E+00 -0.00000000000E+00 -0.36482552718E+02  0.36482552718E+02  0.00000000000E+00 0. -1.
         25    2    1    2    0    0 -0.43220710381E+02 -0.21071299644E+02  0.49405795205E+03  0.51188818700E+03  0.12499690606E+03 0.  0.
          2    1    1    2  501    0  0.41132445949E+02 -0.30207365530E+02 -0.33435037684E+01  0.51142370492E+02  0.00000000000E+00 0. -1.
          1    1    1    2  502    0  0.20882644318E+01  0.51278665174E+02  0.20288570399E+04  0.20295060362E+04  0.00000000000E+00 0. -1.
         22    1    3    3    0    0 -0.78153960967E+02 -0.12646209802E+02  0.43940103869E+03  0.44647647311E+03  0.00000000000E+00 0.  1.
         22    1    3    3    0    0  0.34933250586E+02 -0.84250898424E+01  0.54656913363E+02  0.65411713888E+02  0.00000000000E+00 0.  1.
</event>
<event>
 7    1  0.6078244E-006  0.5137255E+02  0.7818608E-02  0.1568579E+00
          2   -1    0    0  502    0  0.00000000000E+00  0.00000000000E+00  0.44881927111E+03  0.44881927111E+03  0.00000000000E+00 0. -1.
          1   -1    0    0  501    0 -0.00000000000E+00 -0.00000000000E+00 -0.97791519805E+02  0.97791519805E+02  0.00000000000E+00 0. -1.
         25    2    1    2    0    0  0.62481437034E+02 -0.28316494774E+02  0.19118430007E+03  0.23851033932E+03  0.12501996448E+03 0.  0.
          2    1    1    2  501    0 -0.41494481137E+02  0.29164638986E+02 -0.64905773183E+02  0.82371885522E+02  0.00000000000E+00 0. -1.
          1    1    1    2  502    0 -0.20986955897E+02 -0.84814421140E+00  0.22474922442E+03  0.22572856608E+03  0.00000000000E+00 0. -1.
         22    1    3    3    0    0  0.14065470888E+02 -0.65847774364E+02  0.47761295550E+02  0.82552457338E+02  0.00000000000E+00 0.  1.
         22    1    3    3    0    0  0.48415966145E+02  0.37531279590E+02  0.14342300452E+03  0.15595788198E+03  0.00000000000E+00 0.  1.
</event>
<event>
 7    1  0.6078244E-006  0.9315423E+02  0.7818608E-02  0.1347079E+00
          2   -1    0    0  502    0  0.00000000000E+00  0.00000000000E+00  0.11093895557E+03  0.11093895557E+03  0.00000000000E+00 0. -1.
          1   -1    0    0  501    0 -0.00000000000E+00 -0.00000000000E+00 -0.18566107250E+04  0.18566107250E+04  0.00000000000E+00 0. -1.
         25    2    1    2    0    0  0.74772456386E+02  0.11149287598E+03 -0.34327448619E+03  0.38920916155E+03  0.12499926777E+03 0.  0.
          2    1    1    2  501    0 -0.61132664356E+00 -0.58739083765E+02 -0.14660839119E+04  0.14672602668E+04  0.00000000000E+00 0. -1.
          1    1    1    2  502    0 -0.74161129743E+02 -0.52753792212E+02  0.63686628692E+02  0.11108025221E+03  0.00000000000E+00 0. -1.
         22    1    3    3    0    0  0.27180993169E+02  0.12418997037E+03 -0.29006459728E+03  0.31670084579E+03  0.00000000000E+00 0. -1.
         22    1    3    3    0    0  0.47591463217E+02 -0.12697094392E+02 -0.53209888908E+02  0.72508315763E+02  0.00000000000E+00 0. -1.
</event>
<event>
 7    1  0.6078244E-006  0.1173798E+03  0.7818608E-02  0.1432499E+00
          2   -1    0    0  502    0  0.00000000000E+00  0.00000000000E+00  0.49703648275E+03  0.49703648275E+03  0.00000000000E+00 0. -1.
          1   -1    0    0  501    0 -0.00000000000E+00 -0.00000000000E+00 -0.86387685576E+03  0.86387685576E+03  0.00000000000E+00 0. -1.
         25    2    1    2    0    0  0.69309198070E+02 -0.72310371753E+02 -0.25735295967E+03  0.30312939316E+03  0.12499731335E+03 0.  0.
          2    1    1    2  501    0  0.23443689342E+02 -0.40049242198E+00 -0.57606986577E+03  0.57654683870E+03  0.00000000000E+00 0. -1.
          1    1    1    2  502    0 -0.92752887412E+02  0.72710864175E+02  0.46658245244E+03  0.48123710665E+03  0.00000000000E+00 0. -1.
         22    1    3    3    0    0  0.86051253780E+02 -0.56935265999E+02 -0.26049183957E+03  0.28018287113E+03  0.00000000000E+00 0. -1.
         22    1    3    3    0    0 -0.16742055710E+02 -0.15375105754E+02  0.31388798982E+01  0.22946522031E+02  0.00000000000E+00 0. -1.
</event>
<event>
 7    1  0.6078244E-006  0.3068221E+02  0.7818608E-02  0.1657056E+00
          2   -1    0    0  502    0  0.00000000000E+00  0.00000000000E+00  0.63556135948E+03  0.63556135948E+03  0.00000000000E+00 0. -1.
          1   -1    0    0  501    0 -0.00000000000E+00 -0.00000000000E+00 -0.10564836235E+04  0.10564836235E+04  0.00000000000E+00 0. -1.
         25    2    1    2    0    0  0.31655010844E+02 -0.68791635409E+01  0.16006877458E+03  0.20566161722E+03  0.12500130239E+03 0.  0.
          2    1    1    2  501    0 -0.27542999718E+02 -0.13534637799E+02 -0.10332197793E+04  0.10336754402E+04  0.00000000000E+00 0. -1.
          1    1    1    2  502    0 -0.41120111258E+01  0.20413801340E+02  0.45222874074E+03  0.45270792556E+03  0.00000000000E+00 0. -1.
         22    1    3    3    0    0 -0.40452576736E+02 -0.70784895053E+01  0.11123515226E+03  0.11857392242E+03  0.00000000000E+00 0.  1.
         22    1    3    3    0    0  0.72107587580E+02  0.19932596439E+00  0.48833622321E+02  0.87087694805E+02  0.00000000000E+00 0.  1.
</event>
<event>
 7    1  0.6078244E-006  0.9246834E+02  0.7818608E-02  0.1364110E+00
          2   -1    0    0  502    0  0.00000000000E+00  0.00000000000E+00  0.15849719108E+04  0.15849719108E+04  0.00000000000E+00 0. -1.
          1   -1    0    0  501    0 -0.00000000000E+00 -0.00000000000E+00 -0.31208874768E+02  0.31208874768E+02  0.00000000000E+00 0. -1.
         25    2    1    2    0    0  0.59503648833E+02  0.36799828734E+02  0.44137533177E+03  0.46403908869E+03  0.12500072290E+03 0.  0.
          2    1    1    2  501    0 -0.10087816260E+03 -0.65762451959E+01  0.11370806610E+03  0.15214852936E+03  0.00000000000E+00 0. -1.
          1    1    1    2  502    0  0.41374513766E+02 -0.30223583538E+02  0.99867963814E+03  0.99999316749E+03  0.00000000000E+00 0. -1.
         22    1    3    3    0    0 -0.30861789293E+01  0.45582942166E+02  0.34979785381E+03  0.35276885867E+03  0.00000000000E+00 0.  1.
         22    1    3    3    0    0  0.62589827763E+02 -0.87831134319E+01  0.91577477961E+02  0.11127023003E+03  0.00000000000E+00 0.  1.
</event>
<event>
 7    1  0.6078244E-006  0.6791778E+02  0.7818608E-02  0.1399680E+00
          2   -1    0    0  502    0  0.00000000000E+00  0.00000000000E+00  0.38384336029E+04  0.38384336029E+04  0.00000000000E+00 0. -1.
          1   -1    0    0  501    0 -0.00000000000E+00 -0.00000000000E+00 -0.21885147255E+04  0.21885147255E+04  0.00000000000E+00 0. -1.
         25    2    1    2    0    0 -0.20822758189E+02 -0.10947845828E+03  0.10633356834E+04  0.10764420788E+04  0.12500261398E+03 0.  0.
          2    1    1    2  501    0  0.27753330475E+02  0.44250864327E+02 -0.21812602892E+04  0.21818856147E+04  0.00000000000E+00 0. -1.
          1    1    1    2  502    0 -0.69305722862E+01  0.65227593950E+02  0.27678434833E+04  0.27686206349E+04  0.00000000000E+00 0. -1.
         22    1    3    3    0    0 -0.24049732926E+02  0.23980827389E+02  0.21243837585E+03  0.21513608082E+03  0.00000000000E+00 0.  1.
         22    1    3    3    0    0  0.32269747366E+01 -0.13345928567E+03  0.85089730751E+03  0.86130599802E+03  0.00000000000E+00 0.  1.
</event>
<event>
 7    1  0.6078244E-006  0.8872831E+02  0.7818608E-02  0.1418813E+00
          2   -1    0    0  502    0  0.00000000000E+00  0.00000000000E+00  0.32341533339E+03  0.32341533339E+03  0.00000000000E+00 0. -1.
          1   -1    0    0  501    0 -0.00000000000E+00 -0.00000000000E+00 -0.10242467042E+04  0.10242467042E+04  0.00000000000E+00 0. -1.
         25    2    1    2    0    0  0.33730440220E+01 -0.58018806678E+02  0.33952464209E+02  0.14196822392E+03  0.12499858969E+03 0.  0.
          2    1    1    2  501    0  0.12441569662E+02  0.88604027231E+02 -0.96690342966E+03  0.97103434985E+03  0.00000000000E+00 0. -1.
          1    1    1    2  502    0 -0.15814613684E+02 -0.30585220553E+02  0.23211959467E+03  0.23465946380E+03  0.00000000000E+00 0. -1.
         22    1    3    3    0    0 -0.14589321906E+02  0.32524118189E+02 -0.13574937915E+02  0.38143748073E+02  0.00000000000E+00 0.  1.
         22    1    3    3    0    0  0.17962365928E+02 -0.90542924867E+02  0.47527402124E+02  0.10382447585E+03  0.00000000000E+00 0.  1.
</event>
<event>
 7    1  0.6078244E-006  0.5912640E+02  0.7818608E-02  0.1445542E+00
          2   -1    0    0  502    0  0.00000000000E+00  0.00000000000E+00  0.51433161636E+03  0.51433161636E+03  0.00000000000E+00 0. -1.
          1   -1    0    0  501    0 -0.00000000000E+00 -0.00000000000E+00 -0.13158178917E+03  0.13158178917E+03  0.00000000000E+00 0. -1.
         25    2    1    2    0    0  0.32599862850E+02 -0.89742553320E+02 -0.56342285283E+02  0.16708457315E+03  0.12500529805E+03 0.  0.
          2    1    1    2  501    0 -0.28269912177E+02  0.31357524471E+02  0.70088246550E+01  0.42797265082E+02  0.00000000000E+00 0. -1.
          1    1    1    2  502    0 -0.43299506734E+01  0.58385028849E+02  0.43208328782E+03  0.43603156730E+03  0.00000000000E+00 0. -1.
         22    1    3    3    0    0 -0.46187452181E+02 -0.39149201640E+02 -0.38545504123E+02  0.71775320384E+02  0.00000000000E+00 0.  1.
         22    1    3    3    0    0  0.78787315031E+02 -0.50593351680E+02 -0.17796781159E+02  0.95309252770E+02  0.00000000000E+00 0.  1.
</event>
<event>
 7    1  0.6078244E-006  0.8877224E+02  0.7818608E-02  0.1433238E+00
          2   -1    0    0  502    0  0.00000000000E+00  0.00000000000E+00  0.11518755398E+04  0.11518755398E+04  0.00000000000E+00 0. -1.
          1   -1    0    0  501    0 -0.00000000000E+00 -0.00000000000E+00 -0.19505403096E+03  0.19505403096E+03  0.00000000000E+00 0. -1.
         25    2    1    2    0    0 -0.63858282763E+02 -0.51608287342E+02  0.25434085969E+02  0.15170324384E+03  0.12500274342E+03 0.  0.
          2    1    1    2  501    0  0.47105856499E+02  0.77490605170E+02 -0.11608098883E+03  0.14730428227E+03  0.00000000000E+00 0. -1.
          1    1    1    2  502    0  0.16752426264E+02 -0.25882317828E+02  0.10474684117E+04  0.10479220447E+04  0.00000000000E+00 0. -1.
         22    1    3    3    0    0 -0.16469646402E+02 -0.88169188669E+02  0.16056522149E+02  0.91120069066E+02  0.00000000000E+00 0.  1.
         22    1    3    3    0    0 -0.47388636361E+02  0.36560901327E+02  0.93775638197E+01  0.60583174770E+02  0.00000000000E+00 0.  1.
</event>
<event>
 7    1  0.6078244E-006  0.1025140E+03  0.7818608E-02  0.1383152E+00
          2   -1    0    0  502    0  0.00000000000E+00  0.00000000000E+00  0.21928772088E+03  0.21928772088E+03  0.00000000000E+00 0. -1.
          1   -1    0    0  501    0 -0.00000000000E+00 -0.00000000000E+00 -0.32335890432E+04  0.32335890432E+04  0.00000000000E+00 0. -1.
         25    2    1    2    0    0 -0.38372375032E+02  0.52311616415E+02 -0.43922502496E+03  0.46125180783E+03  0.12500265316E+03 0.  0.
          2    1    1    2  501    0 -0.14639014992E+02  0.36698315398E+02 -0.27703178208E+04  0.27705995552E+04  0.00000000000E+00 0. -1.
          1    1    1    2  502    0  0.53011390024E+02 -0.89009931813E+02  0.19524152343E+03  0.22102540104E+03  0.00000000000E+00 0. -1.
         22    1    3    3    0    0 -0.44445269106E+02  0.10940524238E+02 -0.40398032237E+03  0.40656509673E+03  0.00000000000E+00 0. -1.
         22    1    3    3    0    0  0.60728940745E+01  0.41371092177E+02 -0.35244702595E+02  0.54686711104E+02  0.00000000000E+00 0. -1.
</event>
<event>
 7    1  0.6078244E-006  0.9517783E+02  0.7818608E-02  0.1456265E+00
          2   -1    0    0  502    0  0.00000000000E+00  0.00000000000E+00  0.13483026126E+04  0.13483026126E+04  0.00000000000E+00 0. -1.
          1   -1    0    0  501    0 -0.00000000000E+00 -0.00000000000E+00 -0.47003264177E+03  0.47003264177E+03  0.00000000000E+00 0. -1.
         25    2    1    2    0    0  0.11516724301E+03  0.92952103423E+01 -0.34777453036E+03  0.38719815245E+03  0.12500156197E+03 0.  0.
          2    1    1    2  501    0 -0.22064467910E+02  0.10031325858E+02 -0.99386681760E+02  0.10229946605E+03  0.00000000000E+00 0. -1.
          1    1    1    2  502    0 -0.93102775104E+02 -0.19326536200E+02  0.13254311829E+04  0.13288376359E+04  0.00000000000E+00 0. -1.
         22    1    3    3    0    0  0.82567857923E+02  0.58190581876E+02 -0.14972126584E+03  0.18061022237E+03  0.00000000000E+00 0.  1.
         22    1    3    3    0    0  0.32599385091E+02 -0.48895371534E+02 -0.19805326453E+03  0.20658793008E+03  0.00000000000E+00 0.  1.
</event>
<event>
 7    1  0.6078244E-006  0.8042381E+02  0.7818608E-02  0.1485220E+00
          2   -1    0    0  502    0  0.00000000000E+00  0.00000000000E+00  0.49592318851E+03  0.49592318851E+03  0.00000000000E+00 0. -1.
          1   -1    0    0  501    0 -0.00000000000E+00 -0.00000000000E+00 -0.73478883980E+03  0.73478883980E+03  0.00000000000E+00 0. -1.
         25    2    1    2    0    0  0.96779237446E+02  0.26192260913E+02 -0.13941239626E+03  0.21239751803E+03  0.12499853639E+03 0.  0.
          2    1    1    2  501    0 -0.22869104871E+02  0.45448631151E+01 -0.55515066977E+03  0.55564009744E+03  0.00000000000E+00 0. -1.
          1    1    1    2  502    0 -0.73910132575E+02 -0.30737124028E+02  0.45569741474E+03  0.46267441284E+03  0.00000000000E+00 0. -1.
         22    1    3    3    0    0  0.94978975980E+01  0.63197172988E+02 -0.42023048508E+02  0.76485484495E+02  0.00000000000E+00 0.  1.
         22    1    3    3    0    0  0.87281339848E+02 -0.37004912075E+02 -0.97389347749E+02  0.13591203353E+03  0.00000000000E+00 0.  1.
</event>
<event>
 7    1  0.6078244E-006  0.1674952E+03  0.7818608E-02  0.1307873E+00
          2   -1    0    0  502    0  0.00000000000E+00  0.00000000000E+00  0.69273788210E+03  0.69273788210E+03  0.00000000000E+00 0. -1.
          1   -1    0    0  501    0 -0.00000000000E+00 -0.00000000000E+00 -0.25767845265E+03  0.25767845265E+03  0.00000000000E+00 0. -1.
         25    2    1    2    0    0 -0.89199117820E+02 -0.89827100326E+02 -0.54876440689E+02  0.18617617733E+03  0.12499901875E+03 0.  0.
          2    1    1    2  501    0 -0.40153529042E+02 -0.22830285068E+02 -0.12108624507E+03  0.12959709316E+03  0.00000000000E+00 0. -1.
          1    1    1    2  502    0  0.12935264686E+03  0.11265738539E+03  0.61102211521E+03  0.63464306426E+03  0.00000000000E+00 0. -1.
         22    1    3    3    0    0  0.16878403899E+02 -0.65948952164E+02 -0.11151003113E+02  0.68981806878E+02  0.00000000000E+00 0.  1.
         22    1    3    3    0    0 -0.10607752172E+03 -0.23878148162E+02 -0.43725437576E+02  0.11719437045E+03  0.00000000000E+00 0.  1.
</event>
<event>
 7    1  0.6078244E-006  0.1519391E+03  0.7818608E-02  0.1277012E+00
          2   -1    0    0  502    0  0.00000000000E+00  0.00000000000E+00  0.57790688011E+03  0.57790688011E+03  0.00000000000E+00 0. -1.
          1   -1    0    0  501    0 -0.00000000000E+00 -0.00000000000E+00 -0.25945609029E+04  0.25945609029E+04  0.00000000000E+00 0. -1.
         25    2    1    2    0    0 -0.18254699532E+03 -0.53432098788E+02 -0.24151132506E+03  0.33186444133E+03  0.12501156990E+03 0.  0.
          2    1    1    2  501    0  0.12313181316E+03  0.86318528661E+02 -0.23032470539E+04  0.23081506283E+04  0.00000000000E+00 0. -1.
          1    1    1    2  502    0  0.59415182155E+02 -0.32886429873E+02  0.52810435607E+03  0.53245271343E+03  0.00000000000E+00 0. -1.
         22    1    3    3    0    0 -0.13811780933E+03 -0.29754677901E+02 -0.79298902755E+02  0.16201909174E+03  0.00000000000E+00 0.  1.
         22    1    3    3    0    0 -0.44429185991E+02 -0.23677420887E+02 -0.16221242230E+03  0.16984534959E+03  0.00000000000E+00 0.  1.
</event>
<event>
 7    1  0.6078244E-006  0.5524167E+02  0.7818608E-02  0.1435855E+00
          2   -1    0    0  502    0  0.00000000000E+00  0.00000000000E+00  0.15076475822E+04  0.15076475822E+04  0.00000000000E+00 0. -1.
          1   -1    0    0  501    0 -0.00000000000E+00 -0.00000000000E+00 -0.46610082132E+03  0.46610082132E+03  0.00000000000E+00 0. -1.
         25    2    1    2    0    0  0.10253599690E+02  0.54213170473E+01  0.46179102304E+03  0.47855038649E+03  0.12499998585E+03 0.  0.
          2    1    1    2  501    0 -0.12698835287E+02 -0.53936974857E+02 -0.45547246663E+03  0.45883071555E+03  0.00000000000E+00 0. -1.
          1    1    1    2  502    0  0.24452355965E+01  0.48515657809E+02  0.10352282045E+04  0.10363673015E+04  0.00000000000E+00 0. -1.
         22    1    3    3    0    0 -0.96575869240E+01 -0.45801344146E+02  0.78935242154E+02  0.91770390457E+02  0.00000000000E+00 0. -1.
         22    1    3    3    0    0  0.19911186614E+02  0.51222661193E+02  0.38285578089E+03  0.38677999603E+03  0.00000000000E+00 0. -1.
</event>
<event>
 7    1  0.6078244E-006  0.1374970E+03  0.7818608E-02  0.1356524E+00
          2   -1    0    0  502    0  0.00000000000E+00  0.00000000000E+00  0.50270851278E+03  0.50270851278E+03  0.00000000000E+00 0. -1.
          1   -1    0    0  501    0 -0.00000000000E+00 -0.00000000000E+00 -0.72048544874E+03  0.72048544874E+03  0.00000000000E+00 0. -1.
         25    2    1    2    0    0  0.43935743185E+01  0.10609462547E+03 -0.65377914815E+02  0.17655828702E+03  0.12499273547E+03 0.  0.
          2    1    1    2  501    0 -0.13904720387E+02  0.33990724971E+02 -0.58790722612E+03  0.58905315308E+03  0.00000000000E+00 0. -1.
          1    1    1    2  502    0  0.95111460685E+01 -0.14008535045E+03  0.43550820497E+03  0.45758252142E+03  0.00000000000E+00 0. -1.
         22    1    3    3    0    0 -0.10946129291E+02  0.13166760735E+03 -0.41906875306E+02  0.13860866773E+03  0.00000000000E+00 0.  1.
         22    1    3    3    0    0  0.15339703610E+02 -0.25572981873E+02 -0.23471039509E+02  0.37949619291E+02  0.00000000000E+00 0.  1.
</event>
<event>
 7    1  0.6078244E-006  0.5308574E+02  0.7818608E-02  0.1441146E+00
          2   -1    0    0  502    0  0.00000000000E+00  0.00000000000E+00  0.20821677049E+03  0.20821677049E+03  0.00000000000E+00 0. -1.
          1   -1    0    0  501    0 -0.00000000000E+00 -0.00000000000E+00 -0.29979305393E+04  0.29979305393E+04  0.00000000000E+00 0. -1.
         25    2    1    2    0    0  0.23710563432E+02 -0.98178740076E+02 -0.56731550648E+03  0.58964156821E+03  0.12501615595E+03 0.  0.
          2    1    1    2  501    0 -0.71019092125E+01  0.48064670945E+02 -0.24156671547E+04  0.24161557176E+04  0.00000000000E+00 0. -1.
          1    1    1    2  502    0 -0.16608654219E+02  0.50114069132E+02  0.19326889238E+03  0.20035002391E+03  0.00000000000E+00 0. -1.
         22    1    3    3    0    0  0.23216773435E-01 -0.36046081437E+01  0.65911942308E+01  0.75124949435E+01  0.00000000000E+00 0. -1.
         22    1    3    3    0    0  0.23687346658E+02 -0.94574131933E+02 -0.57390670071E+03  0.58212907327E+03  0.00000000000E+00 0. -1.
</event>
<event>
 7    1  0.6078244E-006  0.6215638E+03  0.7818608E-02  0.1150449E+00
          2   -1    0    0  502    0  0.00000000000E+00  0.00000000000E+00  0.15378559862E+04  0.15378559862E+04  0.00000000000E+00 0. -1.
          1   -1    0    0  501    0 -0.00000000000E+00 -0.00000000000E+00 -0.13622723078E+04  0.13622723078E+04  0.00000000000E+00 0. -1.
         25    2    1    2    0    0 -0.10193898490E+03 -0.65342447099E+03 -0.38137181066E+02  0.67411826574E+03  0.12500358272E+03 0.  0.
          2    1    1    2  501    0  0.13018316523E+03  0.59620023903E+03 -0.91262626511E+03  0.10978565850E+04  0.00000000000E+00 0. -1.
          1    1    1    2  502    0 -0.28244180327E+02  0.57224231960E+02  0.11263471245E+04  0.11281534432E+04  0.00000000000E+00 0. -1.
         22    1    3    3    0    0 -0.65141593591E+02 -0.44754208903E+03 -0.84027807814E+02  0.45999784907E+03  0.00000000000E+00 0. -1.
         22    1    3    3    0    0 -0.36797391314E+02 -0.20588238197E+03  0.45890626748E+02  0.21412041667E+03  0.00000000000E+00 0. -1.
</event>
<event>
 7    1  0.6078244E-006  0.6097723E+02  0.7818608E-02  0.1417002E+00
          2   -1    0    0  502    0  0.00000000000E+00  0.00000000000E+00  0.12019217940E+04  0.12019217940E+04  0.00000000000E+00 0. -1.
          1   -1    0    0  501    0 -0.00000000000E+00 -0.00000000000E+00 -0.56865971507E+03  0.56865971507E+03  0.00000000000E+00 0. -1.
         25    2    1    2    0    0 -0.90945695919E+02 -0.55828677828E+02  0.58522477213E+03  0.60786559320E+03  0.12499833842E+03 0.  0.
          2    1    1    2  501    0  0.58520417728E+02  0.16714174188E+02 -0.55460569857E+03  0.55793501754E+03  0.00000000000E+00 0. -1.
          1    1    1    2  502    0  0.32425278191E+02  0.39114503640E+02  0.60264300538E+03  0.60478089834E+03  0.00000000000E+00 0. -1.
         22    1    3    3    0    0 -0.48205678420E+02 -0.38037518162E+02  0.53885206048E+03  0.54233954614E+03  0.00000000000E+00 0. -1.
         22    1    3    3    0    0 -0.42740017499E+02 -0.17791159666E+02  0.46372711650E+02  0.65526047064E+02  0.00000000000E+00 0. -1.
</event>
<event>
 7    1  0.6078244E-006  0.9811598E+02  0.7818608E-02  0.1462538E+00
          2   -1    0    0  502    0  0.00000000000E+00  0.00000000000E+00  0.13148713208E+04  0.13148713208E+04  0.00000000000E+00 0. -1.
          1   -1    0    0  501    0 -0.00000000000E+00 -0.00000000000E+00 -0.86888956029E+03  0.86888956029E+03  0.00000000000E+00 0. -1.
         25    2    1    2    0    0 -0.88249624613E+02  0.78439008747E+02  0.12495100989E+03  0.21255031342E+03  0.12499682605E+03 0.  0.
          2    1    1    2  501    0  0.78613907114E+02 -0.58146784888E+02 -0.82208215434E+03  0.82787696155E+03  0.00000000000E+00 0. -1.
          1    1    1    2  502    0  0.96357174989E+01 -0.20292223859E+02  0.11431129049E+04  0.11433336061E+04  0.00000000000E+00 0. -1.
         22    1    3    3    0    0 -0.81340725347E+02  0.87605231402E+02  0.14592546168E+03  0.18864047958E+03  0.00000000000E+00 0.  1.
         22    1    3    3    0    0 -0.69088992653E+01 -0.91662226547E+01 -0.20974451782E+02  0.23909833842E+02  0.00000000000E+00 0.  1.
</event>
<event>
 7    1  0.6078244E-006  0.9294533E+02  0.7818608E-02  0.1296919E+00
          2   -1    0    0  502    0  0.00000000000E+00  0.00000000000E+00  0.85377858092E+03  0.85377858092E+03  0.00000000000E+00 0. -1.
          1   -1    0    0  501    0 -0.00000000000E+00 -0.00000000000E+00 -0.38856609656E+02  0.38856609656E+02  0.00000000000E+00 0. -1.
         25    2    1    2    0    0 -0.25435901029E+02 -0.33009960001E+02  0.27836986652E+03  0.30797890116E+03  0.12499831380E+03 0.  0.
          2    1    1    2  501    0 -0.19744808658E+02 -0.89905188260E+02  0.14465501635E+03  0.17145808264E+03  0.00000000000E+00 0. -1.
          1    1    1    2  502    0  0.45180709687E+02  0.12291514826E+03  0.39189708839E+03  0.41319820678E+03  0.00000000000E+00 0. -1.
         22    1    3    3    0    0  0.28181392428E+02 -0.21439860470E+02  0.23607177708E+03  0.23871267756E+03  0.00000000000E+00 0.  1.
         22    1    3    3    0    0 -0.53617293457E+02 -0.11570099532E+02  0.42298089444E+02  0.69266223598E+02  0.00000000000E+00 0.  1.
</event>
<event>
 7    1  0.6078244E-006  0.4803159E+02  0.7818608E-02  0.1502270E+00
          2   -1    0    0  502    0  0.00000000000E+00  0.00000000000E+00  0.70285069189E+03  0.70285069189E+03  0.00000000000E+00 0. -1.
          1   -1    0    0  501    0 -0.00000000000E+00 -0.00000000000E+00 -0.58262512624E+02  0.58262512624E+02  0.00000000000E+00 0. -1.
         25    2    1    2    0    0  0.18776389784E+02  0.12445815144E+02  0.13601806744E+03  0.18609868649E+03  0.12499742123E+03 0.  0.
          2    1    1    2  501    0 -0.51664531107E+02 -0.14128900309E+01 -0.12188664275E+02  0.53101634339E+02  0.00000000000E+00 0. -1.
          1    1    1    2  502    0  0.32888141323E+02 -0.11032925113E+02  0.52075877609E+03  0.52191288368E+03  0.00000000000E+00 0. -1.
         22    1    3    3    0    0  0.53625208527E+02 -0.11939947691E+01  0.98987197525E+01  0.54544232196E+02  0.00000000000E+00 0.  1.
         22    1    3    3    0    0 -0.34848818743E+02  0.13639809913E+02  0.12611934769E+03  0.13155445429E+03  0.00000000000E+00 0.  1.
</event>
<event>
 7    1  0.6078244E-006  0.1354148E+03  0.7818608E-02  0.1362872E+00
          2   -1    0    0  502    0  0.00000000000E+00  0.00000000000E+00  0.69282084219E+03  0.69282084219E+03  0.00000000000E+00 0. -1.
          1   -1    0    0  501    0 -0.00000000000E+00 -0.00000000000E+00 -0.59790064436E+03  0.59790064436E+03  0.00000000000E+00 0. -1.
         25    2    1    2    0    0 -0.21040688052E+01 -0.16477941315E+03 -0.12392069256E+03  0.24111938522E+03  0.12500215112E+03 0.  0.
          2    1    1    2  501    0  0.16539511690E+02  0.31244085235E+02 -0.40749562041E+03  0.40902619594E+03  0.00000000000E+00 0. -1.
          1    1    1    2  502    0 -0.14435442885E+02  0.13353532791E+03  0.62633651079E+03  0.64057590539E+03  0.00000000000E+00 0. -1.
         22    1    3    3    0    0 -0.47692894380E+02 -0.22579122750E+02 -0.56395006603E+02  0.77232284235E+02  0.00000000000E+00 0.  1.
         22    1    3    3    0    0  0.45588825574E+02 -0.14220029040E+03 -0.67525685954E+02  0.16388710099E+03  0.00000000000E+00 0.  1.
</event>
<event>
 7    1  0.6078244E-006  0.1005672E+03  0.7818608E-02  0.1333948E+00
          2   -1    0    0  502    0  0.00000000000E+00  0.00000000000E+00  0.14924346751E+04  0.14924346751E+04  0.00000000000E+00 0. -1.
          1   -1    0    0  501    0 -0.00000000000E+00 -0.00000000000E+00 -0.69969569356E+03  0.69969569356E+03  0.00000000000E+00 0. -1.
         25    2    1    2    0    0  0.42960101032E+02  0.37458435867E+02  0.51635423932E+01  0.13748309307E+03  0.12500493595E+03 0.  0.
          2    1    1    2  501    0 -0.12076657915E+02  0.59753841558E+02 -0.63023299051E+03  0.63317453327E+03  0.00000000000E+00 0. -1.
          1    1    1    2  502    0 -0.30883443117E+02 -0.97212277424E+02  0.14178084297E+04  0.14214727423E+04  0.00000000000E+00 0. -1.
         22    1    3    3    0    0  0.77817903293E+02  0.57445506593E+02 -0.15930383239E+01  0.96737531867E+02  0.00000000000E+00 0.  1.
         22    1    3    3    0    0 -0.34857802260E+02 -0.19987070727E+02  0.67565807171E+01  0.40745561202E+02  0.00000000000E+00 0.  1.
</event>
<event>
 7    1  0.6078244E-006  0.8253338E+02  0.7818608E-02  0.1378955E+00
          2   -1    0    0  502    0  0.00000000000E+00  0.00000000000E+00  0.79501109473E+02  0.79501109473E+02  0.00000000000E+00 0. -1.
          1   -1    0    0  501    0 -0.00000000000E+00 -0.00000000000E+00 -0.22727682888E+04  0.22727682888E+04  0.00000000000E+00 0. -1.
         25    2    1    2    0    0  0.58745644932E+01  0.94334713482E+02 -0.81639961540E+02  0.17670200905E+03  0.12499987202E+03 0.  0.
          2    1    1    2  501    0 -0.48543438705E+02 -0.66800375054E+02 -0.21221092473E+04  0.21237152382E+04  0.00000000000E+00 0. -1.
          1    1    1    2  502    0  0.42668874212E+02 -0.27534338428E+02  0.10482029534E+02  0.51852150991E+02  0.00000000000E+00 0. -1.
         22    1    3    3    0    0 -0.33730591039E+02  0.56994914673E+01  0.17087897508E+02  0.38239158151E+02  0.00000000000E+00 0. -1.
         22    1    3    3    0    0  0.39605155532E+02  0.88635222015E+02 -0.98727859048E+02  0.13846285090E+03  0.00000000000E+00 0. -1.
</event>
<event>
 7    1  0.6078244E-006  0.6138130E+02  0.7818608E-02  0.1413633E+00
          2   -1    0    0  502    0  0.00000000000E+00  0.00000000000E+00  0.23163719689E+02  0.23163719689E+02  0.00000000000E+00 0. -1.
          1   -1    0    0  501    0 -0.00000000000E+00 -0.00000000000E+00 -0.44478920394E+04  0.44478920394E+04  0.00000000000E+00 0. -1.
         25    2    1    2    0    0 -0.94322396045E+02 -0.53917234142E+02 -0.10100587307E+04  0.10235478730E+04  0.12501130415E+03 0.  0.
          2    1    1    2  501    0  0.56777420492E+02  0.18220098620E+02 -0.33892976222E+04  0.33898221221E+04  0.00000000000E+00 0. -1.
          1    1    1    2  502    0  0.37544975552E+02  0.35697135521E+02 -0.25371966728E+02  0.57685764009E+02  0.00000000000E+00 0. -1.
         22    1    3    3    0    0 -0.46447166052E+01 -0.52701710986E+02 -0.66232359728E+03  0.66443328577E+03  0.00000000000E+00 0. -1.
         22    1    3    3    0    0 -0.89677679439E+02 -0.12155231559E+01 -0.34773513346E+03  0.35911458719E+03  0.00000000000E+00 0. -1.
</event>
<event>
 7    1  0.6078244E-006  0.5463312E+02  0.7818608E-02  0.1493213E+00
          2   -1    0    0  502    0  0.00000000000E+00  0.00000000000E+00  0.34338703142E+03  0.34338703142E+03  0.00000000000E+00 0. -1.
          1   -1    0    0  501    0 -0.00000000000E+00 -0.00000000000E+00 -0.87099621395E+02  0.87099621395E+02  0.00000000000E+00 0. -1.
         25    2    1    2    0    0 -0.37737844497E+02 -0.13442528952E+02  0.45393259285E+02  0.13890460775E+03  0.12501638123E+03 0.  0.
          2    1    1    2  501    0  0.49463467245E+01 -0.32083246222E+02 -0.30023364696E+02  0.44217682682E+02  0.00000000000E+00 0. -1.
          1    1    1    2  502    0  0.32791497772E+02  0.45525775174E+02  0.24091751544E+03  0.24736436238E+03  0.00000000000E+00 0. -1.
         22    1    3    3    0    0 -0.18257093508E+01 -0.31208211608E+02 -0.36305557431E+02  0.47910115704E+02  0.00000000000E+00 0. -1.
         22    1    3    3    0    0 -0.35912135146E+02  0.17765682656E+02  0.81698816715E+02  0.90994492051E+02  0.00000000000E+00 0. -1.
</event>
<event>
 7    1  0.6078244E-006  0.6089433E+02  0.7818608E-02  0.1394150E+00
          2   -1    0    0  502    0  0.00000000000E+00  0.00000000000E+00  0.96576939579E+03  0.96576939579E+03  0.00000000000E+00 0. -1.
          1   -1    0    0  501    0 -0.00000000000E+00 -0.00000000000E+00 -0.24316272221E+02  0.24316272221E+02  0.00000000000E+00 0. -1.
         25    2    1    2    0    0  0.27990897191E+02 -0.73828673785E+01  0.43430780789E+03  0.45286466598E+03  0.12500054655E+03 0.  0.
          2    1    1    2  501    0  0.32880764920E+02  0.51254019518E+02  0.66241427846E+02  0.89978030549E+02  0.00000000000E+00 0. -1.
          1    1    1    2  502    0 -0.60871662111E+02 -0.43871152139E+02  0.44090388783E+03  0.44724297149E+03  0.00000000000E+00 0. -1.
         22    1    3    3    0    0  0.25490384815E+02  0.10452973619E+02  0.11796513443E+02  0.29969686433E+02  0.00000000000E+00 0.  1.
         22    1    3    3    0    0  0.25005123765E+01 -0.17835840997E+02  0.42251129445E+03  0.42289497954E+03  0.00000000000E+00 0.  1.
</event>
<event>
 7    1  0.6078244E-006  0.1543281E+03  0.7818608E-02  0.1360697E+00
          2   -1    0    0  502    0  0.00000000000E+00  0.00000000000E+00  0.28565000092E+03  0.28565000092E+03  0.00000000000E+00 0. -1.
          1   -1    0    0  501    0 -0.00000000000E+00 -0.00000000000E+00 -0.22256441486E+03  0.22256441486E+03  0.00000000000E+00 0. -1.
         25    2    1    2    0    0  0.20925108922E+02 -0.17185344954E+03  0.70588842703E+02  0.22489747516E+03  0.12499848525E+03 0.  0.
          2    1    1    2  501    0 -0.16700777433E+02  0.26814334386E+02 -0.10424297378E+03  0.10892438697E+03  0.00000000000E+00 0. -1.
          1    1    1    2  502    0 -0.42243314894E+01  0.14503911515E+03  0.96739717131E+02  0.17439255366E+03  0.00000000000E+00 0. -1.
         22    1    3    3    0    0 -0.11761554177E+02 -0.81722777001E+02 -0.28186839693E+02  0.87243592139E+02  0.00000000000E+00 0. -1.
         22    1    3    3    0    0  0.32686663099E+02 -0.90130672540E+02  0.98775682396E+02  0.13765388302E+03  0.00000000000E+00 0. -1.
</event>
<event>
 7    1  0.6078244E-006  0.3411013E+02  0.7818608E-02  0.1607876E+00
          2   -1    0    0  502    0  0.00000000000E+00  0.00000000000E+00  0.62570401358E+02  0.62570401358E+02  0.00000000000E+00 0. -1.
          1   -1    0    0  501    0 -0.00000000000E+00 -0.00000000000E+00 -0.56986343952E+03  0.56986343952E+03  0.00000000000E+00 0. -1.
         25    2    1    2    0    0 -0.75448077257E+01  0.71785290034E+01 -0.24285070395E+03  0.27332946068E+03  0.12499629701E+03 0.  0.
          2    1    1    2  501    0 -0.23284433553E+02  0.87717541395E+01 -0.30483358886E+03  0.30584738909E+03  0.00000000000E+00 0. -1.
          1    1    1    2  502    0  0.30829241279E+02 -0.15950283143E+02  0.40391254643E+02  0.53256991107E+02  0.00000000000E+00 0. -1.
         22    1    3    3    0    0  0.37985666397E+02 -0.41513932141E+02 -0.13860008624E+03  0.14958710278E+03  0.00000000000E+00 0. -1.
         22    1    3    3    0    0 -0.45530474122E+02  0.48692461144E+02 -0.10425061771E+03  0.12374235790E+03  0.00000000000E+00 0. -1.
</event>
<event>
 7    1  0.6078244E-006  0.1539741E+03  0.7818608E-02  0.1348032E+00
          2   -1    0    0  502    0  0.00000000000E+00  0.00000000000E+00  0.30520858185E+03  0.30520858185E+03  0.00000000000E+00 0. -1.
          1   -1    0    0  501    0 -0.00000000000E+00 -0.00000000000E+00 -0.16336006381E+04  0.16336006381E+04  0.00000000000E+00 0. -1.
         25    2    1    2    0    0 -0.14424711376E+03  0.36980486422E+02 -0.15335075530E+03  0.24762150274E+03  0.12500067305E+03 0.  0.
          2    1    1    2  501    0  0.13722104257E+03 -0.71523594135E+02 -0.14277102655E+04  0.14360716699E+04  0.00000000000E+00 0. -1.
          1    1    1    2  502    0  0.70260711852E+01  0.34543107712E+02  0.25266896451E+03  0.25511604731E+03  0.00000000000E+00 0. -1.
         22    1    3    3    0    0 -0.86617152828E+02  0.41119752799E+02 -0.16293518024E+03  0.18905353261E+03  0.00000000000E+00 0. -1.
         22    1    3    3    0    0 -0.57629960929E+02 -0.41392663768E+01  0.95844249401E+01  0.58567970122E+02  0.00000000000E+00 0. -1.
</event>
<event>
 7    1  0.6078244E-006  0.5776764E+02  0.7818608E-02  0.1497343E+00
          2   -1    0    0  502    0  0.00000000000E+00  0.00000000000E+00  0.35387474799E+03  0.35387474799E+03  0.00000000000E+00 0. -1.
          1   -1    0    0  501    0 -0.00000000000E+00 -0.00000000000E+00 -0.10927007244E+03  0.10927007244E+03  0.00000000000E+00 0. -1.
         25    2    1    2    0    0 -0.11675686206E+02 -0.83179989915E+02  0.97214248234E+01  0.15091280453E+03  0.12499974440E+03 0.  0.
          2    1    1    2  501    0  0.13683263546E+02  0.26513649747E+02 -0.29427967178E+02  0.41907166170E+02  0.00000000000E+00 0. -1.
          1    1    1    2  502    0 -0.20075773401E+01  0.56666340168E+02  0.26431121790E+03  0.27032484973E+03  0.00000000000E+00 0. -1.
         22    1    3    3    0    0  0.34371885805E+02 -0.63463166779E+02  0.49019213819E+02  0.87246108193E+02  0.00000000000E+00 0. -1.
         22    1    3    3    0    0 -0.46047572011E+02 -0.19716823137E+02 -0.39297788996E+02  0.63666696339E+02  0.00000000000E+00 0. -1.
</event>
<event>
 7    1  0.6078244E-006  0.3168911E+02  0.7818608E-02  0.1628797E+00
          2   -1    0    0  502    0  0.00000000000E+00  0.00000000000E+00  0.22709100720E+03  0.22709100720E+03  0.00000000000E+00 0. -1.
          1   -1    0    0  501    0 -0.00000000000E+00 -0.00000000000E+00 -0.59579307738E+03  0.59579307738E+03  0.00000000000E+00 0. -1.
         25    2    1    2    0    0 -0.31608941167E+02 -0.24422842394E+02 -0.29908049589E+03  0.32660632960E+03  0.12500780424E+03 0.  0.
          2    1    1    2  501    0  0.22900019160E+02 -0.60440523188E+01 -0.28127253734E+03  0.28226792540E+03  0.00000000000E+00 0. -1.
          1    1    1    2  502    0  0.87089220070E+01  0.30466894713E+02  0.21165096305E+03  0.21400982958E+03  0.00000000000E+00 0. -1.
         22    1    3    3    0    0 -0.38740010178E+02  0.32830947505E+02 -0.51245282691E+02  0.72143873620E+02  0.00000000000E+00 0. -1.
         22    1    3    3    0    0  0.71310690115E+01 -0.57253789899E+02 -0.24783521320E+03  0.25446245599E+03  0.00000000000E+00 0. -1.
</event>
<event>
 7    1  0.6078244E-006  0.8425939E+02  0.7818608E-02  0.1472101E+00
          2   -1    0    0  502    0  0.00000000000E+00  0.00000000000E+00  0.10728887921E+04  0.10728887921E+04  0.00000000000E+00 0. -1.
          1   -1    0    0  501    0 -0.00000000000E+00 -0.00000000000E+00 -0.22960203739E+03  0.22960203739E+03  0.00000000000E+00 0. -1.
         25    2    1    2    0    0 -0.10016006866E+03  0.35323340421E+02  0.43268575374E+03  0.46273375509E+03  0.12500315546E+03 0.  0.
          2    1    1    2  501    0  0.75749422065E+02 -0.35997241852E+02 -0.20613226869E+03  0.22254053240E+03  0.00000000000E+00 0. -1.
          1    1    1    2  502    0  0.24410646591E+02  0.67390143057E+00  0.61673326971E+03  0.61721654205E+03  0.00000000000E+00 0. -1.
         22    1    3    3    0    0 -0.51829265726E+02 -0.36086791248E+02  0.28324378570E+03  0.29019919267E+03  0.00000000000E+00 0. -1.
         22    1    3    3    0    0 -0.48330802929E+02  0.71410131670E+02  0.14944196805E+03  0.17253456242E+03  0.00000000000E+00 0. -1.
</event>
<event>
 7    1  0.6078244E-006  0.2554123E+02  0.7818608E-02  0.1671682E+00
          2   -1    0    0  502    0  0.00000000000E+00  0.00000000000E+00  0.10983377829E+04  0.10983377829E+04  0.00000000000E+00 0. -1.
          1   -1    0    0  501    0 -0.00000000000E+00 -0.00000000000E+00 -0.10690066938E+04  0.10690066938E+04  0.00000000000E+00 0. -1.
         25    2    1    2    0    0 -0.96537034968E+01 -0.16426805507E+02 -0.23112780777E+03  0.26345408821E+03  0.12499983656E+03 0.  0.
          2    1    1    2  501    0  0.22336875394E+02 -0.57541011126E+01 -0.82140300293E+03  0.82172680308E+03  0.00000000000E+00 0. -1.
          1    1    1    2  502    0 -0.12683171897E+02  0.22180906620E+02  0.10818618998E+04  0.10821635855E+04  0.00000000000E+00 0. -1.
         22    1    3    3    0    0 -0.21502016830E+02  0.43938246000E+02 -0.41671122529E+02  0.64260319344E+02  0.00000000000E+00 0.  1.
         22    1    3    3    0    0  0.11848313333E+02 -0.60365051508E+02 -0.18945668524E+03  0.19919376886E+03  0.00000000000E+00 0.  1.
</event>
<event>
 7    1  0.6078244E-006  0.2262962E+03  0.7818608E-02  0.1262616E+00
          2   -1    0    0  502    0  0.00000000000E+00  0.00000000000E+00  0.31415068141E+04  0.31415068141E+04  0.00000000000E+00 0. -1.
          1   -1    0    0  501    0 -0.00000000000E+00 -0.00000000000E+00 -0.11199541658E+04  0.11199541658E+04  0.00000000000E+00 0. -1.
         25    2    1    2    0    0 -0.17131183054E+03 -0.99338617385E+02  0.66540914580E+03  0.70541521750E+03  0.12500157430E+03 0.  0.
          2    1    1    2  501    0  0.16868265403E+03  0.15168044171E+03 -0.10879710818E+04  0.11113693666E+04  0.00000000000E+00 0. -1.
          1    1    1    2  502    0  0.26291765101E+01 -0.52341824329E+02  0.24441145843E+04  0.24446763958E+04  0.00000000000E+00 0. -1.
         22    1    3    3    0    0 -0.10842113241E+03 -0.42306208021E+02  0.54978713283E+03  0.56197050511E+03  0.00000000000E+00 0. -1.
         22    1    3    3    0    0 -0.62890698126E+02 -0.57032409364E+02  0.11562201297E+03  0.14344471239E+03  0.00000000000E+00 0. -1.
</event>
<event>
 7    1  0.6078244E-006  0.1147426E+03  0.7818608E-02  0.1333300E+00
          2   -1    0    0  502    0  0.00000000000E+00  0.00000000000E+00  0.42895622052E+03  0.42895622052E+03  0.00000000000E+00 0. -1.
          1   -1    0    0  501    0 -0.00000000000E+00 -0.00000000000E+00 -0.12153495488E+04  0.12153495488E+04  0.00000000000E+00 0. -1.
         25    2    1    2    0    0  0.50138163665E+02 -0.41754493829E+02 -0.23542296926E+03  0.27441991561E+03  0.12500016968E+03 0.  0.
          2    1    1    2  501    0  0.51729200702E+02 -0.14542723070E+02 -0.95138373067E+03  0.95289999684E+03  0.00000000000E+00 0. -1.
          1    1    1    2  502    0 -0.10186736437E+03  0.56297216898E+02  0.40041337169E+03  0.41698585682E+03  0.00000000000E+00 0. -1.
         22    1    3    3    0    0 -0.25504301860E+02 -0.58038043050E+02 -0.98185442771E+02  0.11687285838E+03  0.00000000000E+00 0. -1.
         22    1    3    3    0    0  0.75642465525E+02  0.16283549221E+02 -0.13723752648E+03  0.15754705723E+03  0.00000000000E+00 0. -1.
</event>
<event>
 7    1  0.6078244E-006  0.5959411E+02  0.7818608E-02  0.1492229E+00
          2   -1    0    0  502    0  0.00000000000E+00  0.00000000000E+00  0.83907050230E+03  0.83907050230E+03  0.00000000000E+00 0. -1.
          1   -1    0    0  501    0 -0.00000000000E+00 -0.00000000000E+00 -0.28942073210E+03  0.28942073210E+03  0.00000000000E+00 0. -1.
         25    2    1    2    0    0  0.55134639665E+02  0.32015995994E+02  0.19028136850E+03  0.23642528650E+03  0.12500025763E+03 0.  0.
          2    1    1    2  501    0 -0.59595066686E+02 -0.23860352354E+01 -0.26264468210E+03  0.26933156921E+03  0.00000000000E+00 0. -1.
          1    1    1    2  502    0  0.44604270215E+01 -0.29629960759E+02  0.62201308380E+03  0.62273437869E+03  0.00000000000E+00 0. -1.
         22    1    3    3    0    0 -0.21363442468E+02  0.16917521469E+02 -0.35663489973E+01  0.27483050266E+02  0.00000000000E+00 0.  1.
         22    1    3    3    0    0  0.76498082133E+02  0.15098474525E+02  0.19384771750E+03  0.20894223623E+03  0.00000000000E+00 0.  1.
</event>
<event>
 7    1  0.6078244E-006  0.5372082E+02  0.7818608E-02  0.1435841E+00
          2   -1    0    0  502    0  0.00000000000E+00  0.00000000000E+00  0.37263019639E+03  0.37263019639E+03  0.00000000000E+00 0. -1.
          1   -1    0    0  501    0 -0.00000000000E+00 -0.00000000000E+00 -0.37948393285E+03  0.37948393285E+03  0.00000000000E+00 0. -1.
         25    2    1    2    0    0 -0.10163076618E+02 -0.29304462954E+02 -0.16334641019E+03  0.20801111777E+03  0.12499814287E+03 0.  0.
          2    1    1    2  501    0  0.56906825479E+02  0.28290270576E+01 -0.18748711468E+03  0.19595358724E+03  0.00000000000E+00 0. -1.
          1    1    1    2  502    0 -0.46743748861E+02  0.26475435897E+02  0.34397978840E+03  0.34814942423E+03  0.00000000000E+00 0. -1.
         22    1    3    3    0    0  0.10714341315E+02 -0.65888709441E+02 -0.14940839153E+03  0.16364286297E+03  0.00000000000E+00 0.  1.
         22    1    3    3    0    0 -0.20877417933E+02  0.36584246486E+02 -0.13938018660E+02  0.44368254808E+02  0.00000000000E+00 0.  1.
</event>
<event>
 7    1  0.6078244E-006  0.1315803E+03  0.7818608E-02  0.1287661E+00
          2   -1    0    0  502    0  0.00000000000E+00  0.00000000000E+00  0.93467363938E+03  0.93467363938E+03  0.00000000000E+00 0. -1.
          1   -1    0    0  501    0 -0.00000000000E+00 -0.00000000000E+00 -0.14865318733E+04  0.14865318733E+04  0.00000000000E+00 0. -1.
         25    2    1    2    0    0 -0.62805020651E+02 -0.12908046725E+02  0.48528667239E+02  0.14863069259E+03  0.12499985179E+03 0.  0.
          2    1    1    2  501    0  0.12575567778E+03  0.45498736956E+02 -0.14318568886E+04  0.14380885839E+04  0.00000000000E+00 0. -1.
          1    1    1    2  502    0 -0.62950657133E+02 -0.32590690231E+02  0.83146998748E+03  0.83448623620E+03  0.00000000000E+00 0. -1.
         22    1    3    3    0    0 -0.42907003475E+01  0.26266896412E+02 -0.32022945062E+02  0.41639271932E+02  0.00000000000E+00 0.  1.
         22    1    3    3    0    0 -0.58514320303E+02 -0.39174943137E+02  0.80551612301E+02  0.10699142066E+03  0.00000000000E+00 0.  1.
</event>
<event>
 7    1  0.6078244E-006  0.1108079E+03  0.7818608E-02  0.1361054E+00
          2   -1    0    0  502    0  0.00000000000E+00  0.00000000000E+00  0.15292164570E+04  0.15292164570E+04  0.00000000000E+00 0. -1.
          1   -1    0    0  501    0 -0.00000000000E+00 -0.00000000000E+00 -0.56039785923E+03  0.56039785923E+03  0.00000000000E+00 0. -1.
         25    2    1    2    0    0 -0.27537706760E+02  0.10086119658E+03 -0.47613039697E+01  0.16302967812E+03  0.12499879864E+03 0.  0.
          2    1    1    2  501    0  0.42878472107E+02  0.92523160038E+01 -0.47335584181E+03  0.47538397291E+03  0.00000000000E+00 0. -1.
          1    1    1    2  502    0 -0.15340765348E+02 -0.11011351259E+03  0.14469357436E+04  0.14512006652E+04  0.00000000000E+00 0. -1.
         22    1    3    3    0    0 -0.44521218132E+02  0.83336523641E+02 -0.53459489081E+02  0.10855888729E+03  0.00000000000E+00 0.  1.
         22    1    3    3    0    0  0.16983511373E+02  0.17524672942E+02  0.48698185111E+02  0.54470790828E+02  0.00000000000E+00 0.  1.
</event>
<event>
 7    1  0.6078244E-006  0.3354522E+02  0.7818608E-02  0.1587612E+00
          2   -1    0    0  502    0  0.00000000000E+00  0.00000000000E+00  0.22657614556E+03  0.22657614556E+03  0.00000000000E+00 0. -1.
          1   -1    0    0  501    0 -0.00000000000E+00 -0.00000000000E+00 -0.15161837826E+03  0.15161837826E+03  0.00000000000E+00 0. -1.
         25    2    1    2    0    0 -0.37944481885E+02 -0.22011006187E+02  0.93197965140E+02  0.16197206740E+03  0.12499928725E+03 0.  0.
          2    1    1    2  501    0  0.26926815608E+02 -0.96139450816E+01 -0.11255957234E+03  0.11613414082E+03  0.00000000000E+00 0. -1.
          1    1    1    2  502    0  0.11017666276E+02  0.31624951269E+02  0.94319374502E+02  0.10008831560E+03  0.00000000000E+00 0. -1.
         22    1    3    3    0    0 -0.69840632502E+02 -0.39607143331E+02  0.24047837784E+02  0.83813711607E+02  0.00000000000E+00 0.  1.
         22    1    3    3    0    0  0.31896150618E+02  0.17596137144E+02  0.69150127356E+02  0.78158355791E+02  0.00000000000E+00 0.  1.
</event>
<event>
 7    1  0.6078244E-006  0.6134025E+02  0.7818608E-02  0.1466581E+00
          2   -1    0    0  502    0  0.00000000000E+00  0.00000000000E+00  0.53710189798E+03  0.53710189798E+03  0.00000000000E+00 0. -1.
          1   -1    0    0  501    0 -0.00000000000E+00 -0.00000000000E+00 -0.18093522167E+03  0.18093522167E+03  0.00000000000E+00 0. -1.
         25    2    1    2    0    0  0.42577649167E+02 -0.74704826052E+01 -0.35091538338E+02  0.13683892715E+03  0.12499924641E+03 0.  0.
          2    1    1    2  501    0 -0.52455119838E+02  0.40941960235E+02 -0.82593266991E+02  0.10606333701E+03  0.00000000000E+00 0. -1.
          1    1    1    2  502    0  0.98774706714E+01 -0.33471477629E+02  0.47385148165E+03  0.47513485549E+03  0.00000000000E+00 0. -1.
         22    1    3    3    0    0 -0.26997041749E+02 -0.33076433792E+02 -0.45013171551E+02  0.62040924789E+02  0.00000000000E+00 0. -1.
         22    1    3    3    0    0  0.69574690916E+02  0.25605951187E+02  0.99216332129E+01  0.74798002365E+02  0.00000000000E+00 0. -1.
</event>
<event>
 7    1  0.6078244E-006  0.8347746E+02  0.7818608E-02  0.1347317E+00
          2   -1    0    0  502    0  0.00000000000E+00  0.00000000000E+00  0.11780900795E+04  0.11780900795E+04  0.00000000000E+00 0. -1.
          1   -1    0    0  501    0 -0.00000000000E+00 -0.00000000000E+00 -0.16803985090E+04  0.16803985090E+04  0.00000000000E+00 0. -1.
         25    2    1    2    0    0  0.75568146621E+02  0.53791647631E+02  0.62586800130E+02  0.16776884779E+03  0.12500077039E+03 0.  0.
          2    1    1    2  501    0 -0.16530775016E+02 -0.81972670586E+02 -0.16257252739E+04  0.16278745196E+04  0.00000000000E+00 0. -1.
          1    1    1    2  502    0 -0.59037371604E+02  0.28181022955E+02  0.10608300443E+04  0.10628452212E+04  0.00000000000E+00 0. -1.
         22    1    3    3    0    0 -0.17373388005E+02  0.49498858117E+02 -0.51080552600E+01  0.52707340990E+02  0.00000000000E+00 0. -1.
         22    1    3    3    0    0  0.92941534626E+02  0.42927895135E+01  0.67694855390E+02  0.11506150680E+03  0.00000000000E+00 0. -1.
</event>
<event>
 7    1  0.6078244E-006  0.8032663E+02  0.7818608E-02  0.1379011E+00
          2   -1    0    0  502    0  0.00000000000E+00  0.00000000000E+00  0.17934685012E+04  0.17934685012E+04  0.00000000000E+00 0. -1.
          1   -1    0    0  501    0 -0.00000000000E+00 -0.00000000000E+00 -0.47605876763E+03  0.47605876763E+03  0.00000000000E+00 0. -1.
         25    2    1    2    0    0  0.31373085625E+02  0.11383867466E+03  0.93806567223E+03  0.95369579933E+03  0.12499983153E+03 0.  0.
          2    1    1    2  501    0 -0.32908742661E+02 -0.40459094028E+02 -0.46519492254E+03  0.46810921759E+03  0.00000000000E+00 0. -1.
          1    1    1    2  502    0  0.15356570361E+01 -0.73379580637E+02  0.84453898383E+03  0.84772225187E+03  0.00000000000E+00 0. -1.
         22    1    3    3    0    0 -0.45263708955E+02  0.28963725699E+02  0.21334954845E+03  0.22001302366E+03  0.00000000000E+00 0. -1.
         22    1    3    3    0    0  0.76636794580E+02  0.84874948965E+02  0.72471612378E+03  0.73368277567E+03  0.00000000000E+00 0. -1.
</event>
<event>
 7    1  0.6078244E-006  0.1662276E+03  0.7818608E-02  0.1385888E+00
          2   -1    0    0  502    0  0.00000000000E+00  0.00000000000E+00  0.38156036868E+03  0.38156036868E+03  0.00000000000E+00 0. -1.
          1   -1    0    0  501    0 -0.00000000000E+00 -0.00000000000E+00 -0.56189682342E+03  0.56189682342E+03  0.00000000000E+00 0. -1.
         25    2    1    2    0    0  0.83201218623E+02 -0.13377164031E+03  0.96840264997E+02  0.22320531016E+03  0.12500111610E+03 0.  0.
          2    1    1    2  501    0 -0.10701086319E+02 -0.21294707452E+02 -0.46529730380E+03  0.46590724263E+03  0.00000000000E+00 0. -1.
          1    1    1    2  502    0 -0.72500132303E+02  0.15506634777E+03  0.18812058406E+03  0.25434463930E+03  0.00000000000E+00 0. -1.
         22    1    3    3    0    0  0.31823936123E+02 -0.14367955514E+03  0.83528483134E+02  0.16921461217E+03  0.00000000000E+00 0.  1.
         22    1    3    3    0    0  0.51377282500E+02  0.99079148293E+01  0.13311781863E+02  0.53990697992E+02  0.00000000000E+00 0.  1.
</event>
<event>
 7    1  0.6078244E-006  0.7621336E+02  0.7818608E-02  0.1364823E+00
          2   -1    0    0  502    0  0.00000000000E+00  0.00000000000E+00  0.18931987455E+03  0.18931987455E+03  0.00000000000E+00 0. -1.
          1   -1    0    0  501    0 -0.00000000000E+00 -0.00000000000E+00 -0.44192448161E+03  0.44192448161E+03  0.00000000000E+00 0. -1.
         25    2    1    2    0    0 -0.11050448634E+03 -0.59074871249E+02 -0.32298364420E+02  0.17991524123E+03  0.12500091107E+03 0.  0.
          2    1    1    2  501    0  0.39966283764E+02  0.47133616742E+02 -0.32150821472E+03  0.32739336248E+03  0.00000000000E+00 0. -1.
          1    1    1    2  502    0  0.70538202577E+02  0.11941254507E+02  0.10120197208E+03  0.12393575245E+03  0.00000000000E+00 0. -1.
         22    1    3    3    0    0  0.24387206677E+01  0.81667124994E+01 -0.46894771557E+02  0.47663006105E+02  0.00000000000E+00 0. -1.
         22    1    3    3    0    0 -0.11294320701E+03 -0.67241583748E+02  0.14596407138E+02  0.13225223513E+03  0.00000000000E+00 0. -1.
</event>
<event>
 7    1  0.6078244E-006  0.7003900E+02  0.7818608E-02  0.1459924E+00
          2   -1    0    0  502    0  0.00000000000E+00  0.00000000000E+00  0.17293498286E+04  0.17293498286E+04  0.00000000000E+00 0. -1.
          1   -1    0    0  501    0 -0.00000000000E+00 -0.00000000000E+00 -0.17730548200E+04  0.17730548200E+04  0.00000000000E+00 0. -1.
         25    2    1    2    0    0  0.87330406450E+01  0.79220969262E+02  0.11773807509E+03  0.18931624529E+03  0.12500463365E+03 0.  0.
          2    1    1    2  501    0 -0.29566974664E+02 -0.12423831194E+02 -0.17363408589E+04  0.17366370190E+04  0.00000000000E+00 0. -1.
          1    1    1    2  502    0  0.20833934019E+02 -0.66797138067E+02  0.15748977924E+04  0.15764513843E+04  0.00000000000E+00 0. -1.
         22    1    3    3    0    0  0.41078495869E+02  0.14612870674E+02  0.10792636244E+03  0.11640050911E+03  0.00000000000E+00 0.  1.
         22    1    3    3    0    0 -0.32345455224E+02  0.64608098587E+02  0.98117126526E+01  0.72915736175E+02  0.00000000000E+00 0.  1.
</event>
<event>
 7    1  0.6078244E-006  0.6505364E+02  0.7818608E-02  0.1447577E+00
          2   -1    0    0  502    0  0.00000000000E+00  0.00000000000E+00  0.90679286779E+02  0.90679286779E+02  0.00000000000E+00 0. -1.
          1   -1    0    0  501    0 -0.00000000000E+00 -0.00000000000E+00 -0.21407736645E+04  0.21407736645E+04  0.00000000000E+00 0. -1.
         25    2    1    2    0    0  0.39926145947E+02 -0.93135325605E+02 -0.43481486026E+03  0.46363443137E+03  0.12499854897E+03 0.  0.
          2    1    1    2  501    0 -0.10581760682E+02  0.36287662945E+02 -0.16778831978E+04  0.16783089088E+04  0.00000000000E+00 0. -1.
          1    1    1    2  502    0 -0.29344385265E+02  0.56847662660E+02  0.62603680270E+02  0.89509611104E+02  0.00000000000E+00 0. -1.
         22    1    3    3    0    0  0.69485788285E+02 -0.22928263916E+02 -0.29992267249E+03  0.30871927302E+03  0.00000000000E+00 0. -1.
         22    1    3    3    0    0 -0.29559642338E+02 -0.70207061689E+02 -0.13489218777E+03  0.15491515835E+03  0.00000000000E+00 0. -1.
</event>
<event>
 7    1  0.6078244E-006  0.1041015E+03  0.7818608E-02  0.1421036E+00
          2   -1    0    0  502    0  0.00000000000E+00  0.00000000000E+00  0.10940741858E+04  0.10940741858E+04  0.00000000000E+00 0. -1.
          1   -1    0    0  501    0 -0.00000000000E+00 -0.00000000000E+00 -0.83403493494E+02  0.83403493494E+02  0.00000000000E+00 0. -1.
         25    2    1    2    0    0  0.14378629413E+02 -0.82075616877E+02  0.37713507615E+03  0.40595501829E+03  0.12500183737E+03 0.  0.
          2    1    1    2  501    0  0.11020345922E+01  0.10642009276E+03 -0.27449127857E+02  0.10990862224E+03  0.00000000000E+00 0. -1.
          1    1    1    2  502    0 -0.15480664005E+02 -0.24344475883E+02  0.66098474397E+03  0.66161403872E+03  0.00000000000E+00 0. -1.
         22    1    3    3    0    0 -0.15724592516E+02  0.13648337789E+02  0.62565179293E+01  0.21741295978E+02  0.00000000000E+00 0. -1.
         22    1    3    3    0    0  0.30103221929E+02 -0.95723954666E+02  0.37087855822E+03  0.38421372231E+03  0.00000000000E+00 0. -1.
</event>
<event>
 7    1  0.6078244E-006  0.8414565E+02  0.7818608E-02  0.1358792E+00
          2   -1    0    0  502    0  0.00000000000E+00  0.00000000000E+00  0.31108420133E+03  0.31108420133E+03  0.00000000000E+00 0. -1.
          1   -1    0    0  501    0 -0.00000000000E+00 -0.00000000000E+00 -0.18651549508E+04  0.18651549508E+04  0.00000000000E+00 0. -1.
         25    2    1    2    0    0  0.48843335500E+02 -0.93289984247E+02  0.11940305773E+03  0.20244891865E+03  0.12505911356E+03 0.  0.
          2    1    1    2  501    0 -0.57696654793E+02  0.11710675031E+02 -0.18119073222E+04  0.18128635327E+04  0.00000000000E+00 0. -1.
          1    1    1    2  502    0  0.88533192930E+01  0.81579309216E+02  0.13843351500E+03  0.16092670080E+03  0.00000000000E+00 0. -1.
         22    1    3    3    0    0  0.31771287974E+02 -0.99986667910E+02  0.13995039960E+03  0.17490815547E+03  0.00000000000E+00 0. -1.
         22    1    3    3    0    0  0.17072047526E+02  0.66966836626E+01 -0.20547341874E+02  0.27540763187E+02  0.00000000000E+00 0. -1.
</event>
<event>
 7    1  0.6078244E-006  0.2636306E+03  0.7818608E-02  0.1203055E+00
          2   -1    0    0  502    0  0.00000000000E+00  0.00000000000E+00  0.61700850597E+03  0.61700850597E+03  0.00000000000E+00 0. -1.
          1   -1    0    0  501    0 -0.00000000000E+00 -0.00000000000E+00 -0.53040927634E+03  0.53040927634E+03  0.00000000000E+00 0. -1.
         25    2    1    2    0    0 -0.32310706509E+03  0.52098504474E+02  0.75321686231E+02  0.35834322581E+03  0.12499632550E+03 0.  0.
          2    1    1    2  501    0  0.77678842154E+02 -0.29223397930E+02 -0.34555603174E+03  0.35538286478E+03  0.00000000000E+00 0. -1.
          1    1    1    2  502    0  0.24542822293E+03 -0.22875106543E+02  0.35683357514E+03  0.43369169171E+03  0.00000000000E+00 0. -1.
         22    1    3    3    0    0 -0.55395572595E+02  0.74441468883E+01  0.66390975127E+02  0.86786210681E+02  0.00000000000E+00 0.  1.
         22    1    3    3    0    0 -0.26771149249E+03  0.44654357585E+02  0.89307111043E+01  0.27155701513E+03  0.00000000000E+00 0.  1.
</event>
<event>
 7    1  0.6078244E-006  0.1770778E+03  0.7818608E-02  0.1279468E+00
          2   -1    0    0  502    0  0.00000000000E+00  0.00000000000E+00  0.17104350461E+04  0.17104350461E+04  0.00000000000E+00 0. -1.
          1   -1    0    0  501    0 -0.00000000000E+00 -0.00000000000E+00 -0.27933515658E+03  0.27933515658E+03  0.00000000000E+00 0. -1.
         25    2    1    2    0    0 -0.12725885388E+03  0.13065707032E+03  0.55414312218E+03  0.59662851684E+03  0.12499960531E+03 0.  0.
          2    1    1    2  501    0  0.77996078771E+02 -0.15916991320E+03 -0.22683911754E+03  0.28787920178E+03  0.00000000000E+00 0. -1.
          1    1    1    2  502    0  0.49262775111E+02  0.28512842885E+02  0.11037958849E+04  0.11052624841E+04  0.00000000000E+00 0. -1.
         22    1    3    3    0    0 -0.10652873647E+02  0.87185737003E+02  0.15070349301E+03  0.17443158906E+03  0.00000000000E+00 0. -1.
         22    1    3    3    0    0 -0.11660598024E+03  0.43471333316E+02  0.40343962917E+03  0.42219692779E+03  0.00000000000E+00 0. -1.
</event>
<event>
 7    1  0.6078244E-006  0.6619132E+02  0.7818608E-02  0.1433968E+00
          2   -1    0    0  502    0  0.00000000000E+00  0.00000000000E+00  0.15387293797E+04  0.15387293797E+04  0.00000000000E+00 0. -1.
          1   -1    0    0  501    0 -0.00000000000E+00 -0.00000000000E+00 -0.24424001904E+03  0.24424001904E+03  0.00000000000E+00 0. -1.
         25    2    1    2    0    0 -0.84850634461E+02  0.41600051157E+02  0.45015269954E+03  0.47664700425E+03  0.12499887732E+03 0.  0.
          2    1    1    2  501    0  0.44368180521E+02 -0.48820924996E+02 -0.22587981870E+03  0.23531619294E+03  0.00000000000E+00 0. -1.
          1    1    1    2  502    0  0.40482453940E+02  0.72208738395E+01  0.10702164798E+04  0.10710062015E+04  0.00000000000E+00 0. -1.
         22    1    3    3    0    0 -0.15968468262E+01  0.34583028057E+02  0.23384929633E+02  0.41777873131E+02  0.00000000000E+00 0.  1.
         22    1    3    3    0    0 -0.83253787635E+02  0.70170230998E+01  0.42676776991E+03  0.43486913112E+03  0.00000000000E+00 0.  1.
</event>
<event>
 7    1  0.6078244E-006  0.1467699E+03  0.7818608E-02  0.1243645E+00
          2   -1    0    0  502    0  0.00000000000E+00  0.00000000000E+00  0.56686409581E+03  0.56686409581E+03  0.00000000000E+00 0. -1.
          1   -1    0    0  501    0 -0.00000000000E+00 -0.00000000000E+00 -0.98226692442E+03  0.98226692442E+03  0.00000000000E+00 0. -1.
         25    2    1    2    0    0  0.99577037602E+02 -0.14662517827E+03  0.14712232267E+02  0.21738298806E+03  0.12499753757E+03 0.  0.
          2    1    1    2  501    0 -0.97570798249E+02  0.41377236986E+00 -0.86626296473E+03  0.87174064718E+03  0.00000000000E+00 0. -1.
          1    1    1    2  502    0 -0.20062393533E+01  0.14621140590E+03  0.43614790386E+03  0.46000738499E+03  0.00000000000E+00 0. -1.
         22    1    3    3    0    0  0.96874872754E+02 -0.88845241201E+02 -0.40372714084E+02  0.13750699581E+03  0.00000000000E+00 0.  1.
         22    1    3    3    0    0  0.27021648480E+01 -0.57779937069E+02  0.55084946352E+02  0.79875992245E+02  0.00000000000E+00 0.  1.
</event>
<event>
 7    1  0.6312978E-006  0.1192478E+03  0.7818608E-02  0.1408642E+00
          2   -1    0    0  502    0  0.00000000000E+00  0.00000000000E+00  0.84489220312E+03  0.84489220312E+03  0.00000000000E+00 0. -1.
          1   -1    0    0  501    0 -0.00000000000E+00 -0.00000000000E+00 -0.15470793190E+04  0.15470793190E+04  0.00000000000E+00 0. -1.
         25    2    1    2    0    0 -0.23180874743E+02 -0.90494184134E+02 -0.23198205160E+03  0.27958385946E+03  0.12499964754E+03 0.  0.
          2    1    1    2  501    0 -0.16098785288E+02 -0.22570962277E+02 -0.12867841916E+04  0.12870828159E+04  0.00000000000E+00 0. -1.
          1    1    1    2  502    0  0.39279660031E+02  0.11306514641E+03  0.81657912729E+03  0.82530484680E+03  0.00000000000E+00 0. -1.
         22    1    3    3    0    0 -0.58774581479E+02 -0.25858058197E+01 -0.11328456127E+03  0.12765002797E+03  0.00000000000E+00 0.  1.
         22    1    3    3    0    0  0.35593706736E+02 -0.87908378314E+02 -0.11869749034E+03  0.15193383148E+03  0.00000000000E+00 0.  1.
</event>
<event>
 7    1  0.6078244E-006  0.1742130E+03  0.7818608E-02  0.1376920E+00
          2   -1    0    0  502    0  0.00000000000E+00  0.00000000000E+00  0.22306563423E+03  0.22306563423E+03  0.00000000000E+00 0. -1.
          1   -1    0    0  501    0 -0.00000000000E+00 -0.00000000000E+00 -0.38627375330E+03  0.38627375330E+03  0.00000000000E+00 0. -1.
         25    2    1    2    0    0  0.98823649663E+02  0.13533942529E+03 -0.11093066262E+03  0.23667789653E+03  0.12501176355E+03 0.  0.
          2    1    1    2  501    0 -0.12268364991E+03 -0.12994819556E+03 -0.17345056219E+03  0.24904399011E+03  0.00000000000E+00 0. -1.
          1    1    1    2  502    0  0.23860000245E+02 -0.53912297327E+01  0.12117310575E+03  0.12361750089E+03  0.00000000000E+00 0. -1.
         22    1    3    3    0    0  0.76380651615E+02  0.35509288563E+02 -0.10440726952E+03  0.13414839337E+03  0.00000000000E+00 0.  1.
         22    1    3    3    0    0  0.22442998048E+02  0.99830136732E+02 -0.65233930998E+01  0.10252950316E+03  0.00000000000E+00 0.  1.
</event>
<event>
 7    1  0.6078244E-006  0.9310023E+02  0.7818608E-02  0.1336891E+00
          2   -1    0    0  502    0  0.00000000000E+00  0.00000000000E+00  0.25776479373E+03  0.25776479373E+03  0.00000000000E+00 0. -1.
          1   -1    0    0  501    0 -0.00000000000E+00 -0.00000000000E+00 -0.47461454239E+03  0.47461454239E+03  0.00000000000E+00 0. -1.
         25    2    1    2    0    0 -0.93604388093E+02  0.18127527849E+02  0.59011287218E+02  0.16792460056E+03  0.12500380281E+03 0.  0.
          2    1    1    2  501    0  0.30693271756E+02  0.56367368862E+02 -0.40083647515E+03  0.40594240603E+03  0.00000000000E+00 0. -1.
          1    1    1    2  502    0  0.62911116336E+02 -0.74494896711E+02  0.12497543927E+03  0.15851232954E+03  0.00000000000E+00 0. -1.
         22    1    3    3    0    0 -0.25610086015E+02  0.35238225120E+02 -0.31264115118E+02  0.53619529180E+02  0.00000000000E+00 0.  1.
         22    1    3    3    0    0 -0.67994302077E+02 -0.17110697271E+02  0.90275402337E+02  0.11430507138E+03  0.00000000000E+00 0.  1.
</event>
<event>
 7    1  0.6078244E-006  0.8525953E+02  0.7818608E-02  0.1484751E+00
          2   -1    0    0  502    0  0.00000000000E+00  0.00000000000E+00  0.54458853323E+03  0.54458853323E+03  0.00000000000E+00 0. -1.
          1   -1    0    0  501    0 -0.00000000000E+00 -0.00000000000E+00 -0.14172698596E+04  0.14172698596E+04  0.00000000000E+00 0. -1.
         25    2    1    2    0    0 -0.30779723690E+02 -0.10236580930E+03 -0.28757484280E+03  0.33128469000E+03  0.12499642121E+03 0.  0.
          2    1    1    2  501    0  0.38335260144E+01  0.21730709071E+02 -0.11042722561E+04  0.11044927049E+04  0.00000000000E+00 0. -1.
          1    1    1    2  502    0  0.26946197675E+02  0.80635100226E+02  0.51916577255E+03  0.52608099789E+03  0.00000000000E+00 0. -1.
         22    1    3    3    0    0  0.31204286940E+02  0.11250342624E+01 -0.12500802525E+03  0.12884866939E+03  0.00000000000E+00 0. -1.
         22    1    3    3    0    0 -0.61984010629E+02 -0.10349084356E+03 -0.16256681755E+03  0.20243602062E+03  0.00000000000E+00 0. -1.
</event>
<event>
 7    1  0.6078244E-006  0.1148430E+03  0.7818608E-02  0.1266451E+00
          2   -1    0    0  502    0  0.00000000000E+00  0.00000000000E+00  0.14216037919E+04  0.14216037919E+04  0.00000000000E+00 0. -1.
          1   -1    0    0  501    0 -0.00000000000E+00 -0.00000000000E+00 -0.72079801874E+03  0.72079801874E+03  0.00000000000E+00 0. -1.
         25    2    1    2    0    0  0.33515906883E+02  0.20346256647E+03 -0.24456897986E+03  0.34345215023E+03  0.12500024646E+03 0.  0.
          2    1    1    2  501    0 -0.42996326285E+02 -0.89705038090E+02 -0.41857404317E+03  0.43023238784E+03  0.00000000000E+00 0. -1.
          1    1    1    2  502    0  0.94804194025E+01 -0.11375752838E+03  0.13639487962E+04  0.13687172726E+04  0.00000000000E+00 0. -1.
         22    1    3    3    0    0 -0.30805175821E+02  0.26060155404E+02 -0.85065810800E+01  0.41236543002E+02  0.00000000000E+00 0.  1.
         22    1    3    3    0    0  0.64321082704E+02  0.17740241107E+03 -0.23606239878E+03  0.30221560722E+03  0.00000000000E+00 0.  1.
</event>
<event>
 7    1  0.6078244E-006  0.4870132E+02  0.7818608E-02  0.1570289E+00
          2   -1    0    0  502    0  0.00000000000E+00  0.00000000000E+00  0.18852001423E+03  0.18852001423E+03  0.00000000000E+00 0. -1.
          1   -1    0    0  501    0 -0.00000000000E+00 -0.00000000000E+00 -0.15339307493E+03  0.15339307493E+03  0.00000000000E+00 0. -1.
         25    2    1    2    0    0  0.26136200704E+02 -0.51411638788E+02 -0.36746807234E+02  0.14248599679E+03  0.12500269536E+03 0.  0.
          2    1    1    2  501    0 -0.45651040250E+01  0.47514654752E+02 -0.53761307808E+02  0.71894094390E+02  0.00000000000E+00 0. -1.
          1    1    1    2  502    0 -0.21571096679E+02  0.38969840363E+01  0.12563505434E+03  0.12753299799E+03  0.00000000000E+00 0. -1.
         22    1    3    3    0    0 -0.54520721976E+01  0.38398428954E+02 -0.25968098187E+02  0.46674474403E+02  0.00000000000E+00 0.  1.
         22    1    3    3    0    0  0.31588272902E+02 -0.89810067741E+02 -0.10778709047E+02  0.95811522383E+02  0.00000000000E+00 0.  1.
</event>
<event>
 7    1  0.6078244E-006  0.1310364E+03  0.7818608E-02  0.1293498E+00
          2   -1    0    0  502    0  0.00000000000E+00  0.00000000000E+00  0.49258218857E+03  0.49258218857E+03  0.00000000000E+00 0. -1.
          1   -1    0    0  501    0 -0.00000000000E+00 -0.00000000000E+00 -0.44189422948E+03  0.44189422948E+03  0.00000000000E+00 0. -1.
         25    2    1    2    0    0 -0.17317221491E+02 -0.74836291431E+02  0.33607944246E+03  0.36670771326E+03  0.12499919457E+03 0.  0.
          2    1    1    2  501    0  0.75077515118E+02  0.10956671498E+03 -0.40733305557E+03  0.42844103033E+03  0.00000000000E+00 0. -1.
          1    1    1    2  502    0 -0.57760293626E+02 -0.34730423548E+02  0.12194157220E+03  0.13932767446E+03  0.00000000000E+00 0. -1.
         22    1    3    3    0    0 -0.67299337312E+02 -0.62965261875E+02  0.25021684923E+03  0.26665013903E+03  0.00000000000E+00 0. -1.
         22    1    3    3    0    0  0.49982115820E+02 -0.11871029556E+02  0.85862593232E+02  0.10005757423E+03  0.00000000000E+00 0. -1.
</event>
<event>
 7    1  0.6523207E-006  0.5442214E+02  0.7818608E-02  0.1486912E+00
          2   -1    0    0  502    0  0.00000000000E+00  0.00000000000E+00  0.76779292474E+03  0.76779292474E+03  0.00000000000E+00 0. -1.
          1   -1    0    0  501    0 -0.00000000000E+00 -0.00000000000E+00 -0.97432806179E+03  0.97432806179E+03  0.00000000000E+00 0. -1.
         25    2    1    2    0    0 -0.80537010171E+02 -0.31815274397E+02 -0.52010657819E+03  0.54188033110E+03  0.12500007547E+03 0.  0.
          2    1    1    2  501    0  0.27434072930E+02  0.20169270671E+02 -0.44170231151E+03  0.44301282129E+03  0.00000000000E+00 0. -1.
          1    1    1    2  502    0  0.53102937242E+02  0.11646003725E+02  0.75527375265E+03  0.75722783414E+03  0.00000000000E+00 0. -1.
         22    1    3    3    0    0 -0.96724378217E+01  0.39187615577E+02 -0.25973211501E+03  0.26284976096E+03  0.00000000000E+00 0. -1.
         22    1    3    3    0    0 -0.70864572349E+02 -0.71002889973E+02 -0.26037446318E+03  0.27903057014E+03  0.00000000000E+00 0. -1.
</event>
<event>
 7    1  0.6078244E-006  0.3960749E+03  0.7818608E-02  0.1200973E+00
          2   -1    0    0  502    0  0.00000000000E+00  0.00000000000E+00  0.19357670455E+04  0.19357670455E+04  0.00000000000E+00 0. -1.
          1   -1    0    0  501    0 -0.00000000000E+00 -0.00000000000E+00 -0.21710535441E+04  0.21710535441E+04  0.00000000000E+00 0. -1.
         25    2    1    2    0    0  0.76152402049E+02  0.36683712931E+03  0.15310021822E+03  0.42359580011E+03  0.12500022910E+03 0.  0.
          2    1    1    2  501    0 -0.28206801135E+02 -0.39672853868E+03 -0.20158849906E+04  0.20547460798E+04  0.00000000000E+00 0. -1.
          1    1    1    2  502    0 -0.47945600915E+02  0.29891409370E+02  0.16274982737E+04  0.16284787097E+04  0.00000000000E+00 0. -1.
         22    1    3    3    0    0  0.17509944695E+01  0.80708752086E+02  0.90730032286E+02  0.12144507978E+03  0.00000000000E+00 0.  1.
         22    1    3    3    0    0  0.74401407580E+02  0.28612837722E+03  0.62370185938E+02  0.30215072033E+03  0.00000000000E+00 0.  1.
</event>
<event>
 7    1  0.6078244E-006  0.9624063E+02  0.7818608E-02  0.1410602E+00
          2   -1    0    0  502    0  0.00000000000E+00  0.00000000000E+00  0.16782542205E+04  0.16782542205E+04  0.00000000000E+00 0. -1.
          1   -1    0    0  501    0 -0.00000000000E+00 -0.00000000000E+00 -0.10787236391E+03  0.10787236391E+03  0.00000000000E+00 0. -1.
         25    2    1    2    0    0  0.80284358781E+02  0.40609964229E+02  0.36839888283E+03  0.39929171960E+03  0.12498557121E+03 0.  0.
          2    1    1    2  501    0 -0.96400980592E+02 -0.10865886841E+02 -0.66682106810E+02  0.11771881721E+03  0.00000000000E+00 0. -1.
          1    1    1    2  502    0  0.16116621812E+02 -0.29744077387E+02  0.12686650806E+04  0.12691160476E+04  0.00000000000E+00 0. -1.
         22    1    3    3    0    0  0.80493096229E+02  0.80405805136E+02  0.25933790180E+03  0.28319671493E+03  0.00000000000E+00 0.  1.
         22    1    3    3    0    0 -0.20873744836E+00 -0.39795840907E+02  0.10906098103E+03  0.11609500467E+03  0.00000000000E+00 0.  1.
</event>
<event>
 7    1  0.6078244E-006  0.9826624E+02  0.7818608E-02  0.1457633E+00
          2   -1    0    0  502    0  0.00000000000E+00  0.00000000000E+00  0.40253558056E+03  0.40253558056E+03  0.00000000000E+00 0. -1.
          1   -1    0    0  501    0 -0.00000000000E+00 -0.00000000000E+00 -0.19779231065E+04  0.19779231065E+04  0.00000000000E+00 0. -1.
         25    2    1    2    0    0  0.15291850462E+02 -0.83487748634E+02 -0.41736023723E+03  0.44386737008E+03  0.12499851893E+03 0.  0.
          2    1    1    2  501    0 -0.17783006426E+02 -0.14966471596E+02 -0.15409912049E+04  0.15411664816E+04  0.00000000000E+00 0. -1.
          1    1    1    2  502    0  0.24911559643E+01  0.98454220230E+02  0.38296391617E+03  0.39542483537E+03  0.00000000000E+00 0. -1.
         22    1    3    3    0    0 -0.14506814195E+02 -0.50961338874E+01  0.26184335222E+01  0.15597257220E+02  0.00000000000E+00 0. -1.
         22    1    3    3    0    0  0.29798664656E+02 -0.78391614746E+02 -0.41997867075E+03  0.42827011286E+03  0.00000000000E+00 0. -1.
</event>
<event>
 7    1  0.6078244E-006  0.8194081E+02  0.7818608E-02  0.1452286E+00
          2   -1    0    0  502    0  0.00000000000E+00  0.00000000000E+00  0.68710455997E+03  0.68710455997E+03  0.00000000000E+00 0. -1.
          1   -1    0    0  501    0 -0.00000000000E+00 -0.00000000000E+00 -0.10917394240E+04  0.10917394240E+04  0.00000000000E+00 0. -1.
         25    2    1    2    0    0 -0.87732825886E+02  0.41175681724E+02 -0.27111913584E+03  0.31388412281E+03  0.12500068492E+03 0.  0.
          2    1    1    2  501    0  0.69330291491E+01 -0.28144364883E+02 -0.79645769127E+03  0.79698495981E+03  0.00000000000E+00 0. -1.
          1    1    1    2  502    0  0.80799796737E+02 -0.13031316841E+02  0.66294196310E+03  0.66797490133E+03  0.00000000000E+00 0. -1.
         22    1    3    3    0    0 -0.11989514093E+03  0.31283510017E+02 -0.20129870108E+03  0.23637823477E+03  0.00000000000E+00 0.  1.
         22    1    3    3    0    0  0.32162315047E+02  0.98921717068E+01 -0.69820434765E+02  0.77505888041E+02  0.00000000000E+00 0.  1.
</event>
<event>
 7    1  0.6078244E-006  0.1265711E+03  0.7818608E-02  0.1296813E+00
          2   -1    0    0  502    0  0.00000000000E+00  0.00000000000E+00  0.24931853439E+04  0.24931853439E+04  0.00000000000E+00 0. -1.
          1   -1    0    0  501    0 -0.00000000000E+00 -0.00000000000E+00 -0.66902682002E+03  0.66902682002E+03  0.00000000000E+00 0. -1.
         25    2    1    2    0    0 -0.16595788168E+03  0.55825842141E+01  0.24217025842E+03  0.31913189383E+03  0.12500219140E+03 0.  0.
          2    1    1    2  501    0  0.51088381496E+02  0.44360802229E+02 -0.62695158599E+03  0.63059193991E+03  0.00000000000E+00 0. -1.
          1    1    1    2  502    0  0.11486950018E+03 -0.49943386443E+02  0.22089398515E+04  0.22124883302E+04  0.00000000000E+00 0. -1.
         22    1    3    3    0    0 -0.15740791540E+03  0.43596344689E+02  0.22094356846E+03  0.27476163041E+03  0.00000000000E+00 0. -1.
         22    1    3    3    0    0 -0.85499662766E+01 -0.38013760475E+02  0.21226689964E+02  0.44370263416E+02  0.00000000000E+00 0. -1.
</event>
<event>
 7    1  0.6078244E-006  0.1296197E+03  0.7818608E-02  0.1273556E+00
          2   -1    0    0  502    0  0.00000000000E+00  0.00000000000E+00  0.19543616747E+04  0.19543616747E+04  0.00000000000E+00 0. -1.
          1   -1    0    0  501    0 -0.00000000000E+00 -0.00000000000E+00 -0.32606709166E+03  0.32606709166E+03  0.00000000000E+00 0. -1.
         25    2    1    2    0    0 -0.20252889433E+02 -0.65572469062E+02  0.27015396989E+03  0.30549849070E+03  0.12504492051E+03 0.  0.
          2    1    1    2  501    0 -0.70949561992E+02 -0.41676540930E+02 -0.29986930554E+03  0.31095397540E+03  0.00000000000E+00 0. -1.
          1    1    1    2  502    0  0.91202451425E+02  0.10724900999E+03  0.16580099187E+04  0.16639763003E+04  0.00000000000E+00 0. -1.
         22    1    3    3    0    0 -0.39735947125E+02  0.25658030611E+02  0.67714101639E+02  0.82598302583E+02  0.00000000000E+00 0.  1.
         22    1    3    3    0    0  0.19483057692E+02 -0.91230499672E+02  0.20243986825E+03  0.22290018812E+03  0.00000000000E+00 0.  1.
</event>
<event>
 7    1  0.6078244E-006  0.8303407E+02  0.7818608E-02  0.1359770E+00
          2   -1    0    0  502    0  0.00000000000E+00  0.00000000000E+00  0.13455254006E+04  0.13455254006E+04  0.00000000000E+00 0. -1.
          1   -1    0    0  501    0 -0.00000000000E+00 -0.00000000000E+00 -0.24078983387E+03  0.24078983387E+03  0.00000000000E+00 0. -1.
         25    2    1    2    0    0 -0.11890964400E+03  0.23160217176E+02  0.20250291480E+03  0.26703748448E+03  0.12500275404E+03 0.  0.
          2    1    1    2  501    0  0.53314813669E+02  0.25668598811E+02 -0.20278331624E+03  0.21124019425E+03  0.00000000000E+00 0. -1.
          1    1    1    2  502    0  0.65594830331E+02 -0.48828815988E+02  0.11050159681E+04  0.11080375557E+04  0.00000000000E+00 0. -1.
         22    1    3    3    0    0 -0.75131177207E+02  0.70325897775E+02  0.15886841761E+03  0.18928708303E+03  0.00000000000E+00 0.  1.
         22    1    3    3    0    0 -0.43778466793E+02 -0.47165680599E+02  0.43634497189E+02  0.77750401453E+02  0.00000000000E+00 0.  1.
</event>
<event>
 7    1  0.6078244E-006  0.6580416E+02  0.7818608E-02  0.1394229E+00
          2   -1    0    0  502    0  0.00000000000E+00  0.00000000000E+00  0.14527683562E+03  0.14527683562E+03  0.00000000000E+00 0. -1.
          1   -1    0    0  501    0 -0.00000000000E+00 -0.00000000000E+00 -0.41418774786E+03  0.41418774786E+03  0.00000000000E+00 0. -1.
         25    2    1    2    0    0  0.92387177449E+01 -0.90851761713E+02 -0.13093135116E+02  0.15535718445E+03  0.12500011224E+03 0.  0.
          2    1    1    2  501    0 -0.45089605405E+02  0.47441675032E+02 -0.31540807759E+03  0.32212736682E+03  0.00000000000E+00 0. -1.
          1    1    1    2  502    0  0.35850887660E+02  0.43410086681E+02  0.59590300470E+02  0.81980032213E+02  0.00000000000E+00 0. -1.
         22    1    3    3    0    0  0.17796508153E+02 -0.54086039936E+02  0.53936362912E+02  0.78429246220E+02  0.00000000000E+00 0. -1.
         22    1    3    3    0    0 -0.85577904084E+01 -0.36765721776E+02 -0.67029498027E+02  0.76927938229E+02  0.00000000000E+00 0. -1.
</event>
<event>
 7    1  0.6078244E-006  0.1474100E+03  0.7818608E-02  0.1310325E+00
          2   -1    0    0  502    0  0.00000000000E+00  0.00000000000E+00  0.23401963584E+04  0.23401963584E+04  0.00000000000E+00 0. -1.
          1   -1    0    0  501    0 -0.00000000000E+00 -0.00000000000E+00 -0.44750075790E+03  0.44750075790E+03  0.00000000000E+00 0. -1.
         25    2    1    2    0    0 -0.71956513940E+02  0.67394308503E+02  0.57938889409E+03  0.60086140093E+03  0.12499279904E+03 0.  0.
          2    1    1    2  501    0  0.97662955174E+02 -0.11182059829E+03 -0.42375788430E+03  0.44901296588E+03  0.00000000000E+00 0. -1.
          1    1    1    2  502    0 -0.25706441234E+02  0.44426289788E+02  0.17370645907E+04  0.17378227495E+04  0.00000000000E+00 0. -1.
         22    1    3    3    0    0 -0.16597382396E+01  0.47335230478E+02  0.44806791786E+03  0.45056435477E+03  0.00000000000E+00 0.  1.
         22    1    3    3    0    0 -0.70296775701E+02  0.20059078025E+02  0.13132097623E+03  0.15029704615E+03  0.00000000000E+00 0.  1.
</event>
<event>
 7    1  0.6078244E-006  0.1483229E+03  0.7818608E-02  0.1264611E+00
          2   -1    0    0  502    0  0.00000000000E+00  0.00000000000E+00  0.15822733623E+04  0.15822733623E+04  0.00000000000E+00 0. -1.
          1   -1    0    0  501    0 -0.00000000000E+00 -0.00000000000E+00 -0.37891259074E+03  0.37891259074E+03  0.00000000000E+00 0. -1.
         25    2    1    2    0    0 -0.24374897544E+02 -0.87442756856E+02  0.65457725889E+02  0.16776020301E+03  0.12497359912E+03 0.  0.
          2    1    1    2  501    0  0.89790753217E+02  0.13068339540E+03 -0.30746023999E+03  0.34593688496E+03  0.00000000000E+00 0. -1.
          1    1    1    2  502    0 -0.65415855673E+02 -0.43240638549E+02  0.14453632857E+04  0.14474888651E+04  0.00000000000E+00 0. -1.
         22    1    3    3    0    0  0.43956124607E+02 -0.72047129705E+02  0.34377808941E+02  0.91130475346E+02  0.00000000000E+00 0. -1.
         22    1    3    3    0    0 -0.68331022152E+02 -0.15395627151E+02  0.31079916948E+02  0.76629727659E+02  0.00000000000E+00 0. -1.
</event>
<event>
 7    1  0.6078244E-006  0.3657066E+02  0.7818608E-02  0.1596823E+00
          2   -1    0    0  502    0  0.00000000000E+00  0.00000000000E+00  0.25414370395E+03  0.25414370395E+03  0.00000000000E+00 0. -1.
          1   -1    0    0  501    0 -0.00000000000E+00 -0.00000000000E+00 -0.89144886434E+02  0.89144886434E+02  0.00000000000E+00 0. -1.
         25    2    1    2    0    0  0.55431423037E+02 -0.21086357760E+02  0.40662461300E+02  0.14420745316E+03  0.12500030658E+03 0.  0.
          2    1    1    2  501    0 -0.31866787966E+02  0.13361241798E+02 -0.28163590339E+02  0.44578052654E+02  0.00000000000E+00 0. -1.
          1    1    1    2  502    0 -0.23564635070E+02  0.77251159618E+01  0.15249994655E+03  0.15450308457E+03  0.00000000000E+00 0. -1.
         22    1    3    3    0    0 -0.31483630075E+02  0.38711884225E+01  0.43378673303E+02  0.53739318567E+02  0.00000000000E+00 0. -1.
         22    1    3    3    0    0  0.86915053112E+02 -0.24957546183E+02 -0.27162120029E+01  0.90468134592E+02  0.00000000000E+00 0. -1.
</event>
<event>
 7    1  0.6078244E-006  0.7546115E+02  0.7818608E-02  0.1382630E+00
          2   -1    0    0  502    0  0.00000000000E+00  0.00000000000E+00  0.15810598054E+03  0.15810598054E+03  0.00000000000E+00 0. -1.
          1   -1    0    0  501    0 -0.00000000000E+00 -0.00000000000E+00 -0.18260731363E+04  0.18260731363E+04  0.00000000000E+00 0. -1.
         25    2    1    2    0    0  0.10489198474E+03 -0.43546637567E+02  0.28694109224E+02  0.17131320637E+03  0.12500489857E+03 0.  0.
          2    1    1    2  501    0 -0.52071553945E+02  0.54293998967E+02 -0.17412725546E+04  0.17428968399E+04  0.00000000000E+00 0. -1.
          1    1    1    2  502    0 -0.52820430794E+02 -0.10747361401E+02  0.44611289582E+02  0.69969070628E+02  0.00000000000E+00 0. -1.
         22    1    3    3    0    0  0.95308547418E+02 -0.65040808701E+02  0.61645158861E+02  0.13082106718E+03  0.00000000000E+00 0. -1.
         22    1    3    3    0    0  0.95834373214E+01  0.21494171134E+02 -0.32951049637E+02  0.40492139185E+02  0.00000000000E+00 0. -1.
</event>
<event>
 7    1  0.6078244E-006  0.2200950E+03  0.7818608E-02  0.1210351E+00
          2   -1    0    0  502    0  0.00000000000E+00  0.00000000000E+00  0.38317747565E+03  0.38317747565E+03  0.00000000000E+00 0. -1.
          1   -1    0    0  501    0 -0.00000000000E+00 -0.00000000000E+00 -0.11721826740E+04  0.11721826740E+04  0.00000000000E+00 0. -1.
         25    2    1    2    0    0 -0.24431824872E+03  0.14957527785E+03 -0.14258606073E+03  0.34354035981E+03  0.12500009481E+03 0.  0.
          2    1    1    2  501    0  0.20148296111E+03 -0.68246031304E+02 -0.90902868038E+03  0.93358772815E+03  0.00000000000E+00 0. -1.
          1    1    1    2  502    0  0.42835287605E+02 -0.81329246541E+02  0.26260954275E+03  0.27823206169E+03  0.00000000000E+00 0. -1.
         22    1    3    3    0    0 -0.72642842633E+02 -0.35987124643E+01  0.25040880059E+00  0.72732358836E+02  0.00000000000E+00 0. -1.
         22    1    3    3    0    0 -0.17167540608E+03  0.15317399031E+03 -0.14283646953E+03  0.27080800097E+03  0.00000000000E+00 0. -1.
</event>
<event>
 7    1  0.6078244E-006  0.9301167E+02  0.7818608E-02  0.1345960E+00
          2   -1    0    0  502    0  0.00000000000E+00  0.00000000000E+00  0.15306186385E+04  0.15306186385E+04  0.00000000000E+00 0. -1.
          1   -1    0    0  501    0 -0.00000000000E+00 -0.00000000000E+00 -0.11156292293E+04  0.11156292293E+04  0.00000000000E+00 0. -1.
         25    2    1    2    0    0 -0.39379632355E+02 -0.12001841655E+03  0.45194380728E+03  0.48562715036E+03  0.12500139391E+03 0.  0.
          2    1    1    2  501    0 -0.13003098832E+02  0.92011917463E+02 -0.10959890867E+04  0.10999215207E+04  0.00000000000E+00 0. -1.
          1    1    1    2  502    0  0.52382731187E+02  0.28006499090E+02  0.10590346885E+04  0.10606991968E+04  0.00000000000E+00 0. -1.
         22    1    3    3    0    0 -0.25413001466E+02 -0.65913083580E+02  0.40925720805E+03  0.41530930349E+03  0.00000000000E+00 0. -1.
         22    1    3    3    0    0 -0.13966630890E+02 -0.54105332973E+02  0.42686599229E+02  0.70317846869E+02  0.00000000000E+00 0. -1.
</event>
<event>
 7    1  0.6078244E-006  0.5714471E+02  0.7818608E-02  0.1442831E+00
          2   -1    0    0  502    0  0.00000000000E+00  0.00000000000E+00  0.12802266674E+03  0.12802266674E+03  0.00000000000E+00 0. -1.
          1   -1    0    0  501    0 -0.00000000000E+00 -0.00000000000E+00 -0.17921885118E+03  0.17921885118E+03  0.00000000000E+00 0. -1.
         25    2    1    2    0    0  0.49204095869E+02 -0.56001740554E+02 -0.77166070479E+02  0.16472928882E+03  0.12499559258E+03 0.  0.
          2    1    1    2  501    0 -0.44568357959E+02 -0.58097156024E+00 -0.36855242012E+02  0.57835844619E+02  0.00000000000E+00 0. -1.
          1    1    1    2  502    0 -0.46357379105E+01  0.56582712114E+02  0.62825128047E+02  0.84676384490E+02  0.00000000000E+00 0. -1.
         22    1    3    3    0    0  0.72850665043E+02 -0.74493403815E+02 -0.84123642833E+02  0.13391517424E+03  0.00000000000E+00 0. -1.
         22    1    3    3    0    0 -0.23646569174E+02  0.18491663261E+02  0.69575723533E+01  0.30814114573E+02  0.00000000000E+00 0. -1.
</event>
<event>
 7    1  0.6078244E-006  0.7136190E+02  0.7818608E-02  0.1385350E+00
          2   -1    0    0  502    0  0.00000000000E+00  0.00000000000E+00  0.35358689277E+03  0.35358689277E+03  0.00000000000E+00 0. -1.
          1   -1    0    0  501    0 -0.00000000000E+00 -0.00000000000E+00 -0.19542586402E+04  0.19542586402E+04  0.00000000000E+00 0. -1.
         25    2    1    2    0    0 -0.23529989784E+02  0.60337979477E+01 -0.16468883222E+03  0.20817622860E+03  0.12499945423E+03 0.  0.
          2    1    1    2  501    0  0.45575334682E+02 -0.57246435261E+02 -0.17647205393E+04  0.17662369171E+04  0.00000000000E+00 0. -1.
          1    1    1    2  502    0 -0.22045344898E+02  0.51212637313E+02  0.32873762405E+03  0.33343238733E+03  0.00000000000E+00 0. -1.
         22    1    3    3    0    0 -0.47404588187E+02 -0.20739430412E+02 -0.16434983269E+03  0.17230260143E+03  0.00000000000E+00 0. -1.
         22    1    3    3    0    0  0.23874598403E+02  0.26773228360E+02 -0.33899953537E+00  0.35873627171E+02  0.00000000000E+00 0. -1.
</event>
<event>
 7    1  0.6078244E-006  0.9776474E+02  0.7818608E-02  0.1419530E+00
          2   -1    0    0  502    0  0.00000000000E+00  0.00000000000E+00  0.39744653430E+03  0.39744653430E+03  0.00000000000E+00 0. -1.
          1   -1    0    0  501    0 -0.00000000000E+00 -0.00000000000E+00 -0.19393966370E+04  0.19393966370E+04  0.00000000000E+00 0. -1.
         25    2    1    2    0    0  0.34012997304E+02  0.59322417004E+02 -0.27790130966E+03  0.31229747423E+03  0.12499816540E+03 0.  0.
          2    1    1    2  501    0  0.23037870984E+02  0.20858096913E+02 -0.16377806602E+04  0.16380754850E+04  0.00000000000E+00 0. -1.
          1    1    1    2  502    0 -0.57050868288E+02 -0.80180513917E+02  0.37373186709E+03  0.38647021212E+03  0.00000000000E+00 0. -1.
         22    1    3    3    0    0  0.60255114267E+02 -0.51804093670E+01 -0.67295749160E+02  0.90477805519E+02  0.00000000000E+00 0.  1.
         22    1    3    3    0    0 -0.26242116963E+02  0.64502826371E+02 -0.21060556050E+03  0.22181966871E+03  0.00000000000E+00 0.  1.
</event>
<event>
 7    1  0.6078244E-006  0.7098618E+02  0.7818608E-02  0.1403911E+00
          2   -1    0    0  502    0  0.00000000000E+00  0.00000000000E+00  0.46933062241E+03  0.46933062241E+03  0.00000000000E+00 0. -1.
          1   -1    0    0  501    0 -0.00000000000E+00 -0.00000000000E+00 -0.67533707667E+02  0.67533707667E+02  0.00000000000E+00 0. -1.
         25    2    1    2    0    0 -0.11031173672E+02 -0.90955097948E+02  0.12195205728E+03  0.19722807182E+03  0.12502836239E+03 0.  0.
          2    1    1    2  501    0  0.41887931696E+02  0.53752985898E+02  0.14174881770E+02  0.69605384763E+02  0.00000000000E+00 0. -1.
          1    1    1    2  502    0 -0.30856758025E+02  0.37202112049E+02  0.26566997570E+03  0.27003087350E+03  0.00000000000E+00 0. -1.
         22    1    3    3    0    0 -0.64296354023E+02 -0.76218027084E+02  0.76821762585E+02  0.12587609781E+03  0.00000000000E+00 0. -1.
         22    1    3    3    0    0  0.53265180351E+02 -0.14737070864E+02  0.45130294694E+02  0.71351974007E+02  0.00000000000E+00 0. -1.
</event>
<event>
 7    1  0.6078244E-006  0.7852394E+02  0.7818608E-02  0.1401438E+00
          2   -1    0    0  502    0  0.00000000000E+00  0.00000000000E+00  0.39527349350E+03  0.39527349350E+03  0.00000000000E+00 0. -1.
          1   -1    0    0  501    0 -0.00000000000E+00 -0.00000000000E+00 -0.13938785083E+03  0.13938785083E+03  0.00000000000E+00 0. -1.
         25    2    1    2    0    0 -0.23613401729E+02 -0.11649170247E+03  0.70964927868E+02  0.18651647025E+03  0.12499785279E+03 0.  0.
          2    1    1    2  501    0  0.13891440209E+02  0.42333865925E+02 -0.69723799403E+02  0.82743800483E+02  0.00000000000E+00 0. -1.
          1    1    1    2  502    0  0.97219615196E+01  0.74157836544E+02  0.25464451420E+03  0.26540107360E+03  0.00000000000E+00 0. -1.
         22    1    3    3    0    0 -0.52691412591E+01 -0.15999416501E+01 -0.31198706110E+02  0.31680955254E+02  0.00000000000E+00 0. -1.
         22    1    3    3    0    0 -0.18344260469E+02 -0.11489176082E+03  0.10216363398E+03  0.15483551499E+03  0.00000000000E+00 0. -1.
</event>
<event>
 7    1  0.6078244E-006  0.4034769E+02  0.7818608E-02  0.1545565E+00
          2   -1    0    0  502    0  0.00000000000E+00  0.00000000000E+00  0.40806244110E+03  0.40806244110E+03  0.00000000000E+00 0. -1.
          1   -1    0    0  501    0 -0.00000000000E+00 -0.00000000000E+00 -0.10003416024E+04  0.10003416024E+04  0.00000000000E+00 0. -1.
         25    2    1    2    0    0  0.18277955286E+02 -0.44602895148E+01 -0.17366080083E+03  0.21479479681E+03  0.12499901265E+03 0.  0.
          2    1    1    2  501    0 -0.20912554974E+02  0.35309123401E+02 -0.80497183294E+03  0.80601719646E+03  0.00000000000E+00 0. -1.
          1    1    1    2  502    0  0.26345996880E+01 -0.30848833886E+02  0.38635347250E+03  0.38759205021E+03  0.00000000000E+00 0. -1.
         22    1    3    3    0    0  0.26046632870E+02  0.51626864281E+02 -0.41981957590E+02  0.71457994392E+02  0.00000000000E+00 0.  1.
         22    1    3    3    0    0 -0.77686775843E+01 -0.56087153796E+02 -0.13167884324E+03  0.14333680242E+03  0.00000000000E+00 0.  1.
</event>
<event>
 7    1  0.6078244E-006  0.1090688E+03  0.7818608E-02  0.1448559E+00
          2   -1    0    0  502    0  0.00000000000E+00  0.00000000000E+00  0.67425993738E+03  0.67425993738E+03  0.00000000000E+00 0. -1.
          1   -1    0    0  501    0 -0.00000000000E+00 -0.00000000000E+00 -0.19334970441E+04  0.19334970441E+04  0.00000000000E+00 0. -1.
         25    2    1    2    0    0 -0.11726679990E+02  0.12772846133E+03  0.10185786573E+02  0.17938872780E+03  0.12499796221E+03 0.  0.
          2    1    1    2  501    0  0.19944412430E+02 -0.10690961753E+03 -0.18470794041E+04  0.18502782955E+04  0.00000000000E+00 0. -1.
          1    1    1    2  502    0 -0.82177324399E+01 -0.20818843799E+02  0.57765651073E+03  0.57808995820E+03  0.00000000000E+00 0. -1.
         22    1    3    3    0    0  0.16966977483E+02  0.12236360176E+03 -0.32442826241E+02  0.12772339776E+03  0.00000000000E+00 0. -1.
         22    1    3    3    0    0 -0.28693657473E+02  0.53648595637E+01  0.42628612814E+02  0.51665330037E+02  0.00000000000E+00 0. -1.
</event>
<event>
 7    1  0.6078244E-006  0.7685794E+02  0.7818608E-02  0.1414721E+00
          2   -1    0    0  502    0  0.00000000000E+00  0.00000000000E+00  0.49031869881E+03  0.49031869881E+03  0.00000000000E+00 0. -1.
          1   -1    0    0  501    0 -0.00000000000E+00 -0.00000000000E+00 -0.77238446145E+03  0.77238446145E+03  0.00000000000E+00 0. -1.
         25    2    1    2    0    0 -0.42890531148E+02  0.97332817210E+02 -0.72762540416E+02  0.17953513662E+03  0.12500081210E+03 0.  0.
          2    1    1    2  501    0  0.82355372518E+01 -0.75373591172E+02 -0.64304025260E+03  0.64749499518E+03  0.00000000000E+00 0. -1.
          1    1    1    2  502    0  0.34654993897E+02 -0.21959226038E+02  0.43373703037E+03  0.43567302846E+03  0.00000000000E+00 0. -1.
         22    1    3    3    0    0 -0.25228542585E+02  0.11442708390E+03 -0.91466923456E+02  0.14864802379E+03  0.00000000000E+00 0.  1.
         22    1    3    3    0    0 -0.17661988563E+02 -0.17094266692E+02  0.18704383040E+02  0.30887112825E+02  0.00000000000E+00 0.  1.
</event>
<event>
 7    1  0.6078244E-006  0.7258245E+02  0.7818608E-02  0.1353263E+00
          2   -1    0    0  502    0  0.00000000000E+00  0.00000000000E+00  0.26749936316E+03  0.26749936316E+03  0.00000000000E+00 0. -1.
          1   -1    0    0  501    0 -0.00000000000E+00 -0.00000000000E+00 -0.29163487954E+04  0.29163487954E+04  0.00000000000E+00 0. -1.
         25    2    1    2    0    0  0.13645886253E+02 -0.68012297145E+02 -0.87510806601E+02  0.16761511799E+03  0.12499921493E+03 0.  0.
          2    1    1    2  501    0 -0.69290985320E+02  0.23084555881E+02 -0.27826727684E+04  0.27836310592E+04  0.00000000000E+00 0. -1.
          1    1    1    2  502    0  0.55645099067E+02  0.44927741264E+02  0.22133414280E+03  0.23260198140E+03  0.00000000000E+00 0. -1.
         22    1    3    3    0    0 -0.19254394030E+02  0.13316624409E+01  0.24897676375E+02  0.31502369803E+02  0.00000000000E+00 0. -1.
         22    1    3    3    0    0  0.32900280283E+02 -0.69343959586E+02 -0.11240848298E+03  0.13611274819E+03  0.00000000000E+00 0. -1.
</event>
<event>
 7    1  0.6078244E-006  0.6968689E+02  0.7818608E-02  0.1466356E+00
          2   -1    0    0  502    0  0.00000000000E+00  0.00000000000E+00  0.16121655667E+04  0.16121655667E+04  0.00000000000E+00 0. -1.
          1   -1    0    0  501    0 -0.00000000000E+00 -0.00000000000E+00 -0.10340396929E+04  0.10340396929E+04  0.00000000000E+00 0. -1.
         25    2    1    2    0    0  0.80719886731E+01 -0.84403814736E+02  0.83812696256E+03  0.85162966050E+03  0.12500844905E+03 0.  0.
          2    1    1    2  501    0  0.20032611027E+02  0.23353342334E+02 -0.10255854336E+04  0.10260468633E+04  0.00000000000E+00 0. -1.
          1    1    1    2  502    0 -0.28104599700E+02  0.61050472402E+02  0.76558434482E+03  0.76852873579E+03  0.00000000000E+00 0. -1.
         22    1    3    3    0    0 -0.50154118884E+02 -0.60995181352E+02  0.60772927804E+03  0.61283825205E+03  0.00000000000E+00 0.  1.
         22    1    3    3    0    0  0.58226107557E+02 -0.23408633384E+02  0.23039768452E+03  0.23879140845E+03  0.00000000000E+00 0.  1.
</event>
<event>
 7    1  0.6078244E-006  0.1046147E+03  0.7818608E-02  0.1327194E+00
          2   -1    0    0  502    0  0.00000000000E+00  0.00000000000E+00  0.14936582672E+03  0.14936582672E+03  0.00000000000E+00 0. -1.
          1   -1    0    0  501    0 -0.00000000000E+00 -0.00000000000E+00 -0.10729227096E+04  0.10729227096E+04  0.00000000000E+00 0. -1.
         25    2    1    2    0    0 -0.13806982649E+03  0.38083276724E+02 -0.52585488531E+03  0.55916158977E+03  0.12499884047E+03 0.  0.
          2    1    1    2  501    0  0.78367684848E+02 -0.55488538835E+02 -0.51847055718E+03  0.52728757869E+03  0.00000000000E+00 0. -1.
          1    1    1    2  502    0  0.59702141644E+02  0.17405262111E+02  0.12076855962E+03  0.13583936785E+03  0.00000000000E+00 0. -1.
         22    1    3    3    0    0 -0.64091637158E+02 -0.69526083945E+01 -0.70045329753E+02  0.95196769574E+02  0.00000000000E+00 0.  1.
         22    1    3    3    0    0 -0.73978189334E+02  0.45035885118E+02 -0.45580955556E+03  0.46396482020E+03  0.00000000000E+00 0.  1.
</event>
<event>
 7    1  0.6078244E-006  0.7149900E+02  0.7818608E-02  0.1426740E+00
          2   -1    0    0  502    0  0.00000000000E+00  0.00000000000E+00  0.21808853942E+03  0.21808853942E+03  0.00000000000E+00 0. -1.
          1   -1    0    0  501    0 -0.00000000000E+00 -0.00000000000E+00 -0.53322816317E+03  0.53322816317E+03  0.00000000000E+00 0. -1.
         25    2    1    2    0    0 -0.60938287608E+01 -0.10452885305E+03 -0.13924289457E+03  0.21442265933E+03  0.12500030911E+03 0.  0.
          2    1    1    2  501    0 -0.14804008844E+02  0.37387428787E+02 -0.34834593607E+03  0.35065919307E+03  0.00000000000E+00 0. -1.
          1    1    1    2  502    0  0.20897837605E+02  0.67141424261E+02  0.17244920689E+03  0.18623485019E+03  0.00000000000E+00 0. -1.
         22    1    3    3    0    0 -0.22775277184E+02  0.66944033448E+01 -0.87427942659E+02  0.90593451444E+02  0.00000000000E+00 0.  1.
         22    1    3    3    0    0  0.16681448423E+02 -0.11122325639E+03 -0.51814951911E+02  0.12382920789E+03  0.00000000000E+00 0.  1.
</event>
<event>
 7    1  0.6078244E-006  0.3041176E+02  0.7818608E-02  0.1594681E+00
          2   -1    0    0  502    0  0.00000000000E+00  0.00000000000E+00  0.25304326269E+04  0.25304326269E+04  0.00000000000E+00 0. -1.
          1   -1    0    0  501    0 -0.00000000000E+00 -0.00000000000E+00 -0.10399642290E+03  0.10399642290E+03  0.00000000000E+00 0. -1.
         25    2    1    2    0    0 -0.18320891452E+00 -0.22362870855E+02  0.31497451399E+03  0.33960736144E+03  0.12499633564E+03 0.  0.
          2    1    1    2  501    0 -0.28181550318E+02  0.10882519446E+02 -0.89082109230E+02  0.94065143346E+02  0.00000000000E+00 0. -1.
          1    1    1    2  502    0  0.28364759233E+02  0.11480351409E+02  0.22005437992E+04  0.22007565450E+04  0.00000000000E+00 0. -1.
         22    1    3    3    0    0  0.12650029242E+01 -0.69173885245E+02  0.11487571372E+03  0.13410091810E+03  0.00000000000E+00 0. -1.
         22    1    3    3    0    0 -0.14482118387E+01  0.46811014389E+02  0.20009880027E+03  0.20550644334E+03  0.00000000000E+00 0. -1.
</event>
<event>
 7    1  0.6078244E-006  0.1610196E+03  0.7818608E-02  0.1209923E+00
          2   -1    0    0  502    0  0.00000000000E+00  0.00000000000E+00  0.16284123734E+04  0.16284123734E+04  0.00000000000E+00 0. -1.
          1   -1    0    0  501    0 -0.00000000000E+00 -0.00000000000E+00 -0.17840716191E+03  0.17840716191E+03  0.00000000000E+00 0. -1.
         25    2    1    2    0    0  0.71133438768E+02  0.16539837149E+02  0.15918296042E+03  0.21516884434E+03  0.12499953745E+03 0.  0.
          2    1    1    2  501    0 -0.15896552478E+03 -0.10718677504E+03 -0.85233371249E+02  0.20981842242E+03  0.00000000000E+00 0. -1.
          1    1    1    2  502    0  0.87832086008E+02  0.90646937895E+02  0.13760556223E+04  0.13818322685E+04  0.00000000000E+00 0. -1.
         22    1    3    3    0    0  0.10563913277E+03  0.13466875053E+02  0.97307400145E+02  0.14425572162E+03  0.00000000000E+00 0.  1.
         22    1    3    3    0    0 -0.34505694006E+02  0.30729620966E+01  0.61875560276E+02  0.70913122723E+02  0.00000000000E+00 0.  1.
</event>
<event>
 7    1  0.6078244E-006  0.5275942E+02  0.7818608E-02  0.1469296E+00
          2   -1    0    0  502    0  0.00000000000E+00  0.00000000000E+00  0.33488896289E+03  0.33488896289E+03  0.00000000000E+00 0. -1.
          1   -1    0    0  501    0 -0.00000000000E+00 -0.00000000000E+00 -0.74494866356E+02  0.74494866356E+02  0.00000000000E+00 0. -1.
         25    2    1    2    0    0 -0.17820206404E+02  0.88072671118E+02  0.20916351306E+03  0.25970909850E+03  0.12500034198E+03 0.  0.
          2    1    1    2  501    0  0.14359669350E+02 -0.48432725213E+02 -0.30332235809E+02  0.58923454622E+02  0.00000000000E+00 0. -1.
          1    1    1    2  502    0  0.34605370542E+01 -0.39639945904E+02  0.81562819285E+02  0.90751276121E+02  0.00000000000E+00 0. -1.
         22    1    3    3    0    0  0.17401239169E+02  0.10702015390E+03  0.18028709369E+03  0.21037954420E+03  0.00000000000E+00 0.  1.
         22    1    3    3    0    0 -0.35221445573E+02 -0.18947482787E+02  0.28876419369E+02  0.49329554304E+02  0.00000000000E+00 0.  1.
</event>
<event>
 7    1  0.6078244E-006  0.6058188E+02  0.7818608E-02  0.1429611E+00
          2   -1    0    0  502    0  0.00000000000E+00  0.00000000000E+00  0.16026626163E+03  0.16026626163E+03  0.00000000000E+00 0. -1.
          1   -1    0    0  501    0 -0.00000000000E+00 -0.00000000000E+00 -0.69909151787E+03  0.69909151787E+03  0.00000000000E+00 0. -1.
         25    2    1    2    0    0 -0.76299041921E+02  0.30962676502E+02 -0.23969126455E+02  0.15158841343E+03  0.12499718768E+03 0.  0.
          2    1    1    2  501    0  0.59143812010E+02  0.12185989895E+02 -0.60413063952E+03  0.60714110259E+03  0.00000000000E+00 0. -1.
          1    1    1    2  502    0  0.17155229910E+02 -0.43148666396E+02  0.89274509732E+02  0.10062826349E+03  0.00000000000E+00 0. -1.
         22    1    3    3    0    0 -0.10640838420E+03  0.41515080982E+02 -0.47015100958E+01  0.11431688578E+03  0.00000000000E+00 0. -1.
         22    1    3    3    0    0  0.30109342281E+02 -0.10552404481E+02 -0.19267616359E+02  0.37271527646E+02  0.00000000000E+00 0. -1.
</event>
<event>
 7    1  0.6078244E-006  0.7098932E+02  0.7818608E-02  0.1363314E+00
          2   -1    0    0  502    0  0.00000000000E+00  0.00000000000E+00  0.85426409371E+03  0.85426409371E+03  0.00000000000E+00 0. -1.
          1   -1    0    0  501    0 -0.00000000000E+00 -0.00000000000E+00 -0.50608022447E+02  0.50608022447E+02  0.00000000000E+00 0. -1.
         25    2    1    2    0    0  0.40487235546E+02  0.53099494807E+02  0.16821108241E+03  0.21995272602E+03  0.12500184338E+03 0.  0.
          2    1    1    2  501    0 -0.75532980497E+02  0.86360590150E+01  0.41242469287E+02  0.86491351770E+02  0.00000000000E+00 0. -1.
          1    1    1    2  502    0  0.35045744951E+02 -0.61735553822E+02  0.59420251956E+03  0.59842803836E+03  0.00000000000E+00 0. -1.
         22    1    3    3    0    0 -0.42082327523E+02  0.30872312039E+02  0.39621300633E+02  0.65527623216E+02  0.00000000000E+00 0. -1.
         22    1    3    3    0    0  0.82569563069E+02  0.22227182768E+02  0.12858978178E+03  0.15442510281E+03  0.00000000000E+00 0. -1.
</event>
<event>
 7    1  0.6078244E-006  0.9253840E+02  0.7818608E-02  0.1335317E+00
          2   -1    0    0  502    0  0.00000000000E+00  0.00000000000E+00  0.16107285353E+03  0.16107285353E+03  0.00000000000E+00 0. -1.
          1   -1    0    0  501    0 -0.00000000000E+00 -0.00000000000E+00 -0.30289184209E+03  0.30289184209E+03  0.00000000000E+00 0. -1.
         25    2    1    2    0    0  0.56023461372E+02 -0.24665454466E+02 -0.75271047885E+01  0.13939634080E+03  0.12501067816E+03 0.  0.
          2    1    1    2  501    0  0.79849887865E+01 -0.64974939932E+02 -0.19012397373E+03  0.20107866185E+03  0.00000000000E+00 0. -1.
          1    1    1    2  502    0 -0.64008450159E+02  0.89640394398E+02  0.55832089962E+02  0.12348969297E+03  0.00000000000E+00 0. -1.
         22    1    3    3    0    0  0.11503897783E+01 -0.67231062369E+02  0.94569761088E+01  0.67902676980E+02  0.00000000000E+00 0. -1.
         22    1    3    3    0    0  0.54873071594E+02  0.42565607903E+02 -0.16984080897E+02  0.71493663819E+02  0.00000000000E+00 0. -1.
</event>
<event>
 7    1  0.6078244E-006  0.8091203E+02  0.7818608E-02  0.1480501E+00
          2   -1    0    0  502    0  0.00000000000E+00  0.00000000000E+00  0.76900166116E+02  0.76900166116E+02  0.00000000000E+00 0. -1.
          1   -1    0    0  501    0 -0.00000000000E+00 -0.00000000000E+00 -0.74398386979E+03  0.74398386979E+03  0.00000000000E+00 0. -1.
         25    2    1    2    0    0  0.87696690344E+02 -0.28135553402E+02 -0.99164239674E+02  0.18422805291E+03  0.12499644070E+03 0.  0.
          2    1    1    2  501    0 -0.20805055777E+02 -0.11880042823E+02 -0.55750125719E+03  0.55801580401E+03  0.00000000000E+00 0. -1.
          1    1    1    2  502    0 -0.66891634567E+02  0.40015596224E+02 -0.10418206811E+02  0.78640178976E+02  0.00000000000E+00 0. -1.
         22    1    3    3    0    0  0.73845747854E+02  0.10966521050E+02  0.22166844001E+01  0.74688504804E+02  0.00000000000E+00 0. -1.
         22    1    3    3    0    0  0.13850942490E+02 -0.39102074451E+02 -0.10138092407E+03  0.10953954811E+03  0.00000000000E+00 0. -1.
</event>
<event>
 7    1  0.6078244E-006  0.6467834E+02  0.7818608E-02  0.1414646E+00
          2   -1    0    0  502    0  0.00000000000E+00  0.00000000000E+00  0.20271122375E+03  0.20271122375E+03  0.00000000000E+00 0. -1.
          1   -1    0    0  501    0 -0.00000000000E+00 -0.00000000000E+00 -0.59604883154E+03  0.59604883154E+03  0.00000000000E+00 0. -1.
         25    2    1    2    0    0 -0.20249637277E+02  0.16796670267E+02 -0.15533862830E+03  0.20110892868E+03  0.12499014285E+03 0.  0.
          2    1    1    2  501    0  0.68868496468E+02 -0.12826229827E+02 -0.41150145398E+03  0.41742164367E+03  0.00000000000E+00 0. -1.
          1    1    1    2  502    0 -0.48618859191E+02 -0.39704404403E+01  0.17350247449E+03  0.18022948294E+03  0.00000000000E+00 0. -1.
         22    1    3    3    0    0 -0.53879826696E+02  0.53996213782E+02 -0.10741247199E+03  0.13174242280E+03  0.00000000000E+00 0. -1.
         22    1    3    3    0    0  0.33630189419E+02 -0.37199543515E+02 -0.47926156316E+02  0.69366505875E+02  0.00000000000E+00 0. -1.
</event>
<event>
 7    1  0.6078244E-006  0.6167107E+02  0.7818608E-02  0.1463432E+00
          2   -1    0    0  502    0  0.00000000000E+00  0.00000000000E+00  0.12111846695E+04  0.12111846695E+04  0.00000000000E+00 0. -1.
          1   -1    0    0  501    0 -0.00000000000E+00 -0.00000000000E+00 -0.22514336268E+03  0.22514336268E+03  0.00000000000E+00 0. -1.
         25    2    1    2    0    0  0.12630080057E+02 -0.76088554395E+02  0.11340289364E+03  0.18556558016E+03  0.12500152487E+03 0.  0.
          2    1    1    2  501    0 -0.30955752070E+02  0.17395513078E+02 -0.18649520459E+03  0.18984552614E+03  0.00000000000E+00 0. -1.
          1    1    1    2  502    0  0.18325672014E+02  0.58693041316E+02  0.10591336178E+04  0.10609169259E+04  0.00000000000E+00 0. -1.
         22    1    3    3    0    0 -0.61976352766E+01 -0.78069241615E+02  0.13547771480E+03  0.15648459469E+03  0.00000000000E+00 0. -1.
         22    1    3    3    0    0  0.18827715333E+02  0.19806872198E+01 -0.22074821156E+02  0.29080985465E+02  0.00000000000E+00 0. -1.
</event>
<event>
 7    1  0.6078244E-006  0.7086888E+02  0.7818608E-02  0.1463205E+00
          2   -1    0    0  502    0  0.00000000000E+00  0.00000000000E+00  0.34408371919E+04  0.34408371919E+04  0.00000000000E+00 0. -1.
          1   -1    0    0  501    0 -0.00000000000E+00 -0.00000000000E+00 -0.12854207157E+02  0.12854207157E+02  0.00000000000E+00 0. -1.
         25    2    1    2    0    0  0.30874955095E+02  0.28158336865E+02  0.42585161622E+03  0.44578110146E+03  0.12500014637E+03 0.  0.
          2    1    1    2  501    0  0.17021863741E+02  0.25849682905E+02  0.95656520937E+02  0.10053914635E+03  0.00000000000E+00 0. -1.
          1    1    1    2  502    0 -0.47896818836E+02 -0.54008019770E+02  0.29064748476E+04  0.29073711512E+04  0.00000000000E+00 0. -1.
         22    1    3    3    0    0 -0.45216746648E+02  0.18974816610E+01  0.22291960853E+03  0.22746715473E+03  0.00000000000E+00 0.  1.
         22    1    3    3    0    0  0.76091701743E+02  0.26260855204E+02  0.20293200769E+03  0.21831394673E+03  0.00000000000E+00 0.  1.
</event>
<event>
 7    1  0.6078244E-006  0.6822107E+02  0.7818608E-02  0.1423888E+00
          2   -1    0    0  502    0  0.00000000000E+00  0.00000000000E+00  0.65994107290E+03  0.65994107290E+03  0.00000000000E+00 0. -1.
          1   -1    0    0  501    0 -0.00000000000E+00 -0.00000000000E+00 -0.14150113851E+04  0.14150113851E+04  0.00000000000E+00 0. -1.
         25    2    1    2    0    0 -0.56042641702E+01 -0.34214578102E+02  0.96019327841E+02  0.16139111571E+03  0.12500134311E+03 0.  0.
          2    1    1    2  501    0 -0.36514896462E+02 -0.22843032610E+02 -0.13796209748E+04  0.13802931486E+04  0.00000000000E+00 0. -1.
          1    1    1    2  502    0  0.42119160632E+02  0.57057610712E+02  0.52853133477E+03  0.53326819375E+03  0.00000000000E+00 0. -1.
         22    1    3    3    0    0 -0.61300397007E+02  0.49412434269E+01  0.49300136122E+02  0.78820416019E+02  0.00000000000E+00 0.  1.
         22    1    3    3    0    0  0.55696132836E+02 -0.39155821529E+02  0.46719191719E+02  0.82570699690E+02  0.00000000000E+00 0.  1.
</event>
<event>
 7    1  0.6078244E-006  0.8286842E+02  0.7818608E-02  0.1335404E+00
          2   -1    0    0  502    0  0.00000000000E+00  0.00000000000E+00  0.11141319680E+04  0.11141319680E+04  0.00000000000E+00 0. -1.
          1   -1    0    0  501    0 -0.00000000000E+00 -0.00000000000E+00 -0.23716975442E+04  0.23716975442E+04  0.00000000000E+00 0. -1.
         25    2    1    2    0    0  0.14218178134E+03  0.26969551874E+02  0.19372962337E+03  0.27221589023E+03  0.12500923266E+03 0.  0.
          2    1    1    2  501    0 -0.72035090065E+02  0.12117548908E+02 -0.23300513441E+04  0.23311960783E+04  0.00000000000E+00 0. -1.
          1    1    1    2  502    0 -0.70146691275E+02 -0.39087100781E+02  0.87875614462E+03  0.88241754371E+03  0.00000000000E+00 0. -1.
         22    1    3    3    0    0 -0.18084845166E+02  0.18505684957E+02  0.52089919582E+02  0.58162545701E+02  0.00000000000E+00 0. -1.
         22    1    3    3    0    0  0.16026662651E+03  0.84638669168E+01  0.14163970378E+03  0.21405334453E+03  0.00000000000E+00 0. -1.
</event>
<event>
 7    1  0.6558584E-006  0.1774791E+03  0.7818608E-02  0.1315242E+00
          2   -1    0    0  502    0  0.00000000000E+00  0.00000000000E+00  0.13536953140E+04  0.13536953140E+04  0.00000000000E+00 0. -1.
          1   -1    0    0  501    0 -0.00000000000E+00 -0.00000000000E+00 -0.12532675672E+04  0.12532675672E+04  0.00000000000E+00 0. -1.
         25    2    1    2    0    0 -0.13719507421E+03  0.54616803629E+02 -0.17408249894E+03  0.26026196938E+03  0.12500437047E+03 0.  0.
          2    1    1    2  501    0  0.17720500553E+03 -0.46734664776E+02 -0.10276697346E+04  0.10438825730E+04  0.00000000000E+00 0. -1.
          1    1    1    2  502    0 -0.40009931322E+02 -0.78821388523E+01  0.13021799803E+04  0.13028183388E+04  0.00000000000E+00 0. -1.
         22    1    3    3    0    0 -0.78979414816E+02 -0.12613594589E+02 -0.14691083574E+03  0.16727117024E+03  0.00000000000E+00 0.  1.
         22    1    3    3    0    0 -0.58215659397E+02  0.67230398218E+02 -0.27171663202E+02  0.92990799140E+02  0.00000000000E+00 0.  1.
</event>
<event>
 7    1  0.6078244E-006  0.7284511E+02  0.7818608E-02  0.1363608E+00
          2   -1    0    0  502    0  0.00000000000E+00  0.00000000000E+00  0.14616145178E+04  0.14616145178E+04  0.00000000000E+00 0. -1.
          1   -1    0    0  501    0 -0.00000000000E+00 -0.00000000000E+00 -0.12334399341E+03  0.12334399341E+03  0.00000000000E+00 0. -1.
         25    2    1    2    0    0  0.79667046435E+02  0.26986443565E+01  0.47437331523E+03  0.49700071985E+03  0.12500220943E+03 0.  0.
          2    1    1    2  501    0 -0.44932855173E+02 -0.58010832688E+02 -0.98788797107E+02  0.12305870395E+03  0.00000000000E+00 0. -1.
          1    1    1    2  502    0 -0.34734191262E+02  0.55312188332E+02  0.96268600622E+03  0.96489908737E+03  0.00000000000E+00 0. -1.
         22    1    3    3    0    0  0.44127625272E+01  0.50363276723E+02  0.25976970751E+03  0.26464359628E+03  0.00000000000E+00 0.  1.
         22    1    3    3    0    0  0.75254283908E+02 -0.47664632367E+02  0.21460360773E+03  0.23235712357E+03  0.00000000000E+00 0.  1.
</event>
<event>
 7    1  0.6078244E-006  0.1441403E+03  0.7818608E-02  0.1330084E+00
          2   -1    0    0  502    0  0.00000000000E+00  0.00000000000E+00  0.21266409316E+03  0.21266409316E+03  0.00000000000E+00 0. -1.
          1   -1    0    0  501    0 -0.00000000000E+00 -0.00000000000E+00 -0.10622218051E+04  0.10622218051E+04  0.00000000000E+00 0. -1.
         25    2    1    2    0    0  0.11302517659E+03 -0.30869447956E+02 -0.76510067225E+02  0.18763431631E+03  0.12500093164E+03 0.  0.
          2    1    1    2  501    0 -0.12849488423E+03  0.72059803203E+02 -0.92109616506E+03  0.93280313882E+03  0.00000000000E+00 0. -1.
          1    1    1    2  502    0  0.15469707639E+02 -0.41190355247E+02  0.14804852033E+03  0.15444844315E+03  0.00000000000E+00 0. -1.
         22    1    3    3    0    0  0.52728482938E+02 -0.16567998719E+02 -0.10559017934E+03  0.11918086033E+03  0.00000000000E+00 0.  1.
         22    1    3    3    0    0  0.60296693647E+02 -0.14301449238E+02  0.29080112118E+02  0.68453455982E+02  0.00000000000E+00 0.  1.
</event>
<event>
 7    1  0.6078244E-006  0.8756733E+02  0.7818608E-02  0.1370625E+00
          2   -1    0    0  502    0  0.00000000000E+00  0.00000000000E+00  0.75015833651E+02  0.75015833651E+02  0.00000000000E+00 0. -1.
          1   -1    0    0  501    0 -0.00000000000E+00 -0.00000000000E+00 -0.14320613878E+04  0.14320613878E+04  0.00000000000E+00 0. -1.
         25    2    1    2    0    0  0.61371670429E+02 -0.13265876326E+02 -0.11878445395E+03  0.18351392031E+03  0.12500058817E+03 0.  0.
          2    1    1    2  501    0  0.16130298376E+02 -0.48649485163E+02 -0.12219615585E+04  0.12230359804E+04  0.00000000000E+00 0. -1.
          1    1    1    2  502    0 -0.77501968805E+02  0.61915361489E+02 -0.16299541724E+02  0.10052732075E+03  0.00000000000E+00 0. -1.
         22    1    3    3    0    0 -0.22336415744E+02  0.33486729281E+02 -0.17038775558E+02  0.43710369236E+02  0.00000000000E+00 0. -1.
         22    1    3    3    0    0  0.83708086173E+02 -0.46752605607E+02 -0.10174567839E+03  0.13980355108E+03  0.00000000000E+00 0. -1.
</event>
<event>
 7    1  0.6078244E-006  0.5657471E+02  0.7818608E-02  0.1435707E+00
          2   -1    0    0  502    0  0.00000000000E+00  0.00000000000E+00  0.17852886176E+04  0.17852886176E+04  0.00000000000E+00 0. -1.
          1   -1    0    0  501    0 -0.00000000000E+00 -0.00000000000E+00 -0.47899874886E+03  0.47899874886E+03  0.00000000000E+00 0. -1.
         25    2    1    2    0    0 -0.68997480184E+02  0.18690227469E+02  0.75285966859E+02  0.16248538032E+03  0.12499418041E+03 0.  0.
          2    1    1    2  501    0  0.37900232959E+02  0.28608836510E+02 -0.43362179575E+03  0.43621411592E+03  0.00000000000E+00 0. -1.
          1    1    1    2  502    0  0.31097247225E+02 -0.47299063978E+02  0.16646256976E+04  0.16655878702E+04  0.00000000000E+00 0. -1.
         22    1    3    3    0    0 -0.48917144671E+02 -0.14282011210E+02  0.10303068144E+03  0.11494426564E+03  0.00000000000E+00 0.  1.
         22    1    3    3    0    0 -0.20080335513E+02  0.32972238678E+02 -0.27744714577E+02  0.47541114677E+02  0.00000000000E+00 0.  1.
</event>
<event>
 7    1  0.6078244E-006  0.6504367E+02  0.7818608E-02  0.1423025E+00
          2   -1    0    0  502    0  0.00000000000E+00  0.00000000000E+00  0.33436572421E+04  0.33436572421E+04  0.00000000000E+00 0. -1.
          1   -1    0    0  501    0 -0.00000000000E+00 -0.00000000000E+00 -0.16889443359E+02  0.16889443359E+02  0.00000000000E+00 0. -1.
         25    2    1    2    0    0  0.62621809003E+02 -0.57513844616E+02  0.12185987093E+04  0.12279401469E+04  0.12499942683E+03 0.  0.
          2    1    1    2  501    0  0.35489336193E+00  0.45473195673E+02  0.32373548262E+02  0.55821000538E+02  0.00000000000E+00 0. -1.
          1    1    1    2  502    0 -0.62976702365E+02  0.12040648943E+02  0.20757955412E+04  0.20767855380E+04  0.00000000000E+00 0. -1.
         22    1    3    3    0    0  0.77176583836E+02 -0.30478350895E+02  0.11474825726E+04  0.11504787740E+04  0.00000000000E+00 0.  1.
         22    1    3    3    0    0 -0.14554774833E+02 -0.27035493721E+02  0.71116136737E+02  0.77461372926E+02  0.00000000000E+00 0.  1.
</event>
<event>
 7    1  0.6078244E-006  0.5314842E+02  0.7818608E-02  0.1489141E+00
          2   -1    0    0  502    0  0.00000000000E+00  0.00000000000E+00  0.66680577378E+02  0.66680577378E+02  0.00000000000E+00 0. -1.
          1   -1    0    0  501    0 -0.00000000000E+00 -0.00000000000E+00 -0.48976905181E+03  0.48976905181E+03  0.00000000000E+00 0. -1.
         25    2    1    2    0    0  0.21717133799E+02 -0.67836980006E+02 -0.25312721855E+03  0.29114716576E+03  0.12497917268E+03 0.  0.
          2    1    1    2  501    0  0.15438015551E+02  0.30660288538E+02 -0.20123476673E+03  0.20414165905E+03  0.00000000000E+00 0. -1.
          1    1    1    2  502    0 -0.37155149349E+02  0.37176691468E+02  0.31273510848E+02  0.61160804380E+02  0.00000000000E+00 0. -1.
         22    1    3    3    0    0  0.20939682238E+02 -0.51080485711E+02 -0.22025467723E+02  0.59437425425E+02  0.00000000000E+00 0. -1.
         22    1    3    3    0    0  0.77745156039E+00 -0.16756494295E+02 -0.23110175082E+03  0.23170974033E+03  0.00000000000E+00 0. -1.
</event>
<event>
 7    1  0.6078244E-006  0.1325374E+03  0.7818608E-02  0.1228029E+00
          2   -1    0    0  502    0  0.00000000000E+00  0.00000000000E+00  0.37380817255E+03  0.37380817255E+03  0.00000000000E+00 0. -1.
          1   -1    0    0  501    0 -0.00000000000E+00 -0.00000000000E+00 -0.36529797320E+03  0.36529797320E+03  0.00000000000E+00 0. -1.
         25    2    1    2    0    0  0.24867258706E+02  0.39939014136E+01  0.74468560401E+02  0.14765704489E+03  0.12499081812E+03 0.  0.
          2    1    1    2  501    0 -0.14779892819E+03  0.26908527964E+02 -0.29421992896E+03  0.33035429261E+03  0.00000000000E+00 0. -1.
          1    1    1    2  502    0  0.12293166948E+03 -0.30902429378E+02  0.22826156792E+03  0.26109480824E+03  0.00000000000E+00 0. -1.
         22    1    3    3    0    0  0.73358360027E+02  0.20558714807E+02  0.47013416231E+02  0.89523019643E+02  0.00000000000E+00 0.  1.
         22    1    3    3    0    0 -0.48491101321E+02 -0.16564813393E+02  0.27455144170E+02  0.58134025247E+02  0.00000000000E+00 0.  1.
</event>
<event>
 7    1  0.6078244E-006  0.1601074E+03  0.7818608E-02  0.1285733E+00
          2   -1    0    0  502    0  0.00000000000E+00  0.00000000000E+00  0.13795604116E+04  0.13795604116E+04  0.00000000000E+00 0. -1.
          1   -1    0    0  501    0 -0.00000000000E+00 -0.00000000000E+00 -0.63636656420E+02  0.63636656420E+02  0.00000000000E+00 0. -1.
         25    2    1    2    0    0  0.11224162400E+03  0.15496394330E+03  0.61336725346E+03  0.65456668307E+03  0.12500459623E+03 0.  0.
          2    1    1    2  501    0 -0.57237914433E+02 -0.15593280577E+02 -0.10288151580E+02  0.60209428752E+02  0.00000000000E+00 0. -1.
          1    1    1    2  502    0 -0.55003709571E+02 -0.13937066273E+03  0.71284465333E+03  0.72842095624E+03  0.00000000000E+00 0. -1.
         22    1    3    3    0    0 -0.16216348798E+01  0.10324216527E+03  0.29243973907E+03  0.31013315750E+03  0.00000000000E+00 0. -1.
         22    1    3    3    0    0  0.11386325888E+03  0.51721778039E+02  0.32092751439E+03  0.34443352557E+03  0.00000000000E+00 0. -1.
</event>
<event>
 7    1  0.6078244E-006  0.8182404E+02  0.7818608E-02  0.1332830E+00
          2   -1    0    0  502    0  0.00000000000E+00  0.00000000000E+00  0.45225000652E+04  0.45225000652E+04  0.00000000000E+00 0. -1.
          1   -1    0    0  501    0 -0.00000000000E+00 -0.00000000000E+00 -0.35730519850E+04  0.35730519850E+04  0.00000000000E+00 0. -1.
         25    2    1    2    0    0 -0.18119662124E+02 -0.90884321382E+02  0.70073280326E+02  0.17065188139E+03  0.12499407177E+03 0.  0.
          2    1    1    2  501    0  0.70404037950E+02  0.27715593271E+02 -0.35219744705E+04  0.35227871144E+04  0.00000000000E+00 0. -1.
          1    1    1    2  502    0 -0.52284375825E+02  0.63168728111E+02  0.44013492704E+04  0.44021130544E+04  0.00000000000E+00 0. -1.
         22    1    3    3    0    0 -0.54338423357E+02 -0.17647487878E+02 -0.79444333879E+01  0.57681991151E+02  0.00000000000E+00 0.  1.
         22    1    3    3    0    0  0.36218761233E+02 -0.73236833504E+02  0.78017713714E+02  0.11296989024E+03  0.00000000000E+00 0.  1.
</event>
<event>
 7    1  0.6078244E-006  0.2384121E+03  0.7818608E-02  0.1192956E+00
          2   -1    0    0  502    0  0.00000000000E+00  0.00000000000E+00  0.18247326971E+04  0.18247326971E+04  0.00000000000E+00 0. -1.
          1   -1    0    0  501    0 -0.00000000000E+00 -0.00000000000E+00 -0.70163175500E+03  0.70163175500E+03  0.00000000000E+00 0. -1.
         25    2    1    2    0    0 -0.19312092950E+03  0.25546987141E+03  0.13963375082E+04  0.14380343263E+04  0.12499495358E+03 0.  0.
          2    1    1    2  501    0  0.18075858584E+03 -0.15376997855E+03 -0.65310728692E+03  0.69488704181E+03  0.00000000000E+00 0. -1.
          1    1    1    2  502    0  0.12362343664E+02 -0.10169989286E+03  0.37987072083E+03  0.39344308393E+03  0.00000000000E+00 0. -1.
         22    1    3    3    0    0 -0.66400350097E+02  0.15706236333E+03  0.91226993159E+03  0.92807005153E+03  0.00000000000E+00 0.  1.
         22    1    3    3    0    0 -0.12672057940E+03  0.98407508077E+02  0.48406757657E+03  0.50996427480E+03  0.00000000000E+00 0.  1.
</event>
<event>
 7    1  0.6078244E-006  0.1337161E+03  0.7818608E-02  0.1223766E+00
          2   -1    0    0  502    0  0.00000000000E+00  0.00000000000E+00  0.25757237135E+04  0.25757237135E+04  0.00000000000E+00 0. -1.
          1   -1    0    0  501    0 -0.00000000000E+00 -0.00000000000E+00 -0.45001345612E+03  0.45001345612E+03  0.00000000000E+00 0. -1.
         25    2    1    2    0    0 -0.96906445532E+02 -0.20515596717E+02  0.15398964910E+03  0.22169688152E+03  0.12499978541E+03 0.  0.
          2    1    1    2  501    0  0.12134221841E+02  0.13076950161E+03 -0.40371369438E+03  0.42453815956E+03  0.00000000000E+00 0. -1.
          1    1    1    2  502    0  0.84772223691E+02 -0.11025390489E+03  0.23754343027E+04  0.23795021285E+04  0.00000000000E+00 0. -1.
         22    1    3    3    0    0  0.28014028936E+02  0.11695208819E+02  0.25958485966E+02  0.39942542735E+02  0.00000000000E+00 0. -1.
         22    1    3    3    0    0 -0.12492047447E+03 -0.32210805535E+02  0.12803116314E+03  0.18175433879E+03  0.00000000000E+00 0. -1.
</event>
<event>
 7    1  0.6078244E-006  0.9318165E+02  0.7818608E-02  0.1355497E+00
          2   -1    0    0  502    0  0.00000000000E+00  0.00000000000E+00  0.88112400913E+03  0.88112400913E+03  0.00000000000E+00 0. -1.
          1   -1    0    0  501    0 -0.00000000000E+00 -0.00000000000E+00 -0.12313561552E+03  0.12313561552E+03  0.00000000000E+00 0. -1.
         25    2    1    2    0    0 -0.66637947612E-01  0.47777064024E+02  0.19525455384E+03  0.23671005973E+03  0.12499863717E+03 0.  0.
          2    1    1    2  501    0 -0.11476266328E+02  0.53445089764E+02 -0.90874829493E+02  0.10604865367E+03  0.00000000000E+00 0. -1.
          1    1    1    2  502    0  0.11542904276E+02 -0.10122215379E+03  0.65360866926E+03  0.66150091125E+03  0.00000000000E+00 0. -1.
         22    1    3    3    0    0 -0.41125653830E+02  0.69520269434E+02  0.85987986000E+02  0.11797593399E+03  0.00000000000E+00 0.  1.
         22    1    3    3    0    0  0.41059015882E+02 -0.21743205410E+02  0.10926656784E+03  0.11873412573E+03  0.00000000000E+00 0.  1.
</event>
<event>
 7    1  0.6078244E-006  0.6327405E+02  0.7818608E-02  0.1397098E+00
          2   -1    0    0  502    0  0.00000000000E+00  0.00000000000E+00  0.84513939356E+03  0.84513939356E+03  0.00000000000E+00 0. -1.
          1   -1    0    0  501    0 -0.00000000000E+00 -0.00000000000E+00 -0.11436079191E+04  0.11436079191E+04  0.00000000000E+00 0. -1.
         25    2    1    2    0    0 -0.88174245027E+01  0.56177265537E+01 -0.77407748693E+02  0.14739792806E+03  0.12499953524E+03 0.  0.
          2    1    1    2  501    0  0.64380209314E+02  0.80866774647E+01 -0.10291714688E+04  0.10312148747E+04  0.00000000000E+00 0. -1.
          1    1    1    2  502    0 -0.55562784812E+02 -0.13704404018E+02  0.80811069191E+03  0.81013450990E+03  0.00000000000E+00 0. -1.
         22    1    3    3    0    0 -0.52387613816E+01 -0.59389199120E+02 -0.44848279001E+02  0.74604890740E+02  0.00000000000E+00 0.  1.
         22    1    3    3    0    0 -0.35786631210E+01  0.65006925674E+02 -0.32559469691E+02  0.72793037317E+02  0.00000000000E+00 0.  1.
</event>
<event>
 7    1  0.6078244E-006  0.1676446E+03  0.7818608E-02  0.1248937E+00
          2   -1    0    0  502    0  0.00000000000E+00  0.00000000000E+00  0.84199111437E+03  0.84199111437E+03  0.00000000000E+00 0. -1.
          1   -1    0    0  501    0 -0.00000000000E+00 -0.00000000000E+00 -0.91770836632E+03  0.91770836632E+03  0.00000000000E+00 0. -1.
         25    2    1    2    0    0 -0.40470507498E+02  0.19050867795E+03 -0.13327698780E+03  0.26705527889E+03  0.12499739258E+03 0.  0.
          2    1    1    2  501    0  0.76284769918E+02 -0.27224422498E+02 -0.70618716228E+03  0.71081702531E+03  0.00000000000E+00 0. -1.
          1    1    1    2  502    0 -0.35814262419E+02 -0.16328425545E+03  0.76374689814E+03  0.78182717649E+03  0.00000000000E+00 0. -1.
         22    1    3    3    0    0 -0.24662774875E+02 -0.42741389181E+01 -0.47384405324E+02  0.53589202232E+02  0.00000000000E+00 0.  1.
         22    1    3    3    0    0 -0.15807732624E+02  0.19478281687E+03 -0.85892582481E+02  0.21346607665E+03  0.00000000000E+00 0.  1.
</event>
<event>
 7    1  0.6078244E-006  0.3092323E+02  0.7818608E-02  0.1590826E+00
          2   -1    0    0  502    0  0.00000000000E+00  0.00000000000E+00  0.49753326597E+03  0.49753326597E+03  0.00000000000E+00 0. -1.
          1   -1    0    0  501    0 -0.00000000000E+00 -0.00000000000E+00 -0.76410813435E+03  0.76410813435E+03  0.00000000000E+00 0. -1.
         25    2    1    2    0    0 -0.31740410278E+02  0.27269689706E+02 -0.19061040841E+03  0.23175020591E+03  0.12499896209E+03 0.  0.
          2    1    1    2  501    0  0.30802490384E+02  0.31296884442E+01 -0.55200875127E+03  0.55287634227E+03  0.00000000000E+00 0. -1.
          1    1    1    2  502    0  0.93791989387E+00 -0.30399378150E+02  0.47604429129E+03  0.47701485214E+03  0.00000000000E+00 0. -1.
         22    1    3    3    0    0 -0.94231672150E+01 -0.21050421516E+02 -0.17467493025E+03  0.17619094070E+03  0.00000000000E+00 0. -1.
         22    1    3    3    0    0 -0.22317243063E+02  0.48320111222E+02 -0.15935478157E+02  0.55559265209E+02  0.00000000000E+00 0. -1.
</event>
<event>
 7    1  0.6078244E-006  0.8485529E+02  0.7818608E-02  0.1394624E+00
          2   -1    0    0  502    0  0.00000000000E+00  0.00000000000E+00  0.27232890527E+04  0.27232890527E+04  0.00000000000E+00 0. -1.
          1   -1    0    0  501    0 -0.00000000000E+00 -0.00000000000E+00 -0.82047997995E+02  0.82047997995E+02  0.00000000000E+00 0. -1.
         25    2    1    2    0    0  0.67988055372E+02 -0.86407975579E+02  0.68707748499E+02  0.18009821584E+03  0.12500359486E+03 0.  0.
          2    1    1    2  501    0 -0.27725939852E+02  0.69879840046E+02  0.27832514971E+02  0.80165882239E+02  0.00000000000E+00 0. -1.
          1    1    1    2  502    0 -0.40262115520E+02  0.16528135533E+02  0.25447007913E+04  0.25450729527E+04  0.00000000000E+00 0. -1.
         22    1    3    3    0    0 -0.23235880803E+02 -0.68156617176E+02  0.18342618974E+02  0.74308023069E+02  0.00000000000E+00 0.  1.
         22    1    3    3    0    0  0.91223936176E+02 -0.18251358403E+02  0.50365129525E+02  0.10579019277E+03  0.00000000000E+00 0.  1.
</event>
<event>
 7    1  0.6078244E-006  0.9566876E+02  0.7818608E-02  0.1310523E+00
          2   -1    0    0  502    0  0.00000000000E+00  0.00000000000E+00  0.14103137244E+04  0.14103137244E+04  0.00000000000E+00 0. -1.
          1   -1    0    0  501    0 -0.00000000000E+00 -0.00000000000E+00 -0.52312817879E+03  0.52312817879E+03  0.00000000000E+00 0. -1.
         25    2    1    2    0    0 -0.74718629029E+02 -0.29172827627E+02  0.56325531549E+03  0.58250820343E+03  0.12500131695E+03 0.  0.
          2    1    1    2  501    0 -0.23799199714E+02  0.75272532569E+02 -0.50690155442E+03  0.51301222397E+03  0.00000000000E+00 0. -1.
          1    1    1    2  502    0  0.98517828744E+02 -0.46099704942E+02  0.83083178456E+03  0.83792147580E+03  0.00000000000E+00 0. -1.
         22    1    3    3    0    0 -0.61674591246E+01  0.39711808738E+02  0.28392996055E+03  0.28675998292E+03  0.00000000000E+00 0.  1.
         22    1    3    3    0    0 -0.68551169905E+02 -0.68884636366E+02  0.27932535493E+03  0.29574822050E+03  0.00000000000E+00 0.  1.
</event>
<event>
 7    1  0.6078244E-006  0.1899755E+03  0.7818608E-02  0.1301367E+00
          2   -1    0    0  502    0  0.00000000000E+00  0.00000000000E+00  0.19314690155E+04  0.19314690155E+04  0.00000000000E+00 0. -1.
          1   -1    0    0  501    0 -0.00000000000E+00 -0.00000000000E+00 -0.24764659404E+04  0.24764659404E+04  0.00000000000E+00 0. -1.
         25    2    1    2    0    0  0.49334015847E+02 -0.15083437605E+03  0.41230213751E+02  0.20617958654E+03  0.12500094904E+03 0.  0.
          2    1    1    2  501    0 -0.28731010864E+02  0.18883046885E+03 -0.23899221501E+04  0.23975425545E+04  0.00000000000E+00 0. -1.
          1    1    1    2  502    0 -0.20603004983E+02 -0.37996092804E+02  0.18036950115E+04  0.18042128149E+04  0.00000000000E+00 0. -1.
         22    1    3    3    0    0 -0.65771157516E+01 -0.47092647646E+01 -0.32306030902E+02  0.33303382094E+02  0.00000000000E+00 0.  1.
         22    1    3    3    0    0  0.55911131599E+02 -0.14612511128E+03  0.73536244653E+02  0.17287620444E+03  0.00000000000E+00 0.  1.
</event>
<event>
 7    1  0.6078244E-006  0.4019164E+02  0.7818608E-02  0.1564085E+00
          2   -1    0    0  502    0  0.00000000000E+00  0.00000000000E+00  0.17482401974E+02  0.17482401974E+02  0.00000000000E+00 0. -1.
          1   -1    0    0  501    0 -0.00000000000E+00 -0.00000000000E+00 -0.16426682578E+04  0.16426682578E+04  0.00000000000E+00 0. -1.
         25    2    1    2    0    0 -0.52476859963E+02 -0.22926524342E+02 -0.98320662561E+03  0.99277359650E+03  0.12499879566E+03 0.  0.
          2    1    1    2  501    0  0.12691796201E+02  0.24527360166E+02 -0.62238917548E+03  0.62300157210E+03  0.00000000000E+00 0. -1.
          1    1    1    2  502    0  0.39785063762E+02 -0.16008358243E+01 -0.19590054773E+02  0.44375491208E+02  0.00000000000E+00 0. -1.
         22    1    3    3    0    0 -0.10176020799E+02 -0.82581026289E+01 -0.57819657966E+01  0.14324063209E+02  0.00000000000E+00 0. -1.
         22    1    3    3    0    0 -0.42300839164E+02 -0.14668421713E+02 -0.97742465981E+03  0.97844953329E+03  0.00000000000E+00 0. -1.
</event>
<event>
 7    1  0.6078244E-006  0.1238964E+03  0.7818608E-02  0.1248364E+00
          2   -1    0    0  502    0  0.00000000000E+00  0.00000000000E+00  0.10490517305E+04  0.10490517305E+04  0.00000000000E+00 0. -1.
          1   -1    0    0  501    0 -0.00000000000E+00 -0.00000000000E+00 -0.32248884951E+03  0.32248884951E+03  0.00000000000E+00 0. -1.
         25    2    1    2    0    0 -0.49948973929E+02 -0.29053225164E+02 -0.50673488017E+02  0.14673572278E+03  0.12499832024E+03 0.  0.
          2    1    1    2  501    0  0.14069519477E+03  0.91626560312E+02 -0.18870935259E+03  0.25259015052E+03  0.00000000000E+00 0. -1.
          1    1    1    2  502    0 -0.90746220843E+02 -0.62573335147E+02  0.96594572155E+03  0.97221470666E+03  0.00000000000E+00 0. -1.
         22    1    3    3    0    0 -0.30991268276E+02 -0.68304885639E+02  0.59900259032E+01  0.75245574765E+02  0.00000000000E+00 0. -1.
         22    1    3    3    0    0 -0.18957705654E+02  0.39251660474E+02 -0.56663513920E+02  0.71490148016E+02  0.00000000000E+00 0. -1.
</event>
<event>
 7    1  0.6078244E-006  0.3800009E+02  0.7818608E-02  0.1548513E+00
          2   -1    0    0  502    0  0.00000000000E+00  0.00000000000E+00  0.40712773142E+03  0.40712773142E+03  0.00000000000E+00 0. -1.
          1   -1    0    0  501    0 -0.00000000000E+00 -0.00000000000E+00 -0.35953748002E+03  0.35953748002E+03  0.00000000000E+00 0. -1.
         25    2    1    2    0    0  0.54793090679E+02 -0.24710795984E+01  0.32524555258E+03  0.35272881724E+03  0.12499824008E+03 0.  0.
          2    1    1    2  501    0 -0.32040063769E+02 -0.20391195973E+02 -0.34086417909E+03  0.34297340297E+03  0.00000000000E+00 0. -1.
          1    1    1    2  502    0 -0.22753026910E+02  0.22862275571E+02  0.63208877907E+02  0.70962991228E+02  0.00000000000E+00 0. -1.
         22    1    3    3    0    0 -0.25910565835E+02  0.38071217582E+02  0.10249937005E+03  0.11236946156E+03  0.00000000000E+00 0. -1.
         22    1    3    3    0    0  0.80703656514E+02 -0.40542297180E+02  0.22274618252E+03  0.24035935568E+03  0.00000000000E+00 0. -1.
</event>
<event>
 7    1  0.6078244E-006  0.1176859E+03  0.7818608E-02  0.1311586E+00
          2   -1    0    0  502    0  0.00000000000E+00  0.00000000000E+00  0.48677283127E+03  0.48677283127E+03  0.00000000000E+00 0. -1.
          1   -1    0    0  501    0 -0.00000000000E+00 -0.00000000000E+00 -0.12818453544E+04  0.12818453544E+04  0.00000000000E+00 0. -1.
         25    2    1    2    0    0 -0.43095339447E+02  0.10038298073E+03 -0.27656214397E+03  0.32255983697E+03  0.12499711134E+03 0.  0.
          2    1    1    2  501    0 -0.54243652768E+02 -0.33130177383E+02 -0.97368567503E+03  0.97575805212E+03  0.00000000000E+00 0. -1.
          1    1    1    2  502    0  0.97338992215E+02 -0.67252803351E+02  0.45517529588E+03  0.47030029656E+03  0.00000000000E+00 0. -1.
         22    1    3    3    0    0  0.34074153959E+02  0.62921846410E+02 -0.17829899776E+03  0.19212167844E+03  0.00000000000E+00 0.  1.
         22    1    3    3    0    0 -0.77169493406E+02  0.37461134325E+02 -0.98263146206E+02  0.13043815853E+03  0.00000000000E+00 0.  1.
</event>
<event>
 7    1  0.6078244E-006  0.6907343E+02  0.7818608E-02  0.1454703E+00
          2   -1    0    0  502    0  0.00000000000E+00  0.00000000000E+00  0.53227023039E+03  0.53227023039E+03  0.00000000000E+00 0. -1.
          1   -1    0    0  501    0 -0.00000000000E+00 -0.00000000000E+00 -0.68615326480E+03  0.68615326480E+03  0.00000000000E+00 0. -1.
         25    2    1    2    0    0  0.62664860665E+02  0.73117362763E+02 -0.15554428755E+03  0.22158724291E+03  0.12503538432E+03 0.  0.
          2    1    1    2  501    0 -0.31680088813E+02 -0.11728005203E+02 -0.49464075338E+03  0.49579294977E+03  0.00000000000E+00 0. -1.
          1    1    1    2  502    0 -0.30984771852E+02 -0.61389357561E+02  0.49630200653E+03  0.50104330251E+03  0.00000000000E+00 0. -1.
         22    1    3    3    0    0 -0.28706262738E+01  0.37332837841E+02  0.11037590784E+02  0.39036005006E+02  0.00000000000E+00 0. -1.
         22    1    3    3    0    0  0.65535486939E+02  0.35784524922E+02 -0.16658187833E+03  0.18255123791E+03  0.00000000000E+00 0. -1.
</event>
<event>
 7    1  0.6078244E-006  0.1598717E+03  0.7818608E-02  0.1257313E+00
          2   -1    0    0  502    0  0.00000000000E+00  0.00000000000E+00  0.19586953720E+04  0.19586953720E+04  0.00000000000E+00 0. -1.
          1   -1    0    0  501    0 -0.00000000000E+00 -0.00000000000E+00 -0.23545060101E+03  0.23545060101E+03  0.00000000000E+00 0. -1.
         25    2    1    2    0    0 -0.11216272119E+02 -0.22312493801E+03  0.69977813997E+03  0.74513473691E+03  0.12500315295E+03 0.  0.
          2    1    1    2  501    0 -0.11676673007E+02  0.77274127084E+02 -0.20100918866E+03  0.21566717260E+03  0.00000000000E+00 0. -1.
          1    1    1    2  502    0  0.22892945125E+02  0.14585081092E+03  0.12244758197E+04  0.12333440635E+04  0.00000000000E+00 0. -1.
         22    1    3    3    0    0 -0.67724962998E+02 -0.10594627130E+03  0.35732731498E+03  0.37880614177E+03  0.00000000000E+00 0.  1.
         22    1    3    3    0    0  0.56508690880E+02 -0.11717866671E+03  0.34245082500E+03  0.36632859514E+03  0.00000000000E+00 0.  1.
</event>
<event>
 7    1  0.6078244E-006  0.8424185E+02  0.7818608E-02  0.1318792E+00
          2   -1    0    0  502    0  0.00000000000E+00  0.00000000000E+00  0.66661114102E+03  0.66661114102E+03  0.00000000000E+00 0. -1.
          1   -1    0    0  501    0 -0.00000000000E+00 -0.00000000000E+00 -0.19357537389E+03  0.19357537389E+03  0.00000000000E+00 0. -1.
         25    2    1    2    0    0 -0.98749344438E+02  0.39637381884E+01  0.67299931530E+02  0.17297696110E+03  0.12499841616E+03 0.  0.
          2    1    1    2  501    0  0.49993312304E+02  0.66527311569E+02 -0.12468683460E+03  0.14990670826E+03  0.00000000000E+00 0. -1.
          1    1    1    2  502    0  0.48756032134E+02 -0.70491049757E+02  0.53042267020E+03  0.53730284554E+03  0.00000000000E+00 0. -1.
         22    1    3    3    0    0  0.23815800206E+02 -0.21302904795E+02  0.24951350919E+01  0.32050456959E+02  0.00000000000E+00 0.  1.
         22    1    3    3    0    0 -0.12256514464E+03  0.25266642984E+02  0.64804796439E+02  0.14092650415E+03  0.00000000000E+00 0.  1.
</event>
<event>
 7    1  0.6078244E-006  0.2031300E+03  0.7818608E-02  0.1218504E+00
          2   -1    0    0  502    0  0.00000000000E+00  0.00000000000E+00  0.13610914789E+04  0.13610914789E+04  0.00000000000E+00 0. -1.
          1   -1    0    0  501    0 -0.00000000000E+00 -0.00000000000E+00 -0.29076091650E+03  0.29076091650E+03  0.00000000000E+00 0. -1.
         25    2    1    2    0    0 -0.14811846587E+03  0.12071405561E+03 -0.52406143041E+02  0.23427016958E+03  0.12500058149E+03 0.  0.
          2    1    1    2  501    0  0.21521732754E+03 -0.58720101102E+02 -0.60247131790E+02  0.23107631907E+03  0.00000000000E+00 0. -1.
          1    1    1    2  502    0 -0.67098861664E+02 -0.61993954506E+02  0.11829838372E+04  0.11865059068E+04  0.00000000000E+00 0. -1.
         22    1    3    3    0    0 -0.23256528422E+02  0.97241682551E+01 -0.62005862623E+02  0.66933941779E+02  0.00000000000E+00 0.  1.
         22    1    3    3    0    0 -0.12486193745E+03  0.11098988735E+03  0.95997195820E+01  0.16733622780E+03  0.00000000000E+00 0.  1.
</event>
<event>
 7    1  0.6078244E-006  0.1294749E+03  0.7818608E-02  0.1303559E+00
          2   -1    0    0  502    0  0.00000000000E+00  0.00000000000E+00  0.96176415911E+03  0.96176415911E+03  0.00000000000E+00 0. -1.
          1   -1    0    0  501    0 -0.00000000000E+00 -0.00000000000E+00 -0.22305819221E+03  0.22305819221E+03  0.00000000000E+00 0. -1.
         25    2    1    2    0    0 -0.73954660303E+02 -0.46293235936E+01  0.22351396763E+03  0.26659690952E+03  0.12499878409E+03 0.  0.
          2    1    1    2  501    0  0.13189749992E+03  0.27124010966E+02 -0.17747347048E+03  0.22277678331E+03  0.00000000000E+00 0. -1.
          1    1    1    2  502    0 -0.57942839615E+02 -0.22494687372E+02  0.69266546975E+03  0.69544865850E+03  0.00000000000E+00 0. -1.
         22    1    3    3    0    0 -0.13713370451E+01  0.10956194900E+02 -0.13954594947E+02  0.17794647851E+02  0.00000000000E+00 0. -1.
         22    1    3    3    0    0 -0.72583323258E+02 -0.15585518494E+02  0.23746856257E+03  0.24880226167E+03  0.00000000000E+00 0. -1.
</event>
<event>
 7    1  0.6078244E-006  0.8654941E+02  0.7818608E-02  0.1433180E+00
          2   -1    0    0  502    0  0.00000000000E+00  0.00000000000E+00  0.10776629127E+04  0.10776629127E+04  0.00000000000E+00 0. -1.
          1   -1    0    0  501    0 -0.00000000000E+00 -0.00000000000E+00 -0.15574300511E+04  0.15574300511E+04  0.00000000000E+00 0. -1.
         25    2    1    2    0    0 -0.24950551889E+02 -0.60202210903E+02  0.11927866621E+03  0.18465681582E+03  0.12499561264E+03 0.  0.
          2    1    1    2  501    0  0.72775988474E+01  0.86442131622E+02 -0.15232362452E+04  0.15257043829E+04  0.00000000000E+00 0. -1.
          1    1    1    2  502    0  0.17672953041E+02 -0.26239920719E+02  0.92419044059E+03  0.92473176499E+03  0.00000000000E+00 0. -1.
         22    1    3    3    0    0 -0.60949738615E+02 -0.15909838745E+02  0.11010052603E+03  0.12684683456E+03  0.00000000000E+00 0.  1.
         22    1    3    3    0    0  0.35999186727E+02 -0.44292372158E+02  0.91781401809E+01  0.57809981262E+02  0.00000000000E+00 0.  1.
</event>
<event>
 7    1  0.6078244E-006  0.1110701E+03  0.7818608E-02  0.1273164E+00
          2   -1    0    0  502    0  0.00000000000E+00  0.00000000000E+00  0.17880441486E+04  0.17880441486E+04  0.00000000000E+00 0. -1.
          1   -1    0    0  501    0 -0.00000000000E+00 -0.00000000000E+00 -0.12676524883E+03  0.12676524883E+03  0.00000000000E+00 0. -1.
         25    2    1    2    0    0  0.95804075194E+02 -0.65656610419E+02  0.82750834579E+02  0.18965368066E+03  0.12502642381E+03 0.  0.
          2    1    1    2  501    0  0.12482790987E+02  0.95577860466E+02 -0.38818068910E+02  0.10391241483E+03  0.00000000000E+00 0. -1.
          1    1    1    2  502    0 -0.10828686618E+03 -0.29921250047E+02  0.16173461341E+04  0.16212433019E+04  0.00000000000E+00 0. -1.
         22    1    3    3    0    0  0.42837232376E+01  0.32077589693E+02  0.21362774882E+00  0.32363060457E+02  0.00000000000E+00 0. -1.
         22    1    3    3    0    0  0.91520351956E+02 -0.97734200112E+02  0.82537206830E+02  0.15729062021E+03  0.00000000000E+00 0. -1.
</event>
<event>
 7    1  0.6078244E-006  0.8343196E+02  0.7818608E-02  0.1364193E+00
          2   -1    0    0  502    0  0.00000000000E+00  0.00000000000E+00  0.83937334267E+03  0.83937334267E+03  0.00000000000E+00 0. -1.
          1   -1    0    0  501    0 -0.00000000000E+00 -0.00000000000E+00 -0.81178495387E+02  0.81178495387E+02  0.00000000000E+00 0. -1.
         25    2    1    2    0    0  0.50283687507E+02 -0.91165641668E+02  0.45681239415E+03  0.48491481630E+03  0.12500076869E+03 0.  0.
          2    1    1    2  501    0  0.58649366750E+01  0.82942090719E+02 -0.38086989998E+02  0.91457130407E+02  0.00000000000E+00 0. -1.
          1    1    1    2  502    0 -0.56148624182E+02  0.82235509485E+01  0.33946944313E+03  0.34417989135E+03  0.00000000000E+00 0. -1.
         22    1    3    3    0    0  0.15726064655E+02  0.23063815511E+02  0.19744017469E+03  0.19940378953E+03  0.00000000000E+00 0.  1.
         22    1    3    3    0    0  0.34557622852E+02 -0.11422945718E+03  0.25937221946E+03  0.28551102678E+03  0.00000000000E+00 0.  1.
</event>
<event>
 7    1  0.6078244E-006  0.1119028E+03  0.7818608E-02  0.1346281E+00
          2   -1    0    0  502    0  0.00000000000E+00  0.00000000000E+00  0.36852655409E+04  0.36852655409E+04  0.00000000000E+00 0. -1.
          1   -1    0    0  501    0 -0.00000000000E+00 -0.00000000000E+00 -0.31565554603E+03  0.31565554603E+03  0.00000000000E+00 0. -1.
         25    2    1    2    0    0  0.46698455820E+02 -0.53987478500E+02 -0.33011374754E+01  0.14398002818E+03  0.12499582951E+03 0.  0.
          2    1    1    2  501    0 -0.81144205989E+02  0.89168422292E+02 -0.22682118858E+03  0.25687203291E+03  0.00000000000E+00 0. -1.
          1    1    1    2  502    0  0.34445750169E+02 -0.35180943792E+02  0.35997323209E+04  0.36000690258E+04  0.00000000000E+00 0. -1.
         22    1    3    3    0    0  0.27345061260E+02 -0.59454187325E+02 -0.56908572322E+02  0.86724496940E+02  0.00000000000E+00 0.  1.
         22    1    3    3    0    0  0.19353394561E+02  0.54667088254E+01  0.53607434846E+02  0.57255531237E+02  0.00000000000E+00 0.  1.
</event>
<event>
 7    1  0.6078244E-006  0.8185327E+02  0.7818608E-02  0.1328893E+00
          2   -1    0    0  502    0  0.00000000000E+00  0.00000000000E+00  0.11022867839E+04  0.11022867839E+04  0.00000000000E+00 0. -1.
          1   -1    0    0  501    0 -0.00000000000E+00 -0.00000000000E+00 -0.15196139244E+04  0.15196139244E+04  0.00000000000E+00 0. -1.
         25    2    1    2    0    0 -0.52731817228E+02 -0.93469662706E+02  0.19477909263E+03  0.25511015296E+03  0.12500029129E+03 0.  0.
          2    1    1    2  501    0 -0.27024367958E+02  0.73486585690E+02 -0.14864894123E+04  0.14885500891E+04  0.00000000000E+00 0. -1.
          1    1    1    2  502    0  0.79756185187E+02  0.19983077016E+02  0.87438317920E+03  0.87824046622E+03  0.00000000000E+00 0. -1.
         22    1    3    3    0    0 -0.16888623014E+01 -0.81720688731E+02  0.38622921908E+02  0.90403834649E+02  0.00000000000E+00 0. -1.
         22    1    3    3    0    0 -0.51042954927E+02 -0.11748973974E+02  0.15615617073E+03  0.16470631831E+03  0.00000000000E+00 0. -1.
</event>
<event>
 7    1  0.6078244E-006  0.3933453E+02  0.7818608E-02  0.1532995E+00
          2   -1    0    0  502    0  0.00000000000E+00  0.00000000000E+00  0.36261007448E+04  0.36261007448E+04  0.00000000000E+00 0. -1.
          1   -1    0    0  501    0 -0.00000000000E+00 -0.00000000000E+00 -0.25186294472E+04  0.25186294472E+04  0.00000000000E+00 0. -1.
         25    2    1    2    0    0 -0.60667818360E+02  0.38821522710E+02  0.20640442731E+04  0.20690798688E+04  0.12500018871E+03 0.  0.
          2    1    1    2  501    0  0.36759318340E+02 -0.13991960172E+02 -0.25157674466E+04  0.25160748931E+04  0.00000000000E+00 0. -1.
          1    1    1    2  502    0  0.23908500020E+02 -0.24829562538E+02  0.15591944711E+04  0.15595754301E+04  0.00000000000E+00 0. -1.
         22    1    3    3    0    0 -0.44019762614E+02  0.75692331858E+02  0.17818954372E+04  0.17840455201E+04  0.00000000000E+00 0.  1.
         22    1    3    3    0    0 -0.16648055746E+02 -0.36870809148E+02  0.28214883591E+03  0.28503434869E+03  0.00000000000E+00 0.  1.
</event>
<event>
 7    1  0.6078244E-006  0.1056357E+03  0.7818608E-02  0.1276409E+00
          2   -1    0    0  502    0  0.00000000000E+00  0.00000000000E+00  0.20445912410E+04  0.20445912410E+04  0.00000000000E+00 0. -1.
          1   -1    0    0  501    0 -0.00000000000E+00 -0.00000000000E+00 -0.32071260131E+03  0.32071260131E+03  0.00000000000E+00 0. -1.
         25    2    1    2    0    0  0.76701385452E+02 -0.12025361502E+03 -0.20585336009E+03  0.27990103929E+03  0.12499980591E+03 0.  0.
          2    1    1    2  501    0  0.25829673181E+02  0.94784586216E+02 -0.44851471603E+02  0.10799511242E+03  0.00000000000E+00 0. -1.
          1    1    1    2  502    0 -0.10253105863E+03  0.25469028808E+02  0.19745834714E+04  0.19774076906E+04  0.00000000000E+00 0. -1.
         22    1    3    3    0    0  0.31962891819E+02 -0.44610629395E+02 -0.18016923114E+03  0.18834194052E+03  0.00000000000E+00 0.  1.
         22    1    3    3    0    0  0.44738493633E+02 -0.75642985629E+02 -0.25684128950E+02  0.91559098768E+02  0.00000000000E+00 0.  1.
</event>
<event>
 7    1  0.6078244E-006  0.2628046E+03  0.7818608E-02  0.1156734E+00
          2   -1    0    0  502    0  0.00000000000E+00  0.00000000000E+00  0.21223495770E+03  0.21223495770E+03  0.00000000000E+00 0. -1.
          1   -1    0    0  501    0 -0.00000000000E+00 -0.00000000000E+00 -0.77258616298E+03  0.77258616298E+03  0.00000000000E+00 0. -1.
         25    2    1    2    0    0  0.25592115912E+03 -0.65434169528E+02 -0.46391738989E+03  0.54828959069E+03  0.12499944154E+03 0.  0.
          2    1    1    2  501    0 -0.20676476894E+03  0.19669788503E+03 -0.70955200681E+02  0.29406864531E+03  0.00000000000E+00 0. -1.
          1    1    1    2  502    0 -0.49156390174E+02 -0.13126371550E+03 -0.25478614707E+02  0.14246288468E+03  0.00000000000E+00 0. -1.
         22    1    3    3    0    0  0.64528501447E+01  0.17560029555E+02 -0.85387159637E+02  0.87412590305E+02  0.00000000000E+00 0. -1.
         22    1    3    3    0    0  0.24946830897E+03 -0.82994199084E+02 -0.37853023025E+03  0.46087700038E+03  0.00000000000E+00 0. -1.
</event>
<event>
 7    1  0.6078244E-006  0.1001709E+03  0.7818608E-02  0.1333658E+00
          2   -1    0    0  502    0  0.00000000000E+00  0.00000000000E+00  0.46504913125E+03  0.46504913125E+03  0.00000000000E+00 0. -1.
          1   -1    0    0  501    0 -0.00000000000E+00 -0.00000000000E+00 -0.27635957361E+04  0.27635957361E+04  0.00000000000E+00 0. -1.
         25    2    1    2    0    0 -0.28836886894E+02  0.49656636249E+02 -0.53607847120E+02  0.14763384002E+03  0.12499840750E+03 0.  0.
          2    1    1    2  501    0 -0.45638153133E+01 -0.10112820203E+03 -0.26597552637E+04  0.26616810110E+04  0.00000000000E+00 0. -1.
          1    1    1    2  502    0  0.33400702207E+02  0.51471565780E+02  0.41481650594E+03  0.41933001633E+03  0.00000000000E+00 0. -1.
         22    1    3    3    0    0 -0.16924236211E+02  0.18638557925E+02  0.40580987721E+02  0.47756069533E+02  0.00000000000E+00 0. -1.
         22    1    3    3    0    0 -0.11912650683E+02  0.31018078324E+02 -0.94188834841E+02  0.99877770489E+02  0.00000000000E+00 0. -1.
</event>
<event>
 7    1  0.6078244E-006  0.6368477E+02  0.7818608E-02  0.1496474E+00
          2   -1    0    0  502    0  0.00000000000E+00  0.00000000000E+00  0.23770821388E+02  0.23770821388E+02  0.00000000000E+00 0. -1.
          1   -1    0    0  501    0 -0.00000000000E+00 -0.00000000000E+00 -0.16424405077E+04  0.16424405077E+04  0.00000000000E+00 0. -1.
         25    2    1    2    0    0 -0.32364511734E+02  0.45824156173E+02 -0.20609704805E+03  0.24748344445E+03  0.12499898860E+03 0.  0.
          2    1    1    2  501    0  0.11356932852E+02 -0.63144412623E+02 -0.13345463774E+04  0.13360876581E+04  0.00000000000E+00 0. -1.
          1    1    1    2  502    0  0.21007578882E+02  0.17320256451E+02 -0.78026260851E+02  0.82640226503E+02  0.00000000000E+00 0. -1.
         22    1    3    3    0    0 -0.73030210963E+02  0.47053096454E+02 -0.92875533305E+02  0.12717417303E+03  0.00000000000E+00 0. -1.
         22    1    3    3    0    0  0.40665699228E+02 -0.12289402810E+01 -0.11322151475E+03  0.12030927142E+03  0.00000000000E+00 0. -1.
</event>
<event>
 7    1  0.6078244E-006  0.8813049E+02  0.7818608E-02  0.1395752E+00
          2   -1    0    0  502    0  0.00000000000E+00  0.00000000000E+00  0.44378974005E+03  0.44378974005E+03  0.00000000000E+00 0. -1.
          1   -1    0    0  501    0 -0.00000000000E+00 -0.00000000000E+00 -0.10031950181E+04  0.10031950181E+04  0.00000000000E+00 0. -1.
         25    2    1    2    0    0  0.28194726229E+02 -0.66688847408E+02 -0.34644825079E+02  0.14855146547E+03  0.12499971613E+03 0.  0.
          2    1    1    2  501    0  0.40464259910E+02  0.93484921080E+01 -0.90594338206E+03  0.90689479111E+03  0.00000000000E+00 0. -1.
          1    1    1    2  502    0 -0.68658986139E+02  0.57340355300E+02  0.38118292914E+03  0.39153850154E+03  0.00000000000E+00 0. -1.
         22    1    3    3    0    0 -0.49854506509E+02 -0.22849811776E+02 -0.10549073137E+02  0.55846832153E+02  0.00000000000E+00 0.  1.
         22    1    3    3    0    0  0.78049232738E+02 -0.43839035631E+02 -0.24095751943E+02  0.92704633313E+02  0.00000000000E+00 0.  1.
</event>
<event>
 7    1  0.6078244E-006  0.5428686E+02  0.7818608E-02  0.1557894E+00
          2   -1    0    0  502    0  0.00000000000E+00  0.00000000000E+00  0.45372513836E+03  0.45372513836E+03  0.00000000000E+00 0. -1.
          1   -1    0    0  501    0 -0.00000000000E+00 -0.00000000000E+00 -0.41295470234E+02  0.41295470234E+02  0.00000000000E+00 0. -1.
         25    2    1    2    0    0  0.55176415784E+02  0.35807702410E+02  0.16899759315E+03  0.22025491322E+03  0.12500164758E+03 0.  0.
          2    1    1    2  501    0 -0.34201458787E+02 -0.39297225331E+02  0.29677944555E+02  0.59956585083E+02  0.00000000000E+00 0. -1.
          1    1    1    2  502    0 -0.20974956997E+02  0.34895229206E+01  0.21375413042E+03  0.21480911029E+03  0.00000000000E+00 0. -1.
         22    1    3    3    0    0  0.54387489594E+02 -0.33807988431E+02  0.45747253542E+02  0.78700637309E+02  0.00000000000E+00 0.  1.
         22    1    3    3    0    0  0.78892618985E+00  0.69615690841E+02  0.12325033961E+03  0.14155427591E+03  0.00000000000E+00 0.  1.
</event>
<event>
 7    1  0.6078244E-006  0.3451912E+02  0.7818608E-02  0.1628825E+00
          2   -1    0    0  502    0  0.00000000000E+00  0.00000000000E+00  0.44728028911E+03  0.44728028911E+03  0.00000000000E+00 0. -1.
          1   -1    0    0  501    0 -0.00000000000E+00 -0.00000000000E+00 -0.59228191435E+03  0.59228191435E+03  0.00000000000E+00 0. -1.
         25    2    1    2    0    0 -0.39642529889E+02 -0.35452125928E+02 -0.74262418319E+02  0.15481876933E+03  0.12500224459E+03 0.  0.
          2    1    1    2  501    0  0.30414383957E+02  0.15769032403E+02 -0.47683603404E+03  0.47806516344E+03  0.00000000000E+00 0. -1.
          1    1    1    2  502    0  0.92281459323E+01  0.19683093525E+02  0.40609682713E+03  0.40667827069E+03  0.00000000000E+00 0. -1.
         22    1    3    3    0    0  0.19846764998E+02 -0.19538438272E+02  0.25381785024E+02  0.37681290610E+02  0.00000000000E+00 0.  1.
         22    1    3    3    0    0 -0.59489294887E+02 -0.15913687656E+02 -0.99644203343E+02  0.11713747872E+03  0.00000000000E+00 0.  1.
</event>
<event>
 7    1  0.6078244E-006  0.1790140E+03  0.7818608E-02  0.1305958E+00
          2   -1    0    0  502    0  0.00000000000E+00  0.00000000000E+00  0.16070407634E+04  0.16070407634E+04  0.00000000000E+00 0. -1.
          1   -1    0    0  501    0 -0.00000000000E+00 -0.00000000000E+00 -0.10394039594E+04  0.10394039594E+04  0.00000000000E+00 0. -1.
         25    2    1    2    0    0 -0.91544521393E+02  0.12408817064E+03  0.21003526856E+03  0.28899535164E+03  0.12500090296E+03 0.  0.
          2    1    1    2  501    0 -0.43974510007E+02 -0.64085153753E+00 -0.99324652204E+03  0.99421970498E+03  0.00000000000E+00 0. -1.
          1    1    1    2  502    0  0.13551903140E+03 -0.12344731911E+03  0.13508480575E+04  0.13632296662E+04  0.00000000000E+00 0. -1.
         22    1    3    3    0    0 -0.11531578710E+03  0.94007279497E+02  0.12001608464E+03  0.19115166733E+03  0.00000000000E+00 0.  1.
         22    1    3    3    0    0  0.23771265705E+02  0.30080891147E+02  0.90019183919E+02  0.97843684307E+02  0.00000000000E+00 0.  1.
</event>
<event>
 7    1  0.6078244E-006  0.5221533E+02  0.7818608E-02  0.1503365E+00
          2   -1    0    0  502    0  0.00000000000E+00  0.00000000000E+00  0.10509678817E+03  0.10509678817E+03  0.00000000000E+00 0. -1.
          1   -1    0    0  501    0 -0.00000000000E+00 -0.00000000000E+00 -0.42518397660E+03  0.42518397660E+03  0.00000000000E+00 0. -1.
         25    2    1    2    0    0  0.19601494949E+02 -0.44736107578E+02 -0.16462215977E+03  0.21238944677E+03  0.12499313456E+03 0.  0.
          2    1    1    2  501    0  0.25979996775E+02  0.18114263007E+02 -0.22688303332E+03  0.22908294910E+03  0.00000000000E+00 0. -1.
          1    1    1    2  502    0 -0.45581491724E+02  0.26621844571E+02  0.71418004669E+02  0.88808368902E+02  0.00000000000E+00 0. -1.
         22    1    3    3    0    0 -0.28441569516E+02 -0.55151694064E+02 -0.29708107284E+02  0.68798283940E+02  0.00000000000E+00 0.  1.
         22    1    3    3    0    0  0.48043064465E+02  0.10415586486E+02 -0.13491405249E+03  0.14359116283E+03  0.00000000000E+00 0.  1.
</event>
<event>
 7    1  0.6078244E-006  0.9183282E+02  0.7818608E-02  0.1318632E+00
          2   -1    0    0  502    0  0.00000000000E+00  0.00000000000E+00  0.23433091831E+04  0.23433091831E+04  0.00000000000E+00 0. -1.
          1   -1    0    0  501    0 -0.00000000000E+00 -0.00000000000E+00 -0.48602930181E+03  0.48602930181E+03  0.00000000000E+00 0. -1.
         25    2    1    2    0    0 -0.40612569131E+02  0.27560335709E+02  0.67329547972E+03  0.68655715928E+03  0.12499990827E+03 0.  0.
          2    1    1    2  501    0 -0.63936029841E+02 -0.41910983114E+02 -0.47466318082E+03  0.48078007617E+03  0.00000000000E+00 0. -1.
          1    1    1    2  502    0  0.10454859897E+03  0.14350647404E+02  0.16586475824E+04  0.16620012495E+04  0.00000000000E+00 0. -1.
         22    1    3    3    0    0  0.39625776723E+02 -0.14328473813E+02  0.16696946056E+03  0.17220426273E+03  0.00000000000E+00 0.  1.
         22    1    3    3    0    0 -0.80238345854E+02  0.41888809523E+02  0.50632601916E+03  0.51435289655E+03  0.00000000000E+00 0.  1.
</event>
<event>
 7    1  0.6078244E-006  0.1232279E+03  0.7818608E-02  0.1338860E+00
          2   -1    0    0  502    0  0.00000000000E+00  0.00000000000E+00  0.95473804489E+03  0.95473804489E+03  0.00000000000E+00 0. -1.
          1   -1    0    0  501    0 -0.00000000000E+00 -0.00000000000E+00 -0.12347541985E+04  0.12347541985E+04  0.00000000000E+00 0. -1.
         25    2    1    2    0    0  0.60640100449E+02 -0.95101775276E+02  0.14839375454E+03  0.22442640303E+03  0.12499973819E+03 0.  0.
          2    1    1    2  501    0 -0.21108212513E+02  0.12173734895E+03 -0.11928044812E+04  0.11991864196E+04  0.00000000000E+00 0. -1.
          1    1    1    2  502    0 -0.39531887935E+02 -0.26635573670E+02  0.76439457297E+03  0.76587942075E+03  0.00000000000E+00 0. -1.
         22    1    3    3    0    0  0.70201702538E+02 -0.58967879418E+01  0.31755251114E+02  0.77275139085E+02  0.00000000000E+00 0. -1.
         22    1    3    3    0    0 -0.95616020891E+01 -0.89204987334E+02  0.11663850343E+03  0.14715126395E+03  0.00000000000E+00 0. -1.
</event>
<event>
 7    1  0.6078244E-006  0.7216553E+02  0.7818608E-02  0.1356986E+00
          2   -1    0    0  502    0  0.00000000000E+00  0.00000000000E+00  0.10643788421E+04  0.10643788421E+04  0.00000000000E+00 0. -1.
          1   -1    0    0  501    0 -0.00000000000E+00 -0.00000000000E+00 -0.82169087602E+02  0.82169087602E+02  0.00000000000E+00 0. -1.
         25    2    1    2    0    0 -0.87067463973E+02 -0.57161478720E+01  0.44105423456E+03  0.46665735458E+03  0.12500732432E+03 0.  0.
          2    1    1    2  501    0  0.36013821878E+02  0.59674420256E+02 -0.48922438181E+02  0.85155368337E+02  0.00000000000E+00 0. -1.
          1    1    1    2  502    0  0.51053642095E+02 -0.53958272384E+02  0.59007795813E+03  0.59473520679E+03  0.00000000000E+00 0. -1.
         22    1    3    3    0    0 -0.29567267715E+02  0.43271176669E+02  0.31783648170E+03  0.32212830852E+03  0.00000000000E+00 0. -1.
         22    1    3    3    0    0 -0.57500196258E+02 -0.48987324541E+02  0.12321775285E+03  0.14452904606E+03  0.00000000000E+00 0. -1.
</event>
<event>
 7    1  0.6078244E-006  0.5274212E+02  0.7818608E-02  0.1473026E+00
          2   -1    0    0  502    0  0.00000000000E+00  0.00000000000E+00  0.48039474556E+03  0.48039474556E+03  0.00000000000E+00 0. -1.
          1   -1    0    0  501    0 -0.00000000000E+00 -0.00000000000E+00 -0.11161081136E+04  0.11161081136E+04  0.00000000000E+00 0. -1.
         25    2    1    2    0    0 -0.12536037651E+02 -0.78824669224E+02 -0.42379228421E+03  0.44900271138E+03  0.12503221166E+03 0.  0.
          2    1    1    2  501    0  0.27528591707E+02  0.43086030945E+02 -0.67794357247E+03  0.67986889683E+03  0.00000000000E+00 0. -1.
          1    1    1    2  502    0 -0.14992554056E+02  0.35738638279E+02  0.46602248864E+03  0.46763125094E+03  0.00000000000E+00 0. -1.
         22    1    3    3    0    0  0.32195747467E+02 -0.77631266777E+02 -0.36803998237E+03  0.37751371943E+03  0.00000000000E+00 0.  1.
         22    1    3    3    0    0 -0.44731785118E+02 -0.11934024470E+01 -0.55752301843E+02  0.71488991950E+02  0.00000000000E+00 0.  1.
</event>
<event>
 7    1  0.6078244E-006  0.6702683E+02  0.7818608E-02  0.1409535E+00
          2   -1    0    0  502    0  0.00000000000E+00  0.00000000000E+00  0.15964724934E+04  0.15964724934E+04  0.00000000000E+00 0. -1.
          1   -1    0    0  501    0 -0.00000000000E+00 -0.00000000000E+00 -0.41792541473E+03  0.41792541473E+03  0.00000000000E+00 0. -1.
         25    2    1    2    0    0 -0.48290461716E+02 -0.88579071292E+02  0.10641891179E+03  0.19268244152E+03  0.12499327150E+03 0.  0.
          2    1    1    2  501    0  0.46328373330E+01  0.66372076298E+02 -0.37142223195E+03  0.37733432136E+03  0.00000000000E+00 0. -1.
          1    1    1    2  502    0  0.43657624383E+02  0.22206994994E+02  0.14435503988E+04  0.14443811452E+04  0.00000000000E+00 0. -1.
         22    1    3    3    0    0 -0.66501297347E+02 -0.26952681498E+02  0.41188854050E+01  0.71873742116E+02  0.00000000000E+00 0. -1.
         22    1    3    3    0    0  0.18210835631E+02 -0.61626389793E+02  0.10230002639E+03  0.12080869940E+03  0.00000000000E+00 0. -1.
</event>
<event>
 7    1  0.6078244E-006  0.7896209E+02  0.7818608E-02  0.1402960E+00
          2   -1    0    0  502    0  0.00000000000E+00  0.00000000000E+00  0.19938289761E+04  0.19938289761E+04  0.00000000000E+00 0. -1.
          1   -1    0    0  501    0 -0.00000000000E+00 -0.00000000000E+00 -0.85089475503E+02  0.85089475503E+02  0.00000000000E+00 0. -1.
         25    2    1    2    0    0 -0.53268617779E+02  0.71431292607E+02  0.30158967027E+03  0.33840648850E+03  0.12499058781E+03 0.  0.
          2    1    1    2  501    0  0.10041641876E+02 -0.78358707177E+02 -0.42890012297E+02  0.89891460756E+02  0.00000000000E+00 0. -1.
          1    1    1    2  502    0  0.43226975903E+02  0.69274145698E+01  0.16500398426E+04  0.16506205023E+04  0.00000000000E+00 0. -1.
         22    1    3    3    0    0 -0.79503876500E+02  0.63185885766E+02  0.29220399500E+03  0.30934850449E+03  0.00000000000E+00 0.  1.
         22    1    3    3    0    0  0.26235258722E+02  0.82454068417E+01  0.93856752684E+01  0.29057984005E+02  0.00000000000E+00 0.  1.
</event>
<event>
 7    1  0.6078244E-006  0.6357902E+02  0.7818608E-02  0.1490879E+00
          2   -1    0    0  502    0  0.00000000000E+00  0.00000000000E+00  0.37998518856E+03  0.37998518856E+03  0.00000000000E+00 0. -1.
          1   -1    0    0  501    0 -0.00000000000E+00 -0.00000000000E+00 -0.95263090106E+02  0.95263090106E+02  0.00000000000E+00 0. -1.
         25    2    1    2    0    0 -0.58678376252E+02  0.41418581794E+01  0.20047735250E+03  0.24346698248E+03  0.12499878344E+03 0.  0.
          2    1    1    2  501    0  0.55531953857E+02 -0.32317236164E+02 -0.58109811972E+02  0.86631125468E+02  0.00000000000E+00 0. -1.
          1    1    1    2  502    0  0.31464223944E+01  0.28175377985E+02  0.14235455793E+03  0.14515017072E+03  0.00000000000E+00 0. -1.
         22    1    3    3    0    0  0.37740372286E+02  0.85157499621E+01  0.81864260856E+02  0.90546181053E+02  0.00000000000E+00 0. -1.
         22    1    3    3    0    0 -0.96418748538E+02 -0.43738917828E+01  0.11861309164E+03  0.15292080142E+03  0.00000000000E+00 0. -1.
</event>
<event>
 7    1  0.6078244E-006  0.4818792E+02  0.7818608E-02  0.1574131E+00
          2   -1    0    0  502    0  0.00000000000E+00  0.00000000000E+00  0.33303121958E+03  0.33303121958E+03  0.00000000000E+00 0. -1.
          1   -1    0    0  501    0 -0.00000000000E+00 -0.00000000000E+00 -0.18458097634E+03  0.18458097634E+03  0.00000000000E+00 0. -1.
         25    2    1    2    0    0 -0.42253489113E+02 -0.53215652330E+02  0.12952511801E+03  0.19240387352E+03  0.12500092542E+03 0.  0.
          2    1    1    2  501    0  0.24364433144E+02  0.41058096081E+02 -0.14870877680E+03  0.15618480449E+03  0.00000000000E+00 0. -1.
          1    1    1    2  502    0  0.17889055969E+02  0.12157556249E+02  0.16763390203E+03  0.16902351791E+03  0.00000000000E+00 0. -1.
         22    1    3    3    0    0  0.30866856320E+02 -0.14802157322E+02  0.98320377306E+02  0.10410938130E+03  0.00000000000E+00 0.  1.
         22    1    3    3    0    0 -0.73120345433E+02 -0.38413495008E+02  0.31204740709E+02  0.88294492227E+02  0.00000000000E+00 0.  1.
</event>
<event>
 7    1  0.6078244E-006  0.1129321E+03  0.7818608E-02  0.1316638E+00
          2   -1    0    0  502    0  0.00000000000E+00  0.00000000000E+00  0.18053807236E+03  0.18053807236E+03  0.00000000000E+00 0. -1.
          1   -1    0    0  501    0 -0.00000000000E+00 -0.00000000000E+00 -0.20040647606E+04  0.20040647606E+04  0.00000000000E+00 0. -1.
         25    2    1    2    0    0  0.92806634683E+02  0.14204021856E+03 -0.32753479584E+02  0.21327008342E+03  0.12499137141E+03 0.  0.
          2    1    1    2  501    0 -0.42601009114E+02 -0.10350937159E+03 -0.18680768899E+04  0.18714273436E+04  0.00000000000E+00 0. -1.
          1    1    1    2  502    0 -0.50205625570E+02 -0.38530846970E+02  0.77303681199E+02  0.99905405930E+02  0.00000000000E+00 0. -1.
         22    1    3    3    0    0  0.10966545082E+03  0.58724464065E+02 -0.31199150368E+02  0.12825155269E+03  0.00000000000E+00 0.  1.
         22    1    3    3    0    0 -0.16858816138E+02  0.83315754494E+02 -0.15543292160E+01  0.85018530732E+02  0.00000000000E+00 0.  1.
</event>
<event>
 7    1  0.6078244E-006  0.1753864E+03  0.7818608E-02  0.1203553E+00
          2   -1    0    0  502    0  0.00000000000E+00  0.00000000000E+00  0.29479001942E+04  0.29479001942E+04  0.00000000000E+00 0. -1.
          1   -1    0    0  501    0 -0.00000000000E+00 -0.00000000000E+00 -0.22984902701E+03  0.22984902701E+03  0.00000000000E+00 0. -1.
         25    2    1    2    0    0 -0.89653804142E+02  0.42866809881E+01  0.27845835079E+03  0.31815025818E+03  0.12499741368E+03 0.  0.
          2    1    1    2  501    0  0.15451761185E+03 -0.11006512675E+03 -0.16537825196E+03  0.25167437438E+03  0.00000000000E+00 0. -1.
          1    1    1    2  502    0 -0.64863807707E+02  0.10577844576E+03  0.26049710683E+04  0.26079245886E+04  0.00000000000E+00 0. -1.
         22    1    3    3    0    0  0.70780636919E+01  0.47351038771E+02  0.92674485861E+02  0.10431097827E+03  0.00000000000E+00 0.  1.
         22    1    3    3    0    0 -0.96731867834E+02 -0.43064357783E+02  0.18578386493E+03  0.21383927991E+03  0.00000000000E+00 0.  1.
</event>
<event>
 7    1  0.6078244E-006  0.2047804E+02  0.7818608E-02  0.1737508E+00
          2   -1    0    0  502    0  0.00000000000E+00  0.00000000000E+00  0.55774802023E+02  0.55774802023E+02  0.00000000000E+00 0. -1.
          1   -1    0    0  501    0 -0.00000000000E+00 -0.00000000000E+00 -0.49056840524E+03  0.49056840524E+03  0.00000000000E+00 0. -1.
         25    2    1    2    0    0 -0.14744723203E+02  0.29102499965E+01 -0.31606642503E+03  0.34021888045E+03  0.12500010067E+03 0.  0.
          2    1    1    2  501    0  0.12016240247E+02  0.17385201184E+02 -0.15928978719E+03  0.16068562958E+03  0.00000000000E+00 0. -1.
          1    1    1    2  502    0  0.27284829551E+01 -0.20295451181E+02  0.40562608998E+02  0.45438697237E+02  0.00000000000E+00 0. -1.
         22    1    3    3    0    0  0.53675786830E+02  0.12374017537E+02 -0.11267036439E+03  0.12541458214E+03  0.00000000000E+00 0.  1.
         22    1    3    3    0    0 -0.68420510033E+02 -0.94637675401E+01 -0.20339606064E+03  0.21480429831E+03  0.00000000000E+00 0.  1.
</event>
<event>
 7    1  0.6078244E-006  0.1140973E+03  0.7818608E-02  0.1298998E+00
          2   -1    0    0  502    0  0.00000000000E+00  0.00000000000E+00  0.24822068823E+04  0.24822068823E+04  0.00000000000E+00 0. -1.
          1   -1    0    0  501    0 -0.00000000000E+00 -0.00000000000E+00 -0.10597852753E+03  0.10597852753E+03  0.00000000000E+00 0. -1.
         25    2    1    2    0    0  0.48886874315E+01  0.49469338954E+02  0.34233688838E+03  0.36781789819E+03  0.12499738527E+03 0.  0.
          2    1    1    2  501    0  0.16432371451E+01  0.73536846043E+02 -0.76650477862E+02  0.10623400449E+03  0.00000000000E+00 0. -1.
          1    1    1    2  502    0 -0.65319245766E+01 -0.12300618500E+03  0.21105419443E+04  0.21141335072E+04  0.00000000000E+00 0. -1.
         22    1    3    3    0    0 -0.42298874701E+02  0.11883746422E+02  0.27034249690E+03  0.27388954682E+03  0.00000000000E+00 0.  1.
         22    1    3    3    0    0  0.47187562132E+02  0.37585592531E+02  0.71994391480E+02  0.93928351366E+02  0.00000000000E+00 0.  1.
</event>
<event>
 7    1  0.6078244E-006  0.5332522E+02  0.7818608E-02  0.1457775E+00
          2   -1    0    0  502    0  0.00000000000E+00  0.00000000000E+00  0.19737697956E+04  0.19737697956E+04  0.00000000000E+00 0. -1.
          1   -1    0    0  501    0 -0.00000000000E+00 -0.00000000000E+00 -0.21939715863E+03  0.21939715863E+03  0.00000000000E+00 0. -1.
         25    2    1    2    0    0 -0.36527548328E+02 -0.38947603447E+02  0.88960539063E+02  0.16244856074E+03  0.12499751907E+03 0.  0.
          2    1    1    2  501    0  0.40282735178E+02 -0.14423890308E+02 -0.17975427427E+03  0.18477647708E+03  0.00000000000E+00 0. -1.
          1    1    1    2  502    0 -0.37551868504E+01  0.53371493755E+02  0.18451663722E+04  0.18459419164E+04  0.00000000000E+00 0. -1.
         22    1    3    3    0    0 -0.32464962825E+00  0.41074908624E+02  0.57805296998E+01  0.41480935855E+02  0.00000000000E+00 0.  1.
         22    1    3    3    0    0 -0.36202898700E+02 -0.80022512070E+02  0.83180009363E+02  0.12096762488E+03  0.00000000000E+00 0.  1.
</event>
<event>
 7    1  0.6078244E-006  0.6435578E+02  0.7818608E-02  0.1473418E+00
          2   -1    0    0  502    0  0.00000000000E+00  0.00000000000E+00  0.18069051705E+03  0.18069051705E+03  0.00000000000E+00 0. -1.
          1   -1    0    0  501    0 -0.00000000000E+00 -0.00000000000E+00 -0.15247801131E+03  0.15247801131E+03  0.00000000000E+00 0. -1.
         25    2    1    2    0    0  0.61214329184E+01 -0.53250067321E+02 -0.15476561811E+01  0.13601132847E+03  0.12499457837E+03 0.  0.
          2    1    1    2  501    0  0.31621014393E+02 -0.18195892146E+01 -0.70164350083E+02  0.76982046470E+02  0.00000000000E+00 0. -1.
          1    1    1    2  502    0 -0.37742447311E+02  0.55069656536E+02  0.99924512002E+02  0.12017515342E+03  0.00000000000E+00 0. -1.
         22    1    3    3    0    0 -0.57714444128E+02 -0.13281986846E+02  0.91972742850E+01  0.59932946614E+02  0.00000000000E+00 0.  1.
         22    1    3    3    0    0  0.63835877046E+02 -0.39968080476E+02 -0.10744930466E+02  0.76078381857E+02  0.00000000000E+00 0.  1.
</event>
<event>
 7    1  0.1167170E-005  0.4119148E+02  0.7818608E-02  0.1523740E+00
          2   -1    0    0  502    0  0.00000000000E+00  0.00000000000E+00  0.11492717841E+04  0.11492717841E+04  0.00000000000E+00 0. -1.
          1   -1    0    0  501    0 -0.00000000000E+00 -0.00000000000E+00 -0.23597074032E+04  0.23597074032E+04  0.00000000000E+00 0. -1.
         25    2    1    2    0    0  0.22966307756E+02 -0.85068952470E+01 -0.39053022333E+03  0.41077760037E+03  0.12499825226E+03 0.  0.
          2    1    1    2  501    0 -0.93505255174E+01  0.40741383633E+02 -0.19585617105E+04  0.19590077250E+04  0.00000000000E+00 0. -1.
          1    1    1    2  502    0 -0.13615782239E+02 -0.32234488386E+02  0.11386563148E+04  0.11391938619E+04  0.00000000000E+00 0. -1.
         22    1    3    3    0    0  0.63306475476E+02  0.30835502562E+02 -0.19678160714E+03  0.20900128938E+03  0.00000000000E+00 0.  1.
         22    1    3    3    0    0 -0.40340167720E+02 -0.39342397809E+02 -0.19374861619E+03  0.20177631098E+03  0.00000000000E+00 0.  1.
</event>
<event>
 7    1  0.6078244E-006  0.4400736E+02  0.7818608E-02  0.1537446E+00
          2   -1    0    0  502    0  0.00000000000E+00  0.00000000000E+00  0.38855314524E+03  0.38855314524E+03  0.00000000000E+00 0. -1.
          1   -1    0    0  501    0 -0.00000000000E+00 -0.00000000000E+00 -0.18343073739E+04  0.18343073739E+04  0.00000000000E+00 0. -1.
         25    2    1    2    0    0  0.25448746918E+02  0.30789047047E+02 -0.11017716617E+04  0.11095582686E+04  0.12499261109E+03 0.  0.
          2    1    1    2  501    0 -0.45496931080E+02 -0.85742088439E+01 -0.72732330378E+03  0.72879535949E+03  0.00000000000E+00 0. -1.
          1    1    1    2  502    0  0.20048184163E+02 -0.22214838203E+02  0.38334073683E+03  0.38450689102E+03  0.00000000000E+00 0. -1.
         22    1    3    3    0    0  0.37247026219E+02 -0.81939249077E+01 -0.10103773796E+03  0.10799586039E+03  0.00000000000E+00 0. -1.
         22    1    3    3    0    0 -0.11798279301E+02  0.38982971955E+02 -0.10007339237E+04  0.10015624082E+04  0.00000000000E+00 0. -1.
</event>
<event>
 7    1  0.6078244E-006  0.1984676E+03  0.7818608E-02  0.1237150E+00
          2   -1    0    0  502    0  0.00000000000E+00  0.00000000000E+00  0.58355594313E+02  0.58355594313E+02  0.00000000000E+00 0. -1.
          1   -1    0    0  501    0 -0.00000000000E+00 -0.00000000000E+00 -0.19141696325E+04  0.19141696325E+04  0.00000000000E+00 0. -1.
         25    2    1    2    0    0 -0.13715467183E+03 -0.13512811714E+03 -0.36576609165E+03  0.43183539199E+03  0.12500383963E+03 0.  0.
          2    1    1    2  501    0  0.79375234899E+02  0.18613368510E+03 -0.14265495304E+04  0.14408295316E+04  0.00000000000E+00 0. -1.
          1    1    1    2  502    0  0.57779436931E+02 -0.51005567964E+02 -0.63498416131E+02  0.99860303157E+02  0.00000000000E+00 0. -1.
         22    1    3    3    0    0 -0.65905565452E+02 -0.60154189959E+02 -0.29056560200E+03  0.30395795629E+03  0.00000000000E+00 0. -1.
         22    1    3    3    0    0 -0.71249106378E+02 -0.74973927177E+02 -0.75200489656E+02  0.12787743570E+03  0.00000000000E+00 0. -1.
</event>
<event>
 7    1  0.6078244E-006  0.7541975E+02  0.7818608E-02  0.1424991E+00
          2   -1    0    0  502    0  0.00000000000E+00  0.00000000000E+00  0.22117635248E+04  0.22117635248E+04  0.00000000000E+00 0. -1.
          1   -1    0    0  501    0 -0.00000000000E+00 -0.00000000000E+00 -0.19687168340E+03  0.19687168340E+03  0.00000000000E+00 0. -1.
         25    2    1    2    0    0 -0.16358527168E+02 -0.49888487676E+02  0.18765317595E+02  0.13687022305E+03  0.12499943280E+03 0.  0.
          2    1    1    2  501    0 -0.38565931094E+02 -0.22812518631E+01 -0.13442539641E+03  0.13986680217E+03  0.00000000000E+00 0. -1.
          1    1    1    2  502    0  0.54924458262E+02  0.52169739539E+02  0.21305519202E+04  0.21318981829E+04  0.00000000000E+00 0. -1.
         22    1    3    3    0    0  0.49615200231E+02 -0.47740864892E+02  0.16596855617E+02  0.70825940805E+02  0.00000000000E+00 0. -1.
         22    1    3    3    0    0 -0.65973727399E+02 -0.21476227838E+01  0.21684619775E+01  0.66044282249E+02  0.00000000000E+00 0. -1.
</event>
<event>
 7    1  0.6362591E-006  0.5793487E+02  0.7818608E-02  0.1408614E+00
          2   -1    0    0  502    0  0.00000000000E+00  0.00000000000E+00  0.67507683695E+03  0.67507683695E+03  0.00000000000E+00 0. -1.
          1   -1    0    0  501    0 -0.00000000000E+00 -0.00000000000E+00 -0.10221842342E+04  0.10221842342E+04  0.00000000000E+00 0. -1.
         25    2    1    2    0    0 -0.20423424336E+02  0.42905862157E+02 -0.47358140904E+03  0.49210025232E+03  0.12500111230E+03 0.  0.
          2    1    1    2  501    0 -0.36851213785E+02 -0.51627396679E+02 -0.53621024817E+03  0.53994891452E+03  0.00000000000E+00 0. -1.
          1    1    1    2  502    0  0.57274638122E+02  0.87215345214E+01  0.66268425993E+03  0.66521190435E+03  0.00000000000E+00 0. -1.
         22    1    3    3    0    0 -0.60760958298E+02  0.63677716517E+02 -0.32875600615E+03  0.34033403770E+03  0.00000000000E+00 0. -1.
         22    1    3    3    0    0  0.40337533962E+02 -0.20771854359E+02 -0.14482540288E+03  0.15176621462E+03  0.00000000000E+00 0. -1.
</event>
<event>
 7    1  0.6078244E-006  0.1077125E+03  0.7818608E-02  0.1447738E+00
          2   -1    0    0  502    0  0.00000000000E+00  0.00000000000E+00  0.56613924045E+02  0.56613924045E+02  0.00000000000E+00 0. -1.
          1   -1    0    0  501    0 -0.00000000000E+00 -0.00000000000E+00 -0.18037914479E+04  0.18037914479E+04  0.00000000000E+00 0. -1.
         25    2    1    2    0    0 -0.29339311605E+02 -0.11825750194E+03 -0.11103487059E+04  0.11239861147E+04  0.12499962081E+03 0.  0.
          2    1    1    2  501    0 -0.11881450561E+02  0.19461478385E+02 -0.62864286149E+03  0.62905624972E+03  0.00000000000E+00 0. -1.
          1    1    1    2  502    0  0.41220762166E+02  0.98796023557E+02 -0.81859563942E+01  0.10736300753E+03  0.00000000000E+00 0. -1.
         22    1    3    3    0    0 -0.59202814320E+02 -0.84721810588E+02 -0.99257798862E+03  0.99794479903E+03  0.00000000000E+00 0. -1.
         22    1    3    3    0    0  0.29863502716E+02 -0.33535691354E+02 -0.11777071731E+03  0.12604131562E+03  0.00000000000E+00 0. -1.
</event>
<event>
 7    1  0.6078244E-006  0.2978761E+03  0.7818608E-02  0.1254287E+00
          2   -1    0    0  502    0  0.00000000000E+00  0.00000000000E+00  0.99904683127E+03  0.99904683127E+03  0.00000000000E+00 0. -1.
          1   -1    0    0  501    0 -0.00000000000E+00 -0.00000000000E+00 -0.27129022412E+04  0.27129022412E+04  0.00000000000E+00 0. -1.
         25    2    1    2    0    0 -0.15794074888E+03 -0.29376449678E+03 -0.12402948958E+04  0.12904247801E+04  0.12498729907E+03 0.  0.
          2    1    1    2  501    0 -0.19484276404E+01  0.43175394207E+02 -0.14245270807E+04  0.14251825549E+04  0.00000000000E+00 0. -1.
          1    1    1    2  502    0  0.15988917652E+03  0.25058910258E+03  0.95096656657E+03  0.99634173747E+03  0.00000000000E+00 0. -1.
         22    1    3    3    0    0 -0.15672989074E+03 -0.29452057506E+03 -0.10852662857E+04  0.11353895977E+04  0.00000000000E+00 0.  1.
         22    1    3    3    0    0 -0.12108581381E+01  0.75607827713E+00 -0.15502861011E+03  0.15503518241E+03  0.00000000000E+00 0.  1.
</event>
<event>
 7    1  0.6078244E-006  0.1103551E+03  0.7818608E-02  0.1384859E+00
          2   -1    0    0  502    0  0.00000000000E+00  0.00000000000E+00  0.24602119209E+03  0.24602119209E+03  0.00000000000E+00 0. -1.
          1   -1    0    0  501    0 -0.00000000000E+00 -0.00000000000E+00 -0.82767506763E+03  0.82767506763E+03  0.00000000000E+00 0. -1.
         25    2    1    2    0    0 -0.45420400334E+02 -0.61681102255E+02 -0.91391291931E+01  0.14688701467E+03  0.12499880101E+03 0.  0.
          2    1    1    2  501    0  0.61564388334E+02  0.94080210201E+02 -0.74354125528E+03  0.75199392163E+03  0.00000000000E+00 0. -1.
          1    1    1    2  502    0 -0.16143988000E+02 -0.32399107946E+02  0.17102650893E+03  0.17481532342E+03  0.00000000000E+00 0. -1.
         22    1    3    3    0    0 -0.64614668666E+02 -0.53394995737E+02 -0.52390689415E+02  0.98847687449E+02  0.00000000000E+00 0.  1.
         22    1    3    3    0    0  0.19194268333E+02 -0.82861065188E+01  0.43251560222E+02  0.48039327219E+02  0.00000000000E+00 0.  1.
</event>
<event>
 7    1  0.6078244E-006  0.4915293E+02  0.7818608E-02  0.1473802E+00
          2   -1    0    0  502    0  0.00000000000E+00  0.00000000000E+00  0.94493419106E+03  0.94493419106E+03  0.00000000000E+00 0. -1.
          1   -1    0    0  501    0 -0.00000000000E+00 -0.00000000000E+00 -0.81444105225E+03  0.81444105225E+03  0.00000000000E+00 0. -1.
         25    2    1    2    0    0  0.16401634757E+02  0.18737438207E+02  0.43808994422E+03  0.45625530879E+03  0.12500400939E+03 0.  0.
          2    1    1    2  501    0 -0.21498078166E+02  0.35329958632E+02 -0.80334361054E+03  0.80440744025E+03  0.00000000000E+00 0. -1.
          1    1    1    2  502    0  0.50964434099E+01 -0.54067396839E+02  0.49574680513E+03  0.49871249426E+03  0.00000000000E+00 0. -1.
         22    1    3    3    0    0  0.59263269525E+02  0.36968516919E+02  0.16428902037E+03  0.17852083512E+03  0.00000000000E+00 0. -1.
         22    1    3    3    0    0 -0.42861634768E+02 -0.18231078712E+02  0.27380092384E+03  0.27773447367E+03  0.00000000000E+00 0. -1.
</event>
<event>
 7    1  0.6078244E-006  0.5303873E+02  0.7818608E-02  0.1461304E+00
          2   -1    0    0  502    0  0.00000000000E+00  0.00000000000E+00  0.45748966567E+03  0.45748966567E+03  0.00000000000E+00 0. -1.
          1   -1    0    0  501    0 -0.00000000000E+00 -0.00000000000E+00 -0.19185052502E+04  0.19185052502E+04  0.00000000000E+00 0. -1.
         25    2    1    2    0    0  0.33357476431E+02 -0.22887173284E+02  0.27451524408E+02  0.13422169869E+03  0.12500133708E+03 0.  0.
          2    1    1    2  501    0 -0.41845375012E+01  0.53003039961E+02 -0.18635729688E+04  0.18643312589E+04  0.00000000000E+00 0. -1.
          1    1    1    2  502    0 -0.29172938930E+02 -0.30115866677E+02  0.37510585988E+03  0.37744195833E+03  0.00000000000E+00 0. -1.
         22    1    3    3    0    0  0.48601147770E+02  0.42193568608E+02  0.99452647217E+01  0.65125087998E+02  0.00000000000E+00 0.  1.
         22    1    3    3    0    0 -0.15243671339E+02 -0.65080741892E+02  0.17506259686E+02  0.69096610693E+02  0.00000000000E+00 0.  1.
</event>
<event>
 7    1  0.6078244E-006  0.4283921E+02  0.7818608E-02  0.1565707E+00
          2   -1    0    0  502    0  0.00000000000E+00  0.00000000000E+00  0.84793926873E+03  0.84793926873E+03  0.00000000000E+00 0. -1.
          1   -1    0    0  501    0 -0.00000000000E+00 -0.00000000000E+00 -0.37478833750E+02  0.37478833750E+02  0.00000000000E+00 0. -1.
         25    2    1    2    0    0 -0.18841139469E+02 -0.11278252013E+02  0.15854413145E+03  0.20308348179E+03  0.12499788580E+03 0.  0.
          2    1    1    2  501    0 -0.24569817423E+02  0.73525093983E+01 -0.31327291496E+01  0.25836975725E+02  0.00000000000E+00 0. -1.
          1    1    1    2  502    0  0.43410956892E+02  0.39257426150E+01  0.65504903267E+03  0.65649764496E+03  0.00000000000E+00 0. -1.
         22    1    3    3    0    0  0.35382595486E+02 -0.21717576364E+02  0.74029128222E+01  0.42170894047E+02  0.00000000000E+00 0.  1.
         22    1    3    3    0    0 -0.54223734955E+02  0.10439324351E+02  0.15114121863E+03  0.16091258774E+03  0.00000000000E+00 0.  1.
</event>
<event>
 7    1  0.6078244E-006  0.4885925E+02  0.7818608E-02  0.1523494E+00
          2   -1    0    0  502    0  0.00000000000E+00  0.00000000000E+00  0.10085957806E+03  0.10085957806E+03  0.00000000000E+00 0. -1.
          1   -1    0    0  501    0 -0.00000000000E+00 -0.00000000000E+00 -0.23448672968E+03  0.23448672968E+03  0.00000000000E+00 0. -1.
         25    2    1    2    0    0  0.33273193150E+02 -0.34857215093E+02 -0.10389599367E+03  0.16949654328E+03  0.12495026954E+03 0.  0.
          2    1    1    2  501    0 -0.49468166827E+02  0.10141535909E+02 -0.87463886969E+02  0.10099446422E+03  0.00000000000E+00 0. -1.
          1    1    1    2  502    0  0.16194973677E+02  0.24715679184E+02  0.57732729018E+02  0.64855300244E+02  0.00000000000E+00 0. -1.
         22    1    3    3    0    0  0.47893940399E+02 -0.63143132891E+02 -0.22942289530E+02  0.82505959828E+02  0.00000000000E+00 0.  1.
         22    1    3    3    0    0 -0.14620747248E+02  0.28285917798E+02 -0.80953704136E+02  0.86990583451E+02  0.00000000000E+00 0.  1.
</event>
<event>
 7    1  0.6078244E-006  0.1477122E+03  0.7818608E-02  0.1305592E+00
          2   -1    0    0  502    0  0.00000000000E+00  0.00000000000E+00  0.46723297412E+03  0.46723297412E+03  0.00000000000E+00 0. -1.
          1   -1    0    0  501    0 -0.00000000000E+00 -0.00000000000E+00 -0.15699904701E+03  0.15699904701E+03  0.00000000000E+00 0. -1.
         25    2    1    2    0    0  0.90983362109E+02 -0.87095148233E+02 -0.32081570812E+02  0.18032154080E+03  0.12499237523E+03 0.  0.
          2    1    1    2  501    0  0.47425523548E+02  0.24711775309E+02 -0.15116115718E+02  0.55572916759E+02  0.00000000000E+00 0. -1.
          1    1    1    2  502    0 -0.13840888566E+03  0.62383372924E+02  0.35743161365E+03  0.38833756357E+03  0.00000000000E+00 0. -1.
         22    1    3    3    0    0  0.86079121332E+02 -0.20680006897E+02  0.25667265325E+02  0.92174217240E+02  0.00000000000E+00 0.  1.
         22    1    3    3    0    0  0.49042407763E+01 -0.66415141336E+02 -0.57748836136E+02  0.88147323563E+02  0.00000000000E+00 0.  1.
</event>
<event>
 7    1  0.6078244E-006  0.7838924E+02  0.7818608E-02  0.1400551E+00
          2   -1    0    0  502    0  0.00000000000E+00  0.00000000000E+00  0.45738364205E+03  0.45738364205E+03  0.00000000000E+00 0. -1.
          1   -1    0    0  501    0 -0.00000000000E+00 -0.00000000000E+00 -0.73531963686E+02  0.73531963686E+02  0.00000000000E+00 0. -1.
         25    2    1    2    0    0 -0.59512688084E+01 -0.10136616240E+03  0.15861269248E+03  0.22603984053E+03  0.12500202722E+03 0.  0.
          2    1    1    2  501    0 -0.29088767364E+02  0.34262386100E+02 -0.19280466976E+02  0.48906072167E+02  0.00000000000E+00 0. -1.
          1    1    1    2  502    0  0.35040036172E+02  0.67103776302E+02  0.24451945286E+03  0.25596969304E+03  0.00000000000E+00 0. -1.
         22    1    3    3    0    0 -0.41572999249E+02  0.10588988374E+02  0.51792181528E+02  0.67252293706E+02  0.00000000000E+00 0. -1.
         22    1    3    3    0    0  0.35621730441E+02 -0.11195515078E+03  0.10682051095E+03  0.15878754682E+03  0.00000000000E+00 0. -1.
</event>
<event>
 7    1  0.6078244E-006  0.1550206E+03  0.7818608E-02  0.1257469E+00
          2   -1    0    0  502    0  0.00000000000E+00  0.00000000000E+00  0.10033488656E+04  0.10033488656E+04  0.00000000000E+00 0. -1.
          1   -1    0    0  501    0 -0.00000000000E+00 -0.00000000000E+00 -0.32283930932E+03  0.32283930932E+03  0.00000000000E+00 0. -1.
         25    2    1    2    0    0 -0.99491925034E+02  0.55685135858E+02  0.23779509604E+03  0.29184123784E+03  0.12500129160E+03 0.  0.
          2    1    1    2  501    0  0.85069231286E+02 -0.13485533875E+03 -0.27190733141E+03  0.31520839674E+03  0.00000000000E+00 0. -1.
          1    1    1    2  502    0  0.14422693747E+02  0.79170202893E+02  0.71462179164E+03  0.71913854034E+03  0.00000000000E+00 0. -1.
         22    1    3    3    0    0 -0.33734545042E+02  0.84269175430E+02  0.17221415377E+03  0.19467159068E+03  0.00000000000E+00 0. -1.
         22    1    3    3    0    0 -0.65757379992E+02 -0.28584039572E+02  0.65580942271E+02  0.97169647169E+02  0.00000000000E+00 0. -1.
</event>
<event>
 7    1  0.6078244E-006  0.9994885E+02  0.7818608E-02  0.1360674E+00
          2   -1    0    0  502    0  0.00000000000E+00  0.00000000000E+00  0.11750696350E+04  0.11750696350E+04  0.00000000000E+00 0. -1.
          1   -1    0    0  501    0 -0.00000000000E+00 -0.00000000000E+00 -0.14281570664E+03  0.14281570664E+03  0.00000000000E+00 0. -1.
         25    2    1    2    0    0 -0.56373871823E+02 -0.42774287918E+02  0.46587435910E+03  0.48751478313E+03  0.12499636862E+03 0.  0.
          2    1    1    2  501    0  0.99463617571E+02  0.19896481565E+02 -0.11150137707E+03  0.15073632040E+03  0.00000000000E+00 0. -1.
          1    1    1    2  502    0 -0.43089745748E+02  0.22877806353E+02  0.67788094634E+03  0.67963423812E+03  0.00000000000E+00 0. -1.
         22    1    3    3    0    0 -0.46672386233E+02 -0.41528700607E+02  0.47190606686E+03  0.47602340336E+03  0.00000000000E+00 0. -1.
         22    1    3    3    0    0 -0.97014855904E+01 -0.12455873111E+01 -0.60317077575E+01  0.11491379764E+02  0.00000000000E+00 0. -1.
</event>
<event>
 7    1  0.6078244E-006  0.5146255E+02  0.7818608E-02  0.1545208E+00
          2   -1    0    0  502    0  0.00000000000E+00  0.00000000000E+00  0.31868062900E+03  0.31868062900E+03  0.00000000000E+00 0. -1.
          1   -1    0    0  501    0 -0.00000000000E+00 -0.00000000000E+00 -0.93505184697E+03  0.93505184697E+03  0.00000000000E+00 0. -1.
         25    2    1    2    0    0 -0.14891759274E+02 -0.70803109134E+02 -0.24631355836E+03  0.28553273033E+03  0.12499490510E+03 0.  0.
          2    1    1    2  501    0  0.18940045919E+02  0.46811928011E+02 -0.66767881372E+03  0.66958575271E+03  0.00000000000E+00 0. -1.
          1    1    1    2  502    0 -0.40482866458E+01  0.23991181122E+02  0.29762115412E+03  0.29861399293E+03  0.00000000000E+00 0. -1.
         22    1    3    3    0    0  0.46800343978E+02 -0.17054965750E+01 -0.50254213921E+02  0.68692553685E+02  0.00000000000E+00 0.  1.
         22    1    3    3    0    0 -0.61692103252E+02 -0.69097612559E+02 -0.19605934444E+03  0.21684017665E+03  0.00000000000E+00 0.  1.
</event>
<event>
 7    1  0.6078244E-006  0.1601307E+03  0.7818608E-02  0.1316661E+00
          2   -1    0    0  502    0  0.00000000000E+00  0.00000000000E+00  0.17486948974E+04  0.17486948974E+04  0.00000000000E+00 0. -1.
          1   -1    0    0  501    0 -0.00000000000E+00 -0.00000000000E+00 -0.11093465803E+04  0.11093465803E+04  0.00000000000E+00 0. -1.
         25    2    1    2    0    0  0.14465496743E+03 -0.34939336448E+02  0.17943151809E+03  0.26451143750E+03  0.12499925622E+03 0.  0.
          2    1    1    2  501    0 -0.13965731157E+03  0.79282414076E+02 -0.10604336905E+04  0.10725248146E+04  0.00000000000E+00 0. -1.
          1    1    1    2  502    0 -0.49976558589E+01 -0.44343077628E+02  0.15203504896E+04  0.15210052256E+04  0.00000000000E+00 0. -1.
         22    1    3    3    0    0  0.72425797026E+02  0.13005509381E+01  0.16792900321E+03  0.18288613295E+03  0.00000000000E+00 0.  1.
         22    1    3    3    0    0  0.72229170400E+02 -0.36239887386E+02  0.11502514879E+02  0.81625304550E+02  0.00000000000E+00 0.  1.
</event>
<event>
 7    1  0.6078244E-006  0.7457545E+02  0.7818608E-02  0.1365789E+00
          2   -1    0    0  502    0  0.00000000000E+00  0.00000000000E+00  0.37284852862E+03  0.37284852862E+03  0.00000000000E+00 0. -1.
          1   -1    0    0  501    0 -0.00000000000E+00 -0.00000000000E+00 -0.15652909724E+03  0.15652909724E+03  0.00000000000E+00 0. -1.
         25    2    1    2    0    0 -0.10106086087E+03  0.25209553281E+02  0.28543107442E+02  0.16519389388E+03  0.12500197765E+03 0.  0.
          2    1    1    2  501    0  0.67101773528E+02  0.27435787338E+02 -0.68875767311E+02  0.99996208729E+02  0.00000000000E+00 0. -1.
          1    1    1    2  502    0  0.33959087340E+02 -0.52645340619E+02  0.25665209125E+03  0.26418752326E+03  0.00000000000E+00 0. -1.
         22    1    3    3    0    0 -0.40140925975E+02  0.50092724999E+02  0.63828930351E+02  0.90524623091E+02  0.00000000000E+00 0.  1.
         22    1    3    3    0    0 -0.60919934893E+02 -0.24883171719E+02 -0.35285822909E+02  0.74669270792E+02  0.00000000000E+00 0.  1.
</event>
<event>
 7    1  0.6078244E-006  0.7429438E+02  0.7818608E-02  0.1360797E+00
          2   -1    0    0  502    0  0.00000000000E+00  0.00000000000E+00  0.74616732843E+03  0.74616732843E+03  0.00000000000E+00 0. -1.
          1   -1    0    0  501    0 -0.00000000000E+00 -0.00000000000E+00 -0.20691753128E+04  0.20691753128E+04  0.00000000000E+00 0. -1.
         25    2    1    2    0    0 -0.90505828427E+02  0.16351033251E+02  0.21356738221E+03  0.26399692472E+03  0.12499875300E+03 0.  0.
          2    1    1    2  501    0  0.61131694383E+02  0.42265681620E+02 -0.20411633338E+04  0.20425159063E+04  0.00000000000E+00 0. -1.
          1    1    1    2  502    0  0.29374134044E+02 -0.58616714871E+02  0.50458796730E+03  0.50882981021E+03  0.00000000000E+00 0. -1.
         22    1    3    3    0    0  0.31415949728E+02  0.14571997822E+00  0.54741469076E+02  0.63115858294E+02  0.00000000000E+00 0. -1.
         22    1    3    3    0    0 -0.12192177815E+03  0.16205313273E+02  0.15882591313E+03  0.20088106643E+03  0.00000000000E+00 0. -1.
</event>
<event>
 7    1  0.6078244E-006  0.6352685E+02  0.7818608E-02  0.1444480E+00
          2   -1    0    0  502    0  0.00000000000E+00  0.00000000000E+00  0.40908576332E+03  0.40908576332E+03  0.00000000000E+00 0. -1.
          1   -1    0    0  501    0 -0.00000000000E+00 -0.00000000000E+00 -0.84808418484E+03  0.84808418484E+03  0.00000000000E+00 0. -1.
         25    2    1    2    0    0  0.75169971115E+02 -0.17374732809E+02  0.26606540514E+02  0.14928326014E+03  0.12500071144E+03 0.  0.
          2    1    1    2  501    0 -0.45807272213E+02  0.43953931307E+02 -0.78423712474E+03  0.78680246700E+03  0.00000000000E+00 0. -1.
          1    1    1    2  502    0 -0.29362698902E+02 -0.26579198498E+02  0.31863216270E+03  0.32108422102E+03  0.00000000000E+00 0. -1.
         22    1    3    3    0    0  0.39415567754E+02  0.33950025050E+02  0.59151492757E+02  0.78772395404E+02  0.00000000000E+00 0. -1.
         22    1    3    3    0    0  0.35754403361E+02 -0.51324757859E+02 -0.32544952244E+02  0.70510864734E+02  0.00000000000E+00 0. -1.
</event>
<event>
 7    1  0.6078244E-006  0.1634157E+03  0.7818608E-02  0.1372546E+00
          2   -1    0    0  502    0  0.00000000000E+00  0.00000000000E+00  0.75577563617E+03  0.75577563617E+03  0.00000000000E+00 0. -1.
          1   -1    0    0  501    0 -0.00000000000E+00 -0.00000000000E+00 -0.81907735388E+03  0.81907735388E+03  0.00000000000E+00 0. -1.
         25    2    1    2    0    0 -0.15886998716E+03  0.26997844664E+02  0.31841459692E+03  0.37812111254E+03  0.12497665295E+03 0.  0.
          2    1    1    2  501    0  0.16352313532E+03 -0.36893805626E+00 -0.78029102395E+03  0.79724151546E+03  0.00000000000E+00 0. -1.
          1    1    1    2  502    0 -0.46531481640E+01 -0.26628906608E+02  0.39857470933E+03  0.39949036205E+03  0.00000000000E+00 0. -1.
         22    1    3    3    0    0 -0.11328372360E+03  0.52685398050E+02  0.12113100524E+03  0.17401630278E+03  0.00000000000E+00 0.  1.
         22    1    3    3    0    0 -0.45586263554E+02 -0.25687553386E+02  0.19728359168E+03  0.20410480976E+03  0.00000000000E+00 0.  1.
</event>
<event>
 7    1  0.6078244E-006  0.1169777E+03  0.7818608E-02  0.1324174E+00
          2   -1    0    0  502    0  0.00000000000E+00  0.00000000000E+00  0.25303018116E+04  0.25303018116E+04  0.00000000000E+00 0. -1.
          1   -1    0    0  501    0 -0.00000000000E+00 -0.00000000000E+00 -0.12516659639E+03  0.12516659639E+03  0.00000000000E+00 0. -1.
         25    2    1    2    0    0 -0.11467602623E+03 -0.88522619958E+02  0.46499810938E+02  0.19691286689E+03  0.12500239794E+03 0.  0.
          2    1    1    2  501    0  0.57560069685E+02  0.89400934709E+02  0.73559992521E+01  0.10658236005E+03  0.00000000000E+00 0. -1.
          1    1    1    2  502    0  0.57115956548E+02 -0.87831475002E+00  0.23512794051E+04  0.23519731811E+04  0.00000000000E+00 0. -1.
         22    1    3    3    0    0  0.32430549963E+01 -0.72156241776E+02  0.15069586878E+02  0.73784368817E+02  0.00000000000E+00 0. -1.
         22    1    3    3    0    0 -0.11791908123E+03 -0.16366378182E+02  0.31430224059E+02  0.12312849807E+03  0.00000000000E+00 0. -1.
</event>
<event>
 7    1  0.6078244E-006  0.1191297E+03  0.7818608E-02  0.1290518E+00
          2   -1    0    0  502    0  0.00000000000E+00  0.00000000000E+00  0.19330705085E+04  0.19330705085E+04  0.00000000000E+00 0. -1.
          1   -1    0    0  501    0 -0.00000000000E+00 -0.00000000000E+00 -0.57147694179E+03  0.57147694179E+03  0.00000000000E+00 0. -1.
         25    2    1    2    0    0  0.78797401392E+02  0.17334459161E+03  0.22158313282E+03  0.31777697800E+03  0.12500298033E+03 0.  0.
          2    1    1    2  501    0 -0.43304531035E+02 -0.62730181375E+02 -0.51856211845E+03  0.52413455215E+03  0.00000000000E+00 0. -1.
          1    1    1    2  502    0 -0.35492870358E+02 -0.11061441023E+03  0.16585725524E+04  0.16626359202E+04  0.00000000000E+00 0. -1.
         22    1    3    3    0    0  0.98755347534E+02  0.10100478339E+03  0.18902309948E+03  0.23597524673E+03  0.00000000000E+00 0. -1.
         22    1    3    3    0    0 -0.19957946142E+02  0.72339808222E+02  0.32560033344E+02  0.81801731273E+02  0.00000000000E+00 0. -1.
</event>
<event>
 7    1  0.6078244E-006  0.1173744E+03  0.7818608E-02  0.1337053E+00
          2   -1    0    0  502    0  0.00000000000E+00  0.00000000000E+00  0.10200415081E+04  0.10200415081E+04  0.00000000000E+00 0. -1.
          1   -1    0    0  501    0 -0.00000000000E+00 -0.00000000000E+00 -0.10001703613E+04  0.10001703613E+04  0.00000000000E+00 0. -1.
         25    2    1    2    0    0 -0.78405996636E+02  0.35680888346E+02  0.29945968283E+03  0.33574001508E+03  0.12499851992E+03 0.  0.
          2    1    1    2  501    0  0.79967073167E+02 -0.86494186130E+02 -0.97756993952E+03  0.98464154070E+03  0.00000000000E+00 0. -1.
          1    1    1    2  502    0 -0.15610765311E+01  0.50813297785E+02  0.69798140355E+03  0.69983031364E+03  0.00000000000E+00 0. -1.
         22    1    3    3    0    0 -0.63684062836E+02  0.74435401414E+02  0.13926174237E+03  0.17026485760E+03  0.00000000000E+00 0. -1.
         22    1    3    3    0    0 -0.14721933800E+02 -0.38754513069E+02  0.16019794046E+03  0.16547515749E+03  0.00000000000E+00 0. -1.
</event>
<event>
 7    1  0.6083478E-006  0.4566630E+02  0.7818608E-02  0.1487708E+00
          2   -1    0    0  502    0  0.00000000000E+00  0.00000000000E+00  0.12535006793E+04  0.12535006793E+04  0.00000000000E+00 0. -1.
          1   -1    0    0  501    0 -0.00000000000E+00 -0.00000000000E+00 -0.40272530792E+03  0.40272530792E+03  0.00000000000E+00 0. -1.
         25    2    1    2    0    0  0.30493679129E+02 -0.32737864830E+02 -0.10988895608E+03  0.17234337350E+03  0.12500009384E+03 0.  0.
          2    1    1    2  501    0 -0.46643294824E+02 -0.42434250509E+01 -0.25917655968E+03  0.26337443440E+03  0.00000000000E+00 0. -1.
          1    1    1    2  502    0  0.16149615694E+02  0.36981289880E+02  0.12198408871E+04  0.12205081793E+04  0.00000000000E+00 0. -1.
         22    1    3    3    0    0  0.12648975686E+02 -0.42840058577E+01  0.27680298572E+02  0.30733503236E+02  0.00000000000E+00 0. -1.
         22    1    3    3    0    0  0.17844703443E+02 -0.28453858972E+02 -0.13756925465E+03  0.14160987026E+03  0.00000000000E+00 0. -1.
</event>
<event>
 7    1  0.6078244E-006  0.9531004E+02  0.7818608E-02  0.1344489E+00
          2   -1    0    0  502    0  0.00000000000E+00  0.00000000000E+00  0.10887225398E+04  0.10887225398E+04  0.00000000000E+00 0. -1.
          1   -1    0    0  501    0 -0.00000000000E+00 -0.00000000000E+00 -0.42962753377E+02  0.42962753377E+02  0.00000000000E+00 0. -1.
         25    2    1    2    0    0  0.82902869735E+02  0.10543930917E+03  0.24105930200E+03  0.30286209972E+03  0.12500212255E+03 0.  0.
          2    1    1    2  501    0 -0.41059995611E+02 -0.64263806755E+02  0.12384720535E+03  0.14544377048E+03  0.00000000000E+00 0. -1.
          1    1    1    2  502    0 -0.41842874124E+02 -0.41175502411E+02  0.68085327909E+03  0.68337942299E+03  0.00000000000E+00 0. -1.
         22    1    3    3    0    0 -0.16342103271E+02  0.51370842536E+02  0.14444649378E+03  0.15417787574E+03  0.00000000000E+00 0. -1.
         22    1    3    3    0    0  0.99244973006E+02  0.54068466631E+02  0.96612808221E+02  0.14868422399E+03  0.00000000000E+00 0. -1.
</event>
<event>
 7    1  0.6078244E-006  0.4391294E+02  0.7818608E-02  0.1488598E+00
          2   -1    0    0  502    0  0.00000000000E+00  0.00000000000E+00  0.40063380073E+04  0.40063380073E+04  0.00000000000E+00 0. -1.
          1   -1    0    0  501    0 -0.00000000000E+00 -0.00000000000E+00 -0.15717347056E+03  0.15717347056E+03  0.00000000000E+00 0. -1.
         25    2    1    2    0    0  0.51224930593E+01 -0.32389041489E+02  0.19674112068E+04  0.19716508532E+04  0.12499976078E+03 0.  0.
          2    1    1    2  501    0  0.35970408199E+02  0.25270103781E+02 -0.15171975917E+03  0.15795991179E+03  0.00000000000E+00 0. -1.
          1    1    1    2  502    0 -0.41092901258E+02  0.71189377089E+01  0.20334730890E+04  0.20339007128E+04  0.00000000000E+00 0. -1.
         22    1    3    3    0    0 -0.40660716264E+02 -0.35350520428E+02  0.40523868066E+03  0.40880477180E+03  0.00000000000E+00 0. -1.
         22    1    3    3    0    0  0.45783209324E+02  0.29614789390E+01  0.15621725262E+04  0.15628460814E+04  0.00000000000E+00 0. -1.
</event>
<event>
 7    1  0.6078244E-006  0.4690761E+02  0.7818608E-02  0.1467449E+00
          2   -1    0    0  502    0  0.00000000000E+00  0.00000000000E+00  0.10202816373E+04  0.10202816373E+04  0.00000000000E+00 0. -1.
          1   -1    0    0  501    0 -0.00000000000E+00 -0.00000000000E+00 -0.15252667797E+02  0.15252667797E+02  0.00000000000E+00 0. -1.
         25    2    1    2    0    0  0.70164354094E+01  0.55175865294E+01  0.56415441077E+03  0.57790521578E+03  0.12499826045E+03 0.  0.
          2    1    1    2  501    0 -0.33724884175E+02 -0.42170845079E+02  0.99079720299E+02  0.11283855264E+03  0.00000000000E+00 0. -1.
          1    1    1    2  502    0  0.26708448765E+02  0.36653258549E+02  0.34179483849E+03  0.34479053672E+03  0.00000000000E+00 0. -1.
         22    1    3    3    0    0 -0.50594875506E+02  0.22383567461E+02  0.15950659982E+03  0.16882896939E+03  0.00000000000E+00 0. -1.
         22    1    3    3    0    0  0.57611310915E+02 -0.16865980931E+02  0.40464781094E+03  0.40907624639E+03  0.00000000000E+00 0. -1.
</event>
<event>
 7    1  0.6078244E-006  0.6639506E+02  0.7818608E-02  0.1438332E+00
          2   -1    0    0  502    0  0.00000000000E+00  0.00000000000E+00  0.28227414115E+03  0.28227414115E+03  0.00000000000E+00 0. -1.
          1   -1    0    0  501    0 -0.00000000000E+00 -0.00000000000E+00 -0.23202516431E+03  0.23202516431E+03  0.00000000000E+00 0. -1.
         25    2    1    2    0    0  0.26408667694E+00 -0.49064009421E+02  0.66660166293E+01  0.13444977761E+03  0.12499984064E+03 0.  0.
          2    1    1    2  501    0  0.39007397140E+02 -0.72365472486E+01 -0.16008347747E+03  0.16492623929E+03  0.00000000000E+00 0. -1.
          1    1    1    2  502    0 -0.39271483817E+02  0.56300556670E+02  0.20366643769E+03  0.21492328855E+03  0.00000000000E+00 0. -1.
         22    1    3    3    0    0 -0.17403839598E+01  0.12493744459E+02 -0.49507984206E+02  0.51089755207E+02  0.00000000000E+00 0. -1.
         22    1    3    3    0    0  0.20044706368E+01 -0.61557753880E+02  0.56174000836E+02  0.83360022404E+02  0.00000000000E+00 0. -1.
</event>
<event>
 7    1  0.6078244E-006  0.9633348E+02  0.7818608E-02  0.1481192E+00
          2   -1    0    0  502    0  0.00000000000E+00  0.00000000000E+00  0.94258412586E+03  0.94258412586E+03  0.00000000000E+00 0. -1.
          1   -1    0    0  501    0 -0.00000000000E+00 -0.00000000000E+00 -0.57739400319E+03  0.57739400319E+03  0.00000000000E+00 0. -1.
         25    2    1    2    0    0  0.60675528484E+02 -0.51464883195E+02  0.94572929708E+02  0.17578197578E+03  0.12500044006E+03 0.  0.
          2    1    1    2  501    0  0.19627514055E+02 -0.39693130561E+01 -0.53365282417E+03  0.53402839953E+03  0.00000000000E+00 0. -1.
          1    1    1    2  502    0 -0.80303042539E+02  0.55434196251E+02  0.80427001713E+03  0.81016775375E+03  0.00000000000E+00 0. -1.
         22    1    3    3    0    0  0.81658509168E+02  0.13453477569E+01  0.85497091110E+02  0.11823567426E+03  0.00000000000E+00 0. -1.
         22    1    3    3    0    0 -0.20982980684E+02 -0.52810230952E+02  0.90758385974E+01  0.57546301513E+02  0.00000000000E+00 0. -1.
</event>
<event>
 7    1  0.6078244E-006  0.4851378E+02  0.7818608E-02  0.1479917E+00
          2   -1    0    0  502    0  0.00000000000E+00  0.00000000000E+00  0.23031541509E+04  0.23031541509E+04  0.00000000000E+00 0. -1.
          1   -1    0    0  501    0 -0.00000000000E+00 -0.00000000000E+00 -0.56546831124E+02  0.56546831124E+02  0.00000000000E+00 0. -1.
         25    2    1    2    0    0  0.59914690788E+02 -0.29687907336E+02  0.20292356874E+03  0.24753240493E+03  0.12499269870E+03 0.  0.
          2    1    1    2  501    0 -0.47290817091E+02 -0.83970768280E+01 -0.17107887038E+02  0.50986391118E+02  0.00000000000E+00 0. -1.
          1    1    1    2  502    0 -0.12623873698E+02  0.38084984164E+02  0.20607916381E+04  0.20611821860E+04  0.00000000000E+00 0. -1.
         22    1    3    3    0    0  0.48491785377E+02 -0.58126724276E+01  0.21351149498E+03  0.21902602333E+03  0.00000000000E+00 0. -1.
         22    1    3    3    0    0  0.11422905411E+02 -0.23875234909E+02 -0.10587926239E+02  0.28506381601E+02  0.00000000000E+00 0. -1.
</event>
<event>
 7    1  0.6078244E-006  0.1013299E+03  0.7818608E-02  0.1289341E+00
          2   -1    0    0  502    0  0.00000000000E+00  0.00000000000E+00  0.70600962496E+03  0.70600962496E+03  0.00000000000E+00 0. -1.
          1   -1    0    0  501    0 -0.00000000000E+00 -0.00000000000E+00 -0.22641752712E+03  0.22641752712E+03  0.00000000000E+00 0. -1.
         25    2    1    2    0    0 -0.72266193211E+01 -0.62544980013E+02 -0.17984296426E+02  0.14111123908E+03  0.12499939330E+03 0.  0.
          2    1    1    2  501    0  0.90597650280E+02 -0.14310422713E+01 -0.12808291612E+03  0.15689236922E+03  0.00000000000E+00 0. -1.
          1    1    1    2  502    0 -0.83371030959E+02  0.63976022284E+02  0.62565931038E+03  0.63442354377E+03  0.00000000000E+00 0. -1.
         22    1    3    3    0    0  0.41236044917E+02 -0.76517095042E+02  0.17828600461E+01  0.86939380168E+02  0.00000000000E+00 0.  1.
         22    1    3    3    0    0 -0.48462664238E+02  0.13972115030E+02 -0.19767156472E+02  0.54171858916E+02  0.00000000000E+00 0.  1.
</event>
<event>
 7    1  0.6078244E-006  0.1524570E+03  0.7818608E-02  0.1291909E+00
          2   -1    0    0  502    0  0.00000000000E+00  0.00000000000E+00  0.27010626393E+03  0.27010626393E+03  0.00000000000E+00 0. -1.
          1   -1    0    0  501    0 -0.00000000000E+00 -0.00000000000E+00 -0.11490717772E+04  0.11490717772E+04  0.00000000000E+00 0. -1.
         25    2    1    2    0    0  0.32686187226E+02 -0.11720868636E+03 -0.15891382130E+03  0.23597588201E+03  0.12499900519E+03 0.  0.
          2    1    1    2  501    0 -0.43140461108E+02 -0.39944439591E+02 -0.92380386120E+03  0.92567285344E+03  0.00000000000E+00 0. -1.
          1    1    1    2  502    0  0.10454273882E+02  0.15715312596E+03  0.20375216920E+03  0.25752930570E+03  0.00000000000E+00 0. -1.
         22    1    3    3    0    0  0.55247482086E+02 -0.65832104608E+02 -0.23048845590E+02  0.88979770493E+02  0.00000000000E+00 0. -1.
         22    1    3    3    0    0 -0.22561294860E+02 -0.51376581757E+02 -0.13586497571E+03  0.14699611152E+03  0.00000000000E+00 0. -1.
</event>
<event>
 7    1  0.6078244E-006  0.7269598E+02  0.7818608E-02  0.1429667E+00
          2   -1    0    0  502    0  0.00000000000E+00  0.00000000000E+00  0.34100033328E+03  0.34100033328E+03  0.00000000000E+00 0. -1.
          1   -1    0    0  501    0 -0.00000000000E+00 -0.00000000000E+00 -0.19777729867E+04  0.19777729867E+04  0.00000000000E+00 0. -1.
         25    2    1    2    0    0 -0.23858634041E+02 -0.10814082787E+03  0.42879757593E+02  0.17241615430E+03  0.12499993433E+03 0.  0.
          2    1    1    2  501    0  0.19921246615E+02  0.69662157337E+02 -0.19107105851E+04  0.19120838403E+04  0.00000000000E+00 0. -1.
          1    1    1    2  502    0  0.39373874267E+01  0.38478670535E+02  0.23105817417E+03  0.23427332532E+03  0.00000000000E+00 0. -1.
         22    1    3    3    0    0 -0.96030463250E+01  0.24059589054E+02 -0.12024314192E+02  0.28559874929E+02  0.00000000000E+00 0. -1.
         22    1    3    3    0    0 -0.14255587716E+02 -0.13220041693E+03  0.54904071785E+02  0.14385627937E+03  0.00000000000E+00 0. -1.
</event>
<event>
 7    1  0.6078244E-006  0.4715108E+02  0.7818608E-02  0.1497070E+00
          2   -1    0    0  502    0  0.00000000000E+00  0.00000000000E+00  0.80318014950E+03  0.80318014950E+03  0.00000000000E+00 0. -1.
          1   -1    0    0  501    0 -0.00000000000E+00 -0.00000000000E+00 -0.10582704382E+04  0.10582704382E+04  0.00000000000E+00 0. -1.
         25    2    1    2    0    0 -0.72284605023E+02  0.16349851574E+02 -0.65245791175E+02  0.15929137184E+03  0.12499738440E+03 0.  0.
          2    1    1    2  501    0  0.37580990724E+02 -0.28050879626E+02 -0.94497662013E+03  0.94613952211E+03  0.00000000000E+00 0. -1.
          1    1    1    2  502    0  0.34703614299E+02  0.11701028053E+02  0.75513212256E+03  0.75601969381E+03  0.00000000000E+00 0. -1.
         22    1    3    3    0    0 -0.99874548478E+02  0.41247813383E+02 -0.46005524885E+02  0.11744281954E+03  0.00000000000E+00 0. -1.
         22    1    3    3    0    0  0.27589943455E+02 -0.24897961810E+02 -0.19240266290E+02  0.41848552293E+02  0.00000000000E+00 0. -1.
</event>
<event>
 7    1  0.6078244E-006  0.5135449E+02  0.7818608E-02  0.1570102E+00
          2   -1    0    0  502    0  0.00000000000E+00  0.00000000000E+00  0.17768814822E+04  0.17768814822E+04  0.00000000000E+00 0. -1.
          1   -1    0    0  501    0 -0.00000000000E+00 -0.00000000000E+00 -0.43920341924E+02  0.43920341924E+02  0.00000000000E+00 0. -1.
         25    2    1    2    0    0  0.66903978475E+02  0.49709269798E+01  0.87979158644E+03  0.89116007580E+03  0.12502876741E+03 0.  0.
          2    1    1    2  501    0 -0.17693153185E+02 -0.10958910135E+02 -0.34660418422E+02  0.40428826179E+02  0.00000000000E+00 0. -1.
          1    1    1    2  502    0 -0.49210825290E+02  0.59879831548E+01  0.88782997231E+03  0.88921292220E+03  0.00000000000E+00 0. -1.
         22    1    3    3    0    0  0.55099097263E+02  0.28210982105E+02  0.84705337324E+03  0.84931218474E+03  0.00000000000E+00 0.  1.
         22    1    3    3    0    0  0.11804881212E+02 -0.23240055126E+02  0.32738213197E+02  0.41847891058E+02  0.00000000000E+00 0.  1.
</event>
<event>
 7    1  0.8586213E-006  0.8103178E+02  0.7818608E-02  0.1349757E+00
          2   -1    0    0  502    0  0.00000000000E+00  0.00000000000E+00  0.53207797032E+03  0.53207797032E+03  0.00000000000E+00 0. -1.
          1   -1    0    0  501    0 -0.00000000000E+00 -0.00000000000E+00 -0.29745092696E+04  0.29745092696E+04  0.00000000000E+00 0. -1.
         25    2    1    2    0    0  0.26661133795E+01  0.55808584483E+02 -0.71030667208E+03  0.72338245823E+03  0.12499962487E+03 0.  0.
          2    1    1    2  501    0  0.65083009295E+02 -0.10971981394E+02 -0.22540390132E+04  0.22550051121E+04  0.00000000000E+00 0. -1.
          1    1    1    2  502    0 -0.67749122675E+02 -0.44836603089E+02  0.52191438603E+03  0.52819966958E+03  0.00000000000E+00 0. -1.
         22    1    3    3    0    0  0.36008007669E+01 -0.37911610074E+02 -0.30566238697E+03  0.30802556835E+03  0.00000000000E+00 0.  1.
         22    1    3    3    0    0 -0.93468738738E+00  0.93720194557E+02 -0.40464428510E+03  0.41535688988E+03  0.00000000000E+00 0.  1.
</event>
<event>
 7    1  0.6078244E-006  0.9786924E+02  0.7818608E-02  0.1302175E+00
          2   -1    0    0  502    0  0.00000000000E+00  0.00000000000E+00  0.17349708261E+03  0.17349708261E+03  0.00000000000E+00 0. -1.
          1   -1    0    0  501    0 -0.00000000000E+00 -0.00000000000E+00 -0.10570629892E+04  0.10570629892E+04  0.00000000000E+00 0. -1.
         25    2    1    2    0    0  0.14467769731E+03  0.61991465779E+02 -0.38640007718E+03  0.43554975501E+03  0.12499596601E+03 0.  0.
          2    1    1    2  501    0 -0.82497207700E+02  0.11384695980E+02 -0.62751580069E+03  0.63301775702E+03  0.00000000000E+00 0. -1.
          1    1    1    2  502    0 -0.62180489605E+02 -0.73376161759E+02  0.13034997130E+03  0.16199255977E+03  0.00000000000E+00 0. -1.
         22    1    3    3    0    0  0.71163030398E+02  0.77315263330E+02 -0.12359796158E+03  0.16222910634E+03  0.00000000000E+00 0.  1.
         22    1    3    3    0    0  0.73514666908E+02 -0.15323797551E+02 -0.26280211560E+03  0.27332064866E+03  0.00000000000E+00 0.  1.
</event>
<event>
 7    1  0.6078244E-006  0.6246471E+02  0.7818608E-02  0.1407545E+00
          2   -1    0    0  502    0  0.00000000000E+00  0.00000000000E+00  0.16303385336E+04  0.16303385336E+04  0.00000000000E+00 0. -1.
          1   -1    0    0  501    0 -0.00000000000E+00 -0.00000000000E+00 -0.36537828789E+04  0.36537828789E+04  0.00000000000E+00 0. -1.
         25    2    1    2    0    0  0.61815638690E+02  0.64241430989E+02  0.11967624216E+04  0.12065706586E+04  0.12499730256E+03 0.  0.
          2    1    1    2  501    0 -0.84853587042E+01 -0.61883539328E+02 -0.36469483654E+04  0.36474832356E+04  0.00000000000E+00 0. -1.
          1    1    1    2  502    0 -0.53330279986E+02 -0.23578916614E+01  0.42674159852E+03  0.43006751833E+03  0.00000000000E+00 0. -1.
         22    1    3    3    0    0  0.68030605694E+02  0.51694475843E+02  0.37188012902E+03  0.38156953823E+03  0.00000000000E+00 0.  1.
         22    1    3    3    0    0 -0.62149670032E+01  0.12546955146E+02  0.82488229263E+03  0.82500112036E+03  0.00000000000E+00 0.  1.
</event>
<event>
 7    1  0.6078244E-006  0.6683489E+02  0.7818608E-02  0.1383740E+00
          2   -1    0    0  502    0  0.00000000000E+00  0.00000000000E+00  0.21334452445E+04  0.21334452445E+04  0.00000000000E+00 0. -1.
          1   -1    0    0  501    0 -0.00000000000E+00 -0.00000000000E+00 -0.22428542052E+02  0.22428542052E+02  0.00000000000E+00 0. -1.
         25    2    1    2    0    0  0.69379474723E+01 -0.15318676415E+02  0.70527854588E+03  0.71646721053E+03  0.12499855810E+03 0.  0.
          2    1    1    2  501    0  0.61200510147E+02  0.26858881344E+02  0.54056390258E+02  0.85959265219E+02  0.00000000000E+00 0. -1.
          1    1    1    2  502    0 -0.68138457619E+02 -0.11540204930E+02  0.13516817664E+04  0.13534473108E+04  0.00000000000E+00 0. -1.
         22    1    3    3    0    0  0.18016922809E+01  0.48945620677E+02  0.46902317975E+03  0.47157360298E+03  0.00000000000E+00 0. -1.
         22    1    3    3    0    0  0.51362551914E+01 -0.64264297092E+02  0.23625536613E+03  0.24489360756E+03  0.00000000000E+00 0. -1.
</event>
<event>
 7    1  0.6078244E-006  0.2557493E+03  0.7818608E-02  0.1240548E+00
          2   -1    0    0  502    0  0.00000000000E+00  0.00000000000E+00  0.21058676783E+04  0.21058676783E+04  0.00000000000E+00 0. -1.
          1   -1    0    0  501    0 -0.00000000000E+00 -0.00000000000E+00 -0.16055264033E+04  0.16055264033E+04  0.00000000000E+00 0. -1.
         25    2    1    2    0    0 -0.14189829443E+03 -0.14537385352E+03  0.79997736410E+02  0.25157945180E+03  0.12499559788E+03 0.  0.
          2    1    1    2  501    0  0.16973428971E+03  0.19600365913E+03 -0.15082407408E+04  0.15303650858E+04  0.00000000000E+00 0. -1.
          1    1    1    2  502    0 -0.27835995280E+02 -0.50629805607E+02  0.19285842795E+04  0.19294495440E+04  0.00000000000E+00 0. -1.
         22    1    3    3    0    0 -0.14552466602E+03 -0.16341187219E+03  0.80550683073E+02  0.23317221305E+03  0.00000000000E+00 0. -1.
         22    1    3    3    0    0  0.36263715931E+01  0.18038018672E+02 -0.55294666320E+00  0.18407238755E+02  0.00000000000E+00 0. -1.
</event>
<event>
 7    1  0.6078244E-006  0.2821867E+03  0.7818608E-02  0.1286098E+00
          2   -1    0    0  502    0  0.00000000000E+00  0.00000000000E+00  0.90996452700E+03  0.90996452700E+03  0.00000000000E+00 0. -1.
          1   -1    0    0  501    0 -0.00000000000E+00 -0.00000000000E+00 -0.83142092300E+03  0.83142092300E+03  0.00000000000E+00 0. -1.
         25    2    1    2    0    0  0.87546476855E+02 -0.29937680472E+03  0.16769929324E+03  0.37555197474E+03  0.12500150385E+03 0.  0.
          2    1    1    2  501    0 -0.71384731261E+02  0.26998332897E+03 -0.70021785573E+03  0.75385132703E+03  0.00000000000E+00 0. -1.
          1    1    1    2  502    0 -0.16161745595E+02  0.29393475751E+02  0.61106216650E+03  0.61198214824E+03  0.00000000000E+00 0. -1.
         22    1    3    3    0    0  0.11703187120E+03 -0.24407356746E+03  0.11676485745E+03  0.29479212531E+03  0.00000000000E+00 0.  1.
         22    1    3    3    0    0 -0.29485394342E+02 -0.55303237262E+02  0.50934435790E+02  0.80759849433E+02  0.00000000000E+00 0.  1.
</event>
<event>
 7    1  0.6078244E-006  0.4904556E+02  0.7818608E-02  0.1536503E+00
          2   -1    0    0  502    0  0.00000000000E+00  0.00000000000E+00  0.12062088471E+04  0.12062088471E+04  0.00000000000E+00 0. -1.
          1   -1    0    0  501    0 -0.00000000000E+00 -0.00000000000E+00 -0.64954307996E+03  0.64954307996E+03  0.00000000000E+00 0. -1.
         25    2    1    2    0    0 -0.61147259051E+02  0.28260618613E+02  0.17676994150E+03  0.22673779866E+03  0.12499906908E+03 0.  0.
          2    1    1    2  501    0  0.26376867895E+02  0.58413254534E+01 -0.62367620213E+03  0.62426105545E+03  0.00000000000E+00 0. -1.
          1    1    1    2  502    0  0.34770391156E+02 -0.34101944067E+02  0.10035720278E+04  0.10047530730E+04  0.00000000000E+00 0. -1.
         22    1    3    3    0    0 -0.19273090045E+02  0.76024773166E+02  0.94850377167E+02  0.12307644853E+03  0.00000000000E+00 0.  1.
         22    1    3    3    0    0 -0.41874169006E+02 -0.47764154553E+02  0.81919564335E+02  0.10366135013E+03  0.00000000000E+00 0.  1.
</event>
<event>
 7    1  0.6078244E-006  0.7291066E+02  0.7818608E-02  0.1360441E+00
          2   -1    0    0  502    0  0.00000000000E+00  0.00000000000E+00  0.20937624421E+04  0.20937624421E+04  0.00000000000E+00 0. -1.
          1   -1    0    0  501    0 -0.00000000000E+00 -0.00000000000E+00 -0.14907886533E+02  0.14907886533E+02  0.00000000000E+00 0. -1.
         25    2    1    2    0    0 -0.54093193252E+02 -0.32882590066E+02  0.11735383423E+04  0.11818733605E+04  0.12500024428E+03 0.  0.
          2    1    1    2  501    0  0.70857725660E+02 -0.31996105729E+02  0.15413678885E+03  0.17263463658E+03  0.00000000000E+00 0. -1.
          1    1    1    2  502    0 -0.16764532408E+02  0.64878695795E+02  0.75117942438E+03  0.75416233155E+03  0.00000000000E+00 0. -1.
         22    1    3    3    0    0 -0.83827547092E+02 -0.13632072911E+02  0.10479341666E+04  0.10513700150E+04  0.00000000000E+00 0.  1.
         22    1    3    3    0    0  0.29734353840E+02 -0.19250517155E+02  0.12560417575E+03  0.13050334545E+03  0.00000000000E+00 0.  1.
</event>
<event>
 7    1  0.6078244E-006  0.1194343E+03  0.7818608E-02  0.1273151E+00
          2   -1    0    0  502    0  0.00000000000E+00  0.00000000000E+00  0.97687910227E+03  0.97687910227E+03  0.00000000000E+00 0. -1.
          1   -1    0    0  501    0 -0.00000000000E+00 -0.00000000000E+00 -0.59000316968E+03  0.59000316968E+03  0.00000000000E+00 0. -1.
         25    2    1    2    0    0 -0.22189422403E+02  0.30872277735E+02 -0.50420852660E+02  0.14004396184E+03  0.12499832345E+03 0.  0.
          2    1    1    2  501    0 -0.84006896676E+02  0.31306978631E+02 -0.48659604099E+03  0.49478580488E+03  0.00000000000E+00 0. -1.
          1    1    1    2  502    0  0.10619631908E+03 -0.62179256366E+02  0.92389282625E+03  0.93205250523E+03  0.00000000000E+00 0. -1.
         22    1    3    3    0    0 -0.42754056356E+02 -0.27805577349E+02 -0.58197703943E+02  0.77382376616E+02  0.00000000000E+00 0. -1.
         22    1    3    3    0    0  0.20564633953E+02  0.58677855084E+02  0.77768512831E+01  0.62661585224E+02  0.00000000000E+00 0. -1.
</event>
<event>
 7    1  0.6078244E-006  0.4206675E+02  0.7818608E-02  0.1541871E+00
          2   -1    0    0  502    0  0.00000000000E+00  0.00000000000E+00  0.10471974602E+04  0.10471974602E+04  0.00000000000E+00 0. -1.
          1   -1    0    0  501    0 -0.00000000000E+00 -0.00000000000E+00 -0.13804046845E+02  0.13804046845E+02  0.00000000000E+00 0. -1.
         25    2    1    2    0    0 -0.13382326192E+02  0.44628271901E+02  0.44358011674E+03  0.46320507944E+03  0.12499942537E+03 0.  0.
          2    1    1    2  501    0 -0.21993983905E+02 -0.21008039816E+02  0.70975388417E+02  0.77217736472E+02  0.00000000000E+00 0. -1.
          1    1    1    2  502    0  0.35376310097E+02 -0.23620232085E+02  0.51883790820E+03  0.52057869114E+03  0.00000000000E+00 0. -1.
         22    1    3    3    0    0  0.15949477328E+02 -0.40187803170E+02  0.12753032016E+03  0.13466041702E+03  0.00000000000E+00 0. -1.
         22    1    3    3    0    0 -0.29331803519E+02  0.84816075071E+02  0.31604979659E+03  0.32854466243E+03  0.00000000000E+00 0. -1.
</event>
<event>
 7    1  0.6078244E-006  0.1040953E+03  0.7818608E-02  0.1441975E+00
          2   -1    0    0  502    0  0.00000000000E+00  0.00000000000E+00  0.33337208368E+04  0.33337208368E+04  0.00000000000E+00 0. -1.
          1   -1    0    0  501    0 -0.00000000000E+00 -0.00000000000E+00 -0.48422742716E+03  0.48422742716E+03  0.00000000000E+00 0. -1.
         25    2    1    2    0    0  0.86759630381E+02 -0.45158694267E+02  0.34930739229E+03  0.38367555558E+03  0.12499894604E+03 0.  0.
          2    1    1    2  501    0  0.14680907829E+02  0.19770197050E+02 -0.46579671957E+03  0.46644718212E+03  0.00000000000E+00 0. -1.
          1    1    1    2  502    0 -0.10144053821E+03  0.25388497217E+02  0.29659827369E+04  0.29678255263E+04  0.00000000000E+00 0. -1.
         22    1    3    3    0    0  0.11531790481E+03 -0.36214198963E+02  0.31878233248E+03  0.34092794382E+03  0.00000000000E+00 0. -1.
         22    1    3    3    0    0 -0.28558274431E+02 -0.89444953037E+01  0.30525059805E+02  0.42747611756E+02  0.00000000000E+00 0. -1.
</event>
<event>
 7    1  0.6078244E-006  0.4276202E+02  0.7818608E-02  0.1558977E+00
          2   -1    0    0  502    0  0.00000000000E+00  0.00000000000E+00  0.94237442204E+02  0.94237442204E+02  0.00000000000E+00 0. -1.
          1   -1    0    0  501    0 -0.00000000000E+00 -0.00000000000E+00 -0.13375645454E+04  0.13375645454E+04  0.00000000000E+00 0. -1.
         25    2    1    2    0    0  0.33856475552E+02 -0.22734619967E+02 -0.17766367369E+03  0.22102766934E+03  0.12500290309E+03 0.  0.
          2    1    1    2  501    0 -0.13903486138E+02  0.40639842394E+02 -0.11353223822E+04  0.11361345938E+04  0.00000000000E+00 0. -1.
          1    1    1    2  502    0 -0.19952989414E+02 -0.17905222427E+02  0.69658952696E+02  0.74639724460E+02  0.00000000000E+00 0. -1.
         22    1    3    3    0    0 -0.44322680121E+02 -0.29017243814E+02 -0.67876203817E+02  0.86102726184E+02  0.00000000000E+00 0. -1.
         22    1    3    3    0    0  0.78179155672E+02  0.62826238471E+01 -0.10978746988E+03  0.13492494316E+03  0.00000000000E+00 0. -1.
</event>
<event>
 7    1  0.6078244E-006  0.1525716E+03  0.7818608E-02  0.1392332E+00
          2   -1    0    0  502    0  0.00000000000E+00  0.00000000000E+00  0.17464399150E+04  0.17464399150E+04  0.00000000000E+00 0. -1.
          1   -1    0    0  501    0 -0.00000000000E+00 -0.00000000000E+00 -0.22842471931E+03  0.22842471931E+03  0.00000000000E+00 0. -1.
         25    2    1    2    0    0 -0.14164603224E+03 -0.35040210432E+02  0.92265178118E+03  0.94244375933E+03  0.12499006119E+03 0.  0.
          2    1    1    2  501    0 -0.15928943323E+02  0.18816517259E+02 -0.21009338862E+03  0.21153492501E+03  0.00000000000E+00 0. -1.
          1    1    1    2  502    0  0.15757497557E+03  0.16223693173E+02  0.80545680312E+03  0.82088594995E+03  0.00000000000E+00 0. -1.
         22    1    3    3    0    0  0.20709378323E+02  0.33616348026E+01  0.18361255037E+03  0.18480732559E+03  0.00000000000E+00 0.  1.
         22    1    3    3    0    0 -0.16235541057E+03 -0.38401845235E+02  0.73903923081E+03  0.75763643374E+03  0.00000000000E+00 0.  1.
</event>
<event>
 7    1  0.6078244E-006  0.7498184E+02  0.7818608E-02  0.1431389E+00
          2   -1    0    0  502    0  0.00000000000E+00  0.00000000000E+00  0.19400292935E+04  0.19400292935E+04  0.00000000000E+00 0. -1.
          1   -1    0    0  501    0 -0.00000000000E+00 -0.00000000000E+00 -0.25149137084E+03  0.25149137084E+03  0.00000000000E+00 0. -1.
         25    2    1    2    0    0  0.84109813480E+02  0.24988744185E+01  0.94718861375E+02  0.17798133688E+03  0.12499995393E+03 0.  0.
          2    1    1    2  501    0 -0.66287168696E+02 -0.34939967250E+02 -0.20297471670E+03  0.21636433548E+03  0.00000000000E+00 0. -1.
          1    1    1    2  502    0 -0.17822644784E+02  0.32441092831E+02  0.17967937780E+04  0.17971749919E+04  0.00000000000E+00 0. -1.
         22    1    3    3    0    0 -0.27040711446E+02 -0.41385425569E+01 -0.58104820292E+01  0.27965859747E+02  0.00000000000E+00 0.  1.
         22    1    3    3    0    0  0.11115052493E+03  0.66374169754E+01  0.10052934340E+03  0.15001547714E+03  0.00000000000E+00 0.  1.
</event>
<event>
 7    1  0.6078244E-006  0.6673953E+02  0.7818608E-02  0.1446512E+00
          2   -1    0    0  502    0  0.00000000000E+00  0.00000000000E+00  0.46760166237E+03  0.46760166237E+03  0.00000000000E+00 0. -1.
          1   -1    0    0  501    0 -0.00000000000E+00 -0.00000000000E+00 -0.74115845007E+03  0.74115845007E+03  0.00000000000E+00 0. -1.
         25    2    1    2    0    0 -0.71716459216E+02 -0.38277437221E+02  0.24060033079E+02  0.15103780869E+03  0.12500048695E+03 0.  0.
          2    1    1    2  501    0  0.38315379049E+02  0.54507816019E+02 -0.67511861741E+03  0.67839834747E+03  0.00000000000E+00 0. -1.
          1    1    1    2  502    0  0.33401080167E+02 -0.16230378798E+02  0.37750179663E+03  0.37932395629E+03  0.00000000000E+00 0. -1.
         22    1    3    3    0    0 -0.83171406216E+01  0.41727500515E+02 -0.94754789213E+01  0.43590639226E+02  0.00000000000E+00 0. -1.
         22    1    3    3    0    0 -0.63399318594E+02 -0.80004937735E+02  0.33535512000E+02  0.10744716946E+03  0.00000000000E+00 0. -1.
</event>
<event>
 7    1  0.6078244E-006  0.8778078E+02  0.7818608E-02  0.1309222E+00
          2   -1    0    0  502    0  0.00000000000E+00  0.00000000000E+00  0.44075958988E+04  0.44075958988E+04  0.00000000000E+00 0. -1.
          1   -1    0    0  501    0 -0.00000000000E+00 -0.00000000000E+00 -0.26276714849E+03  0.26276714849E+03  0.00000000000E+00 0. -1.
         25    2    1    2    0    0  0.78856371127E+02  0.99048017674E+01  0.38445929027E+03  0.41200741357E+03  0.12499892236E+03 0.  0.
          2    1    1    2  501    0 -0.28441859953E+02 -0.83045325803E+02 -0.24074811324E+03  0.25625206255E+03  0.00000000000E+00 0. -1.
          1    1    1    2  502    0 -0.50414511175E+02  0.73140524036E+02  0.40011175733E+04  0.40021035712E+04  0.00000000000E+00 0. -1.
         22    1    3    3    0    0  0.22139043002E+02 -0.36139310694E+02  0.34916832739E+02  0.54912404892E+02  0.00000000000E+00 0. -1.
         22    1    3    3    0    0  0.56717328125E+02  0.46044112462E+02  0.34954245753E+03  0.35709500867E+03  0.00000000000E+00 0. -1.
</event>
<event>
 7    1  0.6078244E-006  0.5998915E+02  0.7818608E-02  0.1402450E+00
          2   -1    0    0  502    0  0.00000000000E+00  0.00000000000E+00  0.27615328194E+03  0.27615328194E+03  0.00000000000E+00 0. -1.
          1   -1    0    0  501    0 -0.00000000000E+00 -0.00000000000E+00 -0.14948480656E+04  0.14948480656E+04  0.00000000000E+00 0. -1.
         25    2    1    2    0    0 -0.37313015719E+02  0.36697452815E+02 -0.10233271950E+03  0.16980506942E+03  0.12499124744E+03 0.  0.
          2    1    1    2  501    0  0.53482569455E+02  0.22068230552E+02 -0.13543206952E+04  0.13555559515E+04  0.00000000000E+00 0. -1.
          1    1    1    2  502    0 -0.16169553736E+02 -0.58765683366E+02  0.23795863103E+03  0.24564032668E+03  0.00000000000E+00 0. -1.
         22    1    3    3    0    0 -0.65964876129E+02 -0.20595753129E+02 -0.37332706563E+02  0.78544770093E+02  0.00000000000E+00 0.  1.
         22    1    3    3    0    0  0.28651860410E+02  0.57293205944E+02 -0.65000012935E+02  0.91260299330E+02  0.00000000000E+00 0.  1.
</event>
<event>
 7    1  0.6078244E-006  0.7936826E+02  0.7818608E-02  0.1351881E+00
          2   -1    0    0  502    0  0.00000000000E+00  0.00000000000E+00  0.25327039282E+03  0.25327039282E+03  0.00000000000E+00 0. -1.
          1   -1    0    0  501    0 -0.00000000000E+00 -0.00000000000E+00 -0.75852108772E+03  0.75852108772E+03  0.00000000000E+00 0. -1.
         25    2    1    2    0    0 -0.10269663878E+03 -0.31337249300E+02 -0.15454410858E+03  0.22591610778E+03  0.12500233377E+03 0.  0.
          2    1    1    2  501    0  0.73616662689E+02 -0.28106931043E+02 -0.56043841172E+03  0.56595108086E+03  0.00000000000E+00 0. -1.
          1    1    1    2  502    0  0.29079976091E+02  0.59444180344E+02  0.20973182539E+03  0.21992429190E+03  0.00000000000E+00 0. -1.
         22    1    3    3    0    0 -0.65100043355E+02  0.26378197541E+02 -0.17275061987E+02  0.72334312170E+02  0.00000000000E+00 0.  1.
         22    1    3    3    0    0 -0.37596595425E+02 -0.57715446842E+02 -0.13726904659E+03  0.15358179561E+03  0.00000000000E+00 0.  1.
</event>
<event>
 7    1  0.6078244E-006  0.7015535E+02  0.7818608E-02  0.1465348E+00
          2   -1    0    0  502    0  0.00000000000E+00  0.00000000000E+00  0.39400092997E+03  0.39400092997E+03  0.00000000000E+00 0. -1.
          1   -1    0    0  501    0 -0.00000000000E+00 -0.00000000000E+00 -0.14346378948E+04  0.14346378948E+04  0.00000000000E+00 0. -1.
         25    2    1    2    0    0  0.78081720191E+02 -0.43378862331E+02  0.56536930512E+02  0.16370966761E+03  0.12500380007E+03 0.  0.
          2    1    1    2  501    0 -0.48204908272E+02  0.50803398067E+02 -0.13793258672E+04  0.13811026560E+04  0.00000000000E+00 0. -1.
          1    1    1    2  502    0 -0.29876811919E+02 -0.74245357359E+01  0.28215197180E+03  0.28382650125E+03  0.00000000000E+00 0. -1.
         22    1    3    3    0    0  0.60356734297E+02  0.17201448890E+02 -0.18714498375E+02  0.65490897599E+02  0.00000000000E+00 0.  1.
         22    1    3    3    0    0  0.17724985894E+02 -0.60580311221E+02  0.75251428887E+02  0.98218770009E+02  0.00000000000E+00 0.  1.
</event>
<event>
 7    1  0.6078244E-006  0.8259406E+02  0.7818608E-02  0.1357414E+00
          2   -1    0    0  502    0  0.00000000000E+00  0.00000000000E+00  0.26452787704E+04  0.26452787704E+04  0.00000000000E+00 0. -1.
          1   -1    0    0  501    0 -0.00000000000E+00 -0.00000000000E+00 -0.10258422567E+02  0.10258422567E+02  0.00000000000E+00 0. -1.
         25    2    1    2    0    0 -0.56015204320E+02 -0.11822218203E+03  0.13274127197E+04  0.13396885503E+04  0.12500678387E+03 0.  0.
          2    1    1    2  501    0  0.36424804822E+02  0.48530792897E+02  0.32770100020E+03  0.33327158565E+03  0.00000000000E+00 0. -1.
          1    1    1    2  502    0  0.19590399498E+02  0.69691389134E+02  0.97990662790E+03  0.98257705697E+03  0.00000000000E+00 0. -1.
         22    1    3    3    0    0 -0.82054563374E+02 -0.96157362730E+02  0.69820264424E+03  0.70955346676E+03  0.00000000000E+00 0. -1.
         22    1    3    3    0    0  0.26039359054E+02 -0.22064819302E+02  0.62921007547E+03  0.63013508357E+03  0.00000000000E+00 0. -1.
</event>
<event>
 7    1  0.6078244E-006  0.8092883E+02  0.7818608E-02  0.1397041E+00
          2   -1    0    0  502    0  0.00000000000E+00  0.00000000000E+00  0.28932722701E+04  0.28932722701E+04  0.00000000000E+00 0. -1.
          1   -1    0    0  501    0 -0.00000000000E+00 -0.00000000000E+00 -0.29908535711E+04  0.29908535711E+04  0.00000000000E+00 0. -1.
         25    2    1    2    0    0 -0.55781628264E+02  0.12032089290E+02 -0.16157037880E+04  0.16215364227E+04  0.12500111341E+03 0.  0.
          2    1    1    2  501    0 -0.20190815005E+02 -0.39951940973E+02 -0.13713015224E+04  0.13720319573E+04  0.00000000000E+00 0. -1.
          1    1    1    2  502    0  0.75972443269E+02  0.27919851683E+02  0.28894240094E+04  0.28905574611E+04  0.00000000000E+00 0. -1.
         22    1    3    3    0    0 -0.77354826810E+02 -0.16278699343E+02 -0.59696626631E+03  0.60217728984E+03  0.00000000000E+00 0. -1.
         22    1    3    3    0    0  0.21573198546E+02  0.28310788634E+02 -0.10187375217E+04  0.10193591329E+04  0.00000000000E+00 0. -1.
</event>
<event>
 7    1  0.6078244E-006  0.1871348E+03  0.7818608E-02  0.1376971E+00
          2   -1    0    0  502    0  0.00000000000E+00  0.00000000000E+00  0.56207452748E+03  0.56207452748E+03  0.00000000000E+00 0. -1.
          1   -1    0    0  501    0 -0.00000000000E+00 -0.00000000000E+00 -0.52926514887E+03  0.52926514887E+03  0.00000000000E+00 0. -1.
         25    2    1    2    0    0  0.13983176467E+03  0.14151190215E+03  0.63558825082E+02  0.24339907364E+03  0.12499937576E+03 0.  0.
          2    1    1    2  501    0 -0.14265883103E+03 -0.11892507309E+03 -0.41936859855E+03  0.45865535703E+03  0.00000000000E+00 0. -1.
          1    1    1    2  502    0  0.28270663626E+01 -0.22586829058E+02  0.38861915207E+03  0.38928524569E+03  0.00000000000E+00 0. -1.
         22    1    3    3    0    0  0.10466184916E+03  0.12409202071E+03  0.99314900918E+02  0.19030602150E+03  0.00000000000E+00 0. -1.
         22    1    3    3    0    0  0.35169915515E+02  0.17419881436E+02 -0.35756075836E+02  0.53093052142E+02  0.00000000000E+00 0. -1.
</event>
<event>
 7    1  0.6078244E-006  0.6636192E+02  0.7818608E-02  0.1386722E+00
          2   -1    0    0  502    0  0.00000000000E+00  0.00000000000E+00  0.32665602662E+03  0.32665602662E+03  0.00000000000E+00 0. -1.
          1   -1    0    0  501    0 -0.00000000000E+00 -0.00000000000E+00 -0.27610481281E+03  0.27610481281E+03  0.00000000000E+00 0. -1.
         25    2    1    2    0    0 -0.35189890422E+02 -0.62346462689E+02  0.15254675218E+03  0.20981169254E+03  0.12500009971E+03 0.  0.
          2    1    1    2  501    0  0.65867426167E+02  0.11603545950E+02 -0.23659558701E+03  0.24586710212E+03  0.00000000000E+00 0. -1.
          1    1    1    2  502    0 -0.30677535745E+02  0.50742916739E+02  0.13460004864E+03  0.14708204477E+03  0.00000000000E+00 0. -1.
         22    1    3    3    0    0 -0.50652245203E+02 -0.72749100240E+01  0.48215681379E+01  0.51398655423E+02  0.00000000000E+00 0.  1.
         22    1    3    3    0    0  0.15462354781E+02 -0.55071552665E+02  0.14772518404E+03  0.15841303712E+03  0.00000000000E+00 0.  1.
</event>
<event>
 7    1  0.6078244E-006  0.1225713E+03  0.7818608E-02  0.1263732E+00
          2   -1    0    0  502    0  0.00000000000E+00  0.00000000000E+00  0.12950919326E+04  0.12950919326E+04  0.00000000000E+00 0. -1.
          1   -1    0    0  501    0 -0.00000000000E+00 -0.00000000000E+00 -0.68879706903E+02  0.68879706903E+02  0.00000000000E+00 0. -1.
         25    2    1    2    0    0 -0.44450554664E+02 -0.80446576703E+02  0.48484720278E+03  0.50906718571E+03  0.12500034401E+03 0.  0.
          2    1    1    2  501    0  0.67114139832E+02 -0.68233174243E+02 -0.27450318856E+01  0.95747631995E+02  0.00000000000E+00 0. -1.
          1    1    1    2  502    0 -0.22663585168E+02  0.14867975095E+03  0.74411005478E+03  0.75915682178E+03  0.00000000000E+00 0. -1.
         22    1    3    3    0    0 -0.29317886511E+02  0.43107152636E+01  0.33452175199E+03  0.33583168893E+03  0.00000000000E+00 0. -1.
         22    1    3    3    0    0 -0.15132668153E+02 -0.84757291967E+02  0.15032545079E+03  0.17323549677E+03  0.00000000000E+00 0. -1.
</event>
<event>
 7    1  0.6078244E-006  0.1002974E+03  0.7818608E-02  0.1358048E+00
          2   -1    0    0  502    0  0.00000000000E+00  0.00000000000E+00  0.72380899256E+03  0.72380899256E+03  0.00000000000E+00 0. -1.
          1   -1    0    0  501    0 -0.00000000000E+00 -0.00000000000E+00 -0.11814644876E+04  0.11814644876E+04  0.00000000000E+00 0. -1.
         25    2    1    2    0    0 -0.45367175771E+02 -0.13930030138E+03 -0.22179485240E+03  0.29373595140E+03  0.12500039197E+03 0.  0.
          2    1    1    2  501    0  0.26329155934E+02  0.93388175361E+02 -0.92024731772E+03  0.92534842169E+03  0.00000000000E+00 0. -1.
          1    1    1    2  502    0  0.19038019838E+02  0.45912126022E+02  0.68438667513E+03  0.68618910703E+03  0.00000000000E+00 0. -1.
         22    1    3    3    0    0 -0.55538672515E+02 -0.15884240101E+03 -0.20877205024E+03  0.26814403119E+03  0.00000000000E+00 0. -1.
         22    1    3    3    0    0  0.10171496743E+02  0.19542099629E+02 -0.13022802159E+02  0.25591920209E+02  0.00000000000E+00 0. -1.
</event>
<event>
 7    1  0.6078244E-006  0.1003114E+03  0.7818608E-02  0.1375633E+00
          2   -1    0    0  502    0  0.00000000000E+00  0.00000000000E+00  0.64856434936E+03  0.64856434936E+03  0.00000000000E+00 0. -1.
          1   -1    0    0  501    0 -0.00000000000E+00 -0.00000000000E+00 -0.85657899497E+03  0.85657899497E+03  0.00000000000E+00 0. -1.
         25    2    1    2    0    0  0.12882379952E+02  0.88443377046E+02  0.17349741010E+01  0.15367738328E+03  0.12500216534E+03 0.  0.
          2    1    1    2  501    0  0.42778555574E+02 -0.36454830472E+01 -0.77550347074E+03  0.77669101159E+03  0.00000000000E+00 0. -1.
          1    1    1    2  502    0 -0.55660935526E+02 -0.84797893998E+02  0.56575385103E+03  0.57477494946E+03  0.00000000000E+00 0. -1.
         22    1    3    3    0    0 -0.52536269111E+02  0.33214759440E+02 -0.20096600125E+02  0.65323450256E+02  0.00000000000E+00 0. -1.
         22    1    3    3    0    0  0.65418649063E+02  0.55228617606E+02  0.21831574226E+02  0.88353933026E+02  0.00000000000E+00 0. -1.
</event>
<event>
 7    1  0.6078244E-006  0.4202276E+02  0.7818608E-02  0.1518896E+00
          2   -1    0    0  502    0  0.00000000000E+00  0.00000000000E+00  0.29661307608E+03  0.29661307608E+03  0.00000000000E+00 0. -1.
          1   -1    0    0  501    0 -0.00000000000E+00 -0.00000000000E+00 -0.44035784426E+03  0.44035784426E+03  0.00000000000E+00 0. -1.
         25    2    1    2    0    0 -0.31933477375E+02  0.33300724987E+02 -0.16764637877E+03  0.21414833643E+03  0.12500206567E+03 0.  0.
          2    1    1    2  501    0  0.34331227725E+02  0.87431686429E+01 -0.24656500342E+03  0.24909712384E+03  0.00000000000E+00 0. -1.
          1    1    1    2  502    0 -0.23977503505E+01 -0.42043893630E+02  0.27046661401E+03  0.27372546007E+03  0.00000000000E+00 0. -1.
         22    1    3    3    0    0 -0.70830705686E+02 -0.56536646034E+01 -0.12768171162E+03  0.14612177207E+03  0.00000000000E+00 0. -1.
         22    1    3    3    0    0  0.38897228311E+02  0.38954389591E+02 -0.39964667145E+02  0.68026564361E+02  0.00000000000E+00 0. -1.
</event>
<event>
 7    1  0.6078244E-006  0.5203883E+02  0.7818608E-02  0.1545605E+00
          2   -1    0    0  502    0  0.00000000000E+00  0.00000000000E+00  0.12759357114E+03  0.12759357114E+03  0.00000000000E+00 0. -1.
          1   -1    0    0  501    0 -0.00000000000E+00 -0.00000000000E+00 -0.25028190525E+03  0.25028190525E+03  0.00000000000E+00 0. -1.
         25    2    1    2    0    0  0.11847973756E+02 -0.34904671568E+02 -0.14133524849E+03  0.19224643329E+03  0.12499731223E+03 0.  0.
          2    1    1    2  501    0 -0.30500073923E+02  0.50006407572E+02 -0.71450047513E+02  0.92390500579E+02  0.00000000000E+00 0. -1.
          1    1    1    2  502    0  0.18652100167E+02 -0.15101736003E+02  0.90096961889E+02  0.93238542527E+02  0.00000000000E+00 0. -1.
         22    1    3    3    0    0  0.24603818033E+02 -0.41937171060E+02  0.15248817766E+01  0.48645651838E+02  0.00000000000E+00 0.  1.
         22    1    3    3    0    0 -0.12755844277E+02  0.70324994915E+01 -0.14286013027E+03  0.14360078145E+03  0.00000000000E+00 0.  1.
</event>
<event>
 7    1  0.6078244E-006  0.6173254E+02  0.7818608E-02  0.1419956E+00
          2   -1    0    0  502    0  0.00000000000E+00  0.00000000000E+00  0.10078366089E+04  0.10078366089E+04  0.00000000000E+00 0. -1.
          1   -1    0    0  501    0 -0.00000000000E+00 -0.00000000000E+00 -0.17476970494E+03  0.17476970494E+03  0.00000000000E+00 0. -1.
         25    2    1    2    0    0  0.49041508026E+00 -0.10372418125E+03  0.25504246895E+03  0.30237392111E+03  0.12499752365E+03 0.  0.
          2    1    1    2  501    0 -0.18403638921E+02  0.58056042282E+02 -0.14410100564E+03  0.15644263421E+03  0.00000000000E+00 0. -1.
          1    1    1    2  502    0  0.17913223840E+02  0.45668138965E+02  0.72212544067E+03  0.72378975854E+03  0.00000000000E+00 0. -1.
         22    1    3    3    0    0  0.10860994792E+01  0.21103407284E+02  0.33075853644E+01  0.21388630906E+02  0.00000000000E+00 0.  1.
         22    1    3    3    0    0 -0.59568439894E+00 -0.12482758853E+03  0.25173488359E+03  0.28098529021E+03  0.00000000000E+00 0.  1.
</event>
<event>
 7    1  0.6078244E-006  0.9954945E+02  0.7818608E-02  0.1327938E+00
          2   -1    0    0  502    0  0.00000000000E+00  0.00000000000E+00  0.17448272538E+04  0.17448272538E+04  0.00000000000E+00 0. -1.
          1   -1    0    0  501    0 -0.00000000000E+00 -0.00000000000E+00 -0.57282940101E+03  0.57282940101E+03  0.00000000000E+00 0. -1.
         25    2    1    2    0    0 -0.14865174823E+03  0.65617920543E+02  0.80888029715E+02  0.22038827698E+03  0.12500026213E+03 0.  0.
          2    1    1    2  501    0  0.89479263107E+02 -0.38902630159E+02 -0.49767921477E+03  0.50715338309E+03  0.00000000000E+00 0. -1.
          1    1    1    2  502    0  0.59172485124E+02 -0.26715290385E+02  0.15887890379E+04  0.15901149948E+04  0.00000000000E+00 0. -1.
         22    1    3    3    0    0 -0.77540176108E+02  0.16804659434E+02  0.10426889001E+03  0.13102242904E+03  0.00000000000E+00 0. -1.
         22    1    3    3    0    0 -0.71111572123E+02  0.48813261109E+02 -0.23380860292E+02  0.89365847940E+02  0.00000000000E+00 0. -1.
</event>
<event>
 7    1  0.6078244E-006  0.2200717E+03  0.7818608E-02  0.1159898E+00
          2   -1    0    0  502    0  0.00000000000E+00  0.00000000000E+00  0.16078438051E+04  0.16078438051E+04  0.00000000000E+00 0. -1.
          1   -1    0    0  501    0 -0.00000000000E+00 -0.00000000000E+00 -0.45734675663E+03  0.45734675663E+03  0.00000000000E+00 0. -1.
         25    2    1    2    0    0 -0.76530684434E+02  0.23217155920E+03  0.15467604155E+03  0.31513438638E+03  0.12499770034E+03 0.  0.
          2    1    1    2  501    0 -0.82933748393E+02 -0.20782263853E+03 -0.33863579491E+03  0.40588478329E+03  0.00000000000E+00 0. -1.
          1    1    1    2  502    0  0.15946443283E+03 -0.24348920664E+02  0.13344568018E+04  0.13441713920E+04  0.00000000000E+00 0. -1.
         22    1    3    3    0    0  0.29608507955E+02  0.51546698291E+02  0.62488782533E+02  0.86247166855E+02  0.00000000000E+00 0.  1.
         22    1    3    3    0    0 -0.10613919239E+03  0.18062486091E+03  0.92187259014E+02  0.22888721953E+03  0.00000000000E+00 0.  1.
</event>
<event>
 7    1  0.6078244E-006  0.1603608E+03  0.7818608E-02  0.1342427E+00
          2   -1    0    0  502    0  0.00000000000E+00  0.00000000000E+00  0.69126568175E+03  0.69126568175E+03  0.00000000000E+00 0. -1.
          1   -1    0    0  501    0 -0.00000000000E+00 -0.00000000000E+00 -0.11702784650E+03  0.11702784650E+03  0.00000000000E+00 0. -1.
         25    2    1    2    0    0  0.65230549482E+02 -0.17460670278E+03  0.45555235847E+03  0.50783393977E+03  0.12499933534E+03 0.  0.
          2    1    1    2  501    0 -0.37703735992E+02  0.15216360029E+03 -0.19325463211E+02  0.15795191195E+03  0.00000000000E+00 0. -1.
          1    1    1    2  502    0 -0.27526813489E+02  0.22443102494E+02  0.13801094000E+03  0.14250767653E+03  0.00000000000E+00 0. -1.
         22    1    3    3    0    0  0.14111372664E+02  0.15371646204E+01 -0.25111390150E+01  0.14415253473E+02  0.00000000000E+00 0. -1.
         22    1    3    3    0    0  0.51119176817E+02 -0.17614386740E+03  0.45806349748E+03  0.49341868630E+03  0.00000000000E+00 0. -1.
</event>
<event>
 7    1  0.6078244E-006  0.7923382E+02  0.7818608E-02  0.1331840E+00
          2   -1    0    0  502    0  0.00000000000E+00  0.00000000000E+00  0.58171051179E+03  0.58171051179E+03  0.00000000000E+00 0. -1.
          1   -1    0    0  501    0 -0.00000000000E+00 -0.00000000000E+00 -0.12638030025E+03  0.12638030025E+03  0.00000000000E+00 0. -1.
         25    2    1    2    0    0  0.17731176305E+02 -0.82206430933E+01  0.73856932462E+02  0.14649815929E+03  0.12499956246E+03 0.  0.
          2    1    1    2  501    0 -0.12007308557E+02 -0.78318722670E+02 -0.67642085639E+02  0.10417989023E+03  0.00000000000E+00 0. -1.
          1    1    1    2  502    0 -0.57238677480E+01  0.86539365763E+02  0.44911536472E+03  0.45741276252E+03  0.00000000000E+00 0. -1.
         22    1    3    3    0    0  0.62773140187E+02  0.20593079542E+01  0.77964453893E+02  0.10011575275E+03  0.00000000000E+00 0.  1.
         22    1    3    3    0    0 -0.45041963883E+02 -0.10279951048E+02 -0.41075214300E+01  0.46382406538E+02  0.00000000000E+00 0.  1.
</event>
<event>
 7    1  0.6078244E-006  0.4386380E+02  0.7818608E-02  0.1519528E+00
          2   -1    0    0  502    0  0.00000000000E+00  0.00000000000E+00  0.33121079020E+03  0.33121079020E+03  0.00000000000E+00 0. -1.
          1   -1    0    0  501    0 -0.00000000000E+00 -0.00000000000E+00 -0.10886971151E+04  0.10886971151E+04  0.00000000000E+00 0. -1.
         25    2    1    2    0    0  0.40329638072E+01  0.10532790885E+02 -0.14458907598E+03  0.19146142336E+03  0.12499708501E+03 0.  0.
          2    1    1    2  501    0 -0.32684287898E+01  0.33638533455E+02 -0.91877424045E+03  0.91939563762E+03  0.00000000000E+00 0. -1.
          1    1    1    2  502    0 -0.76453501741E+00 -0.44171324340E+02  0.30587699154E+03  0.30905084430E+03  0.00000000000E+00 0. -1.
         22    1    3    3    0    0 -0.49037709613E+02  0.33356477171E+02 -0.38635363573E+02  0.70781656181E+02  0.00000000000E+00 0.  1.
         22    1    3    3    0    0  0.53070673420E+02 -0.22823686286E+02 -0.10595371241E+03  0.12067976718E+03  0.00000000000E+00 0.  1.
</event>
<event>
 7    1  0.6078244E-006  0.1183310E+03  0.7818608E-02  0.1416745E+00
          2   -1    0    0  502    0  0.00000000000E+00  0.00000000000E+00  0.77569187168E+02  0.77569187168E+02  0.00000000000E+00 0. -1.
          1   -1    0    0  501    0 -0.00000000000E+00 -0.00000000000E+00 -0.12970448300E+04  0.12970448300E+04  0.00000000000E+00 0. -1.
         25    2    1    2    0    0 -0.46843807220E+02  0.13399747827E+03 -0.13056696155E+03  0.22982755912E+03  0.12499323592E+03 0.  0.
          2    1    1    2  501    0  0.45121659764E+02 -0.10782066673E+03 -0.11068503482E+04  0.11130044715E+04  0.00000000000E+00 0. -1.
          1    1    1    2  502    0  0.17221474555E+01 -0.26176811532E+02  0.17941666927E+02  0.31781986501E+02  0.00000000000E+00 0. -1.
         22    1    3    3    0    0 -0.78368431787E+02  0.68081305925E+02 -0.11536556394E+03  0.15519629074E+03  0.00000000000E+00 0. -1.
         22    1    3    3    0    0  0.31524624567E+02  0.65916172341E+02 -0.15201397611E+02  0.74631268377E+02  0.00000000000E+00 0. -1.
</event>
<event>
 7    1  0.6078244E-006  0.1838465E+03  0.7818608E-02  0.1373629E+00
          2   -1    0    0  502    0  0.00000000000E+00  0.00000000000E+00  0.16617080576E+04  0.16617080576E+04  0.00000000000E+00 0. -1.
          1   -1    0    0  501    0 -0.00000000000E+00 -0.00000000000E+00 -0.25827270961E+03  0.25827270961E+03  0.00000000000E+00 0. -1.
         25    2    1    2    0    0  0.11270281502E+03  0.12245329414E+03  0.21672032882E+03  0.30048303603E+03  0.12500248103E+03 0.  0.
          2    1    1    2  501    0 -0.13588342856E+03 -0.12791247480E+03 -0.17603310225E+03  0.25654153748E+03  0.00000000000E+00 0. -1.
          1    1    1    2  502    0  0.23180613541E+02  0.54591806624E+01  0.13627481215E+04  0.13629561937E+04  0.00000000000E+00 0. -1.
         22    1    3    3    0    0  0.20633650557E+02  0.63054754671E+02  0.16789791599E+03  0.18053077249E+03  0.00000000000E+00 0. -1.
         22    1    3    3    0    0  0.92069164459E+02  0.59398539469E+02  0.48822412828E+02  0.11995226355E+03  0.00000000000E+00 0. -1.
</event>
<event>
 7    1  0.6078244E-006  0.9930940E+02  0.7818608E-02  0.1290320E+00
          2   -1    0    0  502    0  0.00000000000E+00  0.00000000000E+00  0.64074679578E+03  0.64074679578E+03  0.00000000000E+00 0. -1.
          1   -1    0    0  501    0 -0.00000000000E+00 -0.00000000000E+00 -0.29915151442E+03  0.29915151442E+03  0.00000000000E+00 0. -1.
         25    2    1    2    0    0 -0.47603685524E+02 -0.91840397510E+01 -0.72768577162E+02  0.15256110672E+03  0.12501667089E+03 0.  0.
          2    1    1    2  501    0  0.12746441522E+03 -0.35697791065E+02 -0.15889377211E+03  0.20680604500E+03  0.00000000000E+00 0. -1.
          1    1    1    2  502    0 -0.79860729694E+02  0.44881830816E+02  0.57325763063E+03  0.58053115847E+03  0.00000000000E+00 0. -1.
         22    1    3    3    0    0 -0.41007788992E+02  0.41025405056E+02  0.66339869384E+01  0.58384350650E+02  0.00000000000E+00 0. -1.
         22    1    3    3    0    0 -0.65958965317E+01 -0.50209444807E+02 -0.79402564100E+02  0.94176756074E+02  0.00000000000E+00 0. -1.
</event>
<event>
 7    1  0.6078244E-006  0.2546538E+02  0.7818608E-02  0.1668486E+00
          2   -1    0    0  502    0  0.00000000000E+00  0.00000000000E+00  0.16803754309E+04  0.16803754309E+04  0.00000000000E+00 0. -1.
          1   -1    0    0  501    0 -0.00000000000E+00 -0.00000000000E+00 -0.10269348377E+04  0.10269348377E+04  0.00000000000E+00 0. -1.
         25    2    1    2    0    0 -0.12409638313E+02 -0.37924719061E+02  0.28015071446E+03  0.30935685593E+03  0.12499983224E+03 0.  0.
          2    1    1    2  501    0  0.19308102633E+02  0.13475660062E+02 -0.10120783929E+04  0.10123522459E+04  0.00000000000E+00 0. -1.
          1    1    1    2  502    0 -0.68984643197E+01  0.24449058998E+02  0.13853682717E+04  0.13856011668E+04  0.00000000000E+00 0. -1.
         22    1    3    3    0    0  0.55777116134E+02 -0.22514436256E+02  0.10930098252E+03  0.12475853199E+03  0.00000000000E+00 0.  1.
         22    1    3    3    0    0 -0.68186754447E+02 -0.15410282804E+02  0.17084973194E+03  0.18459832394E+03  0.00000000000E+00 0.  1.
</event>
<event>
 7    1  0.6078244E-006  0.5970494E+02  0.7818608E-02  0.1501353E+00
          2   -1    0    0  502    0  0.00000000000E+00  0.00000000000E+00  0.16609599690E+03  0.16609599690E+03  0.00000000000E+00 0. -1.
          1   -1    0    0  501    0 -0.00000000000E+00 -0.00000000000E+00 -0.14322007861E+04  0.14322007861E+04  0.00000000000E+00 0. -1.
         25    2    1    2    0    0 -0.44253809119E+02  0.66717370710E+02  0.72323363544E+02  0.16512007331E+03  0.12499745005E+03 0.  0.
          2    1    1    2  501    0  0.45378002548E+02 -0.38656903699E+02 -0.13809403255E+04  0.13822263569E+04  0.00000000000E+00 0. -1.
          1    1    1    2  502    0 -0.11241934288E+01 -0.28060467011E+02  0.42512172699E+02  0.50950352770E+02  0.00000000000E+00 0. -1.
         22    1    3    3    0    0 -0.18712656978E+02  0.10273510378E+02 -0.35117434838E+02  0.41096748975E+02  0.00000000000E+00 0.  1.
         22    1    3    3    0    0 -0.25541152141E+02  0.56443860332E+02  0.10744079838E+03  0.12402332433E+03  0.00000000000E+00 0.  1.
</event>
<event>
 7    1  0.6078244E-006  0.8905298E+02  0.7818608E-02  0.1469064E+00
          2   -1    0    0  502    0  0.00000000000E+00  0.00000000000E+00  0.10526367014E+04  0.10526367014E+04  0.00000000000E+00 0. -1.
          1   -1    0    0  501    0 -0.00000000000E+00 -0.00000000000E+00 -0.70618287211E+02  0.70618287211E+02  0.00000000000E+00 0. -1.
         25    2    1    2    0    0 -0.83954550781E+02 -0.34866021653E+02  0.13363044947E+03  0.20432281465E+03  0.12500683779E+03 0.  0.
          2    1    1    2  501    0 -0.43998501318E+01  0.23199680317E+02 -0.28791942584E+02  0.37236538585E+02  0.00000000000E+00 0. -1.
          1    1    1    2  502    0  0.88354400913E+02  0.11666341336E+02  0.87717990725E+03  0.88169563533E+03  0.00000000000E+00 0. -1.
         22    1    3    3    0    0 -0.18247207045E+02  0.20398421954E+02 -0.16077755102E+02  0.31741934287E+02  0.00000000000E+00 0.  1.
         22    1    3    3    0    0 -0.65707343736E+02 -0.55264443607E+02  0.14970820458E+03  0.17258088036E+03  0.00000000000E+00 0.  1.
</event>
<event>
 7    1  0.6078244E-006  0.2204847E+03  0.7818608E-02  0.1307753E+00
          2   -1    0    0  502    0  0.00000000000E+00  0.00000000000E+00  0.52537602438E+02  0.52537602438E+02  0.00000000000E+00 0. -1.
          1   -1    0    0  501    0 -0.00000000000E+00 -0.00000000000E+00 -0.24635410880E+04  0.24635410880E+04  0.00000000000E+00 0. -1.
         25    2    1    2    0    0  0.52269318853E+02 -0.24191647846E+03 -0.10954326328E+04  0.11299801032E+04  0.12500686495E+03 0.  0.
          2    1    1    2  501    0 -0.11334687201E+02  0.33248745578E+02 -0.10272138376E+04  0.10278142937E+04  0.00000000000E+00 0. -1.
          1    1    1    2  502    0 -0.40934631652E+02  0.20866773288E+03 -0.28835701512E+03  0.35828429352E+03  0.00000000000E+00 0. -1.
         22    1    3    3    0    0  0.82435629541E+02 -0.20594114074E+03 -0.77484123401E+03  0.80596918328E+03  0.00000000000E+00 0. -1.
         22    1    3    3    0    0 -0.30166310688E+02 -0.35975337724E+02 -0.32059139883E+03  0.32401091992E+03  0.00000000000E+00 0. -1.
</event>
<event>
 7    1  0.6078244E-006  0.7182625E+02  0.7818608E-02  0.1361959E+00
          2   -1    0    0  502    0  0.00000000000E+00  0.00000000000E+00  0.17371190500E+04  0.17371190500E+04  0.00000000000E+00 0. -1.
          1   -1    0    0  501    0 -0.00000000000E+00 -0.00000000000E+00 -0.31170921034E+03  0.31170921034E+03  0.00000000000E+00 0. -1.
         25    2    1    2    0    0  0.35320065933E+02 -0.72024872445E+02  0.29754595440E+03  0.33255635635E+03  0.12500018343E+03 0.  0.
          2    1    1    2  501    0  0.35990689866E+02  0.56702498095E+02 -0.28942115764E+03  0.29711127467E+03  0.00000000000E+00 0. -1.
          1    1    1    2  502    0 -0.71310755799E+02  0.15322374350E+02  0.14172850429E+04  0.14191606294E+04  0.00000000000E+00 0. -1.
         22    1    3    3    0    0 -0.80245339438E+00  0.11570280925E+02 -0.77624041679E+01  0.13956011271E+02  0.00000000000E+00 0.  1.
         22    1    3    3    0    0  0.36122519327E+02 -0.83595153370E+02  0.30530835857E+03  0.31860034508E+03  0.00000000000E+00 0.  1.
</event>
<event>
 7    1  0.6078244E-006  0.4436567E+02  0.7818608E-02  0.1571581E+00
          2   -1    0    0  502    0  0.00000000000E+00  0.00000000000E+00  0.12853075892E+03  0.12853075892E+03  0.00000000000E+00 0. -1.
          1   -1    0    0  501    0 -0.00000000000E+00 -0.00000000000E+00 -0.16978101141E+04  0.16978101141E+04  0.00000000000E+00 0. -1.
         25    2    1    2    0    0  0.15048551702E+02 -0.53761492966E+02 -0.37612968820E+03  0.40026897186E+03  0.12499980181E+03 0.  0.
          2    1    1    2  501    0  0.13361565501E+02  0.19778746259E+02 -0.13052860997E+04  0.13055043210E+04  0.00000000000E+00 0. -1.
          1    1    1    2  502    0 -0.28410117203E+02  0.33982746707E+02  0.11213643271E+03  0.12056758012E+03  0.00000000000E+00 0. -1.
         22    1    3    3    0    0  0.60253091368E+02 -0.29452969711E+02 -0.10694299679E+03  0.12623278895E+03  0.00000000000E+00 0.  1.
         22    1    3    3    0    0 -0.45204539666E+02 -0.24308523255E+02 -0.26918669141E+03  0.27403618291E+03  0.00000000000E+00 0.  1.
</event>
<event>
 7    1  0.7592777E-006  0.9953111E+02  0.7818608E-02  0.1398215E+00
          2   -1    0    0  502    0  0.00000000000E+00  0.00000000000E+00  0.60075783710E+03  0.60075783710E+03  0.00000000000E+00 0. -1.
          1   -1    0    0  501    0 -0.00000000000E+00 -0.00000000000E+00 -0.24963888792E+04  0.24963888792E+04  0.00000000000E+00 0. -1.
         25    2    1    2    0    0  0.53790187053E+02 -0.38024282925E+02 -0.49465368781E+03  0.51443837356E+03  0.12500135605E+03 0.  0.
          2    1    1    2  501    0  0.35421550506E+02 -0.67531223256E+01 -0.19874623893E+04  0.19877894858E+04  0.00000000000E+00 0. -1.
          1    1    1    2  502    0 -0.89211737558E+02  0.44777405251E+02  0.58648503498E+03  0.59491885699E+03  0.00000000000E+00 0. -1.
         22    1    3    3    0    0  0.64250266389E+02 -0.48296492616E+02 -0.49319902346E+03  0.49970583814E+03  0.00000000000E+00 0.  1.
         22    1    3    3    0    0 -0.10460079336E+02  0.10272209691E+02 -0.14546643520E+01  0.14732535424E+02  0.00000000000E+00 0.  1.
</event>
<event>
 7    1  0.6078244E-006  0.1315274E+03  0.7818608E-02  0.1298014E+00
          2   -1    0    0  502    0  0.00000000000E+00  0.00000000000E+00  0.19236783636E+03  0.19236783636E+03  0.00000000000E+00 0. -1.
          1   -1    0    0  501    0 -0.00000000000E+00 -0.00000000000E+00 -0.21223173219E+04  0.21223173219E+04  0.00000000000E+00 0. -1.
         25    2    1    2    0    0 -0.56588619376E+02  0.11997270463E+03 -0.80885670800E+03  0.82913756330E+03  0.12499681239E+03 0.  0.
          2    1    1    2  501    0  0.10801565580E+03 -0.81224624714E+02 -0.12940008352E+04  0.13010391935E+04  0.00000000000E+00 0. -1.
          1    1    1    2  502    0 -0.51427036428E+02 -0.38748079918E+02  0.17290805769E+03  0.18450840140E+03  0.00000000000E+00 0. -1.
         22    1    3    3    0    0  0.15979450005E+02  0.10593996668E+03 -0.43072151824E+03  0.44384642122E+03  0.00000000000E+00 0. -1.
         22    1    3    3    0    0 -0.72568069381E+02  0.14032737951E+02 -0.37813518976E+03  0.38529114208E+03  0.00000000000E+00 0. -1.
</event>
<event>
 7    1  0.6078244E-006  0.2015933E+03  0.7818608E-02  0.1326387E+00
          2   -1    0    0  502    0  0.00000000000E+00  0.00000000000E+00  0.76943525230E+03  0.76943525230E+03  0.00000000000E+00 0. -1.
          1   -1    0    0  501    0 -0.00000000000E+00 -0.00000000000E+00 -0.16960707031E+03  0.16960707031E+03  0.00000000000E+00 0. -1.
         25    2    1    2    0    0 -0.11974723275E+03  0.19174440217E+03  0.26868109440E+03  0.37272175866E+03  0.12500665333E+03 0.  0.
          2    1    1    2  501    0  0.11191195313E+03 -0.16020043068E+03 -0.35175182519E+02  0.19855920202E+03  0.00000000000E+00 0. -1.
          1    1    1    2  502    0  0.78352796217E+01 -0.31543971495E+02  0.36632227011E+03  0.36776136192E+03  0.00000000000E+00 0. -1.
         22    1    3    3    0    0 -0.82242235654E+02  0.18758987756E+03  0.16704276840E+03  0.26430481260E+03  0.00000000000E+00 0.  1.
         22    1    3    3    0    0 -0.37504997099E+02  0.41545246123E+01  0.10163832600E+03  0.10841694607E+03  0.00000000000E+00 0.  1.
</event>
<event>
 7    1  0.6078244E-006  0.1217323E+03  0.7818608E-02  0.1307389E+00
          2   -1    0    0  502    0  0.00000000000E+00  0.00000000000E+00  0.45694876556E+03  0.45694876556E+03  0.00000000000E+00 0. -1.
          1   -1    0    0  501    0 -0.00000000000E+00 -0.00000000000E+00 -0.64083365668E+03  0.64083365668E+03  0.00000000000E+00 0. -1.
         25    2    1    2    0    0 -0.16093344698E+02 -0.80322948840E+02 -0.21825335514E+03  0.26451908544E+03  0.12500019072E+03 0.  0.
          2    1    1    2  501    0  0.12588894337E+02  0.14406179565E+03 -0.38385753017E+03  0.41019371606E+03  0.00000000000E+00 0. -1.
          1    1    1    2  502    0  0.35044503608E+01 -0.63738846814E+02  0.41822599420E+03  0.42306962073E+03  0.00000000000E+00 0. -1.
         22    1    3    3    0    0 -0.24407752271E+02 -0.11289474467E+03 -0.17616101672E+03  0.21065057692E+03  0.00000000000E+00 0. -1.
         22    1    3    3    0    0  0.83144075732E+01  0.32571795828E+02 -0.42092338417E+02  0.53868508520E+02  0.00000000000E+00 0. -1.
</event>
<event>
 7    1  0.6078244E-006  0.2702779E+02  0.7818608E-02  0.1656133E+00
          2   -1    0    0  502    0  0.00000000000E+00  0.00000000000E+00  0.10791187791E+04  0.10791187791E+04  0.00000000000E+00 0. -1.
          1   -1    0    0  501    0 -0.00000000000E+00 -0.00000000000E+00 -0.36339699001E+03  0.36339699001E+03  0.00000000000E+00 0. -1.
         25    2    1    2    0    0 -0.12056749985E+02 -0.11202221938E+02  0.34682286273E+03  0.36902641640E+03  0.12499417143E+03 0.  0.
          2    1    1    2  501    0  0.25784985039E+02 -0.81927971716E+01 -0.35157961342E+03  0.35261907486E+03  0.00000000000E+00 0. -1.
          1    1    1    2  502    0 -0.13728235054E+02  0.19395019109E+02  0.72047853983E+03  0.72087027790E+03  0.00000000000E+00 0. -1.
         22    1    3    3    0    0  0.10649812273E+02 -0.63290141285E+02  0.23484153843E+03  0.24345350410E+03  0.00000000000E+00 0. -1.
         22    1    3    3    0    0 -0.22706562258E+02  0.52087919347E+02  0.11198132430E+03  0.12557291230E+03  0.00000000000E+00 0. -1.
</event>
<event>
 7    1  0.6078244E-006  0.3715268E+02  0.7818608E-02  0.1550404E+00
          2   -1    0    0  502    0  0.00000000000E+00  0.00000000000E+00  0.46517653022E+03  0.46517653022E+03  0.00000000000E+00 0. -1.
          1   -1    0    0  501    0 -0.00000000000E+00 -0.00000000000E+00 -0.47244856201E+03  0.47244856201E+03  0.00000000000E+00 0. -1.
         25    2    1    2    0    0  0.45057163240E+01  0.35370019001E+02  0.37480395326E+03  0.39670121824E+03  0.12499005338E+03 0.  0.
          2    1    1    2  501    0  0.30528631742E+02 -0.11412625978E+02 -0.45520529939E+03  0.45637058405E+03  0.00000000000E+00 0. -1.
          1    1    1    2  502    0 -0.35034348066E+02 -0.23957393022E+02  0.73129314336E+02  0.84553289943E+02  0.00000000000E+00 0. -1.
         22    1    3    3    0    0  0.26173116899E+02 -0.17066834796E+02  0.19360209336E+02  0.36757674079E+02  0.00000000000E+00 0. -1.
         22    1    3    3    0    0 -0.21667400575E+02  0.52436853797E+02  0.35544374393E+03  0.35994354416E+03  0.00000000000E+00 0. -1.
</event>
<event>
 7    1  0.6078244E-006  0.5406329E+02  0.7818608E-02  0.1478164E+00
          2   -1    0    0  502    0  0.00000000000E+00  0.00000000000E+00  0.78315902491E+02  0.78315902491E+02  0.00000000000E+00 0. -1.
          1   -1    0    0  501    0 -0.00000000000E+00 -0.00000000000E+00 -0.91427869217E+03  0.91427869217E+03  0.00000000000E+00 0. -1.
         25    2    1    2    0    0  0.41649515239E+02 -0.24207062661E+02 -0.47169710568E+03  0.49035125049E+03  0.12500210137E+03 0.  0.
          2    1    1    2  501    0 -0.24102297953E+02 -0.27347885802E+02 -0.42159661323E+03  0.42316962546E+03  0.00000000000E+00 0. -1.
          1    1    1    2  502    0 -0.17547217286E+02  0.51554948464E+02  0.57330929228E+02  0.79073718717E+02  0.00000000000E+00 0. -1.
         22    1    3    3    0    0 -0.91988606592E+01  0.20975983951E+02 -0.12402345519E+02  0.26046671851E+02  0.00000000000E+00 0.  1.
         22    1    3    3    0    0  0.50848375898E+02 -0.45183046612E+02 -0.45929476016E+03  0.46430457864E+03  0.00000000000E+00 0.  1.
</event>
<event>
 7    1  0.6078244E-006  0.7505335E+02  0.7818608E-02  0.1349243E+00
          2   -1    0    0  502    0  0.00000000000E+00  0.00000000000E+00  0.95795357526E+02  0.95795357526E+02  0.00000000000E+00 0. -1.
          1   -1    0    0  501    0 -0.00000000000E+00 -0.00000000000E+00 -0.40951297687E+04  0.40951297687E+04  0.00000000000E+00 0. -1.
         25    2    1    2    0    0 -0.10389273250E+02 -0.12013143904E+03 -0.41247854547E+03  0.44755136085E+03  0.12499668190E+03 0.  0.
          2    1    1    2  501    0  0.45655981368E+02  0.55119147807E+02 -0.36472098441E+04  0.36479120378E+04  0.00000000000E+00 0. -1.
          1    1    1    2  502    0 -0.35266708119E+02  0.65012291234E+02  0.60353978388E+02  0.95461727516E+02  0.00000000000E+00 0. -1.
         22    1    3    3    0    0  0.49086463131E+02 -0.18014112314E+02 -0.16909728136E+03  0.17699683519E+03  0.00000000000E+00 0.  1.
         22    1    3    3    0    0 -0.59475736380E+02 -0.10211732673E+03 -0.24338126411E+03  0.27055452566E+03  0.00000000000E+00 0.  1.
</event>
<event>
 7    1  0.6078244E-006  0.6190598E+02  0.7818608E-02  0.1422279E+00
          2   -1    0    0  502    0  0.00000000000E+00  0.00000000000E+00  0.15880729457E+04  0.15880729457E+04  0.00000000000E+00 0. -1.
          1   -1    0    0  501    0 -0.00000000000E+00 -0.00000000000E+00 -0.24617478422E+03  0.24617478422E+03  0.00000000000E+00 0. -1.
         25    2    1    2    0    0 -0.60684629080E+02  0.58834766399E+02  0.32714419986E+03  0.36026683718E+03  0.12499885010E+03 0.  0.
          2    1    1    2  501    0  0.60857294500E+02 -0.10781773786E+02 -0.22498053600E+03  0.23331544852E+03  0.00000000000E+00 0. -1.
          1    1    1    2  502    0 -0.17266542076E+00 -0.48052992612E+02  0.12397344976E+04  0.12406654442E+04  0.00000000000E+00 0. -1.
         22    1    3    3    0    0 -0.54165232163E+01  0.85402591739E+02  0.14851433874E+03  0.17140434712E+03  0.00000000000E+00 0.  1.
         22    1    3    3    0    0 -0.55268105863E+02 -0.26567825341E+02  0.17862986112E+03  0.18886249006E+03  0.00000000000E+00 0.  1.
</event>
<event>
 7    1  0.6078244E-006  0.8831250E+02  0.7818608E-02  0.1347497E+00
          2   -1    0    0  502    0  0.00000000000E+00  0.00000000000E+00  0.65241262074E+03  0.65241262074E+03  0.00000000000E+00 0. -1.
          1   -1    0    0  501    0 -0.00000000000E+00 -0.00000000000E+00 -0.31241200781E+03  0.31241200781E+03  0.00000000000E+00 0. -1.
         25    2    1    2    0    0 -0.47861315138E+01  0.32443134063E+02  0.46758148683E+02  0.13742793339E+03  0.12499859361E+03 0.  0.
          2    1    1    2  501    0 -0.68682695767E+01 -0.93074947059E+02 -0.25714477785E+03  0.27355722559E+03  0.00000000000E+00 0. -1.
          1    1    1    2  502    0  0.11654401090E+02  0.60631812996E+02  0.55038724209E+03  0.55383946958E+03  0.00000000000E+00 0. -1.
         22    1    3    3    0    0  0.16285124970E+02  0.52149066875E+02  0.77789374024E+02  0.95057441488E+02  0.00000000000E+00 0. -1.
         22    1    3    3    0    0 -0.21071256484E+02 -0.19705932812E+02 -0.31031225340E+02  0.42370491901E+02  0.00000000000E+00 0. -1.
</event>
<event>
 7    1  0.6078244E-006  0.5385739E+02  0.7818608E-02  0.1438289E+00
          2   -1    0    0  502    0  0.00000000000E+00  0.00000000000E+00  0.86284885268E+03  0.86284885268E+03  0.00000000000E+00 0. -1.
          1   -1    0    0  501    0 -0.00000000000E+00 -0.00000000000E+00 -0.14329821690E+04  0.14329821690E+04  0.00000000000E+00 0. -1.
         25    2    1    2    0    0 -0.78389449586E+01 -0.43815389889E+01  0.41881817954E+03  0.43716414306E+03  0.12499269385E+03 0.  0.
          2    1    1    2  501    0 -0.43893425419E+02  0.31208738064E+02 -0.14213445623E+04  0.14223645745E+04  0.00000000000E+00 0. -1.
          1    1    1    2  502    0  0.51732370378E+02 -0.26827199075E+02  0.43239306638E+03  0.43630230415E+03  0.00000000000E+00 0. -1.
         22    1    3    3    0    0 -0.48842325763E+02  0.34916167424E+02  0.13544407313E+03  0.14815467755E+03  0.00000000000E+00 0. -1.
         22    1    3    3    0    0  0.41003380804E+02 -0.39297706413E+02  0.28337410641E+03  0.28900946550E+03  0.00000000000E+00 0. -1.
</event>
<event>
 7    1  0.6078244E-006  0.7480383E+02  0.7818608E-02  0.1350087E+00
          2   -1    0    0  502    0  0.00000000000E+00  0.00000000000E+00  0.26028258862E+03  0.26028258862E+03  0.00000000000E+00 0. -1.
          1   -1    0    0  501    0 -0.00000000000E+00 -0.00000000000E+00 -0.18188095680E+03  0.18188095680E+03  0.00000000000E+00 0. -1.
         25    2    1    2    0    0  0.23465342671E+02 -0.53904792326E+01 -0.33017767951E+02  0.13151570369E+03  0.12500611083E+03 0.  0.
          2    1    1    2  501    0 -0.77836203178E+02  0.56765784888E+02 -0.66890760709E+02  0.11728257640E+03  0.00000000000E+00 0. -1.
          1    1    1    2  502    0  0.54370860507E+02 -0.51375305655E+02  0.17831016048E+03  0.19336526532E+03  0.00000000000E+00 0. -1.
         22    1    3    3    0    0  0.39815961825E+02  0.53098923134E+02 -0.20947843888E+02  0.69596110650E+02  0.00000000000E+00 0. -1.
         22    1    3    3    0    0 -0.16350619154E+02 -0.58489402366E+02 -0.12069924063E+02  0.61919593045E+02  0.00000000000E+00 0. -1.
</event>
<event>
 7    1  0.6078244E-006  0.1105919E+03  0.7818608E-02  0.1323138E+00
          2   -1    0    0  502    0  0.00000000000E+00  0.00000000000E+00  0.30128718388E+04  0.30128718388E+04  0.00000000000E+00 0. -1.
          1   -1    0    0  501    0 -0.00000000000E+00 -0.00000000000E+00 -0.62577252900E+03  0.62577252900E+03  0.00000000000E+00 0. -1.
         25    2    1    2    0    0  0.54122497303E+01 -0.83681382729E+02  0.19974671230E+03  0.25010995131E+03  0.12499748961E+03 0.  0.
          2    1    1    2  501    0 -0.66082429569E+02  0.89816845840E+02 -0.59507824589E+03  0.60543544001E+03  0.00000000000E+00 0. -1.
          1    1    1    2  502    0  0.60670179838E+02 -0.61354631113E+01  0.27824308434E+04  0.27830989765E+04  0.00000000000E+00 0. -1.
         22    1    3    3    0    0 -0.48593712438E+02 -0.31696174878E+02  0.31723858588E+02  0.66124122634E+02  0.00000000000E+00 0.  1.
         22    1    3    3    0    0  0.54005962169E+02 -0.51985207851E+02  0.16802285371E+03  0.18398582868E+03  0.00000000000E+00 0.  1.
</event>
<event>
 7    1  0.6078244E-006  0.1065791E+03  0.7818608E-02  0.1289236E+00
          2   -1    0    0  502    0  0.00000000000E+00  0.00000000000E+00  0.12550225766E+03  0.12550225766E+03  0.00000000000E+00 0. -1.
          1   -1    0    0  501    0 -0.00000000000E+00 -0.00000000000E+00 -0.81391453646E+03  0.81391453646E+03  0.00000000000E+00 0. -1.
         25    2    1    2    0    0 -0.75169361728E+02 -0.37233989229E+02 -0.24772239854E+03  0.28987593478E+03  0.12499947172E+03 0.  0.
          2    1    1    2  501    0  0.37733279785E+02  0.11491510720E+03 -0.51909138978E+03  0.53299639137E+03  0.00000000000E+00 0. -1.
          1    1    1    2  502    0  0.37436081943E+02 -0.77681117971E+02  0.78401509519E+02  0.11654446797E+03  0.00000000000E+00 0. -1.
         22    1    3    3    0    0 -0.79052263093E+01  0.42203283675E+01 -0.19428141500E+03  0.19448797389E+03  0.00000000000E+00 0. -1.
         22    1    3    3    0    0 -0.67264135419E+02 -0.41454317597E+02 -0.53440983540E+02  0.95387960890E+02  0.00000000000E+00 0. -1.
</event>
<event>
 7    1  0.6078244E-006  0.6708552E+02  0.7818608E-02  0.1481267E+00
          2   -1    0    0  502    0  0.00000000000E+00  0.00000000000E+00  0.21771465264E+04  0.21771465264E+04  0.00000000000E+00 0. -1.
          1   -1    0    0  501    0 -0.00000000000E+00 -0.00000000000E+00 -0.11046915704E+04  0.11046915704E+04  0.00000000000E+00 0. -1.
         25    2    1    2    0    0 -0.68997166950E+02  0.61193953764E+02  0.30380301512E+03  0.34121305314E+03  0.12499906644E+03 0.  0.
          2    1    1    2  501    0  0.57131775656E+02 -0.35017550585E+02 -0.10848413577E+04  0.10869089382E+04  0.00000000000E+00 0. -1.
          1    1    1    2  502    0  0.11865391294E+02 -0.26176403179E+02  0.18534932986E+04  0.18537161054E+04  0.00000000000E+00 0. -1.
         22    1    3    3    0    0  0.19688989511E+02  0.57870008480E+02  0.81711361890E+02  0.10204577821E+03  0.00000000000E+00 0.  1.
         22    1    3    3    0    0 -0.88686156461E+02  0.33239452839E+01  0.22209165323E+03  0.23916727492E+03  0.00000000000E+00 0.  1.
</event>
<event>
 7    1  0.6078244E-006  0.7570222E+02  0.7818608E-02  0.1395866E+00
          2   -1    0    0  502    0  0.00000000000E+00  0.00000000000E+00  0.83387836089E+03  0.83387836089E+03  0.00000000000E+00 0. -1.
          1   -1    0    0  501    0 -0.00000000000E+00 -0.00000000000E+00 -0.32273805579E+03  0.32273805579E+03  0.00000000000E+00 0. -1.
         25    2    1    2    0    0 -0.63811216282E+01 -0.83612980509E+02 -0.22761591494E+01  0.15054009044E+03  0.12500115482E+03 0.  0.
          2    1    1    2  501    0  0.48010832416E+02  0.59112555287E+02 -0.23965184136E+03  0.25146041297E+03  0.00000000000E+00 0. -1.
          1    1    1    2  502    0 -0.41629710788E+02  0.24500425222E+02  0.75306830561E+03  0.75461591327E+03  0.00000000000E+00 0. -1.
         22    1    3    3    0    0  0.18958101553E+02  0.28594446620E+02 -0.84776025184E+01  0.35340086820E+02  0.00000000000E+00 0.  1.
         22    1    3    3    0    0 -0.25339223181E+02 -0.11220742713E+03  0.62014433690E+01  0.11520000362E+03  0.00000000000E+00 0.  1.
</event>
<event>
 7    1  0.6078244E-006  0.8054759E+02  0.7818608E-02  0.1355287E+00
          2   -1    0    0  502    0  0.00000000000E+00  0.00000000000E+00  0.11510741041E+04  0.11510741041E+04  0.00000000000E+00 0. -1.
          1   -1    0    0  501    0 -0.00000000000E+00 -0.00000000000E+00 -0.69649831943E+03  0.69649831943E+03  0.00000000000E+00 0. -1.
         25    2    1    2    0    0  0.11695875077E+02 -0.13328562745E+03 -0.35146799759E+03  0.39630246534E+03  0.12499615488E+03 0.  0.
          2    1    1    2  501    0 -0.13573334762E+02  0.69963591671E+02 -0.31777418397E+03  0.32566788539E+03  0.00000000000E+00 0. -1.
          1    1    1    2  502    0  0.18774596850E+01  0.63322035775E+02  0.11238179662E+04  0.11256020728E+04  0.00000000000E+00 0. -1.
         22    1    3    3    0    0 -0.36076789038E+01  0.24176302515E+02 -0.38161655030E+02  0.45319100443E+02  0.00000000000E+00 0. -1.
         22    1    3    3    0    0  0.15303553980E+02 -0.15746192996E+03 -0.31330634256E+03  0.35098336490E+03  0.00000000000E+00 0. -1.
</event>
<event>
 7    1  0.6078244E-006  0.9392228E+02  0.7818608E-02  0.1369882E+00
          2   -1    0    0  502    0  0.00000000000E+00  0.00000000000E+00  0.17819603013E+03  0.17819603013E+03  0.00000000000E+00 0. -1.
          1   -1    0    0  501    0 -0.00000000000E+00 -0.00000000000E+00 -0.78794956507E+03  0.78794956507E+03  0.00000000000E+00 0. -1.
         25    2    1    2    0    0 -0.10294249843E+03 -0.70653696457E+02 -0.55813164128E+03  0.58542729993E+03  0.12500036682E+03 0.  0.
          2    1    1    2  501    0  0.59216969294E+02  0.50657873750E+02 -0.20535378846E+03  0.21964300139E+03  0.00000000000E+00 0. -1.
          1    1    1    2  502    0  0.43725529135E+02  0.19995822707E+02  0.15373189479E+03  0.16107529389E+03  0.00000000000E+00 0. -1.
         22    1    3    3    0    0 -0.65905255054E+02 -0.10633802377E+03 -0.38477454831E+03  0.40460194138E+03  0.00000000000E+00 0.  1.
         22    1    3    3    0    0 -0.37037243375E+02  0.35684327315E+02 -0.17335709297E+03  0.18082535855E+03  0.00000000000E+00 0.  1.
</event>
<event>
 7    1  0.6078244E-006  0.1369339E+03  0.7818608E-02  0.1413626E+00
          2   -1    0    0  502    0  0.00000000000E+00  0.00000000000E+00  0.22891756374E+04  0.22891756374E+04  0.00000000000E+00 0. -1.
          1   -1    0    0  501    0 -0.00000000000E+00 -0.00000000000E+00 -0.22075909578E+03  0.22075909578E+03  0.00000000000E+00 0. -1.
         25    2    1    2    0    0  0.11328518147E+03 -0.93658680488E+02  0.11962213366E+04  0.12116830130E+04  0.12499902921E+03 0.  0.
          2    1    1    2  501    0 -0.91489459941E+02  0.10167670795E+03 -0.19093297557E+03  0.23486991161E+03  0.00000000000E+00 0. -1.
          1    1    1    2  502    0 -0.21795721527E+02 -0.80180274618E+01  0.10631281806E+04  0.10633818085E+04  0.00000000000E+00 0. -1.
         22    1    3    3    0    0  0.24787637666E+02 -0.43033438235E+02  0.83143544325E+03  0.83291728285E+03  0.00000000000E+00 0. -1.
         22    1    3    3    0    0  0.88497543801E+02 -0.50625242252E+02  0.36478589330E+03  0.37876573019E+03  0.00000000000E+00 0. -1.
</event>
<event>
 7    1  0.6078244E-006  0.2012099E+03  0.7818608E-02  0.1258569E+00
          2   -1    0    0  502    0  0.00000000000E+00  0.00000000000E+00  0.19005057007E+04  0.19005057007E+04  0.00000000000E+00 0. -1.
          1   -1    0    0  501    0 -0.00000000000E+00 -0.00000000000E+00 -0.20259764516E+03  0.20259764516E+03  0.00000000000E+00 0. -1.
         25    2    1    2    0    0 -0.16255055608E+03 -0.42525999917E+02  0.15876160146E+03  0.26279532813E+03  0.12499997775E+03 0.  0.
          2    1    1    2  501    0 -0.43297129817E+02  0.43438583878E+02 -0.13776965985E+03  0.15080461265E+03  0.00000000000E+00 0. -1.
          1    1    1    2  502    0  0.20584768589E+03 -0.91258396095E+00  0.16769161139E+04  0.16895034051E+04  0.00000000000E+00 0. -1.
         22    1    3    3    0    0 -0.78715812928E+02  0.42068374058E+02  0.55007319197E+02  0.10484146349E+03  0.00000000000E+00 0.  1.
         22    1    3    3    0    0 -0.83834743148E+02 -0.84594373975E+02  0.10375428227E+03  0.15795386464E+03  0.00000000000E+00 0.  1.
</event>
<event>
 7    1  0.6078244E-006  0.7813822E+02  0.7818608E-02  0.1350494E+00
          2   -1    0    0  502    0  0.00000000000E+00  0.00000000000E+00  0.62264446888E+03  0.62264446888E+03  0.00000000000E+00 0. -1.
          1   -1    0    0  501    0 -0.00000000000E+00 -0.00000000000E+00 -0.26891122564E+03  0.26891122564E+03  0.00000000000E+00 0. -1.
         25    2    1    2    0    0  0.12139543495E+03  0.78691509438E+02 -0.10540648544E+03  0.21832127177E+03  0.12499778099E+03 0.  0.
          2    1    1    2  501    0 -0.54006702794E+02 -0.41346106669E+02 -0.93293139381E+02  0.11545490175E+03  0.00000000000E+00 0. -1.
          1    1    1    2  502    0 -0.67388732151E+02 -0.37345402769E+02  0.55243286806E+03  0.55777952099E+03  0.00000000000E+00 0. -1.
         22    1    3    3    0    0  0.16106717765E+02 -0.31777777413E+02 -0.36077998409E+02  0.50703801274E+02  0.00000000000E+00 0.  1.
         22    1    3    3    0    0  0.10528871718E+03  0.11046928685E+03 -0.69328487029E+02  0.16761747050E+03  0.00000000000E+00 0.  1.
</event>
<event>
 7    1  0.6078244E-006  0.9246569E+02  0.7818608E-02  0.1371007E+00
          2   -1    0    0  502    0  0.00000000000E+00  0.00000000000E+00  0.22647986555E+03  0.22647986555E+03  0.00000000000E+00 0. -1.
          1   -1    0    0  501    0 -0.00000000000E+00 -0.00000000000E+00 -0.41279390167E+03  0.41279390167E+03  0.00000000000E+00 0. -1.
         25    2    1    2    0    0 -0.12506885885E+03 -0.43997375865E+02 -0.15945875384E+03  0.24213713936E+03  0.12500124617E+03 0.  0.
          2    1    1    2  501    0  0.79852189281E+02  0.26775141404E+02 -0.20018486724E+03  0.21718025095E+03  0.00000000000E+00 0. -1.
          1    1    1    2  502    0  0.45216669569E+02  0.17222234461E+02  0.17332958496E+03  0.17995637691E+03  0.00000000000E+00 0. -1.
         22    1    3    3    0    0 -0.27650388286E+01  0.15554190507E+02 -0.86195122220E+02  0.87630915644E+02  0.00000000000E+00 0. -1.
         22    1    3    3    0    0 -0.12230382002E+03 -0.59551566372E+02 -0.73263631623E+02  0.15450622372E+03  0.00000000000E+00 0. -1.
</event>
<event>
 7    1  0.6078244E-006  0.1028155E+03  0.7818608E-02  0.1323391E+00
          2   -1    0    0  502    0  0.00000000000E+00  0.00000000000E+00  0.12606455772E+04  0.12606455772E+04  0.00000000000E+00 0. -1.
          1   -1    0    0  501    0 -0.00000000000E+00 -0.00000000000E+00 -0.24973201850E+03  0.24973201850E+03  0.00000000000E+00 0. -1.
         25    2    1    2    0    0  0.84636707062E+02 -0.97932681867E+02  0.18061256948E+03  0.25495250107E+03  0.12500278073E+03 0.  0.
          2    1    1    2  501    0 -0.65402565159E+02 -0.23388529215E+01 -0.20495327245E+03  0.21514834336E+03  0.00000000000E+00 0. -1.
          1    1    1    2  502    0 -0.19234141903E+02  0.10027153479E+03  0.10352542617E+04  0.10402767513E+04  0.00000000000E+00 0. -1.
         22    1    3    3    0    0 -0.17697640165E+02 -0.77803831859E+01 -0.90507676935E+01  0.21346129058E+02  0.00000000000E+00 0. -1.
         22    1    3    3    0    0  0.10233434723E+03 -0.90152298681E+02  0.18966333717E+03  0.23360637202E+03  0.00000000000E+00 0. -1.
</event>
<event>
 7    1  0.6078244E-006  0.8080951E+02  0.7818608E-02  0.1358750E+00
          2   -1    0    0  502    0  0.00000000000E+00  0.00000000000E+00  0.41884475666E+04  0.41884475666E+04  0.00000000000E+00 0. -1.
          1   -1    0    0  501    0 -0.00000000000E+00 -0.00000000000E+00 -0.15080330041E+03  0.15080330041E+03  0.00000000000E+00 0. -1.
         25    2    1    2    0    0 -0.13598405009E+02  0.22763626865E+02  0.17959627618E+03  0.22041419138E+03  0.12499797606E+03 0.  0.
          2    1    1    2  501    0 -0.59694038092E+02  0.14050302870E+02 -0.12273806828E+03  0.13720576737E+03  0.00000000000E+00 0. -1.
          1    1    1    2  502    0  0.73292443101E+02 -0.36813929735E+02  0.39807860583E+04  0.39816309082E+04  0.00000000000E+00 0. -1.
         22    1    3    3    0    0  0.19047724893E+02 -0.41651837744E+02  0.31315308562E+02  0.55482789777E+02  0.00000000000E+00 0.  1.
         22    1    3    3    0    0 -0.32646129902E+02  0.64415464609E+02  0.14828096761E+03  0.16493140160E+03  0.00000000000E+00 0.  1.
</event>
<event>
 7    1  0.6078244E-006  0.1152910E+03  0.7818608E-02  0.1442812E+00
          2   -1    0    0  502    0  0.00000000000E+00  0.00000000000E+00  0.20229012916E+04  0.20229012916E+04  0.00000000000E+00 0. -1.
          1   -1    0    0  501    0 -0.00000000000E+00 -0.00000000000E+00 -0.32176841132E+03  0.32176841132E+03  0.00000000000E+00 0. -1.
         25    2    1    2    0    0  0.88675365332E+01  0.10002270094E+03  0.20382547403E+03  0.25933331530E+03  0.12500308256E+03 0.  0.
          2    1    1    2  501    0 -0.15045167106E+02  0.16182088238E+02 -0.29170632791E+03  0.29254196071E+03  0.00000000000E+00 0. -1.
          1    1    1    2  502    0  0.61776305730E+01 -0.11620478918E+03  0.17890137341E+04  0.17927944269E+04  0.00000000000E+00 0. -1.
         22    1    3    3    0    0 -0.14360359657E+02  0.42736288958E+02  0.19093709100E+03  0.19618762204E+03  0.00000000000E+00 0. -1.
         22    1    3    3    0    0  0.23227896191E+02  0.57286411983E+02  0.12888383036E+02  0.63145693255E+02  0.00000000000E+00 0. -1.
</event>
<event>
 7    1  0.6078244E-006  0.1253036E+03  0.7818608E-02  0.1328772E+00
          2   -1    0    0  502    0  0.00000000000E+00  0.00000000000E+00  0.25085951497E+03  0.25085951497E+03  0.00000000000E+00 0. -1.
          1   -1    0    0  501    0 -0.00000000000E+00 -0.00000000000E+00 -0.41146360594E+03  0.41146360594E+03  0.00000000000E+00 0. -1.
         25    2    1    2    0    0 -0.98799460728E+02 -0.10113992480E+02  0.12229416556E+03  0.20111225295E+03  0.12500659612E+03 0.  0.
          2    1    1    2  501    0  0.12261597118E+03 -0.35211656597E+02 -0.35246003832E+03  0.37483678550E+03  0.00000000000E+00 0. -1.
          1    1    1    2  502    0 -0.23816510454E+02  0.45325649077E+02  0.69561781787E+02  0.86374082454E+02  0.00000000000E+00 0. -1.
         22    1    3    3    0    0 -0.75336527834E+01 -0.64892825621E+01 -0.25501081899E+02  0.27371004557E+02  0.00000000000E+00 0. -1.
         22    1    3    3    0    0 -0.91265807944E+02 -0.36247099177E+01  0.14779524746E+03  0.17374124840E+03  0.00000000000E+00 0. -1.
</event>
<event>
 7    1  0.6078244E-006  0.3394349E+02  0.7818608E-02  0.1615281E+00
          2   -1    0    0  502    0  0.00000000000E+00  0.00000000000E+00  0.46813346818E+03  0.46813346818E+03  0.00000000000E+00 0. -1.
          1   -1    0    0  501    0 -0.00000000000E+00 -0.00000000000E+00 -0.60772378051E+03  0.60772378051E+03  0.00000000000E+00 0. -1.
         25    2    1    2    0    0  0.39854126795E+02  0.32785693432E+02  0.69165484288E+02  0.15189803763E+03  0.12500358596E+03 0.  0.
          2    1    1    2  501    0 -0.23710880972E+02 -0.32331517760E+01 -0.56531105459E+03  0.56581732704E+03  0.00000000000E+00 0. -1.
          1    1    1    2  502    0 -0.16143245823E+02 -0.29552541656E+02  0.35655525797E+03  0.35814188402E+03  0.00000000000E+00 0. -1.
         22    1    3    3    0    0 -0.80414775774E+01 -0.19363099436E+02  0.77792535096E+02  0.80568439839E+02  0.00000000000E+00 0. -1.
         22    1    3    3    0    0  0.47895604372E+02  0.52148792869E+02 -0.86270508080E+01  0.71329597794E+02  0.00000000000E+00 0. -1.
</event>
<event>
 7    1  0.6078244E-006  0.1032700E+03  0.7818608E-02  0.1279675E+00
          2   -1    0    0  502    0  0.00000000000E+00  0.00000000000E+00  0.19418311745E+03  0.19418311745E+03  0.00000000000E+00 0. -1.
          1   -1    0    0  501    0 -0.00000000000E+00 -0.00000000000E+00 -0.15527959155E+04  0.15527959155E+04  0.00000000000E+00 0. -1.
         25    2    1    2    0    0  0.81612919772E+02  0.76283203684E+02 -0.60711115029E+03  0.62983198629E+03  0.12499834523E+03 0.  0.
          2    1    1    2  501    0 -0.93539488421E+02  0.27175046621E+02 -0.91670061059E+03  0.92186123061E+03  0.00000000000E+00 0. -1.
          1    1    1    2  502    0  0.11926568649E+02 -0.10345825031E+03  0.16519896287E+03  0.19528581600E+03  0.00000000000E+00 0. -1.
         22    1    3    3    0    0  0.80222374058E+02  0.29741627698E+01 -0.18902956189E+03  0.20536954548E+03  0.00000000000E+00 0.  1.
         22    1    3    3    0    0  0.13905457145E+01  0.73309040915E+02 -0.41808158841E+03  0.42446244082E+03  0.00000000000E+00 0.  1.
</event>
<event>
 7    1  0.6078244E-006  0.7222972E+02  0.7818608E-02  0.1368543E+00
          2   -1    0    0  502    0  0.00000000000E+00  0.00000000000E+00  0.16298527719E+04  0.16298527719E+04  0.00000000000E+00 0. -1.
          1   -1    0    0  501    0 -0.00000000000E+00 -0.00000000000E+00 -0.33039714610E+03  0.33039714610E+03  0.00000000000E+00 0. -1.
         25    2    1    2    0    0 -0.70499680571E+02 -0.27090836992E+02  0.53610889346E+03  0.55564512094E+03  0.12499854545E+03 0.  0.
          2    1    1    2  501    0  0.47024772889E+01  0.63042830741E+02 -0.31619986684E+03  0.32245754386E+03  0.00000000000E+00 0. -1.
          1    1    1    2  502    0  0.65797203282E+02 -0.35951993749E+02  0.10795465992E+04  0.10821472532E+04  0.00000000000E+00 0. -1.
         22    1    3    3    0    0  0.23362068135E+02 -0.44134047384E+02  0.21104432578E+03  0.21687163902E+03  0.00000000000E+00 0.  1.
         22    1    3    3    0    0 -0.93861748706E+02  0.17043210392E+02  0.32506456768E+03  0.33877348192E+03  0.00000000000E+00 0.  1.
</event>
<event>
 7    1  0.6078244E-006  0.2027719E+03  0.7818608E-02  0.1280573E+00
          2   -1    0    0  502    0  0.00000000000E+00  0.00000000000E+00  0.78657091594E+03  0.78657091594E+03  0.00000000000E+00 0. -1.
          1   -1    0    0  501    0 -0.00000000000E+00 -0.00000000000E+00 -0.17993364578E+03  0.17993364578E+03  0.00000000000E+00 0. -1.
         25    2    1    2    0    0  0.10914610396E+03  0.18504026809E+03  0.51366947221E+02  0.25380485299E+03  0.12500226922E+03 0.  0.
          2    1    1    2  501    0 -0.13364858591E+03 -0.14239120926E+03  0.45442777277E+02  0.20050497998E+03  0.00000000000E+00 0. -1.
          1    1    1    2  502    0  0.24502481950E+02 -0.42649058830E+02  0.50982754566E+03  0.51219472874E+03  0.00000000000E+00 0. -1.
         22    1    3    3    0    0  0.81335250259E+02  0.10608571252E+03  0.90468835186E+02  0.16141317008E+03  0.00000000000E+00 0.  1.
         22    1    3    3    0    0  0.27810853698E+02  0.78954555569E+02 -0.39101887965E+02  0.92391682910E+02  0.00000000000E+00 0.  1.
</event>
<event>
 7    1  0.6078244E-006  0.4871603E+02  0.7818608E-02  0.1510685E+00
          2   -1    0    0  502    0  0.00000000000E+00  0.00000000000E+00  0.10363315571E+04  0.10363315571E+04  0.00000000000E+00 0. -1.
          1   -1    0    0  501    0 -0.00000000000E+00 -0.00000000000E+00 -0.76639453880E+02  0.76639453880E+02  0.00000000000E+00 0. -1.
         25    2    1    2    0    0  0.52379647628E+02  0.27650413551E+02  0.36039339484E+03  0.38602636848E+03  0.12499914104E+03 0.  0.
          2    1    1    2  501    0 -0.48485643354E+02  0.44110104118E+01 -0.54080978374E+02  0.72767209966E+02  0.00000000000E+00 0. -1.
          1    1    1    2  502    0 -0.38940042738E+01 -0.32061423963E+02  0.65337968675E+03  0.65417743254E+03  0.00000000000E+00 0. -1.
         22    1    3    3    0    0  0.49269382385E+02 -0.76477309742E+01  0.40663246943E+02  0.64338631332E+02  0.00000000000E+00 0. -1.
         22    1    3    3    0    0  0.31102652431E+01  0.35298144525E+02  0.31973014790E+03  0.32168773715E+03  0.00000000000E+00 0. -1.
</event>
<event>
 7    1  0.6078244E-006  0.5575891E+02  0.7818608E-02  0.1443754E+00
          2   -1    0    0  502    0  0.00000000000E+00  0.00000000000E+00  0.58976495376E+03  0.58976495376E+03  0.00000000000E+00 0. -1.
          1   -1    0    0  501    0 -0.00000000000E+00 -0.00000000000E+00 -0.33880286386E+03  0.33880286386E+03  0.00000000000E+00 0. -1.
         25    2    1    2    0    0 -0.70853123628E+01  0.46946902288E+02  0.23530534773E+03  0.27064386318E+03  0.12500112290E+03 0.  0.
          2    1    1    2  501    0 -0.42778936813E+02 -0.15105176466E+02 -0.31690734714E+03  0.32013820525E+03  0.00000000000E+00 0. -1.
          1    1    1    2  502    0  0.49864249176E+02 -0.31841725822E+02  0.33256408932E+03  0.33778574918E+03  0.00000000000E+00 0. -1.
         22    1    3    3    0    0  0.13067771026E+01  0.89540537443E+02  0.17146834257E+03  0.19344406948E+03  0.00000000000E+00 0.  1.
         22    1    3    3    0    0 -0.83920894654E+01 -0.42593635155E+02  0.63837005155E+02  0.77199793708E+02  0.00000000000E+00 0.  1.
</event>
<event>
 7    1  0.6078244E-006  0.8880811E+02  0.7818608E-02  0.1416292E+00
          2   -1    0    0  502    0  0.00000000000E+00  0.00000000000E+00  0.27597164366E+03  0.27597164366E+03  0.00000000000E+00 0. -1.
          1   -1    0    0  501    0 -0.00000000000E+00 -0.00000000000E+00 -0.19786833732E+04  0.19786833732E+04  0.00000000000E+00 0. -1.
         25    2    1    2    0    0 -0.45574322112E+02  0.32851435933E+02 -0.34917221982E+03  0.37510332287E+03  0.12500011222E+03 0.  0.
          2    1    1    2  501    0 -0.34221048494E+02  0.77009404476E+01 -0.16087332811E+04  0.16091156436E+04  0.00000000000E+00 0. -1.
          1    1    1    2  502    0  0.79795370606E+02 -0.40552376381E+02  0.25519377140E+03  0.27043605041E+03  0.00000000000E+00 0. -1.
         22    1    3    3    0    0 -0.64366884330E+02  0.18863022321E+02 -0.77799800122E+02  0.10272155718E+03  0.00000000000E+00 0. -1.
         22    1    3    3    0    0  0.18792562218E+02  0.13988413612E+02 -0.27137241969E+03  0.27238176569E+03  0.00000000000E+00 0. -1.
</event>
<event>
 7    1  0.6078244E-006  0.3229574E+02  0.7818608E-02  0.1631710E+00
          2   -1    0    0  502    0  0.00000000000E+00  0.00000000000E+00  0.83940495813E+03  0.83940495813E+03  0.00000000000E+00 0. -1.
          1   -1    0    0  501    0 -0.00000000000E+00 -0.00000000000E+00 -0.16678012320E+03  0.16678012320E+03  0.00000000000E+00 0. -1.
         25    2    1    2    0    0  0.39122082605E+02 -0.17557479717E+01  0.75743360452E+03  0.76867974827E+03  0.12501707941E+03 0.  0.
          2    1    1    2  501    0 -0.27049993164E+02 -0.17645906480E+02 -0.15777397355E+03  0.16104566705E+03  0.00000000000E+00 0. -1.
          1    1    1    2  502    0 -0.12072089442E+02  0.19401654452E+02  0.72965203957E+02  0.76459666017E+02  0.00000000000E+00 0. -1.
         22    1    3    3    0    0 -0.16086318761E+02  0.48386908332E+02  0.20558040439E+03  0.21180973825E+03  0.00000000000E+00 0.  1.
         22    1    3    3    0    0  0.55208401366E+02 -0.50142656304E+02  0.55185320013E+03  0.55687001001E+03  0.00000000000E+00 0.  1.
</event>
<event>
 7    1  0.6078244E-006  0.1544033E+03  0.7818608E-02  0.1392334E+00
          2   -1    0    0  502    0  0.00000000000E+00  0.00000000000E+00  0.97890436468E+03  0.97890436468E+03  0.00000000000E+00 0. -1.
          1   -1    0    0  501    0 -0.00000000000E+00 -0.00000000000E+00 -0.19033955845E+03  0.19033955845E+03  0.00000000000E+00 0. -1.
         25    2    1    2    0    0  0.11845110497E+03  0.62061501394E+02 -0.94440367880E+02  0.20597417057E+03  0.12499632647E+03 0.  0.
          2    1    1    2  501    0  0.13082223289E+02  0.20549738122E+02 -0.29147505017E+02  0.37987015568E+02  0.00000000000E+00 0. -1.
          1    1    1    2  502    0 -0.13153332826E+03 -0.82611239516E+02  0.91215267913E+03  0.92528273700E+03  0.00000000000E+00 0. -1.
         22    1    3    3    0    0  0.69843913720E+02  0.95316445684E+02 -0.37295461374E+02  0.12391266497E+03  0.00000000000E+00 0. -1.
         22    1    3    3    0    0  0.48607191247E+02 -0.33254944290E+02 -0.57144906506E+02  0.82061505594E+02  0.00000000000E+00 0. -1.
</event>
<event>
 7    1  0.6078244E-006  0.1847622E+03  0.7818608E-02  0.1235108E+00
          2   -1    0    0  502    0  0.00000000000E+00  0.00000000000E+00  0.13267247418E+04  0.13267247418E+04  0.00000000000E+00 0. -1.
          1   -1    0    0  501    0 -0.00000000000E+00 -0.00000000000E+00 -0.32461130993E+03  0.32461130993E+03  0.00000000000E+00 0. -1.
         25    2    1    2    0    0  0.15134235776E+03  0.14520357045E+03  0.39242500828E+03  0.46217967832E+03  0.12499632715E+03 0.  0.
          2    1    1    2  501    0 -0.17289073431E+03 -0.63461861835E+02 -0.25820443639E+03  0.31715634139E+03  0.00000000000E+00 0. -1.
          1    1    1    2  502    0  0.21548376547E+02 -0.81741708615E+02  0.86789286000E+03  0.87200003205E+03  0.00000000000E+00 0. -1.
         22    1    3    3    0    0 -0.10051721424E+02  0.58244906723E+02  0.73504680982E+02  0.94320964738E+02  0.00000000000E+00 0.  1.
         22    1    3    3    0    0  0.16139407918E+03  0.86958663728E+02  0.31892032730E+03  0.36785871358E+03  0.00000000000E+00 0.  1.
</event>
<event>
 7    1  0.6078244E-006  0.1024750E+03  0.7818608E-02  0.1365893E+00
          2   -1    0    0  502    0  0.00000000000E+00  0.00000000000E+00  0.22942415995E+04  0.22942415995E+04  0.00000000000E+00 0. -1.
          1   -1    0    0  501    0 -0.00000000000E+00 -0.00000000000E+00 -0.45616434224E+03  0.45616434224E+03  0.00000000000E+00 0. -1.
         25    2    1    2    0    0 -0.88555677980E+02  0.24775399148E+02 -0.31681183752E+03  0.35277514393E+03  0.12499853309E+03 0.  0.
          2    1    1    2  501    0  0.12354371335E+02  0.43844618892E+02 -0.11589857474E+03  0.12452895537E+03  0.00000000000E+00 0. -1.
          1    1    1    2  502    0  0.76201306644E+02 -0.68620018041E+02  0.22707876695E+04  0.22731018424E+04  0.00000000000E+00 0. -1.
         22    1    3    3    0    0 -0.10190090050E+03  0.25756616748E+01 -0.13517460253E+03  0.16930032701E+03  0.00000000000E+00 0. -1.
         22    1    3    3    0    0  0.13345222524E+02  0.22199737474E+02 -0.18163723499E+03  0.18347481692E+03  0.00000000000E+00 0. -1.
</event>
<event>
 7    1  0.6078244E-006  0.2550564E+03  0.7818608E-02  0.1169751E+00
          2   -1    0    0  502    0  0.00000000000E+00  0.00000000000E+00  0.81175872898E+03  0.81175872898E+03  0.00000000000E+00 0. -1.
          1   -1    0    0  501    0 -0.00000000000E+00 -0.00000000000E+00 -0.41122259716E+03  0.41122259716E+03  0.00000000000E+00 0. -1.
         25    2    1    2    0    0  0.15253843552E+03  0.26673034656E+02  0.25067217680E+03  0.32006229659E+03  0.12499563348E+03 0.  0.
          2    1    1    2  501    0 -0.25613820307E+03 -0.95223784824E+02 -0.31774530124E+03  0.41908999597E+03  0.00000000000E+00 0. -1.
          1    1    1    2  502    0  0.10359976755E+03  0.68550750168E+02  0.46760925627E+03  0.48382903357E+03  0.00000000000E+00 0. -1.
         22    1    3    3    0    0  0.17004100221E+02 -0.87443103009E+00  0.14502947527E+03  0.14602552089E+03  0.00000000000E+00 0.  1.
         22    1    3    3    0    0  0.13553433530E+03  0.27547465686E+02  0.10564270153E+03  0.17403677570E+03  0.00000000000E+00 0.  1.
</event>
<event>
 7    1  0.6078244E-006  0.5568796E+02  0.7818608E-02  0.1556662E+00
          2   -1    0    0  502    0  0.00000000000E+00  0.00000000000E+00  0.19121291348E+04  0.19121291348E+04  0.00000000000E+00 0. -1.
          1   -1    0    0  501    0 -0.00000000000E+00 -0.00000000000E+00 -0.42776394614E+03  0.42776394614E+03  0.00000000000E+00 0. -1.
         25    2    1    2    0    0 -0.35052909925E+02 -0.78016517466E+01  0.24513150455E+03  0.27749857511E+03  0.12500572947E+03 0.  0.
          2    1    1    2  501    0 -0.20850558479E+02  0.13039145751E+01 -0.41083524543E+03  0.41136607161E+03  0.00000000000E+00 0. -1.
          1    1    1    2  502    0  0.55903468403E+02  0.64977371715E+01  0.16500689296E+04  0.16510284342E+04  0.00000000000E+00 0. -1.
         22    1    3    3    0    0 -0.49618238526E+02  0.29565168071E+02  0.44540993348E+02  0.72938116550E+02  0.00000000000E+00 0.  1.
         22    1    3    3    0    0  0.14565328602E+02 -0.37366819817E+02  0.20059051120E+03  0.20456045856E+03  0.00000000000E+00 0.  1.
</event>
<event>
 7    1  0.6078244E-006  0.9006575E+02  0.7818608E-02  0.1339505E+00
          2   -1    0    0  502    0  0.00000000000E+00  0.00000000000E+00  0.12750132984E+04  0.12750132984E+04  0.00000000000E+00 0. -1.
          1   -1    0    0  501    0 -0.00000000000E+00 -0.00000000000E+00 -0.43403711915E+03  0.43403711915E+03  0.00000000000E+00 0. -1.
         25    2    1    2    0    0 -0.27657676596E+02  0.61558497855E+01  0.45753392410E+02  0.13609360091E+03  0.12500101492E+03 0.  0.
          2    1    1    2  501    0 -0.64818313164E+02 -0.21915671525E+01 -0.38433715567E+03  0.38977078638E+03  0.00000000000E+00 0. -1.
          1    1    1    2  502    0  0.92475989761E+02 -0.39642826330E+01  0.11795599425E+04  0.11831860303E+04  0.00000000000E+00 0. -1.
         22    1    3    3    0    0 -0.46454506411E+02  0.54806687077E+02  0.43289786853E+02  0.83879674296E+02  0.00000000000E+00 0.  1.
         22    1    3    3    0    0  0.18796829815E+02 -0.48650837292E+02  0.24636055565E+01  0.52213926616E+02  0.00000000000E+00 0.  1.
</event>
<event>
 7    1  0.6078244E-006  0.5378081E+02  0.7818608E-02  0.1504202E+00
          2   -1    0    0  502    0  0.00000000000E+00  0.00000000000E+00  0.22268160837E+04  0.22268160837E+04  0.00000000000E+00 0. -1.
          1   -1    0    0  501    0 -0.00000000000E+00 -0.00000000000E+00 -0.16047812713E+04  0.16047812713E+04  0.00000000000E+00 0. -1.
         25    2    1    2    0    0  0.58539208342E+01 -0.22621137119E+02  0.18781961033E+04  0.18824961604E+04  0.12500082969E+03 0.  0.
          2    1    1    2  501    0 -0.17899565385E+02  0.50722464171E+02 -0.16015043534E+04  0.16024073629E+04  0.00000000000E+00 0. -1.
          1    1    1    2  502    0  0.12045644551E+02 -0.28101327052E+02  0.34534306248E+03  0.34669383170E+03  0.00000000000E+00 0. -1.
         22    1    3    3    0    0 -0.34925341530E+02  0.20158348724E+02  0.25030217480E+03  0.25352971663E+03  0.00000000000E+00 0.  1.
         22    1    3    3    0    0  0.40779262364E+02 -0.42779485843E+02  0.16278939285E+04  0.16289664438E+04  0.00000000000E+00 0.  1.
</event>
<event>
 7    1  0.6078244E-006  0.1246311E+03  0.7818608E-02  0.1324390E+00
          2   -1    0    0  502    0  0.00000000000E+00  0.00000000000E+00  0.95053432244E+03  0.95053432244E+03  0.00000000000E+00 0. -1.
          1   -1    0    0  501    0 -0.00000000000E+00 -0.00000000000E+00 -0.51586667067E+03  0.51586667067E+03  0.00000000000E+00 0. -1.
         25    2    1    2    0    0 -0.33925749829E+02  0.15751300822E+03 -0.87247456242E+02  0.22183409320E+03  0.12504775898E+03 0.  0.
          2    1    1    2  501    0 -0.23696656032E+02 -0.47979222230E+02 -0.35497490650E+03  0.35898568428E+03  0.00000000000E+00 0. -1.
          1    1    1    2  502    0  0.57622405861E+02 -0.10953378599E+03  0.87689001451E+03  0.88558121563E+03  0.00000000000E+00 0. -1.
         22    1    3    3    0    0 -0.69813595767E+02  0.63342815282E+02 -0.98782041773E+01  0.94783064519E+02  0.00000000000E+00 0. -1.
         22    1    3    3    0    0  0.35887845938E+02  0.94170192940E+02 -0.77369252065E+02  0.12705102868E+03  0.00000000000E+00 0. -1.
</event>
<event>
 7    1  0.6078244E-006  0.1180459E+03  0.7818608E-02  0.1348322E+00
          2   -1    0    0  502    0  0.00000000000E+00  0.00000000000E+00  0.40126835199E+03  0.40126835199E+03  0.00000000000E+00 0. -1.
          1   -1    0    0  501    0 -0.00000000000E+00 -0.00000000000E+00 -0.11759731030E+04  0.11759731030E+04  0.00000000000E+00 0. -1.
         25    2    1    2    0    0 -0.37404387576E+02 -0.71674772635E+02  0.13456717412E+02  0.14947331946E+03  0.12499931498E+03 0.  0.
          2    1    1    2  501    0 -0.34169565230E+02 -0.30594809980E+02 -0.10952857115E+04  0.10962455890E+04  0.00000000000E+00 0. -1.
          1    1    1    2  502    0  0.71573952806E+02  0.10226958262E+03  0.30712424302E+03  0.33152254659E+03  0.00000000000E+00 0. -1.
         22    1    3    3    0    0 -0.30495349093E+02  0.15154264370E+02  0.45352269429E+02  0.56713723095E+02  0.00000000000E+00 0. -1.
         22    1    3    3    0    0 -0.69090384821E+01 -0.86829037005E+02 -0.31895552018E+02  0.92759596368E+02  0.00000000000E+00 0. -1.
</event>
<event>
 7    1  0.6078244E-006  0.6683489E+02  0.7818608E-02  0.1440117E+00
          2   -1    0    0  502    0  0.00000000000E+00  0.00000000000E+00  0.25668899022E+03  0.25668899022E+03  0.00000000000E+00 0. -1.
          1   -1    0    0  501    0 -0.00000000000E+00 -0.00000000000E+00 -0.33600699751E+04  0.33600699751E+04  0.00000000000E+00 0. -1.
         25    2    1    2    0    0  0.57590681422E+02 -0.73395765379E+02 -0.12727277408E+04  0.12822497630E+04  0.12499970961E+03 0.  0.
          2    1    1    2  501    0 -0.43691181868E+00  0.38886470890E+02 -0.20779727600E+04  0.20783366281E+04  0.00000000000E+00 0. -1.
          1    1    1    2  502    0 -0.57153769603E+02  0.34509294489E+02  0.24731951598E+03  0.25617257419E+03  0.00000000000E+00 0. -1.
         22    1    3    3    0    0  0.12124604713E+01  0.12963074303E+02 -0.71184429913E+03  0.71196335409E+03  0.00000000000E+00 0. -1.
         22    1    3    3    0    0  0.56378220951E+02 -0.86358839682E+02 -0.56088344171E+03  0.57028640889E+03  0.00000000000E+00 0. -1.
</event>
<event>
 7    1  0.6637363E-006  0.1036901E+03  0.7818608E-02  0.1370792E+00
          2   -1    0    0  502    0  0.00000000000E+00  0.00000000000E+00  0.13482222988E+04  0.13482222988E+04  0.00000000000E+00 0. -1.
          1   -1    0    0  501    0 -0.00000000000E+00 -0.00000000000E+00 -0.78409877585E+03  0.78409877585E+03  0.00000000000E+00 0. -1.
         25    2    1    2    0    0 -0.11244733794E+03 -0.25942397419E+02 -0.10068309152E+03  0.19768571276E+03  0.12500057726E+03 0.  0.
          2    1    1    2  501    0  0.10062820748E+02  0.42037038497E+02 -0.63210897647E+03  0.63358514116E+03  0.00000000000E+00 0. -1.
          1    1    1    2  502    0  0.10238451720E+03 -0.16094641078E+02  0.12969155910E+04  0.13010502208E+04  0.00000000000E+00 0. -1.
         22    1    3    3    0    0 -0.97923498388E+02 -0.59953431326E+02 -0.11057223188E+03  0.15940402732E+03  0.00000000000E+00 0. -1.
         22    1    3    3    0    0 -0.14523839556E+02  0.34011033907E+02  0.98891403504E+01  0.38281685435E+02  0.00000000000E+00 0. -1.
</event>
<event>
 7    1  0.6078244E-006  0.1927385E+03  0.7818608E-02  0.1236116E+00
          2   -1    0    0  502    0  0.00000000000E+00  0.00000000000E+00  0.72161089627E+03  0.72161089627E+03  0.00000000000E+00 0. -1.
          1   -1    0    0  501    0 -0.00000000000E+00 -0.00000000000E+00 -0.37321251009E+03  0.37321251009E+03  0.00000000000E+00 0. -1.
         25    2    1    2    0    0 -0.12944852989E+03 -0.16968442527E+03  0.34433390312E+02  0.24971711972E+03  0.12499302159E+03 0.  0.
          2    1    1    2  501    0  0.50508757632E+02  0.18387584406E+03 -0.22800513179E+03  0.29723357944E+03  0.00000000000E+00 0. -1.
          1    1    1    2  502    0  0.78939772257E+02 -0.14191418792E+02  0.54197012766E+03  0.54787270719E+03  0.00000000000E+00 0. -1.
         22    1    3    3    0    0  0.10168827808E+02  0.10505546646E+02 -0.96833163305E+01  0.17536766649E+02  0.00000000000E+00 0. -1.
         22    1    3    3    0    0 -0.13961735770E+03 -0.18018997191E+03  0.44116706643E+02  0.23218035307E+03  0.00000000000E+00 0. -1.
</event>
<event>
 7    1  0.6078244E-006  0.1946531E+03  0.7818608E-02  0.1241550E+00
          2   -1    0    0  502    0  0.00000000000E+00  0.00000000000E+00  0.10390612551E+04  0.10390612551E+04  0.00000000000E+00 0. -1.
          1   -1    0    0  501    0 -0.00000000000E+00 -0.00000000000E+00 -0.91113684140E+03  0.91113684140E+03  0.00000000000E+00 0. -1.
         25    2    1    2    0    0  0.21438401139E+03 -0.90943677445E+02  0.13660877355E+03  0.29752000685E+03  0.12499976264E+03 0.  0.
          2    1    1    2  501    0 -0.14736035352E+03  0.12492299065E+03 -0.81768440191E+03  0.84019557754E+03  0.00000000000E+00 0. -1.
          1    1    1    2  502    0 -0.67023657867E+02 -0.33979313201E+02  0.80900004210E+03  0.81248251216E+03  0.00000000000E+00 0. -1.
         22    1    3    3    0    0  0.42617466053E+01 -0.13283603608E+02  0.58714783447E+02  0.60349336402E+02  0.00000000000E+00 0. -1.
         22    1    3    3    0    0  0.21012226479E+03 -0.77660073837E+02  0.77893990101E+02  0.23717067045E+03  0.00000000000E+00 0. -1.
</event>
<event>
 7    1  0.6078244E-006  0.4833546E+02  0.7818608E-02  0.1559332E+00
          2   -1    0    0  502    0  0.00000000000E+00  0.00000000000E+00  0.48407263513E+03  0.48407263513E+03  0.00000000000E+00 0. -1.
          1   -1    0    0  501    0 -0.00000000000E+00 -0.00000000000E+00 -0.79989242248E+03  0.79989242248E+03  0.00000000000E+00 0. -1.
         25    2    1    2    0    0 -0.13141300607E+02 -0.40907642124E+02  0.50284637258E+01  0.13227198585E+03  0.12499785529E+03 0.  0.
          2    1    1    2  501    0 -0.95851252626E+01  0.47503379590E+02 -0.73513523177E+03  0.73673078847E+03  0.00000000000E+00 0. -1.
          1    1    1    2  502    0  0.22726425869E+02 -0.65957374663E+01  0.41428698069E+03  0.41496228329E+03  0.00000000000E+00 0. -1.
         22    1    3    3    0    0  0.29353916714E+01 -0.70408739511E+02  0.42222234846E+02  0.82150619226E+02  0.00000000000E+00 0. -1.
         22    1    3    3    0    0 -0.16076692278E+02  0.29501097387E+02 -0.37193771120E+02  0.50121366620E+02  0.00000000000E+00 0. -1.
</event>
<event>
 7    1  0.6078244E-006  0.1463495E+03  0.7818608E-02  0.1265291E+00
          2   -1    0    0  502    0  0.00000000000E+00  0.00000000000E+00  0.36064889827E+03  0.36064889827E+03  0.00000000000E+00 0. -1.
          1   -1    0    0  501    0 -0.00000000000E+00 -0.00000000000E+00 -0.18033757759E+04  0.18033757759E+04  0.00000000000E+00 0. -1.
         25    2    1    2    0    0 -0.11166558181E+03  0.43224901629E+02 -0.10685143492E+04  0.10824443398E+04  0.12500096048E+03 0.  0.
          2    1    1    2  501    0  0.18197150735E+03 -0.79139043996E+02 -0.70970474272E+03  0.73692431064E+03  0.00000000000E+00 0. -1.
          1    1    1    2  502    0 -0.70305925540E+02  0.35914142366E+02  0.33549221431E+03  0.34465602367E+03  0.00000000000E+00 0. -1.
         22    1    3    3    0    0 -0.90783438876E+02  0.39376983817E+02 -0.10488374980E+04  0.10534952667E+04  0.00000000000E+00 0.  1.
         22    1    3    3    0    0 -0.20882142936E+02  0.38479178125E+01 -0.19676851163E+02  0.28949073159E+02  0.00000000000E+00 0.  1.
</event>
<event>
 7    1  0.6078244E-006  0.5508788E+02  0.7818608E-02  0.1476504E+00
          2   -1    0    0  502    0  0.00000000000E+00  0.00000000000E+00  0.16839462890E+04  0.16839462890E+04  0.00000000000E+00 0. -1.
          1   -1    0    0  501    0 -0.00000000000E+00 -0.00000000000E+00 -0.12624524279E+03  0.12624524279E+03  0.00000000000E+00 0. -1.
         25    2    1    2    0    0  0.20164239675E+02 -0.38173728326E+02  0.51663762829E+03  0.53329429554E+03  0.12499814633E+03 0.  0.
          2    1    1    2  501    0 -0.51563379378E+02  0.20161428264E+02 -0.11111817418E+03  0.12414714622E+03  0.00000000000E+00 0. -1.
          1    1    1    2  502    0  0.31399139703E+02  0.18012300062E+02  0.11521815921E+04  0.11527500900E+04  0.00000000000E+00 0. -1.
         22    1    3    3    0    0 -0.52174873728E+02 -0.18605658316E+02  0.17601336667E+03  0.18452396380E+03  0.00000000000E+00 0.  1.
         22    1    3    3    0    0  0.72339113403E+02 -0.19568070011E+02  0.34062426162E+03  0.34877033173E+03  0.00000000000E+00 0.  1.
</event>
<event>
 7    1  0.6078244E-006  0.8257290E+02  0.7818608E-02  0.1377415E+00
          2   -1    0    0  502    0  0.00000000000E+00  0.00000000000E+00  0.37944399503E+03  0.37944399503E+03  0.00000000000E+00 0. -1.
          1   -1    0    0  501    0 -0.00000000000E+00 -0.00000000000E+00 -0.12630180431E+04  0.12630180431E+04  0.00000000000E+00 0. -1.
         25    2    1    2    0    0  0.34349472517E+02 -0.10273096893E+02 -0.17387581619E+03  0.21712704739E+03  0.12500372983E+03 0.  0.
          2    1    1    2  501    0  0.33350368362E+02 -0.39112092188E+02 -0.10619802497E+04  0.10632234259E+04  0.00000000000E+00 0. -1.
          1    1    1    2  502    0 -0.67699840878E+02  0.49385189081E+02  0.35228201774E+03  0.36211156482E+03  0.00000000000E+00 0. -1.
         22    1    3    3    0    0  0.38543210943E+02  0.12326490700E+02  0.12633429216E+01  0.40486016328E+02  0.00000000000E+00 0. -1.
         22    1    3    3    0    0 -0.41937384262E+01 -0.22599587593E+02 -0.17513915911E+03  0.17664103106E+03  0.00000000000E+00 0. -1.
</event>
<event>
 7    1  0.6078244E-006  0.5235045E+02  0.7818608E-02  0.1513066E+00
          2   -1    0    0  502    0  0.00000000000E+00  0.00000000000E+00  0.28226631810E+03  0.28226631810E+03  0.00000000000E+00 0. -1.
          1   -1    0    0  501    0 -0.00000000000E+00 -0.00000000000E+00 -0.63803045516E+03  0.63803045516E+03  0.00000000000E+00 0. -1.
         25    2    1    2    0    0  0.64495452193E+02  0.18548300079E+02 -0.25086627823E+03  0.28820530386E+03  0.12499881933E+03 0.  0.
          2    1    1    2  501    0 -0.50873834997E+02  0.77029007601E+01 -0.36585917585E+03  0.36945963016E+03  0.00000000000E+00 0. -1.
          1    1    1    2  502    0 -0.13621617196E+02 -0.26251200839E+02  0.26096131702E+03  0.26263183923E+03  0.00000000000E+00 0. -1.
         22    1    3    3    0    0  0.68483582428E+02  0.61342841919E+02 -0.12477072220E+03  0.15498605884E+03  0.00000000000E+00 0. -1.
         22    1    3    3    0    0 -0.39881302351E+01 -0.42794541840E+02 -0.12609555603E+03  0.13321924503E+03  0.00000000000E+00 0. -1.
</event>
<event>
 7    1  0.6078244E-006  0.1968576E+03  0.7818608E-02  0.1200905E+00
          2   -1    0    0  502    0  0.00000000000E+00  0.00000000000E+00  0.16909069707E+04  0.16909069707E+04  0.00000000000E+00 0. -1.
          1   -1    0    0  501    0 -0.00000000000E+00 -0.00000000000E+00 -0.27725201366E+03  0.27725201366E+03  0.00000000000E+00 0. -1.
         25    2    1    2    0    0 -0.19740324707E+03  0.12001824567E+03  0.51841984763E+03  0.58116975465E+03  0.12500689604E+03 0.  0.
          2    1    1    2  501    0  0.19628973776E+03 -0.62625135351E+01 -0.20324979856E+03  0.28262937010E+03  0.00000000000E+00 0. -1.
          1    1    1    2  502    0  0.11135093054E+01 -0.11375573213E+03  0.10984849080E+04  0.11043598596E+04  0.00000000000E+00 0. -1.
         22    1    3    3    0    0 -0.12623289078E+03  0.43350505108E+02  0.40705505274E+03  0.42837813316E+03  0.00000000000E+00 0.  1.
         22    1    3    3    0    0 -0.71170356283E+02  0.76667740559E+02  0.11136479488E+03  0.15279162148E+03  0.00000000000E+00 0.  1.
</event>
<event>
 7    1  0.6078244E-006  0.6078206E+02  0.7818608E-02  0.1450956E+00
          2   -1    0    0  502    0  0.00000000000E+00  0.00000000000E+00  0.10020926739E+03  0.10020926739E+03  0.00000000000E+00 0. -1.
          1   -1    0    0  501    0 -0.00000000000E+00 -0.00000000000E+00 -0.13055742586E+04  0.13055742586E+04  0.00000000000E+00 0. -1.
         25    2    1    2    0    0  0.19672169389E+02 -0.16015015342E+02 -0.15486237584E+03  0.20062675407E+03  0.12500105612E+03 0.  0.
          2    1    1    2  501    0  0.38136416649E+02 -0.10132964872E+02 -0.11144067791E+04  0.11151051666E+04  0.00000000000E+00 0. -1.
          1    1    1    2  502    0 -0.57808586039E+02  0.26147980214E+02  0.63904163706E+02  0.90051605360E+02  0.00000000000E+00 0. -1.
         22    1    3    3    0    0  0.23152954974E+01 -0.67806490240E+02 -0.57260377487E+02  0.88779679780E+02  0.00000000000E+00 0.  1.
         22    1    3    3    0    0  0.17356873892E+02  0.51791474898E+02 -0.97601998355E+02  0.11184707429E+03  0.00000000000E+00 0.  1.
</event>
<event>
 7    1  0.6078244E-006  0.1201766E+03  0.7818608E-02  0.1322252E+00
          2   -1    0    0  502    0  0.00000000000E+00  0.00000000000E+00  0.10401808396E+04  0.10401808396E+04  0.00000000000E+00 0. -1.
          1   -1    0    0  501    0 -0.00000000000E+00 -0.00000000000E+00 -0.21112415839E+03  0.21112415839E+03  0.00000000000E+00 0. -1.
         25    2    1    2    0    0  0.45559906346E+02  0.13417708472E+03  0.86690480259E+03  0.88725802194E+03  0.12499466230E+03 0.  0.
          2    1    1    2  501    0 -0.80045091128E+02 -0.89345762355E+02 -0.17701119724E+03  0.21382901069E+03  0.00000000000E+00 0. -1.
          1    1    1    2  502    0  0.34485184782E+02 -0.44831322367E+02  0.13916307587E+03  0.15021796537E+03  0.00000000000E+00 0. -1.
         22    1    3    3    0    0 -0.33565580712E+02  0.59454006035E+02  0.49724763871E+03  0.50191298175E+03  0.00000000000E+00 0. -1.
         22    1    3    3    0    0  0.79125487058E+02  0.74723078686E+02  0.36965716388E+03  0.38534504019E+03  0.00000000000E+00 0. -1.
</event>
<event>
 7    1  0.6078244E-006  0.1822147E+03  0.7818608E-02  0.1347694E+00
          2   -1    0    0  502    0  0.00000000000E+00  0.00000000000E+00  0.17619901398E+04  0.17619901398E+04  0.00000000000E+00 0. -1.
          1   -1    0    0  501    0 -0.00000000000E+00 -0.00000000000E+00 -0.11390372033E+04  0.11390372033E+04  0.00000000000E+00 0. -1.
         25    2    1    2    0    0  0.11460336619E+03  0.10668889146E+03 -0.13654295788E+03  0.24245544224E+03  0.12499684407E+03 0.  0.
          2    1    1    2  501    0  0.83859583877E+01  0.28672045599E+02 -0.94440818788E+03  0.94488054051E+03  0.00000000000E+00 0. -1.
          1    1    1    2  502    0 -0.12298932457E+03 -0.13536093705E+03  0.17039040822E+04  0.17136913604E+04  0.00000000000E+00 0. -1.
         22    1    3    3    0    0  0.37853187697E+02  0.11413134275E+03 -0.10314772203E+03  0.15842436611E+03  0.00000000000E+00 0.  1.
         22    1    3    3    0    0  0.76750178489E+02 -0.74424512930E+01 -0.33395235846E+02  0.84031076136E+02  0.00000000000E+00 0.  1.
</event>
<event>
 7    1  0.6078244E-006  0.1048972E+03  0.7818608E-02  0.1374864E+00
          2   -1    0    0  502    0  0.00000000000E+00  0.00000000000E+00  0.64574139478E+03  0.64574139478E+03  0.00000000000E+00 0. -1.
          1   -1    0    0  501    0 -0.00000000000E+00 -0.00000000000E+00 -0.97418522890E+02  0.97418522890E+02  0.00000000000E+00 0. -1.
         25    2    1    2    0    0  0.16086387745E+02  0.11643642255E+03  0.27773357672E+03  0.32646088757E+03  0.12499823642E+03 0.  0.
          2    1    1    2  501    0  0.32158144272E+02 -0.25941154069E+02 -0.58715369494E+02  0.71795433924E+02  0.00000000000E+00 0. -1.
          1    1    1    2  502    0 -0.48244532017E+02 -0.90495268481E+02  0.32930466467E+03  0.34490359618E+03  0.00000000000E+00 0. -1.
         22    1    3    3    0    0  0.77382929853E+01 -0.25101058764E+02  0.71667356217E+02  0.76329249155E+02  0.00000000000E+00 0. -1.
         22    1    3    3    0    0  0.83480947598E+01  0.14153748131E+03  0.20606622050E+03  0.25013163841E+03  0.00000000000E+00 0. -1.
</event>
<event>
 7    1  0.6078244E-006  0.1593405E+03  0.7818608E-02  0.1308474E+00
          2   -1    0    0  502    0  0.00000000000E+00  0.00000000000E+00  0.14457135417E+03  0.14457135417E+03  0.00000000000E+00 0. -1.
          1   -1    0    0  501    0 -0.00000000000E+00 -0.00000000000E+00 -0.14610568483E+04  0.14610568483E+04  0.00000000000E+00 0. -1.
         25    2    1    2    0    0  0.34728488107E+02  0.16447072762E+03 -0.37878997625E+03  0.43285561696E+03  0.12500180356E+03 0.  0.
          2    1    1    2  501    0 -0.75947976260E+02 -0.13931515479E+03 -0.10440133240E+04  0.10560021914E+04  0.00000000000E+00 0. -1.
          1    1    1    2  502    0  0.41219488153E+02 -0.25155572824E+02  0.10631780614E+03  0.11677039415E+03  0.00000000000E+00 0. -1.
         22    1    3    3    0    0 -0.25010406378E+02  0.98758386646E+02 -0.28957965775E+03  0.30697738930E+03  0.00000000000E+00 0.  1.
         22    1    3    3    0    0  0.59738894485E+02  0.65712340972E+02 -0.89210318502E+02  0.12587822766E+03  0.00000000000E+00 0.  1.
</event>
<event>
 7    1  0.6078244E-006  0.6907738E+02  0.7818608E-02  0.1477409E+00
          2   -1    0    0  502    0  0.00000000000E+00  0.00000000000E+00  0.59595446546E+03  0.59595446546E+03  0.00000000000E+00 0. -1.
          1   -1    0    0  501    0 -0.00000000000E+00 -0.00000000000E+00 -0.20325488236E+03  0.20325488236E+03  0.00000000000E+00 0. -1.
         25    2    1    2    0    0  0.23614596500E+02 -0.87433277419E+02  0.91429080273E+02  0.17940599386E+03  0.12500002699E+03 0.  0.
          2    1    1    2  501    0 -0.25268485135E+01  0.67990498887E+02 -0.15152560427E+03  0.16609967384E+03  0.00000000000E+00 0. -1.
          1    1    1    2  502    0 -0.21087747987E+02  0.19442778532E+02  0.45279610710E+03  0.45370368012E+03  0.00000000000E+00 0. -1.
         22    1    3    3    0    0  0.66013067855E+02 -0.57651379150E+02  0.17895981558E+02  0.89452069856E+02  0.00000000000E+00 0.  1.
         22    1    3    3    0    0 -0.42398471355E+02 -0.29781898269E+02  0.73533098715E+02  0.89953924008E+02  0.00000000000E+00 0.  1.
</event>
<event>
 7    1  0.6078244E-006  0.4399177E+02  0.7818608E-02  0.1593700E+00
          2   -1    0    0  502    0  0.00000000000E+00  0.00000000000E+00  0.29414909812E+03  0.29414909812E+03  0.00000000000E+00 0. -1.
          1   -1    0    0  501    0 -0.00000000000E+00 -0.00000000000E+00 -0.63767546838E+03  0.63767546838E+03  0.00000000000E+00 0. -1.
         25    2    1    2    0    0  0.19177169894E+02  0.24057557835E+02 -0.38019271865E+03  0.40139444741E+03  0.12499787663E+03 0.  0.
          2    1    1    2  501    0  0.20453530969E+02 -0.47975241766E+01 -0.24471727440E+03  0.24561740076E+03  0.00000000000E+00 0. -1.
          1    1    1    2  502    0 -0.39630700863E+02 -0.19260033659E+02  0.28138362279E+03  0.28481271833E+03  0.00000000000E+00 0. -1.
         22    1    3    3    0    0 -0.65044696567E+01  0.57590834947E+02 -0.33322683613E+03  0.33822941433E+03  0.00000000000E+00 0.  1.
         22    1    3    3    0    0  0.25681639551E+02 -0.33533277112E+02 -0.46965882520E+02  0.63165033086E+02  0.00000000000E+00 0.  1.
</event>
<event>
 7    1  0.6078244E-006  0.5999097E+02  0.7818608E-02  0.1515139E+00
          2   -1    0    0  502    0  0.00000000000E+00  0.00000000000E+00  0.15860543348E+04  0.15860543348E+04  0.00000000000E+00 0. -1.
          1   -1    0    0  501    0 -0.00000000000E+00 -0.00000000000E+00 -0.20120201632E+02  0.20120201632E+02  0.00000000000E+00 0. -1.
         25    2    1    2    0    0 -0.18567022014E+02  0.80616427516E+02  0.51882525648E+03  0.54004503676E+03  0.12500100912E+03 0.  0.
          2    1    1    2  501    0 -0.18872058494E+00 -0.25449403228E+02  0.99355887884E+01  0.27320755200E+02  0.00000000000E+00 0. -1.
          1    1    1    2  502    0  0.18755742599E+02 -0.55167024287E+02  0.10371732879E+04  0.10388087445E+04  0.00000000000E+00 0. -1.
         22    1    3    3    0    0  0.37504132752E+02 -0.13878413492E+02  0.13381563378E+03  0.13966314539E+03  0.00000000000E+00 0.  1.
         22    1    3    3    0    0 -0.56071154766E+02  0.94494841008E+02  0.38500962270E+03  0.40038189138E+03  0.00000000000E+00 0.  1.
</event>
<event>
 7    1  0.6078244E-006  0.6269425E+02  0.7818608E-02  0.1474735E+00
          2   -1    0    0  502    0  0.00000000000E+00  0.00000000000E+00  0.62216406507E+03  0.62216406507E+03  0.00000000000E+00 0. -1.
          1   -1    0    0  501    0 -0.00000000000E+00 -0.00000000000E+00 -0.99020591946E+03  0.99020591946E+03  0.00000000000E+00 0. -1.
         25    2    1    2    0    0 -0.22801352716E+02 -0.40376285617E+02 -0.30649256159E+03  0.33423476320E+03  0.12500016199E+03 0.  0.
          2    1    1    2  501    0  0.21348512700E+01  0.65081188817E+02 -0.66783125515E+03  0.67099828918E+03  0.00000000000E+00 0. -1.
          1    1    1    2  502    0  0.20666501446E+02 -0.24704903200E+02  0.60628196234E+03  0.60713693215E+03  0.00000000000E+00 0. -1.
         22    1    3    3    0    0  0.20561586244E+02 -0.74697868569E+02 -0.16373857542E+03  0.18114323470E+03  0.00000000000E+00 0.  1.
         22    1    3    3    0    0 -0.43362938960E+02  0.34321582951E+02 -0.14275398617E+03  0.15309152850E+03  0.00000000000E+00 0.  1.
</event>
<event>
 7    1  0.6078244E-006  0.1338934E+03  0.7818608E-02  0.1324042E+00
          2   -1    0    0  502    0  0.00000000000E+00  0.00000000000E+00  0.15942550581E+04  0.15942550581E+04  0.00000000000E+00 0. -1.
          1   -1    0    0  501    0 -0.00000000000E+00 -0.00000000000E+00 -0.25428942604E+03  0.25428942604E+03  0.00000000000E+00 0. -1.
         25    2    1    2    0    0 -0.22636700376E+02 -0.83010858637E+02  0.64437682332E+03  0.66200624286E+03  0.12501020878E+03 0.  0.
          2    1    1    2  501    0  0.25144112089E+02  0.13291251983E+03 -0.22611128435E+03  0.26348487093E+03  0.00000000000E+00 0. -1.
          1    1    1    2  502    0 -0.25074117127E+01 -0.49901661190E+02  0.92170009311E+03  0.92305337037E+03  0.00000000000E+00 0. -1.
         22    1    3    3    0    0 -0.20935877593E+02  0.28002470382E+02  0.88620631464E+02  0.95268387408E+02  0.00000000000E+00 0.  1.
         22    1    3    3    0    0 -0.17008227830E+01 -0.11101332902E+03  0.55575619186E+03  0.56673785546E+03  0.00000000000E+00 0.  1.
</event>
<event>
 7    1  0.6078244E-006  0.1855520E+03  0.7818608E-02  0.1322366E+00
          2   -1    0    0  502    0  0.00000000000E+00  0.00000000000E+00  0.24714156860E+04  0.24714156860E+04  0.00000000000E+00 0. -1.
          1   -1    0    0  501    0 -0.00000000000E+00 -0.00000000000E+00 -0.82966952157E+03  0.82966952157E+03  0.00000000000E+00 0. -1.
         25    2    1    2    0    0  0.11652747399E+03 -0.11789765168E+03 -0.22104050158E+03  0.30325320214E+03  0.12500037121E+03 0.  0.
          2    1    1    2  501    0 -0.15310412577E+03  0.11906418994E+03 -0.55080913936E+03  0.58395878507E+03  0.00000000000E+00 0. -1.
          1    1    1    2  502    0  0.36576651784E+02 -0.11665382632E+01  0.24135958054E+04  0.24138732203E+04  0.00000000000E+00 0. -1.
         22    1    3    3    0    0  0.23687640297E+02  0.25457710650E+02 -0.22775611562E+02  0.41568351139E+02  0.00000000000E+00 0.  1.
         22    1    3    3    0    0  0.92839833691E+02 -0.14335536233E+03 -0.19826489002E+03  0.26168485100E+03  0.00000000000E+00 0.  1.
</event>
<event>
 7    1  0.6078244E-006  0.8825521E+02  0.7818608E-02  0.1487340E+00
          2   -1    0    0  502    0  0.00000000000E+00  0.00000000000E+00  0.16373883153E+04  0.16373883153E+04  0.00000000000E+00 0. -1.
          1   -1    0    0  501    0 -0.00000000000E+00 -0.00000000000E+00 -0.21688506692E+03  0.21688506692E+03  0.00000000000E+00 0. -1.
         25    2    1    2    0    0 -0.91457855125E+02  0.53998600544E+02 -0.15154507827E+03  0.22332775031E+03  0.12501593972E+03 0.  0.
          2    1    1    2  501    0  0.11119550028E+02 -0.17736812935E+02 -0.24352342022E+02  0.32113478290E+02  0.00000000000E+00 0. -1.
          1    1    1    2  502    0  0.80338305097E+02 -0.36261787609E+02  0.15964006686E+04  0.15988321536E+04  0.00000000000E+00 0. -1.
         22    1    3    3    0    0 -0.51683345674E+02  0.36412273377E+02 -0.16589408168E+03  0.17753272433E+03  0.00000000000E+00 0. -1.
         22    1    3    3    0    0 -0.39774509451E+02  0.17586327167E+02  0.14349003409E+02  0.45795025976E+02  0.00000000000E+00 0. -1.
</event>
<event>
 7    1  0.6078244E-006  0.5914392E+02  0.7818608E-02  0.1403538E+00
          2   -1    0    0  502    0  0.00000000000E+00  0.00000000000E+00  0.43878468813E+03  0.43878468813E+03  0.00000000000E+00 0. -1.
          1   -1    0    0  501    0 -0.00000000000E+00 -0.00000000000E+00 -0.28106927815E+03  0.28106927815E+03  0.00000000000E+00 0. -1.
         25    2    1    2    0    0  0.42748114461E+02  0.39652402147E+02 -0.35477940825E+02  0.14241936654E+03  0.12499950958E+03 0.  0.
          2    1    1    2  501    0  0.14800479271E+02 -0.56268224792E+02 -0.18530576848E+03  0.19422511460E+03  0.00000000000E+00 0. -1.
          1    1    1    2  502    0 -0.57548593731E+02  0.16615822645E+02  0.37849911929E+03  0.38320948514E+03  0.00000000000E+00 0. -1.
         22    1    3    3    0    0  0.40864660003E+02  0.44441994074E+02 -0.78533010699E+02  0.99057786387E+02  0.00000000000E+00 0.  1.
         22    1    3    3    0    0  0.18834544572E+01 -0.47895919276E+01  0.43055069874E+02  0.43361580153E+02  0.00000000000E+00 0.  1.
</event>
<event>
 7    1  0.6078244E-006  0.1515515E+03  0.7818608E-02  0.1287863E+00
          2   -1    0    0  502    0  0.00000000000E+00  0.00000000000E+00  0.39831847222E+03  0.39831847222E+03  0.00000000000E+00 0. -1.
          1   -1    0    0  501    0 -0.00000000000E+00 -0.00000000000E+00 -0.56732634957E+03  0.56732634957E+03  0.00000000000E+00 0. -1.
         25    2    1    2    0    0 -0.14114585325E+03  0.92595226545E+02 -0.60434181444E+02  0.21857297147E+03  0.12500330277E+03 0.  0.
          2    1    1    2  501    0  0.87360091926E+02 -0.12226950571E+03 -0.41144799188E+03  0.43803089813E+03  0.00000000000E+00 0. -1.
          1    1    1    2  502    0  0.53785761324E+02  0.29674279162E+02  0.30287429598E+03  0.30904095219E+03  0.00000000000E+00 0. -1.
         22    1    3    3    0    0 -0.72076719237E+02 -0.21026812118E+01 -0.70609830244E+02  0.10092186508E+03  0.00000000000E+00 0. -1.
         22    1    3    3    0    0 -0.69069134013E+02  0.94697907757E+02  0.10175648801E+02  0.11765110639E+03  0.00000000000E+00 0. -1.
</event>
<event>
 7    1  0.6078244E-006  0.1080111E+03  0.7818608E-02  0.1356929E+00
          2   -1    0    0  502    0  0.00000000000E+00  0.00000000000E+00  0.20857693165E+04  0.20857693165E+04  0.00000000000E+00 0. -1.
          1   -1    0    0  501    0 -0.00000000000E+00 -0.00000000000E+00 -0.19413242154E+03  0.19413242154E+03  0.00000000000E+00 0. -1.
         25    2    1    2    0    0 -0.15465746436E+02 -0.14548266260E+03  0.90210085802E+02  0.21253551209E+03  0.12501635849E+03 0.  0.
          2    1    1    2  501    0  0.25332856507E+02  0.99948448857E+02 -0.11265505190E+03  0.15271740820E+03  0.00000000000E+00 0. -1.
          1    1    1    2  502    0 -0.98671100708E+01  0.45534213741E+02  0.19140818611E+04  0.19146488178E+04  0.00000000000E+00 0. -1.
         22    1    3    3    0    0 -0.50308175515E+02 -0.14401816213E+03  0.52896616047E+02  0.16146267537E+03  0.00000000000E+00 0.  1.
         22    1    3    3    0    0  0.34842429079E+02 -0.14645004625E+01  0.37313469754E+02  0.51072836722E+02  0.00000000000E+00 0.  1.
</event>
<event>
 7    1  0.6078244E-006  0.4022146E+02  0.7818608E-02  0.1516677E+00
          2   -1    0    0  502    0  0.00000000000E+00  0.00000000000E+00  0.17959583241E+03  0.17959583241E+03  0.00000000000E+00 0. -1.
          1   -1    0    0  501    0 -0.00000000000E+00 -0.00000000000E+00 -0.82876654559E+03  0.82876654559E+03  0.00000000000E+00 0. -1.
         25    2    1    2    0    0  0.19602787519E+02 -0.41242328846E+01 -0.14279911716E+03  0.19083327793E+03  0.12499789411E+03 0.  0.
          2    1    1    2  501    0  0.39547603002E+01  0.37359838678E+02 -0.65873917563E+03  0.65980959313E+03  0.00000000000E+00 0. -1.
          1    1    1    2  502    0 -0.23557547819E+02 -0.33235605793E+02  0.15236757961E+03  0.15771950693E+03  0.00000000000E+00 0. -1.
         22    1    3    3    0    0  0.40795474272E+02  0.48510629016E+02 -0.44888115408E+02  0.77669136429E+02  0.00000000000E+00 0. -1.
         22    1    3    3    0    0 -0.21192686754E+02 -0.52634861901E+02 -0.97911001747E+02  0.11316414150E+03  0.00000000000E+00 0. -1.
</event>
<event>
 7    1  0.6078244E-006  0.4464113E+02  0.7818608E-02  0.1565105E+00
          2   -1    0    0  502    0  0.00000000000E+00  0.00000000000E+00  0.89003159552E+03  0.89003159552E+03  0.00000000000E+00 0. -1.
          1   -1    0    0  501    0 -0.00000000000E+00 -0.00000000000E+00 -0.15809269469E+04  0.15809269469E+04  0.00000000000E+00 0. -1.
         25    2    1    2    0    0  0.28611036577E+02  0.61378560489E+02 -0.93824045053E+01  0.14246922378E+03  0.12499412430E+03 0.  0.
          2    1    1    2  501    0 -0.39352341968E+01 -0.24389091685E+02 -0.15042994114E+04  0.15045022543E+04  0.00000000000E+00 0. -1.
          1    1    1    2  502    0 -0.24675802381E+02 -0.36989468804E+02  0.82278646455E+03  0.82398706438E+03  0.00000000000E+00 0. -1.
         22    1    3    3    0    0  0.19571554700E+02  0.66258760303E+02  0.48030895547E+02  0.84144138223E+02  0.00000000000E+00 0. -1.
         22    1    3    3    0    0  0.90394818771E+01 -0.48801998139E+01 -0.57413300052E+02  0.58325085561E+02  0.00000000000E+00 0. -1.
</event>
<event>
 7    1  0.6078244E-006  0.9241303E+02  0.7818608E-02  0.1364497E+00
          2   -1    0    0  502    0  0.00000000000E+00  0.00000000000E+00  0.72585948478E+03  0.72585948478E+03  0.00000000000E+00 0. -1.
          1   -1    0    0  501    0 -0.00000000000E+00 -0.00000000000E+00 -0.92691717862E+03  0.92691717862E+03  0.00000000000E+00 0. -1.
         25    2    1    2    0    0  0.12365227600E+02  0.42298071062E+02  0.27207935950E+03  0.30264535379E+03  0.12500002655E+03 0.  0.
          2    1    1    2  501    0 -0.41140101556E+01 -0.92730340947E+02 -0.90777057934E+03  0.91250384434E+03  0.00000000000E+00 0. -1.
          1    1    1    2  502    0 -0.82512174445E+01  0.50432269885E+02  0.43463352600E+03  0.43762746527E+03  0.00000000000E+00 0. -1.
         22    1    3    3    0    0 -0.23279812395E+02 -0.22140098252E+02  0.15429816072E+02  0.35640045451E+02  0.00000000000E+00 0.  1.
         22    1    3    3    0    0  0.35645039995E+02  0.64438169315E+02  0.25664954343E+03  0.26700530834E+03  0.00000000000E+00 0.  1.
</event>
<event>
 7    1  0.6078244E-006  0.7396488E+02  0.7818608E-02  0.1381642E+00
          2   -1    0    0  502    0  0.00000000000E+00  0.00000000000E+00  0.17498196790E+03  0.17498196790E+03  0.00000000000E+00 0. -1.
          1   -1    0    0  501    0 -0.00000000000E+00 -0.00000000000E+00 -0.27571339549E+03  0.27571339549E+03  0.00000000000E+00 0. -1.
         25    2    1    2    0    0  0.34326608100E+02 -0.65954326365E+02 -0.14696501985E+03  0.20678237228E+03  0.12502776986E+03 0.  0.
          2    1    1    2  501    0  0.19622552369E+02  0.78710283554E+02 -0.75080543869E+02  0.11053253533E+03  0.00000000000E+00 0. -1.
          1    1    1    2  502    0 -0.53949160469E+02 -0.12755957189E+02  0.12131413613E+03  0.13338045578E+03  0.00000000000E+00 0. -1.
         22    1    3    3    0    0  0.11338703981E+02 -0.98273928820E+02 -0.13069661666E+03  0.16391441944E+03  0.00000000000E+00 0. -1.
         22    1    3    3    0    0  0.22987904119E+02  0.32319602455E+02 -0.16268403197E+02  0.42867952846E+02  0.00000000000E+00 0. -1.
</event>
<event>
 7    1  0.7697404E-006  0.7794042E+02  0.7818608E-02  0.1438278E+00
          2   -1    0    0  502    0  0.00000000000E+00  0.00000000000E+00  0.14003650571E+04  0.14003650571E+04  0.00000000000E+00 0. -1.
          1   -1    0    0  501    0 -0.00000000000E+00 -0.00000000000E+00 -0.72549032288E+03  0.72549032288E+03  0.00000000000E+00 0. -1.
         25    2    1    2    0    0  0.52861211292E+02 -0.38779555642E+02 -0.34847961933E+03  0.37597994267E+03  0.12499884244E+03 0.  0.
          2    1    1    2  501    0  0.23737340060E+02  0.24075612907E+02 -0.36137400785E+03  0.36295215938E+03  0.00000000000E+00 0. -1.
          1    1    1    2  502    0 -0.76598551353E+02  0.14703942735E+02  0.13847283614E+04  0.13869232780E+04  0.00000000000E+00 0. -1.
         22    1    3    3    0    0  0.80330059410E+02 -0.43395047833E+01 -0.29944486449E+03  0.31006285914E+03  0.00000000000E+00 0.  1.
         22    1    3    3    0    0 -0.27468848117E+02 -0.34440050859E+02 -0.49034754833E+02  0.65917083534E+02  0.00000000000E+00 0.  1.
</event>
<event>
 7    1  0.6078244E-006  0.2068866E+03  0.7818608E-02  0.1330167E+00
          2   -1    0    0  502    0  0.00000000000E+00  0.00000000000E+00  0.51567638928E+03  0.51567638928E+03  0.00000000000E+00 0. -1.
          1   -1    0    0  501    0 -0.00000000000E+00 -0.00000000000E+00 -0.67963284129E+03  0.67963284129E+03  0.00000000000E+00 0. -1.
         25    2    1    2    0    0  0.18233147512E+03  0.96284550166E+01 -0.38871194323E+01  0.22130881943E+03  0.12500003958E+03 0.  0.
          2    1    1    2  501    0  0.29987344135E+02  0.62541780610E+01 -0.53872268138E+03  0.53959288634E+03  0.00000000000E+00 0. -1.
          1    1    1    2  502    0 -0.21231881926E+03 -0.15882633078E+02  0.37865334880E+03  0.43440752480E+03  0.00000000000E+00 0. -1.
         22    1    3    3    0    0  0.84980557739E+02 -0.57555124512E+02  0.44447636191E+01  0.10273287436E+03  0.00000000000E+00 0.  1.
         22    1    3    3    0    0  0.97350917385E+02  0.67183579529E+02 -0.83318830514E+01  0.11857594507E+03  0.00000000000E+00 0.  1.
</event>
<event>
 7    1  0.6078244E-006  0.1258429E+03  0.7818608E-02  0.1378601E+00
          2   -1    0    0  502    0  0.00000000000E+00  0.00000000000E+00  0.40172142577E+03  0.40172142577E+03  0.00000000000E+00 0. -1.
          1   -1    0    0  501    0 -0.00000000000E+00 -0.00000000000E+00 -0.84784599795E+03  0.84784599795E+03  0.00000000000E+00 0. -1.
         25    2    1    2    0    0 -0.15654151286E+03  0.81208889510E+01  0.29561217624E+01  0.20051151340E+03  0.12499973705E+03 0.  0.
          2    1    1    2  501    0  0.12356119142E+03 -0.13407006498E+02 -0.74296031921E+03  0.75328424368E+03  0.00000000000E+00 0. -1.
          1    1    1    2  502    0  0.32980321446E+02  0.52861175467E+01  0.29387962527E+03  0.29577166665E+03  0.00000000000E+00 0. -1.
         22    1    3    3    0    0  0.15155217053E+02 -0.13854074707E+02 -0.16476824664E+02  0.26326825500E+02  0.00000000000E+00 0.  1.
         22    1    3    3    0    0 -0.17169672991E+03  0.21974963658E+02  0.19432946426E+02  0.17418468790E+03  0.00000000000E+00 0.  1.
</event>
<event>
 7    1  0.6078244E-006  0.7398663E+02  0.7818608E-02  0.1354278E+00
          2   -1    0    0  502    0  0.00000000000E+00  0.00000000000E+00  0.12937871151E+03  0.12937871151E+03  0.00000000000E+00 0. -1.
          1   -1    0    0  501    0 -0.00000000000E+00 -0.00000000000E+00 -0.11933101800E+04  0.11933101800E+04  0.00000000000E+00 0. -1.
         25    2    1    2    0    0  0.16733916828E+02 -0.10390748471E+03 -0.37584001763E+03  0.40982102156E+03  0.12498304489E+03 0.  0.
          2    1    1    2  501    0 -0.56320657414E+02  0.46711350723E+02 -0.78785663744E+03  0.79124714716E+03  0.00000000000E+00 0. -1.
          1    1    1    2  502    0  0.39586740586E+02  0.57196133987E+02  0.99765186544E+02  0.12162072282E+03  0.00000000000E+00 0. -1.
         22    1    3    3    0    0 -0.31416787550E+02 -0.32697622228E+02 -0.26850454798E+03  0.27230652090E+03  0.00000000000E+00 0.  1.
         22    1    3    3    0    0  0.48150704379E+02 -0.71209862481E+02 -0.10733546965E+03  0.13751450066E+03  0.00000000000E+00 0.  1.
</event>
<event>
 7    1  0.6078244E-006  0.1578337E+03  0.7818608E-02  0.1324611E+00
          2   -1    0    0  502    0  0.00000000000E+00  0.00000000000E+00  0.20084469594E+04  0.20084469594E+04  0.00000000000E+00 0. -1.
          1   -1    0    0  501    0 -0.00000000000E+00 -0.00000000000E+00 -0.74023876659E+03  0.74023876659E+03  0.00000000000E+00 0. -1.
         25    2    1    2    0    0  0.17120068628E+03  0.54360792860E+02 -0.82331086357E+02  0.23381047602E+03  0.12499664048E+03 0.  0.
          2    1    1    2  501    0 -0.13522855711E+03 -0.76372430790E+02 -0.57157494987E+03  0.59229843336E+03  0.00000000000E+00 0. -1.
          1    1    1    2  502    0 -0.35972129166E+02  0.22011637930E+02  0.19221142291E+04  0.19225768166E+04  0.00000000000E+00 0. -1.
         22    1    3    3    0    0  0.13905630676E+03  0.38234421612E+02 -0.27236595792E+00  0.14421720296E+03  0.00000000000E+00 0.  1.
         22    1    3    3    0    0  0.32144379524E+02  0.16126371247E+02 -0.82058720399E+02  0.89593273063E+02  0.00000000000E+00 0.  1.
</event>
<event>
 7    1  0.6078244E-006  0.8932820E+02  0.7818608E-02  0.1394562E+00
          2   -1    0    0  502    0  0.00000000000E+00  0.00000000000E+00  0.88326070449E+03  0.88326070449E+03  0.00000000000E+00 0. -1.
          1   -1    0    0  501    0 -0.00000000000E+00 -0.00000000000E+00 -0.54692882913E+02  0.54692882913E+02  0.00000000000E+00 0. -1.
         25    2    1    2    0    0  0.96993322624E+02 -0.67682558599E+02  0.25592025060E+03  0.30839764640E+03  0.12500120105E+03 0.  0.
          2    1    1    2  501    0 -0.41323276810E+02  0.18292517690E+01 -0.83465669128E+01  0.42197447169E+02  0.00000000000E+00 0. -1.
          1    1    1    2  502    0 -0.55670045814E+02  0.65853306830E+02  0.58099413789E+03  0.58735849384E+03  0.00000000000E+00 0. -1.
         22    1    3    3    0    0  0.10445750983E+03 -0.45575549647E+01  0.12577462261E+03  0.16355854719E+03  0.00000000000E+00 0.  1.
         22    1    3    3    0    0 -0.74641872014E+01 -0.63125003634E+02  0.13014562799E+03  0.14483909920E+03  0.00000000000E+00 0.  1.
</event>
<event>
 7    1  0.6078244E-006  0.7815856E+02  0.7818608E-02  0.1461012E+00
          2   -1    0    0  502    0  0.00000000000E+00  0.00000000000E+00  0.18050423052E+03  0.18050423052E+03  0.00000000000E+00 0. -1.
          1   -1    0    0  501    0 -0.00000000000E+00 -0.00000000000E+00 -0.99550633932E+02  0.99550633932E+02  0.00000000000E+00 0. -1.
         25    2    1    2    0    0 -0.32043942235E+02  0.83070940724E+02  0.79423822352E+02  0.17281112763E+03  0.12501178684E+03 0.  0.
          2    1    1    2  501    0  0.44225381029E+01 -0.75994696167E+02 -0.94121248493E+01  0.76702938555E+02  0.00000000000E+00 0. -1.
          1    1    1    2  502    0  0.27621404132E+02 -0.70762445570E+01  0.10941899086E+02  0.30540798269E+02  0.00000000000E+00 0. -1.
         22    1    3    3    0    0 -0.46695547836E+02  0.25389132355E+02 -0.20121007335E+02  0.56832536153E+02  0.00000000000E+00 0. -1.
         22    1    3    3    0    0  0.14651605601E+02  0.57681808369E+02  0.99544829687E+02  0.11597859148E+03  0.00000000000E+00 0. -1.
</event>
<event>
 7    1  0.6078244E-006  0.8700845E+02  0.7818608E-02  0.1420107E+00
          2   -1    0    0  502    0  0.00000000000E+00  0.00000000000E+00  0.59169140406E+03  0.59169140406E+03  0.00000000000E+00 0. -1.
          1   -1    0    0  501    0 -0.00000000000E+00 -0.00000000000E+00 -0.83001522753E+03  0.83001522753E+03  0.00000000000E+00 0. -1.
         25    2    1    2    0    0  0.69120463592E+01  0.11348475191E+03 -0.27528023802E+03  0.32300292082E+03  0.12500044845E+03 0.  0.
          2    1    1    2  501    0 -0.20794230063E+02 -0.27859801066E+02 -0.52698482096E+03  0.52813025859E+03  0.00000000000E+00 0. -1.
          1    1    1    2  502    0  0.13882183704E+02 -0.85624950840E+02  0.56394123551E+03  0.57057345218E+03  0.00000000000E+00 0. -1.
         22    1    3    3    0    0 -0.10853598051E+02  0.17633310689E+01 -0.16383387391E+03  0.16420246091E+03  0.00000000000E+00 0.  1.
         22    1    3    3    0    0  0.17765644410E+02  0.11172142084E+03 -0.11144636411E+03  0.15880045991E+03  0.00000000000E+00 0.  1.
</event>
<event>
 7    1  0.6078244E-006  0.1039841E+03  0.7818608E-02  0.1355111E+00
          2   -1    0    0  502    0  0.00000000000E+00  0.00000000000E+00  0.11553914876E+04  0.11553914876E+04  0.00000000000E+00 0. -1.
          1   -1    0    0  501    0 -0.00000000000E+00 -0.00000000000E+00 -0.24568040845E+04  0.24568040845E+04  0.00000000000E+00 0. -1.
         25    2    1    2    0    0 -0.94720869511E+02 -0.31287388346E+01 -0.70252254709E+02  0.17187871973E+03  0.12500033151E+03 0.  0.
          2    1    1    2  501    0  0.10099884116E+01  0.49134315624E+02 -0.23330126338E+04  0.23335301906E+04  0.00000000000E+00 0. -1.
          1    1    1    2  502    0  0.93710881100E+02 -0.46005576789E+02  0.11018522915E+04  0.11067866618E+04  0.00000000000E+00 0. -1.
         22    1    3    3    0    0 -0.45787301848E+02  0.39716280298E+02  0.17094393214E+02  0.62976806926E+02  0.00000000000E+00 0. -1.
         22    1    3    3    0    0 -0.48933567663E+02 -0.42845019133E+02 -0.87346647924E+02  0.10890191280E+03  0.00000000000E+00 0. -1.
</event>
<event>
 7    1  0.6078244E-006  0.1074457E+03  0.7818608E-02  0.1396155E+00
          2   -1    0    0  502    0  0.00000000000E+00  0.00000000000E+00  0.20062716650E+04  0.20062716650E+04  0.00000000000E+00 0. -1.
          1   -1    0    0  501    0 -0.00000000000E+00 -0.00000000000E+00 -0.71177028347E+03  0.71177028347E+03  0.00000000000E+00 0. -1.
         25    2    1    2    0    0  0.51852113621E+02 -0.88412345873E+02  0.21308886441E+03  0.26746384517E+03  0.12499863898E+03 0.  0.
          2    1    1    2  501    0 -0.22377895263E+02  0.10527131294E+03 -0.68018829140E+03  0.68865007898E+03  0.00000000000E+00 0. -1.
          1    1    1    2  502    0 -0.29474218357E+02 -0.16858967067E+02  0.17616008085E+04  0.17619280243E+04  0.00000000000E+00 0. -1.
         22    1    3    3    0    0  0.28309939999E+02 -0.79370273651E+02  0.22449185946E+03  0.23978675527E+03  0.00000000000E+00 0. -1.
         22    1    3    3    0    0  0.23542173621E+02 -0.90420722223E+01 -0.11402995050E+02  0.27677089894E+02  0.00000000000E+00 0. -1.
</event>
<event>
 7    1  0.6078244E-006  0.6515110E+02  0.7818608E-02  0.1411770E+00
          2   -1    0    0  502    0  0.00000000000E+00  0.00000000000E+00  0.11091965646E+04  0.11091965646E+04  0.00000000000E+00 0. -1.
          1   -1    0    0  501    0 -0.00000000000E+00 -0.00000000000E+00 -0.11729668333E+03  0.11729668333E+03  0.00000000000E+00 0. -1.
         25    2    1    2    0    0 -0.90173462464E+02 -0.65069265131E+02  0.34266736377E+03  0.38133147493E+03  0.12501003555E+03 0.  0.
          2    1    1    2  501    0  0.57439615253E+02  0.27910410597E+02 -0.86635690909E+02  0.10762919381E+03  0.00000000000E+00 0. -1.
          1    1    1    2  502    0  0.32733847210E+02  0.37158854534E+02  0.73586820845E+03  0.73753257923E+03  0.00000000000E+00 0. -1.
         22    1    3    3    0    0 -0.16935972913E+02  0.32010513741E+02  0.34414714695E+02  0.49958710512E+02  0.00000000000E+00 0.  1.
         22    1    3    3    0    0 -0.73237489551E+02 -0.97079778872E+02  0.30825264907E+03  0.33137276442E+03  0.00000000000E+00 0.  1.
</event>
<event>
 7    1  0.6078244E-006  0.1045643E+03  0.7818608E-02  0.1441068E+00
          2   -1    0    0  502    0  0.00000000000E+00  0.00000000000E+00  0.43741223857E+03  0.43741223857E+03  0.00000000000E+00 0. -1.
          1   -1    0    0  501    0 -0.00000000000E+00 -0.00000000000E+00 -0.27037288988E+03  0.27037288988E+03  0.00000000000E+00 0. -1.
         25    2    1    2    0    0  0.75631393761E+02  0.35850646574E+02  0.50841576340E+02  0.15879330067E+03  0.12500027948E+03 0.  0.
          2    1    1    2  501    0  0.19658317276E+02  0.14923182675E+02 -0.20688114921E+03  0.20834817186E+03  0.00000000000E+00 0. -1.
          1    1    1    2  502    0 -0.95289711037E+02 -0.50773829249E+02  0.32307892156E+03  0.34064365593E+03  0.00000000000E+00 0. -1.
         22    1    3    3    0    0  0.13577042469E+01  0.37385133574E+02 -0.30766063892E+02  0.48435960408E+02  0.00000000000E+00 0. -1.
         22    1    3    3    0    0  0.74273689514E+02 -0.15344870004E+01  0.81607640233E+02  0.11035734026E+03  0.00000000000E+00 0. -1.
</event>
<event>
 7    1  0.6078244E-006  0.1568781E+03  0.7818608E-02  0.1338080E+00
          2   -1    0    0  502    0  0.00000000000E+00  0.00000000000E+00  0.78489237154E+03  0.78489237154E+03  0.00000000000E+00 0. -1.
          1   -1    0    0  501    0 -0.00000000000E+00 -0.00000000000E+00 -0.28763508194E+03  0.28763508194E+03  0.00000000000E+00 0. -1.
         25    2    1    2    0    0 -0.17013747501E+03 -0.24046517745E+02  0.14990063234E+03  0.26004157879E+03  0.12500571070E+03 0.  0.
          2    1    1    2  501    0  0.14605644556E+03  0.53050378002E+02 -0.20589427761E+03  0.25795209138E+03  0.00000000000E+00 0. -1.
          1    1    1    2  502    0  0.24081029456E+02 -0.29003860257E+02  0.55325093487E+03  0.55453378331E+03  0.00000000000E+00 0. -1.
         22    1    3    3    0    0 -0.17534303624E+03 -0.29486478253E+02  0.16538043919E+03  0.24282776288E+03  0.00000000000E+00 0.  1.
         22    1    3    3    0    0  0.52055612325E+01  0.54399605086E+01 -0.15479806854E+02  0.17213815914E+02  0.00000000000E+00 0.  1.
</event>
<event>
 7    1  0.6078244E-006  0.1159398E+03  0.7818608E-02  0.1340201E+00
          2   -1    0    0  502    0  0.00000000000E+00  0.00000000000E+00  0.71339598011E+02  0.71339598011E+02  0.00000000000E+00 0. -1.
          1   -1    0    0  501    0 -0.00000000000E+00 -0.00000000000E+00 -0.50144034133E+03  0.50144034133E+03  0.00000000000E+00 0. -1.
         25    2    1    2    0    0  0.35590995139E+02 -0.97927287629E+02 -0.29998724165E+03  0.34128378479E+03  0.12500321600E+03 0.  0.
          2    1    1    2  501    0  0.48783059164E+02  0.11317299956E+02 -0.91948891753E+02  0.10470179958E+03  0.00000000000E+00 0. -1.
          1    1    1    2  502    0 -0.84374054303E+02  0.86609987673E+02 -0.38164609919E+02  0.12679435498E+03  0.00000000000E+00 0. -1.
         22    1    3    3    0    0 -0.16909153156E+02  0.22064179801E+02 -0.86149073385E+02  0.90522982363E+02  0.00000000000E+00 0.  1.
         22    1    3    3    0    0  0.52500148295E+02 -0.11999146743E+03 -0.21383816826E+03  0.25076080242E+03  0.00000000000E+00 0.  1.
</event>
<event>
 7    1  0.6078244E-006  0.9708297E+02  0.7818608E-02  0.1374656E+00
          2   -1    0    0  502    0  0.00000000000E+00  0.00000000000E+00  0.23592516277E+03  0.23592516277E+03  0.00000000000E+00 0. -1.
          1   -1    0    0  501    0 -0.00000000000E+00 -0.00000000000E+00 -0.26643833644E+03  0.26643833644E+03  0.00000000000E+00 0. -1.
         25    2    1    2    0    0  0.34690436853E+02 -0.85041805962E+02  0.48337593879E+02  0.16247152416E+03  0.12499975204E+03 0.  0.
          2    1    1    2  501    0  0.79987380252E+01  0.98361122497E+02 -0.19329033440E+03  0.21702544460E+03  0.00000000000E+00 0. -1.
          1    1    1    2  502    0 -0.42689174878E+02 -0.13319316535E+02  0.11443956686E+03  0.12286653046E+03  0.00000000000E+00 0. -1.
         22    1    3    3    0    0  0.37355032126E+02  0.12286669159E+02 -0.19412590477E+02  0.43854410647E+02  0.00000000000E+00 0. -1.
         22    1    3    3    0    0 -0.26645952728E+01 -0.97328475121E+02  0.67750184356E+02  0.11861711351E+03  0.00000000000E+00 0. -1.
</event>
<event>
 7    1  0.6078244E-006  0.5538968E+02  0.7818608E-02  0.1447734E+00
          2   -1    0    0  502    0  0.00000000000E+00  0.00000000000E+00  0.75192070109E+03  0.75192070109E+03  0.00000000000E+00 0. -1.
          1   -1    0    0  501    0 -0.00000000000E+00 -0.00000000000E+00 -0.35307536645E+03  0.35307536645E+03  0.00000000000E+00 0. -1.
         25    2    1    2    0    0 -0.41279784880E+01  0.36067203158E+02 -0.73007837744E+02  0.14924459407E+03  0.12500368449E+03 0.  0.
          2    1    1    2  501    0 -0.39725533896E+02 -0.42633648149E+02 -0.23773828137E+03  0.24477589021E+03  0.00000000000E+00 0. -1.
          1    1    1    2  502    0  0.43853512384E+02  0.65664449901E+01  0.70959145376E+03  0.71097558326E+03  0.00000000000E+00 0. -1.
         22    1    3    3    0    0 -0.22952425896E+02  0.78504571305E+02 -0.58664038053E+02  0.10065411532E+03  0.00000000000E+00 0.  1.
         22    1    3    3    0    0  0.18824447408E+02 -0.42437368146E+02 -0.14343799691E+02  0.48590478748E+02  0.00000000000E+00 0.  1.
</event>
<event>
 7    1  0.6078244E-006  0.1502617E+03  0.7818608E-02  0.1280951E+00
          2   -1    0    0  502    0  0.00000000000E+00  0.00000000000E+00  0.88854051717E+03  0.88854051717E+03  0.00000000000E+00 0. -1.
          1   -1    0    0  501    0 -0.00000000000E+00 -0.00000000000E+00 -0.10507483271E+04  0.10507483271E+04  0.00000000000E+00 0. -1.
         25    2    1    2    0    0 -0.96779079936E+01 -0.15587745234E+03 -0.18811272491E+03  0.27460542379E+03  0.12502119602E+03 0.  0.
          2    1    1    2  501    0 -0.54775180865E+02  0.14104638227E+03 -0.81108843396E+03  0.82508111728E+03  0.00000000000E+00 0. -1.
          1    1    1    2  502    0  0.64453088859E+02  0.14831070070E+02  0.83699334896E+03  0.83960230318E+03  0.00000000000E+00 0. -1.
         22    1    3    3    0    0  0.28331934901E+02 -0.88616765140E+02 -0.17220074851E+03  0.19572615407E+03  0.00000000000E+00 0.  1.
         22    1    3    3    0    0 -0.38009842895E+02 -0.67260687198E+02 -0.15911976395E+02  0.78879269723E+02  0.00000000000E+00 0.  1.
</event>
<event>
 7    1  0.6078244E-006  0.2236276E+03  0.7818608E-02  0.1244349E+00
          2   -1    0    0  502    0  0.00000000000E+00  0.00000000000E+00  0.19255271390E+03  0.19255271390E+03  0.00000000000E+00 0. -1.
          1   -1    0    0  501    0 -0.00000000000E+00 -0.00000000000E+00 -0.17075364797E+04  0.17075364797E+04  0.00000000000E+00 0. -1.
         25    2    1    2    0    0 -0.13107989568E+03 -0.17850155960E+03 -0.18152446618E+03  0.31244103056E+03  0.12499407956E+03 0.  0.
          2    1    1    2  501    0  0.53178672427E+02 -0.34856460211E+02 -0.13577319929E+04  0.13592200368E+04  0.00000000000E+00 0. -1.
          1    1    1    2  502    0  0.77901223254E+02  0.21335801981E+03  0.24272693266E+02  0.22842812620E+03  0.00000000000E+00 0. -1.
         22    1    3    3    0    0  0.19023775832E+02 -0.39978325728E+02 -0.92348663690E+01  0.45226688268E+02  0.00000000000E+00 0. -1.
         22    1    3    3    0    0 -0.15010367151E+03 -0.13852323387E+03 -0.17228959981E+03  0.26721434229E+03  0.00000000000E+00 0. -1.
</event>
<event>
 7    1  0.6078244E-006  0.7422378E+02  0.7818608E-02  0.1409405E+00
          2   -1    0    0  502    0  0.00000000000E+00  0.00000000000E+00  0.12697528742E+04  0.12697528742E+04  0.00000000000E+00 0. -1.
          1   -1    0    0  501    0 -0.00000000000E+00 -0.00000000000E+00 -0.28175005423E+03  0.28175005423E+03  0.00000000000E+00 0. -1.
         25    2    1    2    0    0 -0.77770517452E+02 -0.78483035010E+02  0.26646424228E+03  0.31438201923E+03  0.12500008574E+03 0.  0.
          2    1    1    2  501    0  0.64013623397E+02  0.36398183283E+02 -0.25201904744E+03  0.26255698809E+03  0.00000000000E+00 0. -1.
          1    1    1    2  502    0  0.13756894055E+02  0.42084851728E+02  0.97355762515E+03  0.97456392113E+03  0.00000000000E+00 0. -1.
         22    1    3    3    0    0  0.20175983810E+02 -0.57523219143E+02  0.14262169869E+03  0.15510299804E+03  0.00000000000E+00 0. -1.
         22    1    3    3    0    0 -0.97946501262E+02 -0.20959815867E+02  0.12384254358E+03  0.15927902119E+03  0.00000000000E+00 0. -1.
</event>
<event>
 7    1  0.6078244E-006  0.1430720E+03  0.7818608E-02  0.1269912E+00
          2   -1    0    0  502    0  0.00000000000E+00  0.00000000000E+00  0.70369979254E+03  0.70369979254E+03  0.00000000000E+00 0. -1.
          1   -1    0    0  501    0 -0.00000000000E+00 -0.00000000000E+00 -0.72751389516E+03  0.72751389516E+03  0.00000000000E+00 0. -1.
         25    2    1    2    0    0 -0.85424090806E+02 -0.83773621173E+00 -0.11275412993E+03  0.18877680018E+03  0.12500083751E+03 0.  0.
          2    1    1    2  501    0  0.15798265432E+03  0.27242366771E+02 -0.56328666301E+03  0.58565564143E+03  0.00000000000E+00 0. -1.
          1    1    1    2  502    0 -0.72558563515E+02 -0.26404630559E+02  0.65222669031E+03  0.65678124609E+03  0.00000000000E+00 0. -1.
         22    1    3    3    0    0 -0.88958897419E+02 -0.41625081398E+02 -0.11040572853E+03  0.14776927192E+03  0.00000000000E+00 0.  1.
         22    1    3    3    0    0  0.35348066135E+01  0.40787345186E+02 -0.23484014001E+01  0.41007528263E+02  0.00000000000E+00 0.  1.
</event>
<event>
 7    1  0.6078244E-006  0.4642022E+02  0.7818608E-02  0.1486889E+00
          2   -1    0    0  502    0  0.00000000000E+00  0.00000000000E+00  0.24777025362E+04  0.24777025362E+04  0.00000000000E+00 0. -1.
          1   -1    0    0  501    0 -0.00000000000E+00 -0.00000000000E+00 -0.20548043354E+04  0.20548043354E+04  0.00000000000E+00 0. -1.
         25    2    1    2    0    0 -0.40403313713E+02  0.16184752829E+02  0.19295484289E+03  0.23398925894E+03  0.12500011170E+03 0.  0.
          2    1    1    2  501    0  0.24460774896E+00 -0.39925470074E+02 -0.20338508829E+04  0.20342427379E+04  0.00000000000E+00 0. -1.
          1    1    1    2  502    0  0.40158705964E+02  0.23740717245E+02  0.22637942408E+04  0.22642748746E+04  0.00000000000E+00 0. -1.
         22    1    3    3    0    0  0.13352584256E+02 -0.10222489184E+02 -0.11872573721E+02  0.20585159659E+02  0.00000000000E+00 0. -1.
         22    1    3    3    0    0 -0.53755897969E+02  0.26407242013E+02  0.20482741661E+03  0.21340409928E+03  0.00000000000E+00 0. -1.
</event>
<event>
 7    1  0.6078244E-006  0.6582396E+02  0.7818608E-02  0.1471471E+00
          2   -1    0    0  502    0  0.00000000000E+00  0.00000000000E+00  0.17505896300E+03  0.17505896300E+03  0.00000000000E+00 0. -1.
          1   -1    0    0  501    0 -0.00000000000E+00 -0.00000000000E+00 -0.18299452935E+04  0.18299452935E+04  0.00000000000E+00 0. -1.
         25    2    1    2    0    0 -0.46023628204E+02 -0.20931158801E+02 -0.18948503216E+03  0.23256324885E+03  0.12499919816E+03 0.  0.
          2    1    1    2  501    0 -0.20442128391E+02  0.23834926795E+02 -0.16115532779E+04  0.16118591601E+04  0.00000000000E+00 0. -1.
          1    1    1    2  502    0  0.66465756595E+02 -0.29037679945E+01  0.14615197953E+03  0.16058184763E+03  0.00000000000E+00 0. -1.
         22    1    3    3    0    0 -0.26338789974E+02 -0.13548324285E+02  0.10538399519E+02  0.31437983597E+02  0.00000000000E+00 0.  1.
         22    1    3    3    0    0 -0.19684838231E+02 -0.73828345160E+01 -0.20002343168E+03  0.20112526525E+03  0.00000000000E+00 0.  1.
</event>
<event>
 7    1  0.6078244E-006  0.3313303E+02  0.7818608E-02  0.1619721E+00
          2   -1    0    0  502    0  0.00000000000E+00  0.00000000000E+00  0.35648117998E+04  0.35648117998E+04  0.00000000000E+00 0. -1.
          1   -1    0    0  501    0 -0.00000000000E+00 -0.00000000000E+00 -0.30038912014E+02  0.30038912014E+02  0.00000000000E+00 0. -1.
         25    2    1    2    0    0 -0.20915714294E+02 -0.10170392256E+02  0.24271141425E+04  0.24304425263E+04  0.12500763511E+03 0.  0.
          2    1    1    2  501    0 -0.13489041296E+02  0.19709606391E+02 -0.23016739288E+02  0.33169158967E+02  0.00000000000E+00 0. -1.
          1    1    1    2  502    0  0.34404755590E+02 -0.95392141353E+01  0.11306754845E+04  0.11312390265E+04  0.00000000000E+00 0. -1.
         22    1    3    3    0    0 -0.65610703933E+02  0.23910993386E+02  0.15020545201E+04  0.15036769206E+04  0.00000000000E+00 0. -1.
         22    1    3    3    0    0  0.44694989639E+02 -0.34081385642E+02  0.92505962242E+03  0.92676560574E+03  0.00000000000E+00 0. -1.
</event>
<event>
 7    1  0.6078244E-006  0.5805027E+02  0.7818608E-02  0.1525531E+00
          2   -1    0    0  502    0  0.00000000000E+00  0.00000000000E+00  0.41612781737E+03  0.41612781737E+03  0.00000000000E+00 0. -1.
          1   -1    0    0  501    0 -0.00000000000E+00 -0.00000000000E+00 -0.29419634511E+03  0.29419634511E+03  0.00000000000E+00 0. -1.
         25    2    1    2    0    0 -0.32182493894E+02  0.17785655785E+02  0.13253158607E+02  0.13096408196E+03  0.12499560826E+03 0.  0.
          2    1    1    2  501    0  0.56705308584E+02 -0.16979171195E+02 -0.23116956084E+03  0.23862763908E+03  0.00000000000E+00 0. -1.
          1    1    1    2  502    0 -0.24522814690E+02 -0.80648458994E+00  0.33984787449E+03  0.34073244144E+03  0.00000000000E+00 0. -1.
         22    1    3    3    0    0  0.29570475192E+02  0.23984188254E+02  0.46866286294E+02  0.60382970117E+02  0.00000000000E+00 0. -1.
         22    1    3    3    0    0 -0.61752969086E+02 -0.61985324687E+01 -0.33613127686E+02  0.70581111840E+02  0.00000000000E+00 0. -1.
</event>
<event>
 7    1  0.6078244E-006  0.7808224E+02  0.7818608E-02  0.1352697E+00
          2   -1    0    0  502    0  0.00000000000E+00  0.00000000000E+00  0.33772696181E+03  0.33772696181E+03  0.00000000000E+00 0. -1.
          1   -1    0    0  501    0 -0.00000000000E+00 -0.00000000000E+00 -0.99540791150E+03  0.99540791150E+03  0.00000000000E+00 0. -1.
         25    2    1    2    0    0  0.12057124488E+02  0.13938641150E+03 -0.27329593739E+03  0.33149630278E+03  0.12500073360E+03 0.  0.
          2    1    1    2  501    0 -0.13841719270E+02 -0.72609055999E+02 -0.68739232457E+03  0.69135510129E+03  0.00000000000E+00 0. -1.
          1    1    1    2  502    0  0.17845947821E+01 -0.66777355506E+02  0.30300731227E+03  0.31028346923E+03  0.00000000000E+00 0. -1.
         22    1    3    3    0    0  0.59736289654E+02  0.50180582452E+02 -0.71751422570E+02  0.10599425361E+03  0.00000000000E+00 0.  1.
         22    1    3    3    0    0 -0.47679165166E+02  0.89205829053E+02 -0.20154451482E+03  0.22550204917E+03  0.00000000000E+00 0.  1.
</event>
<event>
 7    1  0.6078244E-006  0.5559559E+02  0.7818608E-02  0.1445796E+00
          2   -1    0    0  502    0  0.00000000000E+00  0.00000000000E+00  0.29068910197E+04  0.29068910197E+04  0.00000000000E+00 0. -1.
          1   -1    0    0  501    0 -0.00000000000E+00 -0.00000000000E+00 -0.56585843312E+03  0.56585843312E+03  0.00000000000E+00 0. -1.
         25    2    1    2    0    0 -0.71778523618E+01 -0.23402557899E+02  0.28882715044E+03  0.31566617246E+03  0.12499923329E+03 0.  0.
          2    1    1    2  501    0 -0.31503105524E+02  0.46036450715E+02 -0.55083733420E+03  0.55365473827E+03  0.00000000000E+00 0. -1.
          1    1    1    2  502    0  0.38680957886E+02 -0.22633892815E+02  0.26030427704E+04  0.26034285421E+04  0.00000000000E+00 0. -1.
         22    1    3    3    0    0 -0.58402980477E+02 -0.25011805473E+02  0.88863543180E+02  0.10923931457E+03  0.00000000000E+00 0.  1.
         22    1    3    3    0    0  0.51225128116E+02  0.16092475740E+01  0.19996360726E+03  0.20642685789E+03  0.00000000000E+00 0.  1.
</event>
<event>
 7    1  0.6078244E-006  0.1179812E+03  0.7818608E-02  0.1250503E+00
          2   -1    0    0  502    0  0.00000000000E+00  0.00000000000E+00  0.12775595983E+04  0.12775595983E+04  0.00000000000E+00 0. -1.
          1   -1    0    0  501    0 -0.00000000000E+00 -0.00000000000E+00 -0.14454375753E+04  0.14454375753E+04  0.00000000000E+00 0. -1.
         25    2    1    2    0    0 -0.18634198246E+02 -0.91413075904E+01  0.82350434112E+02  0.15112018236E+03  0.12499967468E+03 0.  0.
          2    1    1    2  501    0 -0.10642893297E+03  0.38871109215E+02 -0.14052065590E+04  0.14097671987E+04  0.00000000000E+00 0. -1.
          1    1    1    2  502    0  0.12506313122E+03 -0.29729801625E+02  0.11549781479E+04  0.11621097926E+04  0.00000000000E+00 0. -1.
         22    1    3    3    0    0  0.37270591144E+02 -0.44655150929E+02  0.52949667840E+02  0.78656511447E+02  0.00000000000E+00 0.  1.
         22    1    3    3    0    0 -0.55904789390E+02  0.35513843339E+02  0.29400766272E+02  0.72463670917E+02  0.00000000000E+00 0.  1.
</event>
<event>
 7    1  0.6078244E-006  0.4948477E+02  0.7818608E-02  0.1571696E+00
          2   -1    0    0  502    0  0.00000000000E+00  0.00000000000E+00  0.19665615997E+04  0.19665615997E+04  0.00000000000E+00 0. -1.
          1   -1    0    0  501    0 -0.00000000000E+00 -0.00000000000E+00 -0.25375643871E+03  0.25375643871E+03  0.00000000000E+00 0. -1.
         25    2    1    2    0    0  0.70505433511E+02 -0.14422435157E+01 -0.87582667955E+02  0.16813464269E+03  0.12500175249E+03 0.  0.
          2    1    1    2  501    0 -0.21111542718E+02  0.34052816042E+01 -0.12467013459E+03  0.12649085199E+03  0.00000000000E+00 0. -1.
          1    1    1    2  502    0 -0.49393890793E+02 -0.19630380885E+01  0.19250579635E+04  0.19256925437E+04  0.00000000000E+00 0. -1.
         22    1    3    3    0    0  0.83908809774E+01 -0.57956385886E+02 -0.45764905406E+02  0.74322110541E+02  0.00000000000E+00 0. -1.
         22    1    3    3    0    0  0.62114552533E+02  0.56514142370E+02 -0.41817762549E+02  0.93812532152E+02  0.00000000000E+00 0. -1.
</event>
<event>
 7    1  0.6078244E-006  0.1012540E+03  0.7818608E-02  0.1309254E+00
          2   -1    0    0  502    0  0.00000000000E+00  0.00000000000E+00  0.34070802119E+04  0.34070802119E+04  0.00000000000E+00 0. -1.
          1   -1    0    0  501    0 -0.00000000000E+00 -0.00000000000E+00 -0.15387954896E+04  0.15387954896E+04  0.00000000000E+00 0. -1.
         25    2    1    2    0    0 -0.57688784397E+02  0.86692960055E+02 -0.12516315324E+03  0.20526620846E+03  0.12499894494E+03 0.  0.
          2    1    1    2  501    0 -0.40961138991E+02 -0.63368743794E+02 -0.13717807878E+04  0.13738544110E+04  0.00000000000E+00 0. -1.
          1    1    1    2  502    0  0.98649923389E+02 -0.23324216262E+02  0.33652286633E+04  0.33667550821E+04  0.00000000000E+00 0. -1.
         22    1    3    3    0    0 -0.75740693966E+02  0.14066652173E+02 -0.10017022351E+03  0.12636691459E+03  0.00000000000E+00 0.  1.
         22    1    3    3    0    0  0.18051909569E+02  0.72626307882E+02 -0.24992929736E+02  0.78899293865E+02  0.00000000000E+00 0.  1.
</event>
<event>
 7    1  0.6078244E-006  0.1596050E+03  0.7818608E-02  0.1320109E+00
          2   -1    0    0  502    0  0.00000000000E+00  0.00000000000E+00  0.24105776693E+04  0.24105776693E+04  0.00000000000E+00 0. -1.
          1   -1    0    0  501    0 -0.00000000000E+00 -0.00000000000E+00 -0.38150052839E+03  0.38150052839E+03  0.00000000000E+00 0. -1.
         25    2    1    2    0    0 -0.10408873487E+03 -0.54726816688E+02  0.96028299619E+03  0.97549872020E+03  0.12499932454E+03 0.  0.
          2    1    1    2  501    0  0.13764550104E+03  0.82264352624E+02 -0.35635373373E+03  0.39077063761E+03  0.00000000000E+00 0. -1.
          1    1    1    2  502    0 -0.33556766174E+02 -0.27537535936E+02  0.14251478785E+04  0.14258088399E+04  0.00000000000E+00 0. -1.
         22    1    3    3    0    0 -0.51026519098E+02 -0.90192824756E+02  0.48480507443E+03  0.49575640337E+03  0.00000000000E+00 0. -1.
         22    1    3    3    0    0 -0.53062215773E+02  0.35466008068E+02  0.47547792176E+03  0.47974231683E+03  0.00000000000E+00 0. -1.
</event>
<event>
 7    1  0.6078244E-006  0.5135975E+02  0.7818608E-02  0.1469676E+00
          2   -1    0    0  502    0  0.00000000000E+00  0.00000000000E+00  0.24215087876E+04  0.24215087876E+04  0.00000000000E+00 0. -1.
          1   -1    0    0  501    0 -0.00000000000E+00 -0.00000000000E+00 -0.16287079879E+03  0.16287079879E+03  0.00000000000E+00 0. -1.
         25    2    1    2    0    0 -0.82974163954E+02  0.34466378258E+02  0.52545275870E+03  0.54753873117E+03  0.12500166957E+03 0.  0.
          2    1    1    2  501    0  0.49961028484E+02 -0.10553370495E+02 -0.14730719144E+03  0.15590666004E+03  0.00000000000E+00 0. -1.
          1    1    1    2  502    0  0.33013135469E+02 -0.23913007763E+02  0.18804924215E+04  0.18809341951E+04  0.00000000000E+00 0. -1.
         22    1    3    3    0    0 -0.10276850749E+03  0.61960199127E+02  0.40322038425E+03  0.42069836068E+03  0.00000000000E+00 0. -1.
         22    1    3    3    0    0  0.19794343536E+02 -0.27493820869E+02  0.12223237445E+03  0.12684037049E+03  0.00000000000E+00 0. -1.
</event>
<event>
 7    1  0.6078244E-006  0.1741764E+03  0.7818608E-02  0.1280660E+00
          2   -1    0    0  502    0  0.00000000000E+00  0.00000000000E+00  0.20110915738E+04  0.20110915738E+04  0.00000000000E+00 0. -1.
          1   -1    0    0  501    0 -0.00000000000E+00 -0.00000000000E+00 -0.28227179081E+02  0.28227179081E+02  0.00000000000E+00 0. -1.
         25    2    1    2    0    0 -0.98416842979E+02  0.17667117761E+03  0.10011695948E+04  0.10290112738E+04  0.12500025582E+03 0.  0.
          2    1    1    2  501    0  0.45511341559E+02 -0.15488689382E+03  0.50461119837E+03  0.52980533558E+03  0.00000000000E+00 0. -1.
          1    1    1    2  502    0  0.52905501421E+02 -0.21784283788E+02  0.47708360152E+03  0.48050214354E+03  0.00000000000E+00 0. -1.
         22    1    3    3    0    0  0.28755984128E+02  0.49906822553E+02  0.21339442728E+03  0.22103117236E+03  0.00000000000E+00 0.  1.
         22    1    3    3    0    0 -0.12717282711E+03  0.12676435505E+03  0.78777516753E+03  0.80798010139E+03  0.00000000000E+00 0.  1.
</event>
<event>
 7    1  0.6078244E-006  0.5554247E+02  0.7818608E-02  0.1418017E+00
          2   -1    0    0  502    0  0.00000000000E+00  0.00000000000E+00  0.18206586609E+04  0.18206586609E+04  0.00000000000E+00 0. -1.
          1   -1    0    0  501    0 -0.00000000000E+00 -0.00000000000E+00 -0.20324982980E+02  0.20324982980E+02  0.00000000000E+00 0. -1.
         25    2    1    2    0    0 -0.14944965954E+02  0.17745483601E+02  0.45627358924E+03  0.47365445529E+03  0.12499880232E+03 0.  0.
          2    1    1    2  501    0  0.63454339380E+02  0.88941625949E+01  0.82042231889E+02  0.10409844921E+03  0.00000000000E+00 0. -1.
          1    1    1    2  502    0 -0.48509373426E+02 -0.26639646196E+02  0.12620178568E+04  0.12632307394E+04  0.00000000000E+00 0. -1.
         22    1    3    3    0    0 -0.38446881556E+01 -0.29419987172E+02  0.39220913282E+03  0.39332978674E+03  0.00000000000E+00 0. -1.
         22    1    3    3    0    0 -0.11100277798E+02  0.47165470774E+02  0.64064456419E+02  0.80324668544E+02  0.00000000000E+00 0. -1.
</event>
<event>
 7    1  0.6078244E-006  0.5157162E+02  0.7818608E-02  0.1441203E+00
          2   -1    0    0  502    0  0.00000000000E+00  0.00000000000E+00  0.36907510626E+03  0.36907510626E+03  0.00000000000E+00 0. -1.
          1   -1    0    0  501    0 -0.00000000000E+00 -0.00000000000E+00 -0.86114555382E+03  0.86114555382E+03  0.00000000000E+00 0. -1.
         25    2    1    2    0    0 -0.23301439556E+02 -0.70807559113E+01  0.12657136819E+03  0.17955110051E+03  0.12500076903E+03 0.  0.
          2    1    1    2  501    0  0.29603268195E+02 -0.42512001233E+02 -0.83094587526E+03  0.83255910982E+03  0.00000000000E+00 0. -1.
          1    1    1    2  502    0 -0.63018286382E+01  0.49592757144E+02  0.21230405950E+03  0.21811044974E+03  0.00000000000E+00 0. -1.
         22    1    3    3    0    0  0.15074215156E+02 -0.53402014061E+02  0.23603414312E+02  0.60300317043E+02  0.00000000000E+00 0. -1.
         22    1    3    3    0    0 -0.38375654713E+02  0.46321258149E+02  0.10296795388E+03  0.11925078347E+03  0.00000000000E+00 0. -1.
</event>
<event>
 7    1  0.6078244E-006  0.1190306E+03  0.7818608E-02  0.1375348E+00
          2   -1    0    0  502    0  0.00000000000E+00  0.00000000000E+00  0.13947581300E+03  0.13947581300E+03  0.00000000000E+00 0. -1.
          1   -1    0    0  501    0 -0.00000000000E+00 -0.00000000000E+00 -0.60359536427E+03  0.60359536427E+03  0.00000000000E+00 0. -1.
         25    2    1    2    0    0 -0.14965893463E+03  0.35240632699E+01 -0.49340313854E+02  0.20116258592E+03  0.12498681396E+03 0.  0.
          2    1    1    2  501    0  0.11582244590E+03  0.95281604466E+01 -0.46537020100E+03  0.47966138973E+03  0.00000000000E+00 0. -1.
          1    1    1    2  502    0  0.33836488727E+02 -0.13052223717E+02  0.50590963590E+02  0.62247201626E+02  0.00000000000E+00 0. -1.
         22    1    3    3    0    0 -0.60758603882E+02  0.63321350401E+02 -0.18691230658E+02  0.89724932242E+02  0.00000000000E+00 0. -1.
         22    1    3    3    0    0 -0.88900330749E+02 -0.59797287131E+02 -0.30649083197E+02  0.11143765367E+03  0.00000000000E+00 0. -1.
</event>
<event>
 7    1  0.6078244E-006  0.1835743E+03  0.7818608E-02  0.1295624E+00
          2   -1    0    0  502    0  0.00000000000E+00  0.00000000000E+00  0.10031790302E+03  0.10031790302E+03  0.00000000000E+00 0. -1.
          1   -1    0    0  501    0 -0.00000000000E+00 -0.00000000000E+00 -0.22766746071E+04  0.22766746071E+04  0.00000000000E+00 0. -1.
         25    2    1    2    0    0 -0.10483491118E+03 -0.93027456170E+02 -0.12811029822E+03  0.22733638090E+03  0.12500046146E+03 0.  0.
          2    1    1    2  501    0  0.13800227893E+03  0.12656389529E+03 -0.20827911649E+04  0.20911915468E+04  0.00000000000E+00 0. -1.
          1    1    1    2  502    0 -0.33167367752E+02 -0.33536439124E+02  0.34544759013E+02  0.58464582509E+02  0.00000000000E+00 0. -1.
         22    1    3    3    0    0 -0.88867417267E+02  0.40663560143E+01 -0.53045963455E+02  0.10357522552E+03  0.00000000000E+00 0. -1.
         22    1    3    3    0    0 -0.15967493911E+02 -0.97093812185E+02 -0.75064334767E+02  0.12376115538E+03  0.00000000000E+00 0. -1.
</event>
<event>
 7    1  0.6078244E-006  0.4032089E+02  0.7818608E-02  0.1576248E+00
          2   -1    0    0  502    0  0.00000000000E+00  0.00000000000E+00  0.12820626271E+03  0.12820626271E+03  0.00000000000E+00 0. -1.
          1   -1    0    0  501    0 -0.00000000000E+00 -0.00000000000E+00 -0.18784790946E+03  0.18784790946E+03  0.00000000000E+00 0. -1.
         25    2    1    2    0    0  0.57965078920E+02  0.23794764392E+02  0.26158383079E+02  0.14224956741E+03  0.12499814894E+03 0.  0.
          2    1    1    2  501    0 -0.24066706779E+02 -0.84636403464E+01 -0.12035476479E+03  0.12302889494E+03  0.00000000000E+00 0. -1.
          1    1    1    2  502    0 -0.33898372141E+02 -0.15331124046E+02  0.34554734968E+02  0.50775709813E+02  0.00000000000E+00 0. -1.
         22    1    3    3    0    0 -0.92705836421E+01  0.27524724337E+02  0.60166722841E+02  0.66810094360E+02  0.00000000000E+00 0. -1.
         22    1    3    3    0    0  0.67235662562E+02 -0.37299599450E+01 -0.34008339762E+02  0.75439473054E+02  0.00000000000E+00 0. -1.
</event>
<event>
 7    1  0.6078244E-006  0.1823642E+03  0.7818608E-02  0.1220237E+00
          2   -1    0    0  502    0  0.00000000000E+00  0.00000000000E+00  0.17886512212E+04  0.17886512212E+04  0.00000000000E+00 0. -1.
          1   -1    0    0  501    0 -0.00000000000E+00 -0.00000000000E+00 -0.11526768996E+03  0.11526768996E+03  0.00000000000E+00 0. -1.
         25    2    1    2    0    0  0.14346170876E+03  0.10495668058E+03  0.16253819860E+03  0.27136669890E+03  0.12499621030E+03 0.  0.
          2    1    1    2  501    0  0.41383846217E+02 -0.90946424786E+02 -0.10029582963E+02  0.10042144912E+03  0.00000000000E+00 0. -1.
          1    1    1    2  502    0 -0.18484555497E+03 -0.14010255791E+02  0.15208749156E+04  0.15321307631E+04  0.00000000000E+00 0. -1.
         22    1    3    3    0    0  0.80196635714E+02  0.11870802153E+03  0.14599864533E+03  0.20454510308E+03  0.00000000000E+00 0. -1.
         22    1    3    3    0    0  0.63265073044E+02 -0.13751340954E+02  0.16539553268E+02  0.66821595818E+02  0.00000000000E+00 0. -1.
</event>
<event>
 7    1  0.6078244E-006  0.1924667E+03  0.7818608E-02  0.1334684E+00
          2   -1    0    0  502    0  0.00000000000E+00  0.00000000000E+00  0.10599672960E+04  0.10599672960E+04  0.00000000000E+00 0. -1.
          1   -1    0    0  501    0 -0.00000000000E+00 -0.00000000000E+00 -0.83722516186E+03  0.83722516186E+03  0.00000000000E+00 0. -1.
         25    2    1    2    0    0  0.21052264263E+03 -0.66930877012E+02  0.20567327131E+03  0.32668693926E+03  0.12499334539E+03 0.  0.
          2    1    1    2  501    0 -0.18506750133E+03  0.48123221624E+02 -0.76462391251E+03  0.78817228579E+03  0.00000000000E+00 0. -1.
          1    1    1    2  502    0 -0.25455141307E+02  0.18807655388E+02  0.78169277530E+03  0.78233323276E+03  0.00000000000E+00 0. -1.
         22    1    3    3    0    0  0.21570510139E+03 -0.61132356654E+02  0.21760894094E+03  0.31244120563E+03  0.00000000000E+00 0. -1.
         22    1    3    3    0    0 -0.51824587554E+01 -0.57985203579E+01 -0.11935669634E+02  0.14245733632E+02  0.00000000000E+00 0. -1.
</event>
<event>
 7    1  0.6078244E-006  0.6788481E+02  0.7818608E-02  0.1375869E+00
          2   -1    0    0  502    0  0.00000000000E+00  0.00000000000E+00  0.44697147934E+03  0.44697147934E+03  0.00000000000E+00 0. -1.
          1   -1    0    0  501    0 -0.00000000000E+00 -0.00000000000E+00 -0.21168781316E+03  0.21168781316E+03  0.00000000000E+00 0. -1.
         25    2    1    2    0    0 -0.81349933331E+02 -0.93353286765E+02  0.76654924823E+02  0.19191883829E+03  0.12499686071E+03 0.  0.
          2    1    1    2  501    0  0.54218282257E+02  0.36141699801E+02 -0.14373651756E+03  0.15781644742E+03  0.00000000000E+00 0. -1.
          1    1    1    2  502    0  0.27131651074E+02  0.57211586964E+02  0.30236525891E+03  0.30892400679E+03  0.00000000000E+00 0. -1.
         22    1    3    3    0    0 -0.20176199340E+02 -0.82228526191E+02  0.94842254867E+02  0.12713639466E+03  0.00000000000E+00 0. -1.
         22    1    3    3    0    0 -0.61173733990E+02 -0.11124760574E+02 -0.18187330044E+02  0.64782443627E+02  0.00000000000E+00 0. -1.
</event>
<event>
 7    1  0.6078244E-006  0.5162216E+02  0.7818608E-02  0.1457858E+00
          2   -1    0    0  502    0  0.00000000000E+00  0.00000000000E+00  0.30294949372E+02  0.30294949372E+02  0.00000000000E+00 0. -1.
          1   -1    0    0  501    0 -0.00000000000E+00 -0.00000000000E+00 -0.86876013377E+03  0.86876013377E+03  0.00000000000E+00 0. -1.
         25    2    1    2    0    0 -0.34203796879E+02 -0.22969284957E+02 -0.53465927414E+03  0.55062300748E+03  0.12501067624E+03 0.  0.
          2    1    1    2  501    0  0.32134803887E+02 -0.30306940585E+02 -0.29001685878E+03  0.29336144028E+03  0.00000000000E+00 0. -1.
          1    1    1    2  502    0  0.20689929920E+01  0.53276225541E+02 -0.13789051477E+02  0.55070635375E+02  0.00000000000E+00 0. -1.
         22    1    3    3    0    0  0.43955236906E+01  0.10597857624E+02 -0.45987187461E+03  0.46001497397E+03  0.00000000000E+00 0.  1.
         22    1    3    3    0    0 -0.38599320570E+02 -0.33567142580E+02 -0.74787399529E+02  0.90608033516E+02  0.00000000000E+00 0.  1.
</event>
<event>
 7    1  0.6078244E-006  0.1130892E+03  0.7818608E-02  0.1291504E+00
          2   -1    0    0  502    0  0.00000000000E+00  0.00000000000E+00  0.13280303383E+03  0.13280303383E+03  0.00000000000E+00 0. -1.
          1   -1    0    0  501    0 -0.00000000000E+00 -0.00000000000E+00 -0.24882769916E+04  0.24882769916E+04  0.00000000000E+00 0. -1.
         25    2    1    2    0    0  0.45753409560E+02  0.50598846880E+02 -0.78525999061E+02  0.16261915287E+03  0.12500015423E+03 0.  0.
          2    1    1    2  501    0  0.79524423618E+02 -0.23799898958E+01 -0.23170081672E+04  0.23183737070E+04  0.00000000000E+00 0. -1.
          1    1    1    2  502    0 -0.12527783318E+03 -0.48218856984E+02  0.40060208510E+02  0.14008716558E+03  0.00000000000E+00 0. -1.
         22    1    3    3    0    0  0.52536383207E+02  0.81318804935E+02 -0.86867461974E+02  0.13007219359E+03  0.00000000000E+00 0.  1.
         22    1    3    3    0    0 -0.67829736473E+01 -0.30719958055E+02  0.83414629126E+01  0.32546959273E+02  0.00000000000E+00 0.  1.
</event>
<event>
 7    1  0.6078244E-006  0.1535124E+03  0.7818608E-02  0.1273523E+00
          2   -1    0    0  502    0  0.00000000000E+00  0.00000000000E+00  0.16098118632E+03  0.16098118632E+03  0.00000000000E+00 0. -1.
          1   -1    0    0  501    0 -0.00000000000E+00 -0.00000000000E+00 -0.34290264127E+03  0.34290264127E+03  0.00000000000E+00 0. -1.
         25    2    1    2    0    0  0.49890072439E+02  0.14093631073E+03 -0.39417480885E+02  0.19879682744E+03  0.12495750393E+03 0.  0.
          2    1    1    2  501    0 -0.66124701836E+02  0.21395045969E+02 -0.12234212317E+03  0.14070472376E+03  0.00000000000E+00 0. -1.
          1    1    1    2  502    0  0.16234629397E+02 -0.16233135670E+03 -0.20161850896E+02  0.16438227639E+03  0.00000000000E+00 0. -1.
         22    1    3    3    0    0 -0.24236563331E+02  0.10959213413E+03 -0.37341952880E+02  0.11828891879E+03  0.00000000000E+00 0. -1.
         22    1    3    3    0    0  0.74126635771E+02  0.31344176607E+02 -0.20755280058E+01  0.80507908645E+02  0.00000000000E+00 0. -1.
</event>
<event>
 7    1  0.6078244E-006  0.8041992E+02  0.7818608E-02  0.1397719E+00
          2   -1    0    0  502    0  0.00000000000E+00  0.00000000000E+00  0.23111503938E+04  0.23111503938E+04  0.00000000000E+00 0. -1.
          1   -1    0    0  501    0 -0.00000000000E+00 -0.00000000000E+00 -0.36636026035E+02  0.36636026035E+02  0.00000000000E+00 0. -1.
         25    2    1    2    0    0 -0.83187339582E+02 -0.35106203184E+02  0.39982099993E+03  0.42852948566E+03  0.12501243590E+03 0.  0.
          2    1    1    2  501    0  0.48860876361E+02  0.63902060602E+02  0.51504045328E+02  0.95517146488E+02  0.00000000000E+00 0. -1.
          1    1    1    2  502    0  0.34326463220E+02 -0.28795857419E+02  0.18231893225E+04  0.18237397877E+04  0.00000000000E+00 0. -1.
         22    1    3    3    0    0 -0.12641640221E+02 -0.58786112582E+02  0.28800792034E+03  0.29421791291E+03  0.00000000000E+00 0. -1.
         22    1    3    3    0    0 -0.70545699361E+02  0.23679909398E+02  0.11181307959E+03  0.13431157275E+03  0.00000000000E+00 0. -1.
</event>
<event>
 7    1  0.6078244E-006  0.1683751E+03  0.7818608E-02  0.1210834E+00
          2   -1    0    0  502    0  0.00000000000E+00  0.00000000000E+00  0.29816539210E+04  0.29816539210E+04  0.00000000000E+00 0. -1.
          1   -1    0    0  501    0 -0.00000000000E+00 -0.00000000000E+00 -0.98031897369E+03  0.98031897369E+03  0.00000000000E+00 0. -1.
         25    2    1    2    0    0  0.29259299364E+02 -0.41944714089E+02  0.39195839716E+03  0.41457020696E+03  0.12498642227E+03 0.  0.
          2    1    1    2  501    0 -0.10538052408E+03  0.13411269455E+03 -0.96010735945E+03  0.97513968813E+03  0.00000000000E+00 0. -1.
          1    1    1    2  502    0  0.76121224713E+02 -0.92167980462E+02  0.25694839096E+04  0.25722629996E+04  0.00000000000E+00 0. -1.
         22    1    3    3    0    0 -0.90125583965E+01  0.30412700139E+02  0.30661509341E+02  0.44116739382E+02  0.00000000000E+00 0. -1.
         22    1    3    3    0    0  0.38271857760E+02 -0.72357414228E+02  0.36129688782E+03  0.37045346757E+03  0.00000000000E+00 0. -1.
</event>
<event>
 7    1  0.6078244E-006  0.9033509E+02  0.7818608E-02  0.1444406E+00
          2   -1    0    0  502    0  0.00000000000E+00  0.00000000000E+00  0.23002614642E+04  0.23002614642E+04  0.00000000000E+00 0. -1.
          1   -1    0    0  501    0 -0.00000000000E+00 -0.00000000000E+00 -0.49170307664E+03  0.49170307664E+03  0.00000000000E+00 0. -1.
         25    2    1    2    0    0 -0.43589153238E+02  0.98000534692E+02  0.10235650284E+03  0.19392247614E+03  0.12499981600E+03 0.  0.
          2    1    1    2  501    0  0.26137003482E+02 -0.96675744650E+01 -0.44454180408E+03  0.44541443682E+03  0.00000000000E+00 0. -1.
          1    1    1    2  502    0  0.17452149756E+02 -0.88332960227E+02  0.21507436888E+04  0.21526276279E+04  0.00000000000E+00 0. -1.
         22    1    3    3    0    0  0.57011973811E+01  0.56345114688E+02 -0.16230670579E+02  0.58912734347E+02  0.00000000000E+00 0.  1.
         22    1    3    3    0    0 -0.49290350619E+02  0.41655420005E+02  0.11858717342E+03  0.13500974180E+03  0.00000000000E+00 0.  1.
</event>
<event>
 7    1  0.6078244E-006  0.5289863E+02  0.7818608E-02  0.1488906E+00
          2   -1    0    0  502    0  0.00000000000E+00  0.00000000000E+00  0.94676032254E+03  0.94676032254E+03  0.00000000000E+00 0. -1.
          1   -1    0    0  501    0 -0.00000000000E+00 -0.00000000000E+00 -0.14730326767E+04  0.14730326767E+04  0.00000000000E+00 0. -1.
         25    2    1    2    0    0 -0.63116298932E+02  0.56825832110E+02  0.11001636862E+03  0.18691701773E+03  0.12498611029E+03 0.  0.
          2    1    1    2  501    0  0.45200112565E+02 -0.27288448871E+02 -0.14337224435E+04  0.14346943070E+04  0.00000000000E+00 0. -1.
          1    1    1    2  502    0  0.17916186368E+02 -0.29537383239E+02  0.79743372065E+03  0.79818167454E+03  0.00000000000E+00 0. -1.
         22    1    3    3    0    0 -0.60943218776E+02 -0.96441817892E+00 -0.18581464002E+01  0.60979166322E+02  0.00000000000E+00 0.  1.
         22    1    3    3    0    0 -0.21730801563E+01  0.57790250288E+02  0.11187451502E+03  0.12593785141E+03  0.00000000000E+00 0.  1.
</event>
<event>
 7    1  0.6078244E-006  0.5205963E+02  0.7818608E-02  0.1447594E+00
          2   -1    0    0  502    0  0.00000000000E+00  0.00000000000E+00  0.16078853320E+04  0.16078853320E+04  0.00000000000E+00 0. -1.
          1   -1    0    0  501    0 -0.00000000000E+00 -0.00000000000E+00 -0.17775418430E+03  0.17775418430E+03  0.00000000000E+00 0. -1.
         25    2    1    2    0    0  0.22968422746E+02 -0.89293566670E+02  0.35616975694E+02  0.15935698909E+03  0.12500076608E+03 0.  0.
          2    1    1    2  501    0 -0.26877947070E+02  0.42227979203E+02 -0.11009087236E+03  0.12093645623E+03  0.00000000000E+00 0. -1.
          1    1    1    2  502    0  0.39095243247E+01  0.47065587467E+02  0.15046050444E+04  0.15053460710E+04  0.00000000000E+00 0. -1.
         22    1    3    3    0    0  0.42707921681E+02  0.76440134862E+01  0.41787472017E+02  0.60237781616E+02  0.00000000000E+00 0.  1.
         22    1    3    3    0    0 -0.19739498936E+02 -0.96937580156E+02 -0.61704963231E+01  0.99119207471E+02  0.00000000000E+00 0.  1.
</event>
<event>
 7    1  0.6078244E-006  0.4917630E+02  0.7818608E-02  0.1521831E+00
          2   -1    0    0  502    0  0.00000000000E+00  0.00000000000E+00  0.17361736789E+04  0.17361736789E+04  0.00000000000E+00 0. -1.
          1   -1    0    0  501    0 -0.00000000000E+00 -0.00000000000E+00 -0.52375849179E+02  0.52375849179E+02  0.00000000000E+00 0. -1.
         25    2    1    2    0    0  0.17345375014E+02 -0.13871897189E+02  0.20534988656E+03  0.24142520811E+03  0.12499705451E+03 0.  0.
          2    1    1    2  501    0  0.29535133092E+02 -0.29852671484E+01 -0.27432498896E+02  0.40420018585E+02  0.00000000000E+00 0. -1.
          1    1    1    2  502    0 -0.46880508107E+02  0.16857164337E+02  0.15058804421E+04  0.15067043014E+04  0.00000000000E+00 0. -1.
         22    1    3    3    0    0  0.18101413315E+01 -0.40865037403E+02  0.80592681205E+01  0.41691482298E+02  0.00000000000E+00 0. -1.
         22    1    3    3    0    0  0.15535233683E+02  0.26993140214E+02  0.19729061844E+03  0.19973372581E+03  0.00000000000E+00 0. -1.
</event>
<event>
 7    1  0.6078244E-006  0.1295302E+03  0.7818608E-02  0.1303274E+00
          2   -1    0    0  502    0  0.00000000000E+00  0.00000000000E+00  0.30082423552E+03  0.30082423552E+03  0.00000000000E+00 0. -1.
          1   -1    0    0  501    0 -0.00000000000E+00 -0.00000000000E+00 -0.66100184121E+03  0.66100184121E+03  0.00000000000E+00 0. -1.
         25    2    1    2    0    0  0.61416808928E+02 -0.42341983455E+02  0.17026735209E+01  0.14557683805E+03  0.12499939478E+03 0.  0.
          2    1    1    2  501    0 -0.10036634151E+03  0.90955160483E+02 -0.57679696347E+03  0.59248711445E+03  0.00000000000E+00 0. -1.
          1    1    1    2  502    0  0.38949532582E+02 -0.48613177028E+02  0.21491668425E+03  0.22376212423E+03  0.00000000000E+00 0. -1.
         22    1    3    3    0    0  0.80672205485E+02 -0.15210057742E+02  0.42896608705E+02  0.92625426492E+02  0.00000000000E+00 0. -1.
         22    1    3    3    0    0 -0.19255396558E+02 -0.27131925713E+02 -0.41193935184E+02  0.52951411553E+02  0.00000000000E+00 0. -1.
</event>
<event>
 7    1  0.6078244E-006  0.2525476E+03  0.7818608E-02  0.1266040E+00
          2   -1    0    0  502    0  0.00000000000E+00  0.00000000000E+00  0.21753388465E+04  0.21753388465E+04  0.00000000000E+00 0. -1.
          1   -1    0    0  501    0 -0.00000000000E+00 -0.00000000000E+00 -0.69774854428E+02  0.69774854428E+02  0.00000000000E+00 0. -1.
         25    2    1    2    0    0 -0.14991691245E+03 -0.16000307786E+03  0.41490736196E+03  0.48564709370E+03  0.12501565919E+03 0.  0.
          2    1    1    2  501    0 -0.40918496421E+02 -0.19708203747E+02 -0.31211917510E+01  0.45524482229E+02  0.00000000000E+00 0. -1.
          1    1    1    2  502    0  0.19083540887E+03  0.17971128161E+03  0.16937778219E+04  0.17139421250E+04  0.00000000000E+00 0. -1.
         22    1    3    3    0    0 -0.10736971858E+03 -0.15732868093E+03  0.39514683492E+03  0.43865885545E+03  0.00000000000E+00 0. -1.
         22    1    3    3    0    0 -0.42547193868E+02 -0.26743969288E+01  0.19760527036E+02  0.46988238249E+02  0.00000000000E+00 0. -1.
</event>
<event>
 7    1  0.6078244E-006  0.1744355E+03  0.7818608E-02  0.1348723E+00
          2   -1    0    0  502    0  0.00000000000E+00  0.00000000000E+00  0.43322091972E+03  0.43322091972E+03  0.00000000000E+00 0. -1.
          1   -1    0    0  501    0 -0.00000000000E+00 -0.00000000000E+00 -0.12327616959E+04  0.12327616959E+04  0.00000000000E+00 0. -1.
         25    2    1    2    0    0 -0.17054161949E+03 -0.64574941138E+02 -0.64512507194E+03  0.68195649432E+03  0.12499573874E+03 0.  0.
          2    1    1    2  501    0 -0.46510017984E+00  0.30928432115E+02 -0.55046051625E+03  0.55132890744E+03  0.00000000000E+00 0. -1.
          1    1    1    2  502    0  0.17100671967E+03  0.33646509023E+02  0.39604481201E+03  0.43269721384E+03  0.00000000000E+00 0. -1.
         22    1    3    3    0    0 -0.72071651203E+02 -0.75426730848E+02 -0.19599524985E+03  0.22203074696E+03  0.00000000000E+00 0.  1.
         22    1    3    3    0    0 -0.98469968291E+02  0.10851789710E+02 -0.44912982209E+03  0.45992574736E+03  0.00000000000E+00 0.  1.
</event>
<event>
 7    1  0.6078244E-006  0.1105369E+03  0.7818608E-02  0.1328921E+00
          2   -1    0    0  502    0  0.00000000000E+00  0.00000000000E+00  0.17784938340E+03  0.17784938340E+03  0.00000000000E+00 0. -1.
          1   -1    0    0  501    0 -0.00000000000E+00 -0.00000000000E+00 -0.77516612137E+03  0.77516612137E+03  0.00000000000E+00 0. -1.
         25    2    1    2    0    0 -0.18462085222E+02 -0.15072243834E+03 -0.57818839462E+02  0.20500258499E+03  0.12499975859E+03 0.  0.
          2    1    1    2  501    0  0.31824916614E+02  0.48448129754E+02 -0.61654854134E+03  0.61926743045E+03  0.00000000000E+00 0. -1.
          1    1    1    2  502    0 -0.13362831392E+02  0.10227430859E+03  0.77050642834E+02  0.12874548932E+03  0.00000000000E+00 0. -1.
         22    1    3    3    0    0  0.30709392971E+02 -0.42182125045E+02  0.26990651052E+02  0.58744308100E+02  0.00000000000E+00 0. -1.
         22    1    3    3    0    0 -0.49171478193E+02 -0.10854031330E+03 -0.84809490513E+02  0.14625827689E+03  0.00000000000E+00 0. -1.
</event>
<event>
 7    1  0.6078244E-006  0.3844690E+02  0.7818608E-02  0.1580598E+00
          2   -1    0    0  502    0  0.00000000000E+00  0.00000000000E+00  0.90122896452E+03  0.90122896452E+03  0.00000000000E+00 0. -1.
          1   -1    0    0  501    0 -0.00000000000E+00 -0.00000000000E+00 -0.10265997619E+03  0.10265997619E+03  0.00000000000E+00 0. -1.
         25    2    1    2    0    0  0.27608908838E+02 -0.38990983210E+02  0.52721738852E+03  0.54393804662E+03  0.12501150020E+03 0.  0.
          2    1    1    2  501    0 -0.15710690230E+01  0.38402248747E+02 -0.89895019296E+02  0.97766637770E+02  0.00000000000E+00 0. -1.
          1    1    1    2  502    0 -0.26037839815E+02  0.58873446316E+00  0.36124661911E+03  0.36218425632E+03  0.00000000000E+00 0. -1.
         22    1    3    3    0    0 -0.54940561923E+01  0.35978135414E+02  0.30365183470E+03  0.30582519124E+03  0.00000000000E+00 0.  1.
         22    1    3    3    0    0  0.33102965031E+02 -0.74969118624E+02  0.22356555382E+03  0.23811285538E+03  0.00000000000E+00 0.  1.
</event>
<event>
 7    1  0.6078244E-006  0.8502649E+02  0.7818608E-02  0.1370366E+00
          2   -1    0    0  502    0  0.00000000000E+00  0.00000000000E+00  0.39887207239E+03  0.39887207239E+03  0.00000000000E+00 0. -1.
          1   -1    0    0  501    0 -0.00000000000E+00 -0.00000000000E+00 -0.18796754145E+04  0.18796754145E+04  0.00000000000E+00 0. -1.
         25    2    1    2    0    0 -0.22047079283E+02  0.13387784215E+03 -0.57027577237E+03  0.59937429383E+03  0.12500294887E+03 0.  0.
          2    1    1    2  501    0 -0.23710594442E+01 -0.52845665946E+02 -0.12896424302E+04  0.12907268821E+04  0.00000000000E+00 0. -1.
          1    1    1    2  502    0  0.24418138727E+02 -0.81032176208E+02  0.37911486048E+03  0.38844631098E+03  0.00000000000E+00 0. -1.
         22    1    3    3    0    0  0.50236290210E+02  0.36524423655E+02 -0.16303203642E+03  0.17446249820E+03  0.00000000000E+00 0.  1.
         22    1    3    3    0    0 -0.72283369492E+02  0.97353418499E+02 -0.40724373595E+03  0.42491179563E+03  0.00000000000E+00 0.  1.
</event>
<event>
 7    1  0.6078244E-006  0.8126521E+02  0.7818608E-02  0.1326649E+00
          2   -1    0    0  502    0  0.00000000000E+00  0.00000000000E+00  0.50182434940E+03  0.50182434940E+03  0.00000000000E+00 0. -1.
          1   -1    0    0  501    0 -0.00000000000E+00 -0.00000000000E+00 -0.24418219622E+04  0.24418219622E+04  0.00000000000E+00 0. -1.
         25    2    1    2    0    0 -0.10435577894E+03  0.46723675249E+01 -0.27626612927E+03  0.32071900523E+03  0.12500298605E+03 0.  0.
          2    1    1    2  501    0  0.50367303844E+02 -0.64306598687E+02 -0.21391712862E+04  0.21407302482E+04  0.00000000000E+00 0. -1.
          1    1    1    2  502    0  0.53988475091E+02  0.59634231162E+02  0.47543980264E+03  0.48219705817E+03  0.00000000000E+00 0. -1.
         22    1    3    3    0    0 -0.85919297934E+02  0.69384166012E+01 -0.63300778106E+02  0.10694510691E+03  0.00000000000E+00 0.  1.
         22    1    3    3    0    0 -0.18436481001E+02 -0.22660490763E+01 -0.21296535116E+03  0.21377389833E+03  0.00000000000E+00 0.  1.
</event>
<event>
 7    1  0.6078244E-006  0.1038186E+03  0.7818608E-02  0.1292986E+00
          2   -1    0    0  502    0  0.00000000000E+00  0.00000000000E+00  0.25561483304E+04  0.25561483304E+04  0.00000000000E+00 0. -1.
          1   -1    0    0  501    0 -0.00000000000E+00 -0.00000000000E+00 -0.13286199060E+04  0.13286199060E+04  0.00000000000E+00 0. -1.
         25    2    1    2    0    0  0.31804038988E+02  0.22007908324E+02  0.24989853088E+03  0.28208183479E+03  0.12500016343E+03 0.  0.
          2    1    1    2  501    0 -0.10029509735E+03  0.29127276670E+02 -0.13096511651E+04  0.13138088442E+04  0.00000000000E+00 0. -1.
          1    1    1    2  502    0  0.68491058363E+02 -0.51135184994E+02  0.22872810586E+04  0.22888775575E+04  0.00000000000E+00 0. -1.
         22    1    3    3    0    0  0.15105320909E+02 -0.51340918223E+02  0.79708916065E+02  0.96008186651E+02  0.00000000000E+00 0. -1.
         22    1    3    3    0    0  0.16698718079E+02  0.73348826547E+02  0.17018961481E+03  0.18607364814E+03  0.00000000000E+00 0. -1.
</event>
<event>
 7    1  0.6078244E-006  0.8403377E+02  0.7818608E-02  0.1485444E+00
          2   -1    0    0  502    0  0.00000000000E+00  0.00000000000E+00  0.46181661659E+04  0.46181661659E+04  0.00000000000E+00 0. -1.
          1   -1    0    0  501    0 -0.00000000000E+00 -0.00000000000E+00 -0.16998100551E+03  0.16998100551E+03  0.00000000000E+00 0. -1.
         25    2    1    2    0    0  0.93469497645E+02  0.14029639522E+02  0.75824101170E+02  0.17408799871E+03  0.12499583673E+03 0.  0.
          2    1    1    2  501    0 -0.97173134883E+01 -0.20048896483E+02 -0.11942645787E+03  0.12148688518E+03  0.00000000000E+00 0. -1.
          1    1    1    2  502    0 -0.83752184157E+02  0.60192569612E+01  0.44917875171E+04  0.44925722875E+04  0.00000000000E+00 0. -1.
         22    1    3    3    0    0  0.98763157654E+02  0.21170788708E+02  0.33411491429E+01  0.10106199524E+03  0.00000000000E+00 0.  1.
         22    1    3    3    0    0 -0.52936600084E+01 -0.71411491865E+01  0.72482952027E+02  0.73026003468E+02  0.00000000000E+00 0.  1.
</event>
<event>
 7    1  0.6078244E-006  0.9904051E+02  0.7818608E-02  0.1415000E+00
          2   -1    0    0  502    0  0.00000000000E+00  0.00000000000E+00  0.66746569606E+03  0.66746569606E+03  0.00000000000E+00 0. -1.
          1   -1    0    0  501    0 -0.00000000000E+00 -0.00000000000E+00 -0.16875081218E+04  0.16875081218E+04  0.00000000000E+00 0. -1.
         25    2    1    2    0    0 -0.31021001881E+02 -0.93349478747E+02 -0.19378546405E+03  0.25070691045E+03  0.12499888451E+03 0.  0.
          2    1    1    2  501    0 -0.17338122881E+00  0.99364264885E+02 -0.14631810164E+04  0.14665510471E+04  0.00000000000E+00 0. -1.
          1    1    1    2  502    0  0.31194383109E+02 -0.60147861381E+01  0.63692405461E+03  0.63771586034E+03  0.00000000000E+00 0. -1.
         22    1    3    3    0    0  0.35195210127E+02 -0.84641319013E+02 -0.12282229482E+03  0.15325851300E+03  0.00000000000E+00 0.  1.
         22    1    3    3    0    0 -0.66216212008E+02 -0.87081597340E+01 -0.70963169229E+02  0.97448397450E+02  0.00000000000E+00 0.  1.
</event>
<event>
 7    1  0.6078244E-006  0.6168022E+02  0.7818608E-02  0.1402563E+00
          2   -1    0    0  502    0  0.00000000000E+00  0.00000000000E+00  0.23207735455E+03  0.23207735455E+03  0.00000000000E+00 0. -1.
          1   -1    0    0  501    0 -0.00000000000E+00 -0.00000000000E+00 -0.27212602482E+04  0.27212602482E+04  0.00000000000E+00 0. -1.
         25    2    1    2    0    0 -0.65274719192E+02  0.89499259198E+02 -0.19738984481E+03  0.25856989882E+03  0.12499894152E+03 0.  0.
          2    1    1    2  501    0  0.49826063789E+02 -0.35443135925E+02 -0.24889758275E+04  0.24897267968E+04  0.00000000000E+00 0. -1.
          1    1    1    2  502    0  0.15448655403E+02 -0.54056123273E+02  0.19718277867E+03  0.20504090719E+03  0.00000000000E+00 0. -1.
         22    1    3    3    0    0 -0.45300756785E+02  0.18467210320E+02 -0.17462961908E+03  0.18135242012E+03  0.00000000000E+00 0. -1.
         22    1    3    3    0    0 -0.19973962406E+02  0.71032048878E+02 -0.22760225729E+02  0.77217478703E+02  0.00000000000E+00 0. -1.
</event>
<event>
 7    1  0.6078244E-006  0.1269236E+03  0.7818608E-02  0.1247258E+00
          2   -1    0    0  502    0  0.00000000000E+00  0.00000000000E+00  0.13776890686E+04  0.13776890686E+04  0.00000000000E+00 0. -1.
          1   -1    0    0  501    0 -0.00000000000E+00 -0.00000000000E+00 -0.16140459535E+03  0.16140459535E+03  0.00000000000E+00 0. -1.
         25    2    1    2    0    0  0.22251057633E+02 -0.13247082116E+03  0.49394093500E+02  0.19001918855E+03  0.12499555000E+03 0.  0.
          2    1    1    2  501    0  0.87291541216E+02  0.64941712712E+02 -0.53970865934E+02  0.12144996331E+03  0.00000000000E+00 0. -1.
          1    1    1    2  502    0 -0.10954259885E+03  0.67529108449E+02  0.12208612457E+04  0.12276245121E+04  0.00000000000E+00 0. -1.
         22    1    3    3    0    0  0.56042102762E+02 -0.10763667271E+02  0.12340279150E+02  0.58385411745E+02  0.00000000000E+00 0.  1.
         22    1    3    3    0    0 -0.33791045129E+02 -0.12170715389E+03  0.37053814350E+02  0.13163377681E+03  0.00000000000E+00 0.  1.
</event>
<event>
 7    1  0.6078244E-006  0.9021095E+02  0.7818608E-02  0.1372458E+00
          2   -1    0    0  502    0  0.00000000000E+00  0.00000000000E+00  0.14979818806E+03  0.14979818806E+03  0.00000000000E+00 0. -1.
          1   -1    0    0  501    0 -0.00000000000E+00 -0.00000000000E+00 -0.38656527959E+03  0.38656527959E+03  0.00000000000E+00 0. -1.
         25    2    1    2    0    0  0.28683978143E+02  0.62342146452E+02 -0.12475450832E+03  0.18946759988E+03  0.12499988093E+03 0.  0.
          2    1    1    2  501    0  0.48262218592E+02 -0.84970784633E+01 -0.20735496927E+03  0.21306695043E+03  0.00000000000E+00 0. -1.
          1    1    1    2  502    0 -0.76946196734E+02 -0.53845067989E+02  0.95342386055E+02  0.13382891734E+03  0.00000000000E+00 0. -1.
         22    1    3    3    0    0 -0.28625802714E+02  0.56545216356E+02 -0.11462754578E+03  0.13098195420E+03  0.00000000000E+00 0. -1.
         22    1    3    3    0    0  0.57309780857E+02  0.57969300954E+01 -0.10126962534E+02  0.58485645680E+02  0.00000000000E+00 0. -1.
</event>
<event>
 7    1  0.6078244E-006  0.7349739E+02  0.7818608E-02  0.1503775E+00
          2   -1    0    0  502    0  0.00000000000E+00  0.00000000000E+00  0.13859994114E+04  0.13859994114E+04  0.00000000000E+00 0. -1.
          1   -1    0    0  501    0 -0.00000000000E+00 -0.00000000000E+00 -0.34344435706E+02  0.34344435706E+02  0.00000000000E+00 0. -1.
         25    2    1    2    0    0  0.74088356420E+02 -0.44776260741E+02  0.85081537883E+03  0.86429470814E+03  0.12499814229E+03 0.  0.
          2    1    1    2  501    0 -0.22386480869E+02 -0.15152356355E+01 -0.20330868894E+02  0.30278617781E+02  0.00000000000E+00 0. -1.
          1    1    1    2  502    0 -0.51701875551E+02  0.46291496376E+02  0.52117046571E+03  0.52577052115E+03  0.00000000000E+00 0. -1.
         22    1    3    3    0    0  0.15768465798E+02 -0.26272950122E+02  0.36382475123E+02  0.47566762743E+02  0.00000000000E+00 0.  1.
         22    1    3    3    0    0  0.58319890622E+02 -0.18503310618E+02  0.81443290371E+03  0.81672794540E+03  0.00000000000E+00 0.  1.
</event>
<event>
 7    1  0.6078244E-006  0.7195082E+02  0.7818608E-02  0.1434210E+00
          2   -1    0    0  502    0  0.00000000000E+00  0.00000000000E+00  0.45292498512E+03  0.45292498512E+03  0.00000000000E+00 0. -1.
          1   -1    0    0  501    0 -0.00000000000E+00 -0.00000000000E+00 -0.17713077133E+04  0.17713077133E+04  0.00000000000E+00 0. -1.
         25    2    1    2    0    0  0.51663722785E+02 -0.51267443061E+02 -0.33553880334E+03  0.36538826460E+03  0.12499921756E+03 0.  0.
          2    1    1    2  501    0 -0.70120323423E+02  0.18324418507E+02 -0.14191038517E+04  0.14209533370E+04  0.00000000000E+00 0. -1.
          1    1    1    2  502    0  0.18456600638E+02  0.32943024554E+02  0.43625992681E+03  0.43789109686E+03  0.00000000000E+00 0. -1.
         22    1    3    3    0    0  0.39811814429E+02  0.12291432341E+02 -0.25874519643E+02  0.49046413160E+02  0.00000000000E+00 0. -1.
         22    1    3    3    0    0  0.11851908356E+02 -0.63558875402E+02 -0.30966428370E+03  0.31634185144E+03  0.00000000000E+00 0. -1.
</event>
<event>
 7    1  0.6078244E-006  0.5260401E+02  0.7818608E-02  0.1460329E+00
          2   -1    0    0  502    0  0.00000000000E+00  0.00000000000E+00  0.26984463650E+03  0.26984463650E+03  0.00000000000E+00 0. -1.
          1   -1    0    0  501    0 -0.00000000000E+00 -0.00000000000E+00 -0.30158716164E+03  0.30158716164E+03  0.00000000000E+00 0. -1.
         25    2    1    2    0    0  0.49243819276E+02 -0.36636996107E+02 -0.14818388330E+03  0.20338112078E+03  0.12505276406E+03 0.  0.
          2    1    1    2  501    0 -0.98082174458E+01  0.52683585849E+02 -0.11809306176E+03  0.12968320085E+03  0.00000000000E+00 0. -1.
          1    1    1    2  502    0 -0.39435601830E+02 -0.16046589742E+02  0.23453441991E+03  0.23836747651E+03  0.00000000000E+00 0. -1.
         22    1    3    3    0    0  0.46151593128E+02 -0.69785920321E+02 -0.45086045835E+02  0.95041021419E+02  0.00000000000E+00 0.  1.
         22    1    3    3    0    0  0.30922261479E+01  0.33148924214E+02 -0.10309783746E+03  0.10834009936E+03  0.00000000000E+00 0.  1.
</event>
<event>
 7    1  0.6078244E-006  0.4446263E+02  0.7818608E-02  0.1525479E+00
          2   -1    0    0  502    0  0.00000000000E+00  0.00000000000E+00  0.19602724986E+02  0.19602724986E+02  0.00000000000E+00 0. -1.
          1   -1    0    0  501    0 -0.00000000000E+00 -0.00000000000E+00 -0.86983969893E+03  0.86983969893E+03  0.00000000000E+00 0. -1.
         25    2    1    2    0    0 -0.24543013343E+02  0.10426903782E+02 -0.40741058703E+03  0.42698908094E+03  0.12500083598E+03 0.  0.
          2    1    1    2  501    0  0.21920967864E+02 -0.42364694788E+02 -0.42097082086E+03  0.42366464121E+03  0.00000000000E+00 0. -1.
          1    1    1    2  502    0  0.26220454795E+01  0.31937791007E+02 -0.21855566056E+02  0.38788701764E+02  0.00000000000E+00 0. -1.
         22    1    3    3    0    0 -0.14832848003E+02 -0.49009314923E+02 -0.86854329286E+02  0.10082460436E+03  0.00000000000E+00 0. -1.
         22    1    3    3    0    0 -0.97101653397E+01  0.59436218705E+02 -0.32055625774E+03  0.32616447658E+03  0.00000000000E+00 0. -1.
</event>
<event>
 7    1  0.6078244E-006  0.8407513E+02  0.7818608E-02  0.1381880E+00
          2   -1    0    0  502    0  0.00000000000E+00  0.00000000000E+00  0.13116678607E+04  0.13116678607E+04  0.00000000000E+00 0. -1.
          1   -1    0    0  501    0 -0.00000000000E+00 -0.00000000000E+00 -0.22218663261E+03  0.22218663261E+03  0.00000000000E+00 0. -1.
         25    2    1    2    0    0 -0.10089736658E+03 -0.49572255416E+02 -0.70777288350E+01  0.16826593268E+03  0.12500257103E+03 0.  0.
          2    1    1    2  501    0  0.53493634764E+02  0.60628603530E+02 -0.12183482010E+03  0.14622284334E+03  0.00000000000E+00 0. -1.
          1    1    1    2  502    0  0.47403731820E+02 -0.11056348114E+02  0.12183937770E+04  0.12193657173E+04  0.00000000000E+00 0. -1.
         22    1    3    3    0    0 -0.65139501895E+02 -0.52701778236E+02  0.52379311429E+02  0.98814090100E+02  0.00000000000E+00 0.  1.
         22    1    3    3    0    0 -0.35757864689E+02  0.31295228204E+01 -0.59457040264E+02  0.69451842575E+02  0.00000000000E+00 0.  1.
</event>
<event>
 7    1  0.6078244E-006  0.6644922E+02  0.7818608E-02  0.1432723E+00
          2   -1    0    0  502    0  0.00000000000E+00  0.00000000000E+00  0.13257618899E+04  0.13257618899E+04  0.00000000000E+00 0. -1.
          1   -1    0    0  501    0 -0.00000000000E+00 -0.00000000000E+00 -0.26011532400E+03  0.26011532400E+03  0.00000000000E+00 0. -1.
         25    2    1    2    0    0 -0.40744640537E+02 -0.66903675973E+02  0.68052222900E+01  0.14767362731E+03  0.12499984625E+03 0.  0.
          2    1    1    2  501    0  0.41345869143E+02  0.46023009403E+00 -0.18653150344E+03  0.19105940040E+03  0.00000000000E+00 0. -1.
          1    1    1    2  502    0 -0.60122860597E+00  0.66443445879E+02  0.12453728471E+04  0.12471441862E+04  0.00000000000E+00 0. -1.
         22    1    3    3    0    0 -0.11651175484E+02 -0.98534405439E+02  0.22819077128E+02  0.10181104668E+03  0.00000000000E+00 0. -1.
         22    1    3    3    0    0 -0.29093465053E+02  0.31630729466E+02 -0.16013854838E+02  0.45862580631E+02  0.00000000000E+00 0. -1.
</event>
<event>
 7    1  0.6078244E-006  0.3196229E+02  0.7818608E-02  0.1578773E+00
          2   -1    0    0  502    0  0.00000000000E+00  0.00000000000E+00  0.13978359579E+04  0.13978359579E+04  0.00000000000E+00 0. -1.
          1   -1    0    0  501    0 -0.00000000000E+00 -0.00000000000E+00 -0.12237582893E+04  0.12237582893E+04  0.00000000000E+00 0. -1.
         25    2    1    2    0    0 -0.34142070768E+02  0.13476326364E+02  0.22872074045E+02  0.13226814641E+03  0.12499775364E+03 0.  0.
          2    1    1    2  501    0  0.26369027498E+02  0.17564924313E+02 -0.11686516187E+04  0.11690810315E+04  0.00000000000E+00 0. -1.
          1    1    1    2  502    0  0.77730432703E+01 -0.31041250677E+02  0.13198572133E+04  0.13202450693E+04  0.00000000000E+00 0. -1.
         22    1    3    3    0    0  0.47097333495E+02  0.88000456695E+01  0.65910436990E+00  0.47916949451E+02  0.00000000000E+00 0. -1.
         22    1    3    3    0    0 -0.81239404263E+02  0.46762806948E+01  0.22212969675E+02  0.84351196956E+02  0.00000000000E+00 0. -1.
</event>
<event>
 7    1  0.6078244E-006  0.9892373E+02  0.7818608E-02  0.1430136E+00
          2   -1    0    0  502    0  0.00000000000E+00  0.00000000000E+00  0.32793025681E+03  0.32793025681E+03  0.00000000000E+00 0. -1.
          1   -1    0    0  501    0 -0.00000000000E+00 -0.00000000000E+00 -0.26396762957E+03  0.26396762957E+03  0.00000000000E+00 0. -1.
         25    2    1    2    0    0  0.25011992816E+02  0.11459570855E+03 -0.13779476222E+02  0.17196940806E+03  0.12500330852E+03 0.  0.
          2    1    1    2  501    0 -0.36771771786E+01 -0.95966313812E+02 -0.15669667807E+03  0.18378493936E+03  0.00000000000E+00 0. -1.
          1    1    1    2  502    0 -0.21334815637E+02 -0.18629394739E+02  0.23443878153E+03  0.23614353896E+03  0.00000000000E+00 0. -1.
         22    1    3    3    0    0  0.74699755755E+02  0.50525917221E+02 -0.10902386059E+02  0.90839329823E+02  0.00000000000E+00 0.  1.
         22    1    3    3    0    0 -0.49687762940E+02  0.64069791330E+02 -0.28770901623E+01  0.81130078238E+02  0.00000000000E+00 0.  1.
</event>
<event>
 7    1  0.6078244E-006  0.9273809E+02  0.7818608E-02  0.1304823E+00
          2   -1    0    0  502    0  0.00000000000E+00  0.00000000000E+00  0.10129809401E+04  0.10129809401E+04  0.00000000000E+00 0. -1.
          1   -1    0    0  501    0 -0.00000000000E+00 -0.00000000000E+00 -0.52338147647E+02  0.52338147647E+02  0.00000000000E+00 0. -1.
         25    2    1    2    0    0  0.19699893328E+02 -0.35442829866E+02  0.26941747220E+03  0.29975718880E+03  0.12499727165E+03 0.  0.
          2    1    1    2  501    0  0.83507314137E+02  0.40334622130E+02  0.31721289375E+02  0.98013231027E+02  0.00000000000E+00 0. -1.
          1    1    1    2  502    0 -0.10320720747E+03 -0.48917922640E+01  0.65950403089E+03  0.66754866794E+03  0.00000000000E+00 0. -1.
         22    1    3    3    0    0 -0.25898224256E+02 -0.37054986460E+02  0.24271889398E+03  0.24689319864E+03  0.00000000000E+00 0. -1.
         22    1    3    3    0    0  0.45598117584E+02  0.16121565938E+01  0.26698578227E+02  0.52863990158E+02  0.00000000000E+00 0. -1.
</event>
<event>
 7    1  0.6078244E-006  0.9662645E+02  0.7818608E-02  0.1359545E+00
          2   -1    0    0  502    0  0.00000000000E+00  0.00000000000E+00  0.13103349049E+04  0.13103349049E+04  0.00000000000E+00 0. -1.
          1   -1    0    0  501    0 -0.00000000000E+00 -0.00000000000E+00 -0.76495244554E+03  0.76495244554E+03  0.00000000000E+00 0. -1.
         25    2    1    2    0    0 -0.25319563336E+02 -0.14323026813E+03  0.86758254840E+02  0.21050161693E+03  0.12501178325E+03 0.  0.
          2    1    1    2  501    0  0.24833171306E+02  0.92287881012E+02 -0.69927032736E+03  0.70577101818E+03  0.00000000000E+00 0. -1.
          1    1    1    2  502    0  0.48639203042E+00  0.50942387115E+02  0.11578945318E+04  0.11590147153E+04  0.00000000000E+00 0. -1.
         22    1    3    3    0    0 -0.67662109107E+01 -0.16386847155E+03  0.75534452502E+02  0.18056608511E+03  0.00000000000E+00 0.  1.
         22    1    3    3    0    0 -0.18553352426E+02  0.20638203418E+02  0.11223802338E+02  0.29935531823E+02  0.00000000000E+00 0.  1.
</event>
<event>
 7    1  0.6078244E-006  0.3191507E+02  0.7818608E-02  0.1589786E+00
          2   -1    0    0  502    0  0.00000000000E+00  0.00000000000E+00  0.14577874552E+04  0.14577874552E+04  0.00000000000E+00 0. -1.
          1   -1    0    0  501    0 -0.00000000000E+00 -0.00000000000E+00 -0.79091982636E+02  0.79091982636E+02  0.00000000000E+00 0. -1.
         25    2    1    2    0    0  0.44330193402E+02 -0.32968201223E+02  0.54119692606E+03  0.55818555124E+03  0.12499971402E+03 0.  0.
          2    1    1    2  501    0 -0.15096209222E+02  0.27983862863E+02 -0.66762101235E+02  0.73947077527E+02  0.00000000000E+00 0. -1.
          1    1    1    2  502    0 -0.29233984181E+02  0.49843383596E+01  0.90426064773E+03  0.90474680906E+03  0.00000000000E+00 0. -1.
         22    1    3    3    0    0  0.40198527717E+02 -0.34568230194E+02  0.74347124646E+02  0.91314725606E+02  0.00000000000E+00 0.  1.
         22    1    3    3    0    0  0.41316656852E+01  0.16000289709E+01  0.46684980141E+03  0.46687082564E+03  0.00000000000E+00 0.  1.
</event>
<event>
 7    1  0.6078244E-006  0.1400209E+03  0.7818608E-02  0.1236458E+00
          2   -1    0    0  502    0  0.00000000000E+00  0.00000000000E+00  0.16785958905E+04  0.16785958905E+04  0.00000000000E+00 0. -1.
          1   -1    0    0  501    0 -0.00000000000E+00 -0.00000000000E+00 -0.10654493734E+03  0.10654493734E+03  0.00000000000E+00 0. -1.
         25    2    1    2    0    0  0.47194561325E+01 -0.70306803246E+01  0.33327700555E+03  0.35604854497E+03  0.12500120086E+03 0.  0.
          2    1    1    2  501    0  0.61394960358E+02 -0.12584316802E+03 -0.36910105684E+02  0.14480400546E+03  0.00000000000E+00 0. -1.
          1    1    1    2  502    0 -0.66114416491E+02  0.13287384834E+03  0.12756840533E+04  0.12842882774E+04  0.00000000000E+00 0. -1.
         22    1    3    3    0    0 -0.15989839520E+02 -0.32563698951E+02  0.31753089017E+03  0.31959652012E+03  0.00000000000E+00 0. -1.
         22    1    3    3    0    0  0.20709295652E+02  0.25533018627E+02  0.15746115378E+02  0.36452024856E+02  0.00000000000E+00 0. -1.
</event>
<event>
 7    1  0.6078244E-006  0.1294167E+03  0.7818608E-02  0.1268291E+00
          2   -1    0    0  502    0  0.00000000000E+00  0.00000000000E+00  0.38440691357E+03  0.38440691357E+03  0.00000000000E+00 0. -1.
          1   -1    0    0  501    0 -0.00000000000E+00 -0.00000000000E+00 -0.22480932175E+03  0.22480932175E+03  0.00000000000E+00 0. -1.
         25    2    1    2    0    0 -0.16068017363E+02 -0.20682197104E+02  0.12186661083E+03  0.17652973518E+03  0.12500136843E+03 0.  0.
          2    1    1    2  501    0  0.10285225881E+02 -0.12900737172E+03 -0.14634427076E+03  0.19535949789E+03  0.00000000000E+00 0. -1.
          1    1    1    2  502    0  0.57827914826E+01  0.14968956882E+03  0.18407525175E+03  0.23732700225E+03  0.00000000000E+00 0. -1.
         22    1    3    3    0    0 -0.53443670443E+00 -0.17651211940E+02 -0.24005678951E+02  0.29801401434E+02  0.00000000000E+00 0.  1.
         22    1    3    3    0    0 -0.15533580659E+02 -0.30309851639E+01  0.14587228978E+03  0.14672833375E+03  0.00000000000E+00 0.  1.
</event>
<event>
 7    1  0.6078244E-006  0.7208548E+02  0.7818608E-02  0.1379028E+00
          2   -1    0    0  502    0  0.00000000000E+00  0.00000000000E+00  0.21362648850E+03  0.21362648850E+03  0.00000000000E+00 0. -1.
          1   -1    0    0  501    0 -0.00000000000E+00 -0.00000000000E+00 -0.29894949623E+03  0.29894949623E+03  0.00000000000E+00 0. -1.
         25    2    1    2    0    0 -0.16208138833E+02  0.57378660821E+02 -0.12673944538E+03  0.18773232287E+03  0.12500209420E+03 0.  0.
          2    1    1    2  501    0  0.71946249363E+02 -0.40957097183E+02 -0.12423757477E+03  0.14929407755E+03  0.00000000000E+00 0. -1.
          1    1    1    2  502    0 -0.55738110531E+02 -0.16421563639E+02  0.16565401242E+03  0.17554958430E+03  0.00000000000E+00 0. -1.
         22    1    3    3    0    0 -0.39983262937E+02 -0.23819925458E+02 -0.75876824014E+02  0.89013159624E+02  0.00000000000E+00 0. -1.
         22    1    3    3    0    0  0.23775124104E+02  0.81198586279E+02 -0.50862621362E+02  0.98719163245E+02  0.00000000000E+00 0. -1.
</event>
<event>
 7    1  0.6078244E-006  0.7698486E+02  0.7818608E-02  0.1343982E+00
          2   -1    0    0  502    0  0.00000000000E+00  0.00000000000E+00  0.16653785677E+04  0.16653785677E+04  0.00000000000E+00 0. -1.
          1   -1    0    0  501    0 -0.00000000000E+00 -0.00000000000E+00 -0.39256376300E+03  0.39256376300E+03  0.00000000000E+00 0. -1.
         25    2    1    2    0    0  0.89569950396E+01  0.46605883824E+02  0.20039444936E+03  0.24090493649E+03  0.12499966771E+03 0.  0.
          2    1    1    2  501    0  0.68308132718E+02 -0.25738642936E+02 -0.36760865072E+03  0.37478607074E+03  0.00000000000E+00 0. -1.
          1    1    1    2  502    0 -0.77265127758E+02 -0.20867240888E+02  0.14400290060E+04  0.14422513234E+04  0.00000000000E+00 0. -1.
         22    1    3    3    0    0  0.97382447954E+01  0.83887938437E+02  0.17897910988E+03  0.19790285850E+03  0.00000000000E+00 0.  1.
         22    1    3    3    0    0 -0.78124975585E+00 -0.37282054613E+02  0.21415339477E+02  0.43002077999E+02  0.00000000000E+00 0.  1.
</event>
<event>
 7    1  0.6078244E-006  0.8609238E+02  0.7818608E-02  0.1404598E+00
          2   -1    0    0  502    0  0.00000000000E+00  0.00000000000E+00  0.20558854006E+04  0.20558854006E+04  0.00000000000E+00 0. -1.
          1   -1    0    0  501    0 -0.00000000000E+00 -0.00000000000E+00 -0.85320221546E+02  0.85320221546E+02  0.00000000000E+00 0. -1.
         25    2    1    2    0    0  0.10328325562E+03  0.29093948339E+02  0.47567811488E+03  0.50339799337E+03  0.12500392807E+03 0.  0.
          2    1    1    2  501    0 -0.69376746973E+02 -0.49624948035E+02 -0.45660335688E+02  0.96750373349E+02  0.00000000000E+00 0. -1.
          1    1    1    2  502    0 -0.33906508646E+02  0.20530999696E+02  0.15405473998E+04  0.15410572554E+04  0.00000000000E+00 0. -1.
         22    1    3    3    0    0  0.12209997888E+03  0.54012679928E+02  0.38423401882E+03  0.40676965922E+03  0.00000000000E+00 0.  1.
         22    1    3    3    0    0 -0.18816723264E+02 -0.24918731589E+02  0.91444096057E+02  0.96628334157E+02  0.00000000000E+00 0.  1.
</event>
<event>
 7    1  0.6078244E-006  0.1061286E+03  0.7818608E-02  0.1304152E+00
          2   -1    0    0  502    0  0.00000000000E+00  0.00000000000E+00  0.13504863036E+04  0.13504863036E+04  0.00000000000E+00 0. -1.
          1   -1    0    0  501    0 -0.00000000000E+00 -0.00000000000E+00 -0.67114027301E+03  0.67114027301E+03  0.00000000000E+00 0. -1.
         25    2    1    2    0    0  0.39783351359E+02  0.57404404482E+02  0.55208601275E+03  0.57035239913E+03  0.12499965208E+03 0.  0.
          2    1    1    2  501    0 -0.20952925528E+02  0.72448850087E+02 -0.65437291925E+03  0.65870462153E+03  0.00000000000E+00 0. -1.
          1    1    1    2  502    0 -0.18830425831E+02 -0.12985325457E+03  0.78163293714E+03  0.79256955599E+03  0.00000000000E+00 0. -1.
         22    1    3    3    0    0  0.49059042383E+01  0.92122620294E+02  0.31594827000E+03  0.32914123774E+03  0.00000000000E+00 0.  1.
         22    1    3    3    0    0  0.34877447121E+02 -0.34718215812E+02  0.23613774275E+03  0.24121116139E+03  0.00000000000E+00 0.  1.
</event>
<event>
 7    1  0.6078244E-006  0.7515312E+02  0.7818608E-02  0.1396553E+00
          2   -1    0    0  502    0  0.00000000000E+00  0.00000000000E+00  0.70692920917E+03  0.70692920917E+03  0.00000000000E+00 0. -1.
          1   -1    0    0  501    0 -0.00000000000E+00 -0.00000000000E+00 -0.17604232911E+04  0.17604232911E+04  0.00000000000E+00 0. -1.
         25    2    1    2    0    0 -0.54944980659E+02 -0.11924656662E+02  0.49762957045E+03  0.51615977761E+03  0.12499831317E+03 0.  0.
          2    1    1    2  501    0 -0.40452186928E+02 -0.26558888158E+02 -0.17375742960E+04  0.17382480226E+04  0.00000000000E+00 0. -1.
          1    1    1    2  502    0  0.95397167587E+02  0.38483544821E+02  0.18645064358E+03  0.21294470009E+03  0.00000000000E+00 0. -1.
         22    1    3    3    0    0  0.99024924207E+01 -0.51294046475E+02  0.29912917831E+03  0.30365672045E+03  0.00000000000E+00 0. -1.
         22    1    3    3    0    0 -0.64847473080E+02  0.39369389813E+02  0.19850039215E+03  0.21250305716E+03  0.00000000000E+00 0. -1.
</event>
<event>
 7    1  0.6078244E-006  0.7431141E+02  0.7818608E-02  0.1356326E+00
          2   -1    0    0  502    0  0.00000000000E+00  0.00000000000E+00  0.17641251664E+04  0.17641251664E+04  0.00000000000E+00 0. -1.
          1   -1    0    0  501    0 -0.00000000000E+00 -0.00000000000E+00 -0.15462433548E+02  0.15462433548E+02  0.00000000000E+00 0. -1.
         25    2    1    2    0    0  0.13286958489E+02  0.58001670672E+02  0.93574367726E+03  0.94592935773E+03  0.12500153288E+03 0.  0.
          2    1    1    2  501    0 -0.65470869881E+02  0.18613173936E+02  0.15561303780E+03  0.16984788071E+03  0.00000000000E+00 0. -1.
          1    1    1    2  502    0  0.52183911392E+02 -0.76614844607E+02  0.65730601780E+03  0.66381036152E+03  0.00000000000E+00 0. -1.
         22    1    3    3    0    0  0.49766240812E+02  0.79031295288E+02  0.54746762988E+03  0.55537683615E+03  0.00000000000E+00 0.  1.
         22    1    3    3    0    0 -0.36479282323E+02 -0.21029624616E+02  0.38827604738E+03  0.39055252159E+03  0.00000000000E+00 0.  1.
</event>
<event>
 7    1  0.6078244E-006  0.8054740E+02  0.7818608E-02  0.1453788E+00
          2   -1    0    0  502    0  0.00000000000E+00  0.00000000000E+00  0.23715303709E+03  0.23715303709E+03  0.00000000000E+00 0. -1.
          1   -1    0    0  501    0 -0.00000000000E+00 -0.00000000000E+00 -0.25224347112E+03  0.25224347112E+03  0.00000000000E+00 0. -1.
         25    2    1    2    0    0  0.71356924637E+02 -0.67515380134E+02  0.24398139096E+02  0.16083850648E+03  0.12499447478E+03 0.  0.
          2    1    1    2  501    0 -0.29111040657E+02  0.17574694394E+01 -0.17213999731E+03  0.17459301263E+03  0.00000000000E+00 0. -1.
          1    1    1    2  502    0 -0.42245883980E+02  0.65757910694E+02  0.13265142418E+03  0.15396498910E+03  0.00000000000E+00 0. -1.
         22    1    3    3    0    0  0.55834722480E+02 -0.77233619056E+01 -0.41890686821E+02  0.70228172380E+02  0.00000000000E+00 0.  1.
         22    1    3    3    0    0  0.15522202157E+02 -0.59792018228E+02  0.66288825917E+02  0.90610334096E+02  0.00000000000E+00 0.  1.
</event>
<event>
 7    1  0.6078244E-006  0.6714185E+02  0.7818608E-02  0.1495037E+00
          2   -1    0    0  502    0  0.00000000000E+00  0.00000000000E+00  0.12010506491E+04  0.12010506491E+04  0.00000000000E+00 0. -1.
          1   -1    0    0  501    0 -0.00000000000E+00 -0.00000000000E+00 -0.17168104864E+02  0.17168104864E+02  0.00000000000E+00 0. -1.
         25    2    1    2    0    0  0.50158770727E+02 -0.25392675453E+02  0.55640237641E+03  0.57303590970E+03  0.12500343628E+03 0.  0.
          2    1    1    2  501    0 -0.70171726160E+02  0.86656099678E+01  0.13846495483E+03  0.15547253025E+03  0.00000000000E+00 0. -1.
          1    1    1    2  502    0  0.20012955433E+02  0.16727065486E+02  0.48901521299E+03  0.48971031400E+03  0.00000000000E+00 0. -1.
         22    1    3    3    0    0  0.64877602670E+01 -0.64351607470E+02  0.16399230337E+03  0.17628583602E+03  0.00000000000E+00 0.  1.
         22    1    3    3    0    0  0.43671010460E+02  0.38958932017E+02  0.39241007305E+03  0.39675007368E+03  0.00000000000E+00 0.  1.
</event>
<event>
 7    1  0.6078244E-006  0.5434000E+02  0.7818608E-02  0.1448017E+00
          2   -1    0    0  502    0  0.00000000000E+00  0.00000000000E+00  0.28214481782E+03  0.28214481782E+03  0.00000000000E+00 0. -1.
          1   -1    0    0  501    0 -0.00000000000E+00 -0.00000000000E+00 -0.98070580970E+02  0.98070580970E+02  0.00000000000E+00 0. -1.
         25    2    1    2    0    0  0.56537948193E+01  0.40359533374E+02  0.91140892571E+02  0.15997615769E+03  0.12499940560E+03 0.  0.
          2    1    1    2  501    0  0.44199938409E+02 -0.89883263312E+01 -0.48981776106E+02  0.66585576186E+02  0.00000000000E+00 0. -1.
          1    1    1    2  502    0 -0.49853733229E+02 -0.31371207043E+02  0.14191512038E+03  0.15365366491E+03  0.00000000000E+00 0. -1.
         22    1    3    3    0    0  0.19170816107E+00 -0.45052742958E+02  0.23047060634E+02  0.50605863336E+02  0.00000000000E+00 0.  1.
         22    1    3    3    0    0  0.54620866583E+01  0.85412276332E+02  0.68093831936E+02  0.10937029435E+03  0.00000000000E+00 0.  1.
</event>
<event>
 7    1  0.6078244E-006  0.4004630E+02  0.7818608E-02  0.1590536E+00
          2   -1    0    0  502    0  0.00000000000E+00  0.00000000000E+00  0.94693784206E+02  0.94693784206E+02  0.00000000000E+00 0. -1.
          1   -1    0    0  501    0 -0.00000000000E+00 -0.00000000000E+00 -0.75712222930E+03  0.75712222930E+03  0.00000000000E+00 0. -1.
         25    2    1    2    0    0  0.23807796836E+02 -0.83342719042E+00 -0.50579469292E+02  0.13696140597E+03  0.12503054915E+03 0.  0.
          2    1    1    2  501    0 -0.35140363561E+02 -0.19783856828E+02 -0.66001714301E+03  0.66124796802E+03  0.00000000000E+00 0. -1.
          1    1    1    2  502    0  0.11332566725E+02  0.20617284019E+02  0.48168167203E+02  0.53606639520E+02  0.00000000000E+00 0. -1.
         22    1    3    3    0    0 -0.33893605389E+01 -0.64931174839E+01 -0.89137745253E+02  0.89438168409E+02  0.00000000000E+00 0.  1.
         22    1    3    3    0    0  0.27197157375E+02  0.56596902935E+01  0.38558275961E+02  0.47523237564E+02  0.00000000000E+00 0.  1.
</event>
<event>
 7    1  0.6078244E-006  0.2044687E+03  0.7818608E-02  0.1182484E+00
          2   -1    0    0  502    0  0.00000000000E+00  0.00000000000E+00  0.65802904649E+03  0.65802904649E+03  0.00000000000E+00 0. -1.
          1   -1    0    0  501    0 -0.00000000000E+00 -0.00000000000E+00 -0.13382831084E+04  0.13382831084E+04  0.00000000000E+00 0. -1.
         25    2    1    2    0    0  0.16503360648E+03  0.20931231453E+03  0.17583924694E+03  0.34291665907E+03  0.12499863207E+03 0.  0.
          2    1    1    2  501    0  0.13125708319E+02 -0.13352319801E+03 -0.12273639605E+04  0.12346752691E+04  0.00000000000E+00 0. -1.
          1    1    1    2  502    0 -0.17815931480E+03 -0.75789116521E+02  0.37127065155E+03  0.41872022680E+03  0.00000000000E+00 0. -1.
         22    1    3    3    0    0  0.48853850773E+02  0.16135240403E+03  0.10568566950E+03  0.19897426406E+03  0.00000000000E+00 0.  1.
         22    1    3    3    0    0  0.11617975571E+03  0.47959910500E+02  0.70153577447E+02  0.14394239501E+03  0.00000000000E+00 0.  1.
</event>
<event>
 7    1  0.6078244E-006  0.6043392E+02  0.7818608E-02  0.1402895E+00
          2   -1    0    0  502    0  0.00000000000E+00  0.00000000000E+00  0.17507465398E+04  0.17507465398E+04  0.00000000000E+00 0. -1.
          1   -1    0    0  501    0 -0.00000000000E+00 -0.00000000000E+00 -0.26535832331E+03  0.26535832331E+03  0.00000000000E+00 0. -1.
         25    2    1    2    0    0 -0.68237336631E+02  0.37048291654E+02 -0.14624762493E+03  0.20746662904E+03  0.12500049737E+03 0.  0.
          2    1    1    2  501    0  0.15249325455E+02 -0.58669799362E+02 -0.77585468998E+02  0.98459089391E+02  0.00000000000E+00 0. -1.
          1    1    1    2  502    0  0.52988011176E+02  0.21621507708E+02  0.17092213104E+04  0.17101791447E+04  0.00000000000E+00 0. -1.
         22    1    3    3    0    0 -0.73895862596E+02  0.68446658991E+02 -0.64227904195E+02  0.11946031690E+03  0.00000000000E+00 0.  1.
         22    1    3    3    0    0  0.56585259650E+01 -0.31398367337E+02 -0.82019720735E+02  0.88006312143E+02  0.00000000000E+00 0.  1.
</event>
<event>
 7    1  0.6078244E-006  0.5044520E+02  0.7818608E-02  0.1552077E+00
          2   -1    0    0  502    0  0.00000000000E+00  0.00000000000E+00  0.65201238018E+03  0.65201238018E+03  0.00000000000E+00 0. -1.
          1   -1    0    0  501    0 -0.00000000000E+00 -0.00000000000E+00 -0.18648741002E+03  0.18648741002E+03  0.00000000000E+00 0. -1.
         25    2    1    2    0    0  0.39381534723E+02 -0.39271681278E+02 -0.95965755304E+02  0.16712411769E+03  0.12501149665E+03 0.  0.
          2    1    1    2  501    0 -0.22290454324E+02 -0.81909428222E+01 -0.51290547755E+02  0.56521466606E+02  0.00000000000E+00 0. -1.
          1    1    1    2  502    0 -0.17091080399E+02  0.47462624100E+02  0.61278127321E+03  0.61485420590E+03  0.00000000000E+00 0. -1.
         22    1    3    3    0    0  0.53189624393E+02 -0.48895554715E+02 -0.11862674575E+03  0.13889642263E+03  0.00000000000E+00 0.  1.
         22    1    3    3    0    0 -0.13808089670E+02  0.96238734363E+01  0.22660990444E+02  0.28227695056E+02  0.00000000000E+00 0.  1.
</event>
<event>
 7    1  0.6078244E-006  0.1046742E+03  0.7818608E-02  0.1295014E+00
          2   -1    0    0  502    0  0.00000000000E+00  0.00000000000E+00  0.54781297180E+03  0.54781297180E+03  0.00000000000E+00 0. -1.
          1   -1    0    0  501    0 -0.00000000000E+00 -0.00000000000E+00 -0.13950576333E+04  0.13950576333E+04  0.00000000000E+00 0. -1.
         25    2    1    2    0    0 -0.17792971284E+03  0.11729912922E+02 -0.29114011761E+03  0.36357239854E+03  0.12500298927E+03 0.  0.
          2    1    1    2  501    0  0.96256520378E+02 -0.27548799905E+02 -0.10619491529E+04  0.10666584540E+04  0.00000000000E+00 0. -1.
          1    1    1    2  502    0  0.81673192463E+02  0.15818886983E+02  0.50584460897E+03  0.51263975263E+03  0.00000000000E+00 0. -1.
         22    1    3    3    0    0 -0.75122088475E+02 -0.51182084734E+02 -0.83211564101E+02  0.12323594595E+03  0.00000000000E+00 0. -1.
         22    1    3    3    0    0 -0.10280762437E+03  0.62911997656E+02 -0.20792855351E+03  0.24033645258E+03  0.00000000000E+00 0. -1.
</event>
<event>
 7    1  0.6490659E-006  0.2095039E+03  0.7818608E-02  0.1301177E+00
          2   -1    0    0  502    0  0.00000000000E+00  0.00000000000E+00  0.16548958815E+04  0.16548958815E+04  0.00000000000E+00 0. -1.
          1   -1    0    0  501    0 -0.00000000000E+00 -0.00000000000E+00 -0.14798956109E+04  0.14798956109E+04  0.00000000000E+00 0. -1.
         25    2    1    2    0    0 -0.39902263180E+02 -0.20587593286E+03 -0.54891370902E+03  0.60075692207E+03  0.12500211651E+03 0.  0.
          2    1    1    2  501    0  0.39090655439E+02 -0.36666622795E+01 -0.89789080565E+03  0.89874880953E+03  0.00000000000E+00 0. -1.
          1    1    1    2  502    0  0.81160774086E+00  0.20954259514E+03  0.16218047853E+04  0.16352857608E+04  0.00000000000E+00 0. -1.
         22    1    3    3    0    0  0.41746478898E+02 -0.53179435635E+02 -0.20231152741E+03  0.21330910669E+03  0.00000000000E+00 0.  1.
         22    1    3    3    0    0 -0.81648742078E+02 -0.15269649722E+03 -0.34660218161E+03  0.38744781538E+03  0.00000000000E+00 0.  1.
</event>
<event>
 7    1  0.6078244E-006  0.9741250E+02  0.7818608E-02  0.1369612E+00
          2   -1    0    0  502    0  0.00000000000E+00  0.00000000000E+00  0.30766126130E+04  0.30766126130E+04  0.00000000000E+00 0. -1.
          1   -1    0    0  501    0 -0.00000000000E+00 -0.00000000000E+00 -0.68778063360E+03  0.68778063360E+03  0.00000000000E+00 0. -1.
         25    2    1    2    0    0  0.14763319392E+02 -0.12955343987E+03  0.69414750840E+03  0.71726410663E+03  0.12499994343E+03 0.  0.
          2    1    1    2  501    0 -0.29744176177E+02  0.35692973673E+02 -0.67447020051E+03  0.67606860285E+03  0.00000000000E+00 0. -1.
          1    1    1    2  502    0  0.14980856785E+02  0.93860466197E+02  0.23691546715E+04  0.23710605371E+04  0.00000000000E+00 0. -1.
         22    1    3    3    0    0 -0.42787794358E+02 -0.44926469700E+02  0.13170490322E+03  0.14558627874E+03  0.00000000000E+00 0. -1.
         22    1    3    3    0    0  0.57551113750E+02 -0.84626970170E+02  0.56244260518E+03  0.57167782789E+03  0.00000000000E+00 0. -1.
</event>
<event>
 7    1  0.6078244E-006  0.1714100E+03  0.7818608E-02  0.1223813E+00
          2   -1    0    0  502    0  0.00000000000E+00  0.00000000000E+00  0.41531483417E+03  0.41531483417E+03  0.00000000000E+00 0. -1.
          1   -1    0    0  501    0 -0.00000000000E+00 -0.00000000000E+00 -0.43241007129E+03  0.43241007129E+03  0.00000000000E+00 0. -1.
         25    2    1    2    0    0 -0.11013064186E+03 -0.26333066182E+02  0.24995503538E+02  0.17050526489E+03  0.12500032603E+03 0.  0.
          2    1    1    2  501    0  0.14416585429E+03  0.12291274856E+03 -0.32508952851E+03  0.37626392180E+03  0.00000000000E+00 0. -1.
          1    1    1    2  502    0 -0.34035212430E+02 -0.96579682378E+02  0.28299878785E+03  0.30095571877E+03  0.00000000000E+00 0. -1.
         22    1    3    3    0    0 -0.86642332063E+02 -0.64475695895E+02  0.50210688653E+02  0.11910131117E+03  0.00000000000E+00 0. -1.
         22    1    3    3    0    0 -0.23488309794E+02  0.38142629713E+02 -0.25215185116E+02  0.51403953727E+02  0.00000000000E+00 0. -1.
</event>
<event>
 7    1  0.6078244E-006  0.2367108E+03  0.7818608E-02  0.1226025E+00
          2   -1    0    0  502    0  0.00000000000E+00  0.00000000000E+00  0.22828698391E+04  0.22828698391E+04  0.00000000000E+00 0. -1.
          1   -1    0    0  501    0 -0.00000000000E+00 -0.00000000000E+00 -0.53965196570E+04  0.53965196570E+04  0.00000000000E+00 0. -1.
         25    2    1    2    0    0  0.16454981490E+03 -0.20056765852E+03 -0.23670457867E+04  0.23844988731E+04  0.12500036923E+03 0.  0.
          2    1    1    2  501    0 -0.92562565673E+02  0.20886015037E+03 -0.30158488310E+04  0.30244891407E+04  0.00000000000E+00 0. -1.
          1    1    1    2  502    0 -0.71987249227E+02 -0.82924918509E+01  0.22692447998E+04  0.22704014823E+04  0.00000000000E+00 0. -1.
         22    1    3    3    0    0 -0.16282912768E+02 -0.47209069233E+02 -0.34402846792E+03  0.34763402625E+03  0.00000000000E+00 0. -1.
         22    1    3    3    0    0  0.18083272767E+03 -0.15335858929E+03 -0.20230173188E+04  0.20368648469E+04  0.00000000000E+00 0. -1.
</event>
<event>
 7    1  0.6078244E-006  0.4215748E+02  0.7818608E-02  0.1554028E+00
          2   -1    0    0  502    0  0.00000000000E+00  0.00000000000E+00  0.28193156709E+04  0.28193156709E+04  0.00000000000E+00 0. -1.
          1   -1    0    0  501    0 -0.00000000000E+00 -0.00000000000E+00 -0.58794969565E+01  0.58794969565E+01  0.00000000000E+00 0. -1.
         25    2    1    2    0    0  0.19586777453E+02 -0.63178569990E+02  0.12891691368E+04  0.12969031073E+04  0.12500173135E+03 0.  0.
          2    1    1    2  501    0  0.51410415601E+00  0.28059262578E+02  0.11257959446E+03  0.11602478877E+03  0.00000000000E+00 0. -1.
          1    1    1    2  502    0 -0.20100881609E+02  0.35119307413E+02  0.14116874426E+04  0.14122672717E+04  0.00000000000E+00 0. -1.
         22    1    3    3    0    0 -0.37389201737E+02  0.18592348465E+02  0.38486780612E+03  0.38712640831E+03  0.00000000000E+00 0.  1.
         22    1    3    3    0    0  0.56975979190E+02 -0.81770918455E+02  0.90430133073E+03  0.90977669901E+03  0.00000000000E+00 0.  1.
</event>
<event>
 7    1  0.6078244E-006  0.1000130E+03  0.7818608E-02  0.1405470E+00
          2   -1    0    0  502    0  0.00000000000E+00  0.00000000000E+00  0.16870066341E+04  0.16870066341E+04  0.00000000000E+00 0. -1.
          1   -1    0    0  501    0 -0.00000000000E+00 -0.00000000000E+00 -0.67575652379E+02  0.67575652379E+02  0.00000000000E+00 0. -1.
         25    2    1    2    0    0 -0.89459355011E+02  0.22460428305E+02  0.27943015831E+03  0.31970920662E+03  0.12500126554E+03 0.  0.
          2    1    1    2  501    0  0.51610704408E+01  0.33492476578E+02 -0.39284855174E+02  0.51881427134E+02  0.00000000000E+00 0. -1.
          1    1    1    2  502    0  0.84298284571E+02 -0.55952904883E+02  0.13792856786E+04  0.13829916527E+04  0.00000000000E+00 0. -1.
         22    1    3    3    0    0 -0.18701302747E+02  0.67095733607E+02  0.10160517571E+03  0.12318761271E+03  0.00000000000E+00 0. -1.
         22    1    3    3    0    0 -0.70758052265E+02 -0.44635305303E+02  0.17782498260E+03  0.19652159391E+03  0.00000000000E+00 0. -1.
</event>
<event>
 7    1  0.6078244E-006  0.1620685E+03  0.7818608E-02  0.1303514E+00
          2   -1    0    0  502    0  0.00000000000E+00  0.00000000000E+00  0.17280509988E+04  0.17280509988E+04  0.00000000000E+00 0. -1.
          1   -1    0    0  501    0 -0.00000000000E+00 -0.00000000000E+00 -0.64200824017E+02  0.64200824017E+02  0.00000000000E+00 0. -1.
         25    2    1    2    0    0  0.25440811073E+02  0.14940911329E+03  0.22070796505E+03  0.29547837077E+03  0.12500057501E+03 0.  0.
          2    1    1    2  501    0  0.49561415048E+02 -0.33716062235E+01  0.57174948005E+01  0.50003913216E+02  0.00000000000E+00 0. -1.
          1    1    1    2  502    0 -0.75002226121E+02 -0.14603750706E+03  0.14374247149E+04  0.14467695388E+04  0.00000000000E+00 0. -1.
         22    1    3    3    0    0  0.30695889887E+01  0.15943249341E+03  0.21900076686E+03  0.27090492468E+03  0.00000000000E+00 0. -1.
         22    1    3    3    0    0  0.22371222084E+02 -0.10023380125E+02  0.17071981854E+01  0.24573446081E+02  0.00000000000E+00 0. -1.
</event>
<event>
 7    1  0.6078244E-006  0.1534722E+03  0.7818608E-02  0.1312184E+00
          2   -1    0    0  502    0  0.00000000000E+00  0.00000000000E+00  0.38201990663E+03  0.38201990663E+03  0.00000000000E+00 0. -1.
          1   -1    0    0  501    0 -0.00000000000E+00 -0.00000000000E+00 -0.11812184133E+04  0.11812184133E+04  0.00000000000E+00 0. -1.
         25    2    1    2    0    0 -0.14083350948E+03 -0.68048110516E+02 -0.91953493826E+03  0.94108035478E+03  0.12499243470E+03 0.  0.
          2    1    1    2  501    0  0.29920836668E+02 -0.38140999935E+02 -0.23242491487E+03  0.23742647998E+03  0.00000000000E+00 0. -1.
          1    1    1    2  502    0  0.11091267282E+03  0.10618911045E+03  0.35276134643E+03  0.38473148520E+03  0.00000000000E+00 0. -1.
         22    1    3    3    0    0 -0.69573844688E+02 -0.63330334575E+02 -0.76591664862E+03  0.77167322344E+03  0.00000000000E+00 0. -1.
         22    1    3    3    0    0 -0.71259664795E+02 -0.47177759417E+01 -0.15361828964E+03  0.16940713134E+03  0.00000000000E+00 0. -1.
</event>
<event>
 7    1  0.6078244E-006  0.8495287E+02  0.7818608E-02  0.1382260E+00
          2   -1    0    0  502    0  0.00000000000E+00  0.00000000000E+00  0.87492969538E+02  0.87492969538E+02  0.00000000000E+00 0. -1.
          1   -1    0    0  501    0 -0.00000000000E+00 -0.00000000000E+00 -0.59989455524E+03  0.59989455524E+03  0.00000000000E+00 0. -1.
         25    2    1    2    0    0  0.16065126059E+01 -0.15992367719E+02 -0.38989515074E+03  0.40975734401E+03  0.12499806275E+03 0.  0.
          2    1    1    2  501    0  0.58200319176E+02  0.76325877632E+02 -0.15855564257E+03  0.18534510660E+03  0.00000000000E+00 0. -1.
          1    1    1    2  502    0 -0.59806831782E+02 -0.60333509913E+02  0.36049207605E+02  0.92285074173E+02  0.00000000000E+00 0. -1.
         22    1    3    3    0    0 -0.55224846853E+02 -0.33730508639E+02 -0.16854968320E+03  0.18054508199E+03  0.00000000000E+00 0.  1.
         22    1    3    3    0    0  0.56831359459E+02  0.17738140920E+02 -0.22134546753E+03  0.22921226202E+03  0.00000000000E+00 0.  1.
</event>
<event>
 7    1  0.6078244E-006  0.9628040E+02  0.7818608E-02  0.1379794E+00
          2   -1    0    0  502    0  0.00000000000E+00  0.00000000000E+00  0.13410421095E+04  0.13410421095E+04  0.00000000000E+00 0. -1.
          1   -1    0    0  501    0 -0.00000000000E+00 -0.00000000000E+00 -0.16651656049E+04  0.16651656049E+04  0.00000000000E+00 0. -1.
         25    2    1    2    0    0 -0.13166212597E+03  0.38565146632E+02  0.46949847552E+03  0.50485305568E+03  0.12500241340E+03 0.  0.
          2    1    1    2  501    0  0.88435635796E+02 -0.37774337695E+02 -0.16455363722E+04  0.16483439309E+04  0.00000000000E+00 0. -1.
          1    1    1    2  502    0  0.43226490179E+02 -0.79080893781E+00  0.85191440128E+03  0.85301072791E+03  0.00000000000E+00 0. -1.
         22    1    3    3    0    0 -0.14355429827E+03 -0.26237681105E+00  0.39004897822E+03  0.41562737013E+03  0.00000000000E+00 0. -1.
         22    1    3    3    0    0  0.11892172296E+02  0.38827523443E+02  0.79449497307E+02  0.89225685545E+02  0.00000000000E+00 0. -1.
</event>
<event>
 7    1  0.6078244E-006  0.1086644E+03  0.7818608E-02  0.1438287E+00
          2   -1    0    0  502    0  0.00000000000E+00  0.00000000000E+00  0.22223364298E+04  0.22223364298E+04  0.00000000000E+00 0. -1.
          1   -1    0    0  501    0 -0.00000000000E+00 -0.00000000000E+00 -0.55124856784E+02  0.55124856784E+02  0.00000000000E+00 0. -1.
         25    2    1    2    0    0 -0.71583020969E+02  0.76222703141E+02  0.82221076760E+03  0.83820706180E+03  0.12500601078E+03 0.  0.
          2    1    1    2  501    0  0.55251458382E+02 -0.94146873110E+02  0.16347118100E+02  0.11037928085E+03  0.00000000000E+00 0. -1.
          1    1    1    2  502    0  0.16331562586E+02  0.17924169968E+02  0.13286536873E+04  0.13288749440E+04  0.00000000000E+00 0. -1.
         22    1    3    3    0    0 -0.65365733176E+02  0.14024001800E+02  0.67462683989E+03  0.67793120949E+03  0.00000000000E+00 0.  1.
         22    1    3    3    0    0 -0.62172877931E+01  0.62198701342E+02  0.14758392771E+03  0.16027585231E+03  0.00000000000E+00 0.  1.
</event>
<event>
 7    1  0.6078244E-006  0.4076930E+03  0.7818608E-02  0.1154428E+00
          2   -1    0    0  502    0  0.00000000000E+00  0.00000000000E+00  0.70867488215E+03  0.70867488215E+03  0.00000000000E+00 0. -1.
          1   -1    0    0  501    0 -0.00000000000E+00 -0.00000000000E+00 -0.12670373397E+04  0.12670373397E+04  0.00000000000E+00 0. -1.
         25    2    1    2    0    0  0.28248429731E+03  0.15488588411E+03 -0.88184246565E+03  0.94713153573E+03  0.12499998570E+03 0.  0.
          2    1    1    2  501    0  0.88347411933E+02  0.28498433058E+02 -0.28108669100E+03  0.29601884017E+03  0.00000000000E+00 0. -1.
          1    1    1    2  502    0 -0.37083170924E+03 -0.18338431717E+03  0.60456669914E+03  0.73256184590E+03  0.00000000000E+00 0. -1.
         22    1    3    3    0    0  0.60095060975E+02  0.12540108538E+02 -0.68405760842E+02  0.91913104572E+02  0.00000000000E+00 0.  1.
         22    1    3    3    0    0  0.22238923633E+03  0.14234577557E+03 -0.81343670481E+03  0.85521843115E+03  0.00000000000E+00 0.  1.
</event>
<event>
 7    1  0.6078244E-006  0.3263279E+02  0.7818608E-02  0.1595782E+00
          2   -1    0    0  502    0  0.00000000000E+00  0.00000000000E+00  0.54553527244E+03  0.54553527244E+03  0.00000000000E+00 0. -1.
          1   -1    0    0  501    0 -0.00000000000E+00 -0.00000000000E+00 -0.69912922724E+03  0.69912922724E+03  0.00000000000E+00 0. -1.
         25    2    1    2    0    0 -0.12553330430E+02 -0.48978169127E+01  0.30594043324E+03  0.33076877472E+03  0.12500743548E+03 0.  0.
          2    1    1    2  501    0 -0.77930549343E-01 -0.27966411938E+02 -0.68506391967E+03  0.68563452386E+03  0.00000000000E+00 0. -1.
          1    1    1    2  502    0  0.12631260979E+02  0.32864228851E+02  0.22552953162E+03  0.22826120110E+03  0.00000000000E+00 0. -1.
         22    1    3    3    0    0 -0.64187048489E+02 -0.22066895757E+02  0.20712066431E+03  0.21795847005E+03  0.00000000000E+00 0. -1.
         22    1    3    3    0    0  0.51633718059E+02  0.17169078844E+02  0.98819768935E+02  0.11281030468E+03  0.00000000000E+00 0. -1.
</event>
<event>
 7    1  0.8003216E-006  0.8831155E+02  0.7818608E-02  0.1319001E+00
          2   -1    0    0  502    0  0.00000000000E+00  0.00000000000E+00  0.24535666241E+04  0.24535666241E+04  0.00000000000E+00 0. -1.
          1   -1    0    0  501    0 -0.00000000000E+00 -0.00000000000E+00 -0.20552447896E+04  0.20552447896E+04  0.00000000000E+00 0. -1.
         25    2    1    2    0    0  0.99082761029E+02  0.27761180154E+01 -0.88350572193E+03  0.89779255072E+03  0.12499601223E+03 0.  0.
          2    1    1    2  501    0 -0.43737592048E+02  0.66068969802E+02 -0.11624492317E+04  0.11651464724E+04  0.00000000000E+00 0. -1.
          1    1    1    2  502    0 -0.55345168981E+02 -0.68845087818E+02  0.24442767881E+04  0.24458723906E+04  0.00000000000E+00 0. -1.
         22    1    3    3    0    0  0.94625904822E+02  0.49619505029E+02 -0.49193086329E+03  0.50340056754E+03  0.00000000000E+00 0. -1.
         22    1    3    3    0    0  0.44568562064E+01 -0.46843387013E+02 -0.39157485864E+03  0.39439198317E+03  0.00000000000E+00 0. -1.
</event>
<event>
 7    1  0.6078244E-006  0.3437762E+02  0.7818608E-02  0.1632368E+00
          2   -1    0    0  502    0  0.00000000000E+00  0.00000000000E+00  0.10601808215E+03  0.10601808215E+03  0.00000000000E+00 0. -1.
          1   -1    0    0  501    0 -0.00000000000E+00 -0.00000000000E+00 -0.94421835737E+02  0.94421835737E+02  0.00000000000E+00 0. -1.
         25    2    1    2    0    0 -0.90826985867E+01 -0.16973875573E+02  0.42845105671E+01  0.12654735067E+03  0.12500106826E+03 0.  0.
          2    1    1    2  501    0 -0.20828843089E+02 -0.48476217113E+01 -0.18890155421E+02  0.28533806485E+02  0.00000000000E+00 0. -1.
          1    1    1    2  502    0  0.29911541676E+02  0.21821497284E+02  0.26201891264E+02  0.45358760730E+02  0.00000000000E+00 0. -1.
         22    1    3    3    0    0 -0.57221984519E+02 -0.41876412816E+02  0.11620413958E+02  0.71854182085E+02  0.00000000000E+00 0.  1.
         22    1    3    3    0    0  0.48139285932E+02  0.24902537243E+02 -0.73359033911E+01  0.54693168584E+02  0.00000000000E+00 0.  1.
</event>
<event>
 7    1  0.6078244E-006  0.7667748E+02  0.7818608E-02  0.1392871E+00
          2   -1    0    0  502    0  0.00000000000E+00  0.00000000000E+00  0.73589337141E+03  0.73589337141E+03  0.00000000000E+00 0. -1.
          1   -1    0    0  501    0 -0.00000000000E+00 -0.00000000000E+00 -0.12669109867E+03  0.12669109867E+03  0.00000000000E+00 0. -1.
         25    2    1    2    0    0 -0.39434565023E+01 -0.10315413236E+03  0.20626498948E+03  0.26234485766E+03  0.12499301014E+03 0.  0.
          2    1    1    2  501    0  0.36153666354E+02  0.66435850697E+02 -0.82746376771E+02  0.11210607797E+03  0.00000000000E+00 0. -1.
          1    1    1    2  502    0 -0.32210209852E+02  0.36718281661E+02  0.48568366003E+03  0.48813353444E+03  0.00000000000E+00 0. -1.
         22    1    3    3    0    0  0.12816839008E+02 -0.58404979957E+02  0.10346702815E+02  0.60683336304E+02  0.00000000000E+00 0.  1.
         22    1    3    3    0    0 -0.16760295510E+02 -0.44749152402E+02  0.19591828666E+03  0.20166152136E+03  0.00000000000E+00 0.  1.
</event>
<event>
 7    1  0.6078244E-006  0.9223549E+02  0.7818608E-02  0.1421442E+00
          2   -1    0    0  502    0  0.00000000000E+00  0.00000000000E+00  0.90603649082E+03  0.90603649082E+03  0.00000000000E+00 0. -1.
          1   -1    0    0  501    0 -0.00000000000E+00 -0.00000000000E+00 -0.19741075680E+04  0.19741075680E+04  0.00000000000E+00 0. -1.
         25    2    1    2    0    0 -0.37669563880E+02  0.88457362593E+02  0.51166903883E+03  0.53541926939E+03  0.12499955080E+03 0.  0.
          2    1    1    2  501    0  0.54125836121E+01 -0.92080086096E+02 -0.19604574735E+04  0.19626261855E+04  0.00000000000E+00 0. -1.
          1    1    1    2  502    0  0.32256980267E+02  0.36227235024E+01  0.38071735748E+03  0.38209860402E+03  0.00000000000E+00 0. -1.
         22    1    3    3    0    0 -0.30054623044E+02 -0.14100272929E+02  0.27986046106E+03  0.28182259619E+03  0.00000000000E+00 0.  1.
         22    1    3    3    0    0 -0.76149408360E+01  0.10255763552E+03  0.23180857777E+03  0.25359667320E+03  0.00000000000E+00 0.  1.
</event>
<event>
 7    1  0.6078244E-006  0.1688946E+03  0.7818608E-02  0.1192822E+00
          2   -1    0    0  502    0  0.00000000000E+00  0.00000000000E+00  0.13564625200E+04  0.13564625200E+04  0.00000000000E+00 0. -1.
          1   -1    0    0  501    0 -0.00000000000E+00 -0.00000000000E+00 -0.46811984653E+03  0.46811984653E+03  0.00000000000E+00 0. -1.
         25    2    1    2    0    0 -0.11687817613E+02  0.36376619750E+02  0.20200605698E+03  0.24060706753E+03  0.12500180137E+03 0.  0.
          2    1    1    2  501    0  0.11272218271E+03 -0.14014476723E+03 -0.42591624430E+03  0.46233266531E+03  0.00000000000E+00 0. -1.
          1    1    1    2  502    0 -0.10103436510E+03  0.10376814748E+03  0.11122528608E+04  0.11216426337E+04  0.00000000000E+00 0. -1.
         22    1    3    3    0    0 -0.68116542646E+02  0.27536089556E+02  0.10847306055E+03  0.13101337518E+03  0.00000000000E+00 0. -1.
         22    1    3    3    0    0  0.56428725033E+02  0.88405301940E+01  0.93532996428E+02  0.10959369235E+03  0.00000000000E+00 0. -1.
</event>
<event>
 7    1  0.6078244E-006  0.9624757E+02  0.7818608E-02  0.1290581E+00
          2   -1    0    0  502    0  0.00000000000E+00  0.00000000000E+00  0.34389460142E+03  0.34389460142E+03  0.00000000000E+00 0. -1.
          1   -1    0    0  501    0 -0.00000000000E+00 -0.00000000000E+00 -0.12236731860E+03  0.12236731860E+03  0.00000000000E+00 0. -1.
         25    2    1    2    0    0 -0.85786372604E+02 -0.53898895034E+02  0.16557741698E+03  0.23088204582E+03  0.12500498173E+03 0.  0.
          2    1    1    2  501    0 -0.19433827319E+02  0.92267315103E+02 -0.24571932539E+02  0.97440807413E+02  0.00000000000E+00 0. -1.
          1    1    1    2  502    0  0.10522019992E+03 -0.38368420069E+02  0.80521798373E+02  0.13793906678E+03  0.00000000000E+00 0. -1.
         22    1    3    3    0    0 -0.80651278777E+02 -0.83163637925E+02  0.81323426070E+02  0.14154264046E+03  0.00000000000E+00 0.  1.
         22    1    3    3    0    0 -0.51350938275E+01  0.29264742891E+02  0.84253990914E+02  0.89339405360E+02  0.00000000000E+00 0.  1.
</event>
<event>
 7    1  0.6078244E-006  0.8331108E+02  0.7818608E-02  0.1346863E+00
          2   -1    0    0  502    0  0.00000000000E+00  0.00000000000E+00  0.54932158900E+03  0.54932158900E+03  0.00000000000E+00 0. -1.
          1   -1    0    0  501    0 -0.00000000000E+00 -0.00000000000E+00 -0.42786671081E+03  0.42786671081E+03  0.00000000000E+00 0. -1.
         25    2    1    2    0    0  0.47871037579E+01 -0.13451929913E+03  0.13051868520E+03  0.22534133921E+03  0.12500093507E+03 0.  0.
          2    1    1    2  501    0 -0.29106902426E+02  0.59016989591E+02 -0.37330914949E+03  0.37906455641E+03  0.00000000000E+00 0. -1.
          1    1    1    2  502    0  0.24319798668E+02  0.75502309540E+02  0.36424534248E+03  0.37278240419E+03  0.00000000000E+00 0. -1.
         22    1    3    3    0    0 -0.29261844847E+02 -0.12309677069E+03  0.13948829062E+03  0.18832433125E+03  0.00000000000E+00 0. -1.
         22    1    3    3    0    0  0.34048948605E+02 -0.11422528443E+02 -0.89696054244E+01  0.37017007964E+02  0.00000000000E+00 0. -1.
</event>
<event>
 7    1  0.6078244E-006  0.8681272E+02  0.7818608E-02  0.1384164E+00
          2   -1    0    0  502    0  0.00000000000E+00  0.00000000000E+00  0.13099227493E+04  0.13099227493E+04  0.00000000000E+00 0. -1.
          1   -1    0    0  501    0 -0.00000000000E+00 -0.00000000000E+00 -0.24544296482E+03  0.24544296482E+03  0.00000000000E+00 0. -1.
         25    2    1    2    0    0 -0.42879356247E+02 -0.19436232486E+02  0.19811806701E+03  0.23894221975E+03  0.12500483822E+03 0.  0.
          2    1    1    2  501    0  0.64939369437E+02  0.60114421986E+02 -0.21581750215E+03  0.23325535292E+03  0.00000000000E+00 0. -1.
          1    1    1    2  502    0 -0.22060013190E+02 -0.40678189500E+02  0.10821792196E+04  0.10831681415E+04  0.00000000000E+00 0. -1.
         22    1    3    3    0    0 -0.72813133626E+02  0.25009672339E+02  0.91228914799E+02  0.11937315877E+03  0.00000000000E+00 0. -1.
         22    1    3    3    0    0  0.29933777379E+02 -0.44445904825E+02  0.10688915221E+03  0.11956906098E+03  0.00000000000E+00 0. -1.
</event>
<event>
 7    1  0.6078244E-006  0.7982017E+02  0.7818608E-02  0.1413941E+00
          2   -1    0    0  502    0  0.00000000000E+00  0.00000000000E+00  0.22421657005E+04  0.22421657005E+04  0.00000000000E+00 0. -1.
          1   -1    0    0  501    0 -0.00000000000E+00 -0.00000000000E+00 -0.49273791684E+03  0.49273791684E+03  0.00000000000E+00 0. -1.
         25    2    1    2    0    0  0.21804591840E+02  0.61266397430E+02  0.12999100302E+04  0.13075244013E+04  0.12499984616E+03 0.  0.
          2    1    1    2  501    0  0.13933856083E+02 -0.78653787608E+02 -0.48524313968E+03  0.49177380497E+03  0.00000000000E+00 0. -1.
          1    1    1    2  502    0 -0.35738447923E+02  0.17387390179E+02  0.93476089306E+03  0.93560541106E+03  0.00000000000E+00 0. -1.
         22    1    3    3    0    0 -0.17340585514E+02  0.72870903888E+02  0.11408958073E+04  0.11433521364E+04  0.00000000000E+00 0.  1.
         22    1    3    3    0    0  0.39145177354E+02 -0.11604506458E+02  0.15901422290E+03  0.16417226491E+03  0.00000000000E+00 0.  1.
</event>
<event>
 7    1  0.6078244E-006  0.7982480E+02  0.7818608E-02  0.1370985E+00
          2   -1    0    0  502    0  0.00000000000E+00  0.00000000000E+00  0.16860394842E+04  0.16860394842E+04  0.00000000000E+00 0. -1.
          1   -1    0    0  501    0 -0.00000000000E+00 -0.00000000000E+00 -0.74654543245E+03  0.74654543245E+03  0.00000000000E+00 0. -1.
         25    2    1    2    0    0  0.77742147193E+01 -0.12146071798E+03  0.85262041939E+02  0.19417420018E+03  0.12498343808E+03 0.  0.
          2    1    1    2  501    0  0.25836078269E+02  0.49749246380E+02 -0.68993774446E+03  0.69221137067E+03  0.00000000000E+00 0. -1.
          1    1    1    2  502    0 -0.33610292988E+02  0.71711471600E+02  0.15441697543E+04  0.15461993458E+04  0.00000000000E+00 0. -1.
         22    1    3    3    0    0 -0.26135956237E+02 -0.11479170852E+03  0.18741554307E+02  0.11921187194E+03  0.00000000000E+00 0. -1.
         22    1    3    3    0    0  0.33910170956E+02 -0.66690094622E+01  0.66520487631E+02  0.74962328247E+02  0.00000000000E+00 0. -1.
</event>
<event>
 7    1  0.6078244E-006  0.1676791E+03  0.7818608E-02  0.1230596E+00
          2   -1    0    0  502    0  0.00000000000E+00  0.00000000000E+00  0.55654685841E+03  0.55654685841E+03  0.00000000000E+00 0. -1.
          1   -1    0    0  501    0 -0.00000000000E+00 -0.00000000000E+00 -0.86954469063E+03  0.86954469063E+03  0.00000000000E+00 0. -1.
         25    2    1    2    0    0 -0.75341275846E+01  0.24324078218E+03  0.27850680729E+02  0.27499197601E+03  0.12498834050E+03 0.  0.
          2    1    1    2  501    0 -0.40841415596E+02 -0.15851066309E+03 -0.73091310802E+03  0.74901777216E+03  0.00000000000E+00 0. -1.
          1    1    1    2  502    0  0.48375543181E+02 -0.84730119088E+02  0.39006459508E+03  0.40208180087E+03  0.00000000000E+00 0. -1.
         22    1    3    3    0    0 -0.39714749959E+02  0.22704840161E+03  0.17441400870E+01  0.23050223439E+03  0.00000000000E+00 0. -1.
         22    1    3    3    0    0  0.32180622374E+02  0.16192380571E+02  0.26106540642E+02  0.44489741618E+02  0.00000000000E+00 0. -1.
</event>
<event>
 7    1  0.6078244E-006  0.2912877E+02  0.7818608E-02  0.1609067E+00
          2   -1    0    0  502    0  0.00000000000E+00  0.00000000000E+00  0.48961699329E+03  0.48961699329E+03  0.00000000000E+00 0. -1.
          1   -1    0    0  501    0 -0.00000000000E+00 -0.00000000000E+00 -0.79928052899E+03  0.79928052899E+03  0.00000000000E+00 0. -1.
         25    2    1    2    0    0  0.42043002364E+02  0.17040796987E+02  0.17201736610E+03  0.21743817668E+03  0.12502553190E+03 0.  0.
          2    1    1    2  501    0 -0.27936085367E+02  0.82180332407E+01 -0.77558663293E+03  0.77613309820E+03  0.00000000000E+00 0. -1.
          1    1    1    2  502    0 -0.14106916997E+02 -0.25258830227E+02  0.29390573113E+03  0.29532624740E+03  0.00000000000E+00 0. -1.
         22    1    3    3    0    0  0.78084912819E+02  0.37639580575E+02  0.86925791506E+02  0.12276027397E+03  0.00000000000E+00 0.  1.
         22    1    3    3    0    0 -0.36041910455E+02 -0.20598783588E+02  0.85091574598E+02  0.94677902713E+02  0.00000000000E+00 0.  1.
</event>
<event>
 7    1  0.6078244E-006  0.5846107E+02  0.7818608E-02  0.1489633E+00
          2   -1    0    0  502    0  0.00000000000E+00  0.00000000000E+00  0.21565009762E+03  0.21565009762E+03  0.00000000000E+00 0. -1.
          1   -1    0    0  501    0 -0.00000000000E+00 -0.00000000000E+00 -0.12375299279E+04  0.12375299279E+04  0.00000000000E+00 0. -1.
         25    2    1    2    0    0 -0.23406094050E+02  0.18978109908E+02  0.10003293668E+03  0.16291063704E+03  0.12500109338E+03 0.  0.
          2    1    1    2  501    0  0.32689700212E+02 -0.48661445090E+02 -0.12024797246E+04  0.12039078207E+04  0.00000000000E+00 0. -1.
          1    1    1    2  502    0 -0.92836061613E+01  0.29683335182E+02  0.80566957607E+02  0.86361567777E+02  0.00000000000E+00 0. -1.
         22    1    3    3    0    0 -0.56668222040E+02  0.39518913502E+02  0.17019423835E+02  0.71152601507E+02  0.00000000000E+00 0. -1.
         22    1    3    3    0    0  0.33262127990E+02 -0.20540803593E+02  0.83013512841E+02  0.91758035533E+02  0.00000000000E+00 0. -1.
</event>
<event>
 7    1  0.6078244E-006  0.1000824E+03  0.7818608E-02  0.1292090E+00
          2   -1    0    0  502    0  0.00000000000E+00  0.00000000000E+00  0.76494360836E+03  0.76494360836E+03  0.00000000000E+00 0. -1.
          1   -1    0    0  501    0 -0.00000000000E+00 -0.00000000000E+00 -0.16814303088E+04  0.16814303088E+04  0.00000000000E+00 0. -1.
         25    2    1    2    0    0 -0.27816343172E+02  0.64562549116E+02 -0.80181095064E+02  0.16430377889E+03  0.12499860822E+03 0.  0.
          2    1    1    2  501    0  0.87569142034E+02  0.18047102812E+02 -0.15543018408E+04  0.15568713065E+04  0.00000000000E+00 0. -1.
          1    1    1    2  502    0 -0.59752798862E+02 -0.82609651928E+02  0.71799623543E+03  0.72519883180E+03  0.00000000000E+00 0. -1.
         22    1    3    3    0    0  0.40628389531E+02  0.15312989790E+02 -0.65695238704E+02  0.78746543293E+02  0.00000000000E+00 0.  1.
         22    1    3    3    0    0 -0.68444732703E+02  0.49249559326E+02 -0.14485856360E+02  0.85557235597E+02  0.00000000000E+00 0.  1.
</event>
<event>
 7    1  0.6078244E-006  0.1183786E+03  0.7818608E-02  0.1276013E+00
          2   -1    0    0  502    0  0.00000000000E+00  0.00000000000E+00  0.24635926691E+02  0.24635926691E+02  0.00000000000E+00 0. -1.
          1   -1    0    0  501    0 -0.00000000000E+00 -0.00000000000E+00 -0.22324330147E+04  0.22324330147E+04  0.00000000000E+00 0. -1.
         25    2    1    2    0    0  0.10508237590E+03  0.14098910329E+03 -0.11119461127E+04  0.11326815494E+04  0.12499240714E+03 0.  0.
          2    1    1    2  501    0 -0.89443347011E+02 -0.54391052555E+02 -0.93667166592E+03  0.94250321414E+03  0.00000000000E+00 0. -1.
          1    1    1    2  502    0 -0.15639028886E+02 -0.86598050733E+02 -0.15917930941E+03  0.18188417787E+03  0.00000000000E+00 0. -1.
         22    1    3    3    0    0  0.33387804457E+02  0.13488402358E+03 -0.83804940994E+03  0.84949117642E+03  0.00000000000E+00 0. -1.
         22    1    3    3    0    0  0.71694571440E+02  0.61050797105E+01 -0.27389670276E+03  0.28319037300E+03  0.00000000000E+00 0. -1.
</event>
<event>
 7    1  0.6078244E-006  0.1792818E+03  0.7818608E-02  0.1365127E+00
          2   -1    0    0  502    0  0.00000000000E+00  0.00000000000E+00  0.13320063578E+03  0.13320063578E+03  0.00000000000E+00 0. -1.
          1   -1    0    0  501    0 -0.00000000000E+00 -0.00000000000E+00 -0.14863197102E+04  0.14863197102E+04  0.00000000000E+00 0. -1.
         25    2    1    2    0    0 -0.87633947092E+02  0.14254375154E+03 -0.55450656470E+03  0.59253554450E+03  0.12498964523E+03 0.  0.
          2    1    1    2  501    0  0.79753392846E+02 -0.16753429920E+03 -0.90171346264E+03  0.92060605787E+03  0.00000000000E+00 0. -1.
          1    1    1    2  502    0  0.78805542464E+01  0.24990547666E+02  0.10310095289E+03  0.10637874363E+03  0.00000000000E+00 0. -1.
         22    1    3    3    0    0 -0.70936131644E+02  0.11316320341E+03 -0.22764747711E+03  0.26393411908E+03  0.00000000000E+00 0.  1.
         22    1    3    3    0    0 -0.16697815448E+02  0.29380548127E+02 -0.32685908759E+03  0.32860142542E+03  0.00000000000E+00 0.  1.
</event>
<event>
 7    1  0.6078244E-006  0.1493040E+03  0.7818608E-02  0.1356318E+00
          2   -1    0    0  502    0  0.00000000000E+00  0.00000000000E+00  0.32484076585E+03  0.32484076585E+03  0.00000000000E+00 0. -1.
          1   -1    0    0  501    0 -0.00000000000E+00 -0.00000000000E+00 -0.22478572185E+03  0.22478572185E+03  0.00000000000E+00 0. -1.
         25    2    1    2    0    0  0.61088188949E+01  0.14935599576E+03  0.67648987607E+02  0.20626774585E+03  0.12500186525E+03 0.  0.
          2    1    1    2  501    0  0.27718939064E+02 -0.14748414446E+03 -0.11692022413E+03  0.19023735506E+03  0.00000000000E+00 0. -1.
          1    1    1    2  502    0 -0.33827757959E+02 -0.18718512997E+01  0.14932628053E+03  0.15312138679E+03  0.00000000000E+00 0. -1.
         22    1    3    3    0    0  0.46583461754E+02  0.13547328877E+03  0.76748045330E+02  0.16252167038E+03  0.00000000000E+00 0.  1.
         22    1    3    3    0    0 -0.40474642859E+02  0.13882706987E+02 -0.90990577232E+01  0.43746075473E+02  0.00000000000E+00 0.  1.
</event>
<event>
 7    1  0.6078244E-006  0.7288173E+02  0.7818608E-02  0.1370651E+00
          2   -1    0    0  502    0  0.00000000000E+00  0.00000000000E+00  0.12163663343E+04  0.12163663343E+04  0.00000000000E+00 0. -1.
          1   -1    0    0  501    0 -0.00000000000E+00 -0.00000000000E+00 -0.23019470409E+04  0.23019470409E+04  0.00000000000E+00 0. -1.
         25    2    1    2    0    0  0.29374930646E+02 -0.46829976209E+02 -0.10326720566E+03  0.17126155918E+03  0.12494187714E+03 0.  0.
          2    1    1    2  501    0 -0.58038073671E+02 -0.20548570311E+02 -0.21631106008E+04  0.21639866296E+04  0.00000000000E+00 0. -1.
          1    1    1    2  502    0  0.28663143025E+02  0.67378546520E+02  0.11807970999E+04  0.11830651865E+04  0.00000000000E+00 0. -1.
         22    1    3    3    0    0 -0.25029005346E+02  0.22177886824E+01 -0.94151936144E+02  0.97447199934E+02  0.00000000000E+00 0. -1.
         22    1    3    3    0    0  0.54403935991E+02 -0.49047764891E+02 -0.91152695190E+01  0.73814359244E+02  0.00000000000E+00 0. -1.
</event>
<event>
 7    1  0.6078244E-006  0.5877835E+02  0.7818608E-02  0.1512931E+00
          2   -1    0    0  502    0  0.00000000000E+00  0.00000000000E+00  0.39634298066E+02  0.39634298066E+02  0.00000000000E+00 0. -1.
          1   -1    0    0  501    0 -0.00000000000E+00 -0.00000000000E+00 -0.88982980964E+03  0.88982980964E+03  0.00000000000E+00 0. -1.
         25    2    1    2    0    0  0.19584179415E+02  0.29382248630E+02 -0.60878565459E+03  0.62248856607E+03  0.12500074016E+03 0.  0.
          2    1    1    2  501    0  0.25929058984E+01  0.26236715245E+02 -0.24554431459E+03  0.24695566164E+03  0.00000000000E+00 0. -1.
          1    1    1    2  502    0 -0.22177085314E+02 -0.55618963875E+02  0.41344576008E+01  0.60019880000E+02  0.00000000000E+00 0. -1.
         22    1    3    3    0    0  0.38127056271E+02 -0.38758195810E+02 -0.18368210308E+03  0.19155935152E+03  0.00000000000E+00 0.  1.
         22    1    3    3    0    0 -0.18542876856E+02  0.68140444440E+02 -0.42510355151E+03  0.43092921455E+03  0.00000000000E+00 0.  1.
</event>
<event>
 7    1  0.6078244E-006  0.3909372E+02  0.7818608E-02  0.1551460E+00
          2   -1    0    0  502    0  0.00000000000E+00  0.00000000000E+00  0.16933565775E+04  0.16933565775E+04  0.00000000000E+00 0. -1.
          1   -1    0    0  501    0 -0.00000000000E+00 -0.00000000000E+00 -0.81041403269E+02  0.81041403269E+02  0.00000000000E+00 0. -1.
         25    2    1    2    0    0  0.36001412370E+02 -0.21981726973E+02  0.94386336160E+03  0.95303801740E+03  0.12499647687E+03 0.  0.
          2    1    1    2  501    0 -0.25846640032E+02 -0.16685941544E+02 -0.72798553209E+02  0.79032264269E+02  0.00000000000E+00 0. -1.
          1    1    1    2  502    0 -0.10154772338E+02  0.38667668517E+02  0.74125036586E+03  0.74232769912E+03  0.00000000000E+00 0. -1.
         22    1    3    3    0    0 -0.32194480930E+02  0.31549908275E+02  0.34468939696E+03  0.34762431113E+03  0.00000000000E+00 0. -1.
         22    1    3    3    0    0  0.68195893300E+02 -0.53531635249E+02  0.59917396464E+03  0.60541370627E+03  0.00000000000E+00 0. -1.
</event>
<event>
 7    1  0.6078244E-006  0.3831213E+02  0.7818608E-02  0.1621838E+00
          2   -1    0    0  502    0  0.00000000000E+00  0.00000000000E+00  0.48370356153E+03  0.48370356153E+03  0.00000000000E+00 0. -1.
          1   -1    0    0  501    0 -0.00000000000E+00 -0.00000000000E+00 -0.35998243568E+03  0.35998243568E+03  0.00000000000E+00 0. -1.
         25    2    1    2    0    0  0.17813628920E+02 -0.14725537749E+02 -0.10132411018E+02  0.12754628777E+03  0.12502488926E+03 0.  0.
          2    1    1    2  501    0 -0.17943386078E+01 -0.20321246028E+02 -0.28991043733E+03  0.29062731180E+03  0.00000000000E+00 0. -1.
          1    1    1    2  502    0 -0.16019290312E+02  0.35046783776E+02  0.42376397420E+03  0.42551239764E+03  0.00000000000E+00 0. -1.
         22    1    3    3    0    0 -0.15852845700E+02  0.50484765091E+02  0.29664858596E+01  0.52998342063E+02  0.00000000000E+00 0.  1.
         22    1    3    3    0    0  0.33666474619E+02 -0.65210302840E+02 -0.13098896878E+02  0.74547945707E+02  0.00000000000E+00 0.  1.
</event>
<event>
 7    1  0.6078244E-006  0.1566836E+03  0.7818608E-02  0.1277388E+00
          2   -1    0    0  502    0  0.00000000000E+00  0.00000000000E+00  0.10641655793E+04  0.10641655793E+04  0.00000000000E+00 0. -1.
          1   -1    0    0  501    0 -0.00000000000E+00 -0.00000000000E+00 -0.13321337417E+04  0.13321337417E+04  0.00000000000E+00 0. -1.
         25    2    1    2    0    0  0.87886882314E+02  0.15970721911E+03 -0.43953705307E+03  0.49198408993E+03  0.12500009522E+03 0.  0.
          2    1    1    2  501    0 -0.22903810180E+02 -0.15060681657E+03 -0.85862469974E+03  0.87203404333E+03  0.00000000000E+00 0. -1.
          1    1    1    2  502    0 -0.64983072133E+02 -0.91004025381E+01  0.10301935904E+04  0.10322811878E+04  0.00000000000E+00 0. -1.
         22    1    3    3    0    0  0.97091841956E+02  0.58312326370E+02 -0.17415946630E+03  0.20774665553E+03  0.00000000000E+00 0.  1.
         22    1    3    3    0    0 -0.92049596426E+01  0.10139489274E+03 -0.26537758677E+03  0.28423743440E+03  0.00000000000E+00 0.  1.
</event>
<event>
 7    1  0.6078244E-006  0.4029151E+02  0.7818608E-02  0.1528811E+00
          2   -1    0    0  502    0  0.00000000000E+00  0.00000000000E+00  0.12422188491E+03  0.12422188491E+03  0.00000000000E+00 0. -1.
          1   -1    0    0  501    0 -0.00000000000E+00 -0.00000000000E+00 -0.99661924576E+03  0.99661924576E+03  0.00000000000E+00 0. -1.
         25    2    1    2    0    0 -0.14455344415E+01 -0.34986916291E+02 -0.36286087361E+03  0.38536290511E+03  0.12494151095E+03 0.  0.
          2    1    1    2  501    0 -0.32033941967E+02  0.26288282141E+02 -0.61915051011E+03  0.62053573739E+03  0.00000000000E+00 0. -1.
          1    1    1    2  502    0  0.33479476409E+02  0.86986341504E+01  0.10961402287E+03  0.11494248817E+03  0.00000000000E+00 0. -1.
         22    1    3    3    0    0  0.30392925446E+02 -0.43281448339E+02 -0.34274115013E+03  0.34679750530E+03  0.00000000000E+00 0.  1.
         22    1    3    3    0    0 -0.31838459887E+02  0.82945320482E+01 -0.20119723478E+02  0.38565399813E+02  0.00000000000E+00 0.  1.
</event>
<event>
 7    1  0.6078244E-006  0.1300025E+03  0.7818608E-02  0.1403890E+00
          2   -1    0    0  502    0  0.00000000000E+00  0.00000000000E+00  0.67775153354E+03  0.67775153354E+03  0.00000000000E+00 0. -1.
          1   -1    0    0  501    0 -0.00000000000E+00 -0.00000000000E+00 -0.63679204261E+03  0.63679204261E+03  0.00000000000E+00 0. -1.
         25    2    1    2    0    0 -0.77611658442E+02  0.73074265465E+02  0.23397042960E+01  0.16429589895E+03  0.12499700155E+03 0.  0.
          2    1    1    2  501    0 -0.13358089485E+02  0.22766939657E+02 -0.54814886260E+03  0.54878406287E+03  0.00000000000E+00 0. -1.
          1    1    1    2  502    0  0.90969747927E+02 -0.95841205122E+02  0.58676864923E+03  0.60146361432E+03  0.00000000000E+00 0. -1.
         22    1    3    3    0    0 -0.98214175114E+02  0.12221412956E+02 -0.76981449920E+01  0.99270582573E+02  0.00000000000E+00 0. -1.
         22    1    3    3    0    0  0.20602516672E+02  0.60852852509E+02  0.10037849288E+02  0.65025316377E+02  0.00000000000E+00 0. -1.
</event>
<event>
 7    1  0.6078244E-006  0.4314251E+02  0.7818608E-02  0.1563766E+00
          2   -1    0    0  502    0  0.00000000000E+00  0.00000000000E+00  0.55254909414E+03  0.55254909414E+03  0.00000000000E+00 0. -1.
          1   -1    0    0  501    0 -0.00000000000E+00 -0.00000000000E+00 -0.11404426593E+04  0.11404426593E+04  0.00000000000E+00 0. -1.
         25    2    1    2    0    0 -0.10797791620E+02 -0.19603493689E+02  0.14932377277E+03  0.19601949505E+03  0.12500065622E+03 0.  0.
          2    1    1    2  501    0  0.40969646676E+00  0.43197266266E+02 -0.11162391495E+04  0.11170747560E+04  0.00000000000E+00 0. -1.
          1    1    1    2  502    0  0.10388095153E+02 -0.23593772577E+02  0.37902181159E+03  0.37989750235E+03  0.00000000000E+00 0. -1.
         22    1    3    3    0    0  0.33067036652E+01 -0.54772262097E+02  0.15622538669E+02  0.57052595899E+02  0.00000000000E+00 0. -1.
         22    1    3    3    0    0 -0.14104495285E+02  0.35168768408E+02  0.13370123410E+03  0.13896689915E+03  0.00000000000E+00 0. -1.
</event>
<event>
 7    1  0.6078244E-006  0.1025760E+03  0.7818608E-02  0.1384553E+00
          2   -1    0    0  502    0  0.00000000000E+00  0.00000000000E+00  0.11584632732E+04  0.11584632732E+04  0.00000000000E+00 0. -1.
          1   -1    0    0  501    0 -0.00000000000E+00 -0.00000000000E+00 -0.44856029360E+03  0.44856029360E+03  0.00000000000E+00 0. -1.
         25    2    1    2    0    0 -0.85163242505E+02 -0.22786483266E+02 -0.39673015501E+02  0.15801785142E+03  0.12499476595E+03 0.  0.
          2    1    1    2  501    0  0.85131373180E+02  0.61826792738E+02 -0.34144429491E+03  0.35728715276E+03  0.00000000000E+00 0. -1.
          1    1    1    2  502    0  0.31869324662E-01 -0.39040309472E+02  0.10910202900E+04  0.10917185627E+04  0.00000000000E+00 0. -1.
         22    1    3    3    0    0 -0.94566869004E+02 -0.52703382029E+01  0.18533405368E+02  0.96509876658E+02  0.00000000000E+00 0.  1.
         22    1    3    3    0    0  0.94036264990E+01 -0.17516145063E+02 -0.58206420869E+02  0.61507974764E+02  0.00000000000E+00 0.  1.
</event>
<event>
 7    1  0.6078244E-006  0.1367818E+03  0.7818608E-02  0.1378354E+00
          2   -1    0    0  502    0  0.00000000000E+00  0.00000000000E+00  0.80237593506E+02  0.80237593506E+02  0.00000000000E+00 0. -1.
          1   -1    0    0  501    0 -0.00000000000E+00 -0.00000000000E+00 -0.19438242242E+04  0.19438242242E+04  0.00000000000E+00 0. -1.
         25    2    1    2    0    0 -0.15362103819E+03  0.63703491027E+02 -0.10292515777E+03  0.23211105806E+03  0.12499758809E+03 0.  0.
          2    1    1    2  501    0  0.12449430896E+03 -0.53713678775E+02 -0.17555007082E+04  0.17607290333E+04  0.00000000000E+00 0. -1.
          1    1    1    2  502    0  0.29126729226E+02 -0.99898122525E+01 -0.51607647505E+01  0.31221726362E+02  0.00000000000E+00 0. -1.
         22    1    3    3    0    0 -0.13387322065E+03  0.97320981152E+02 -0.99160845986E+02  0.19294114635E+03  0.00000000000E+00 0. -1.
         22    1    3    3    0    0 -0.19747817538E+02 -0.33617490125E+02 -0.37643117819E+01  0.39169911705E+02  0.00000000000E+00 0. -1.
</event>
<event>
 7    1  0.6078244E-006  0.8730116E+02  0.7818608E-02  0.1422138E+00
          2   -1    0    0  502    0  0.00000000000E+00  0.00000000000E+00  0.25040322679E+03  0.25040322679E+03  0.00000000000E+00 0. -1.
          1   -1    0    0  501    0 -0.00000000000E+00 -0.00000000000E+00 -0.15022811557E+03  0.15022811557E+03  0.00000000000E+00 0. -1.
         25    2    1    2    0    0  0.16739576504E+02 -0.55289465292E+02 -0.12022184218E+02  0.13822306768E+03  0.12499578046E+03 0.  0.
          2    1    1    2  501    0  0.11854928035E+02 -0.31985556636E+02 -0.58989154767E+02  0.68142024714E+02  0.00000000000E+00 0. -1.
          1    1    1    2  502    0 -0.28594504539E+02  0.87275021928E+02  0.17118645020E+03  0.19426624996E+03  0.00000000000E+00 0. -1.
         22    1    3    3    0    0  0.63133837183E+02 -0.64166269230E+02 -0.13153623493E+02  0.90973673749E+02  0.00000000000E+00 0.  1.
         22    1    3    3    0    0 -0.46394260679E+02  0.88768039374E+01  0.11314392752E+01  0.47249393932E+02  0.00000000000E+00 0.  1.
</event>
<event>
 7    1  0.6078244E-006  0.7321016E+02  0.7818608E-02  0.1476570E+00
          2   -1    0    0  502    0  0.00000000000E+00  0.00000000000E+00  0.11187167677E+03  0.11187167677E+03  0.00000000000E+00 0. -1.
          1   -1    0    0  501    0 -0.00000000000E+00 -0.00000000000E+00 -0.13266733907E+04  0.13266733907E+04  0.00000000000E+00 0. -1.
         25    2    1    2    0    0  0.37242140123E+02  0.89103442139E+02 -0.40411584532E+03  0.43390461634E+03  0.12504878745E+03 0.  0.
          2    1    1    2  501    0 -0.19727045115E+02 -0.18763549149E+02 -0.89388124763E+03  0.89429576313E+03  0.00000000000E+00 0. -1.
          1    1    1    2  502    0 -0.17515095009E+02 -0.70339892990E+02  0.83195378971E+02  0.11034468805E+03  0.00000000000E+00 0. -1.
         22    1    3    3    0    0  0.61113447213E+02  0.10747226916E+03 -0.35869765738E+03  0.37940631450E+03  0.00000000000E+00 0. -1.
         22    1    3    3    0    0 -0.23871307089E+02 -0.18368827026E+02 -0.45418187934E+02  0.54498301842E+02  0.00000000000E+00 0. -1.
</event>
<event>
 7    1  0.6078244E-006  0.8893083E+02  0.7818608E-02  0.1464332E+00
          2   -1    0    0  502    0  0.00000000000E+00  0.00000000000E+00  0.74531079949E+03  0.74531079949E+03  0.00000000000E+00 0. -1.
          1   -1    0    0  501    0 -0.00000000000E+00 -0.00000000000E+00 -0.71519728929E+03  0.71519728929E+03  0.00000000000E+00 0. -1.
         25    2    1    2    0    0  0.23722240094E+02  0.97571918673E+02 -0.57460543060E+01  0.16044062613E+03  0.12500061354E+03 0.  0.
          2    1    1    2  501    0  0.16106534022E+02 -0.18414582687E+02 -0.62892621614E+03  0.62940186100E+03  0.00000000000E+00 0. -1.
          1    1    1    2  502    0 -0.39828774116E+02 -0.79157335986E+02  0.66478578064E+03  0.67066560165E+03  0.00000000000E+00 0. -1.
         22    1    3    3    0    0 -0.77176007726E+01  0.96534340936E+02 -0.47740934344E+02  0.10797053836E+03  0.00000000000E+00 0.  1.
         22    1    3    3    0    0  0.31439840866E+02  0.10375777368E+01  0.41994880038E+02  0.52470087771E+02  0.00000000000E+00 0.  1.
</event>
<event>
 7    1  0.6078244E-006  0.6181157E+02  0.7818608E-02  0.1463348E+00
          2   -1    0    0  502    0  0.00000000000E+00  0.00000000000E+00  0.87438997377E+02  0.87438997377E+02  0.00000000000E+00 0. -1.
          1   -1    0    0  501    0 -0.00000000000E+00 -0.00000000000E+00 -0.71965811119E+03  0.71965811119E+03  0.00000000000E+00 0. -1.
         25    2    1    2    0    0  0.64807246714E+02  0.38225599300E+02 -0.14227861330E+03  0.20378870290E+03  0.12500182382E+03 0.  0.
          2    1    1    2  501    0 -0.36129400156E+01 -0.35264737206E+02 -0.52930204058E+03  0.53048779929E+03  0.00000000000E+00 0. -1.
          1    1    1    2  502    0 -0.61194306699E+02 -0.29608620934E+01  0.39361540072E+02  0.72820606379E+02  0.00000000000E+00 0. -1.
         22    1    3    3    0    0  0.98388622113E+02  0.92361253462E+01 -0.11534981303E+03  0.15189208781E+03  0.00000000000E+00 0.  1.
         22    1    3    3    0    0 -0.33581375399E+02  0.28989473954E+02 -0.26928800270E+02  0.51896615090E+02  0.00000000000E+00 0.  1.
</event>
<event>
 7    1  0.6078244E-006  0.8474737E+02  0.7818608E-02  0.1455201E+00
          2   -1    0    0  502    0  0.00000000000E+00  0.00000000000E+00  0.55741466781E+03  0.55741466781E+03  0.00000000000E+00 0. -1.
          1   -1    0    0  501    0 -0.00000000000E+00 -0.00000000000E+00 -0.77160203825E+02  0.77160203825E+02  0.00000000000E+00 0. -1.
         25    2    1    2    0    0  0.82208416897E+02 -0.17587298572E+02  0.80574388602E+02  0.17083012692E+03  0.12499265293E+03 0.  0.
          2    1    1    2  501    0 -0.85938255934E+02 -0.95913709652E+01  0.27766074408E+02  0.90820334276E+02  0.00000000000E+00 0. -1.
          1    1    1    2  502    0  0.37298390364E+01  0.27178669538E+02  0.37191400097E+03  0.37292441043E+03  0.00000000000E+00 0. -1.
         22    1    3    3    0    0  0.75559061260E+02  0.28553704993E+02  0.92407602954E+02  0.12273406573E+03  0.00000000000E+00 0. -1.
         22    1    3    3    0    0  0.66493556379E+01 -0.46141003565E+02 -0.11833214352E+02  0.48096061193E+02  0.00000000000E+00 0. -1.
</event>
<event>
 7    1  0.6078244E-006  0.7870987E+02  0.7818608E-02  0.1395959E+00
          2   -1    0    0  502    0  0.00000000000E+00  0.00000000000E+00  0.11490704222E+04  0.11490704222E+04  0.00000000000E+00 0. -1.
          1   -1    0    0  501    0 -0.00000000000E+00 -0.00000000000E+00 -0.56010167321E+02  0.56010167321E+02  0.00000000000E+00 0. -1.
         25    2    1    2    0    0  0.21353596658E+02 -0.70593636648E+02  0.58767994894E+03  0.60533556447E+03  0.12499594235E+03 0.  0.
          2    1    1    2  501    0 -0.62626766715E+02  0.49339726302E+02 -0.11702794406E+02  0.80582106560E+02  0.00000000000E+00 0. -1.
          1    1    1    2  502    0  0.41273170058E+02  0.21253910345E+02  0.51708310030E+03  0.51916291845E+03  0.00000000000E+00 0. -1.
         22    1    3    3    0    0 -0.11237328101E+02  0.22901924052E+02  0.30020932999E+03  0.30129125026E+03  0.00000000000E+00 0. -1.
         22    1    3    3    0    0  0.32590924759E+02 -0.93495560700E+02  0.28747061894E+03  0.30404431421E+03  0.00000000000E+00 0. -1.
</event>
<event>
 7    1  0.6078244E-006  0.2875476E+03  0.7818608E-02  0.1182446E+00
          2   -1    0    0  502    0  0.00000000000E+00  0.00000000000E+00  0.25350309948E+03  0.25350309948E+03  0.00000000000E+00 0. -1.
          1   -1    0    0  501    0 -0.00000000000E+00 -0.00000000000E+00 -0.12831909830E+04  0.12831909830E+04  0.00000000000E+00 0. -1.
         25    2    1    2    0    0  0.17546164567E+03  0.23519130663E+03 -0.51903688083E+03  0.60920109934E+03  0.12499982385E+03 0.  0.
          2    1    1    2  501    0 -0.89122075941E+02 -0.27587462319E+03 -0.67657679881E+03  0.73607453212E+03  0.00000000000E+00 0. -1.
          1    1    1    2  502    0 -0.86339569733E+02  0.40683316560E+02  0.16592579615E+03  0.19141845098E+03  0.00000000000E+00 0. -1.
         22    1    3    3    0    0  0.86701986423E+02  0.29219080742E+02 -0.19149500561E+03  0.21222941903E+03  0.00000000000E+00 0.  1.
         22    1    3    3    0    0  0.88759659252E+02  0.20597222588E+03 -0.32754187522E+03  0.39697168031E+03  0.00000000000E+00 0.  1.
</event>
<event>
 7    1  0.6078244E-006  0.4670288E+02  0.7818608E-02  0.1550950E+00
          2   -1    0    0  502    0  0.00000000000E+00  0.00000000000E+00  0.44180605535E+02  0.44180605535E+02  0.00000000000E+00 0. -1.
          1   -1    0    0  501    0 -0.00000000000E+00 -0.00000000000E+00 -0.32974384909E+03  0.32974384909E+03  0.00000000000E+00 0. -1.
         25    2    1    2    0    0  0.21613577682E+02  0.40097397704E+02 -0.21571476645E+03  0.25344214661E+03  0.12500045270E+03 0.  0.
          2    1    1    2  501    0 -0.42334723821E+02 -0.24664704622E+02 -0.79095042551E+02  0.93040863341E+02  0.00000000000E+00 0. -1.
          1    1    1    2  502    0  0.20721146139E+02 -0.15432693082E+02  0.92465654416E+01  0.27441444669E+02  0.00000000000E+00 0. -1.
         22    1    3    3    0    0  0.28084652229E+02 -0.41283053280E+02 -0.64168651096E+02  0.81305928212E+02  0.00000000000E+00 0.  1.
         22    1    3    3    0    0 -0.64710745468E+01  0.81380450984E+02 -0.15154611535E+03  0.17213621840E+03  0.00000000000E+00 0.  1.
</event>
<event>
 7    1  0.6078244E-006  0.5165300E+02  0.7818608E-02  0.1525774E+00
          2   -1    0    0  502    0  0.00000000000E+00  0.00000000000E+00  0.66203216603E+03  0.66203216603E+03  0.00000000000E+00 0. -1.
          1   -1    0    0  501    0 -0.00000000000E+00 -0.00000000000E+00 -0.32000912950E+03  0.32000912950E+03  0.00000000000E+00 0. -1.
         25    2    1    2    0    0 -0.17423536692E+02 -0.50308172239E+02 -0.15577273815E+03  0.20669999186E+03  0.12500099544E+03 0.  0.
          2    1    1    2  501    0 -0.10078729288E+02  0.51554901954E+02 -0.13349074796E+03  0.14345476113E+03  0.00000000000E+00 0. -1.
          1    1    1    2  502    0  0.27502265980E+02 -0.12467297154E+01  0.63128652264E+03  0.63188654254E+03  0.00000000000E+00 0. -1.
         22    1    3    3    0    0 -0.50386789972E+02  0.49041132452E+01 -0.12609521335E+03  0.13587818722E+03  0.00000000000E+00 0. -1.
         22    1    3    3    0    0  0.32963253280E+02 -0.55212285484E+02 -0.29677524797E+02  0.70821804646E+02  0.00000000000E+00 0. -1.
</event>
<event>
 7    1  0.6078244E-006  0.7614362E+02  0.7818608E-02  0.1376438E+00
          2   -1    0    0  502    0  0.00000000000E+00  0.00000000000E+00  0.12454413738E+04  0.12454413738E+04  0.00000000000E+00 0. -1.
          1   -1    0    0  501    0 -0.00000000000E+00 -0.00000000000E+00 -0.38389496673E+03  0.38389496673E+03  0.00000000000E+00 0. -1.
         25    2    1    2    0    0  0.10030853958E+03  0.76446732067E+02 -0.87560436367E+02  0.19798281384E+03  0.12499783440E+03 0.  0.
          2    1    1    2  501    0 -0.50407480786E+02 -0.50619694955E+02 -0.23515143789E+03  0.24576302891E+03  0.00000000000E+00 0. -1.
          1    1    1    2  502    0 -0.49901058789E+02 -0.25827037112E+02  0.11842582813E+04  0.11855904977E+04  0.00000000000E+00 0. -1.
         22    1    3    3    0    0  0.41282165961E+02  0.62823094121E+02  0.17064866575E+02  0.77085459411E+02  0.00000000000E+00 0. -1.
         22    1    3    3    0    0  0.59026373614E+02  0.13623637946E+02 -0.10462530294E+03  0.12089735443E+03  0.00000000000E+00 0. -1.
</event>
<event>
 7    1  0.6078244E-006  0.1210304E+03  0.7818608E-02  0.1389959E+00
          2   -1    0    0  502    0  0.00000000000E+00  0.00000000000E+00  0.83350937058E+02  0.83350937058E+02  0.00000000000E+00 0. -1.
          1   -1    0    0  501    0 -0.00000000000E+00 -0.00000000000E+00 -0.45508959518E+03  0.45508959518E+03  0.00000000000E+00 0. -1.
         25    2    1    2    0    0  0.46675347841E+02  0.82960690079E+02 -0.29871636237E+03  0.33751955373E+03  0.12500767899E+03 0.  0.
          2    1    1    2  501    0  0.20538584570E+02  0.24114490426E+02 -0.67284582356E+02  0.74367715626E+02  0.00000000000E+00 0. -1.
          1    1    1    2  502    0 -0.67213932411E+02 -0.10707518051E+03 -0.57377133916E+01  0.12655326288E+03  0.00000000000E+00 0. -1.
         22    1    3    3    0    0 -0.10143472598E+02 -0.21693380269E+02 -0.11440708811E+02  0.26540207270E+02  0.00000000000E+00 0. -1.
         22    1    3    3    0    0  0.56818820439E+02  0.10465407035E+03 -0.28727565356E+03  0.31097934646E+03  0.00000000000E+00 0. -1.
</event>
<event>
 7    1  0.6078244E-006  0.1509331E+03  0.7818608E-02  0.1351294E+00
          2   -1    0    0  502    0  0.00000000000E+00  0.00000000000E+00  0.16507099479E+04  0.16507099479E+04  0.00000000000E+00 0. -1.
          1   -1    0    0  501    0 -0.00000000000E+00 -0.00000000000E+00 -0.28965856004E+04  0.28965856004E+04  0.00000000000E+00 0. -1.
         25    2    1    2    0    0 -0.68913261451E+02  0.14819369954E+03 -0.13966279996E+03  0.24867816038E+03  0.12499887828E+03 0.  0.
          2    1    1    2  501    0  0.33972080191E+02 -0.14669970912E+03 -0.27001255002E+04  0.27043211022E+04  0.00000000000E+00 0. -1.
          1    1    1    2  502    0  0.34941181261E+02 -0.14939904226E+01  0.15939126477E+04  0.15942962857E+04  0.00000000000E+00 0. -1.
         22    1    3    3    0    0 -0.56086051547E+02  0.15059953038E+03 -0.15852937702E+03  0.22573751816E+03  0.00000000000E+00 0.  1.
         22    1    3    3    0    0 -0.12827209904E+02 -0.24058308392E+01  0.18866577052E+02  0.22940642223E+02  0.00000000000E+00 0.  1.
</event>
<event>
 7    1  0.6078244E-006  0.6606875E+02  0.7818608E-02  0.1400659E+00
          2   -1    0    0  502    0  0.00000000000E+00  0.00000000000E+00  0.12985284139E+03  0.12985284139E+03  0.00000000000E+00 0. -1.
          1   -1    0    0  501    0 -0.00000000000E+00 -0.00000000000E+00 -0.42660411769E+03  0.42660411769E+03  0.00000000000E+00 0. -1.
         25    2    1    2    0    0 -0.47743596083E+02  0.92602327250E+02 -0.98423364759E+02  0.19017675321E+03  0.12500158700E+03 0.  0.
          2    1    1    2  501    0  0.50030653988E+02 -0.39370316542E+02 -0.26975715360E+03  0.27716783738E+03  0.00000000000E+00 0. -1.
          1    1    1    2  502    0 -0.22870579046E+01 -0.53232010709E+02  0.71429242053E+02  0.89112368492E+02  0.00000000000E+00 0. -1.
         22    1    3    3    0    0  0.27023943300E+02  0.66419359726E+02 -0.11591494162E+02  0.72637370511E+02  0.00000000000E+00 0.  1.
         22    1    3    3    0    0 -0.74767539384E+02  0.26182967524E+02 -0.86831870597E+02  0.11753938270E+03  0.00000000000E+00 0.  1.
</event>
<event>
 7    1  0.6078244E-006  0.1030119E+03  0.7818608E-02  0.1433482E+00
          2   -1    0    0  502    0  0.00000000000E+00  0.00000000000E+00  0.70110597620E+03  0.70110597620E+03  0.00000000000E+00 0. -1.
          1   -1    0    0  501    0 -0.00000000000E+00 -0.00000000000E+00 -0.15625446255E+04  0.15625446255E+04  0.00000000000E+00 0. -1.
         25    2    1    2    0    0  0.16280370918E+02  0.12677130937E+03  0.17971249675E+03  0.25348479030E+03  0.12498776768E+03 0.  0.
          2    1    1    2  501    0 -0.20934157777E+02 -0.10066284794E+03 -0.15235616199E+04  0.15270269341E+04  0.00000000000E+00 0. -1.
          1    1    1    2  502    0  0.46537868591E+01 -0.26108461439E+02  0.48241047383E+03  0.48313887729E+03  0.00000000000E+00 0. -1.
         22    1    3    3    0    0  0.21229946279E+02  0.84469170444E+02  0.19057196023E+03  0.20953143774E+03  0.00000000000E+00 0.  1.
         22    1    3    3    0    0 -0.49495753614E+01  0.42302138930E+02 -0.10859463486E+02  0.43953352563E+02  0.00000000000E+00 0.  1.
</event>
<event>
 7    1  0.6078244E-006  0.5137420E+02  0.7818608E-02  0.1499991E+00
          2   -1    0    0  502    0  0.00000000000E+00  0.00000000000E+00  0.20336061915E+04  0.20336061915E+04  0.00000000000E+00 0. -1.
          1   -1    0    0  501    0 -0.00000000000E+00 -0.00000000000E+00 -0.35673599983E+03  0.35673599983E+03  0.00000000000E+00 0. -1.
         25    2    1    2    0    0 -0.36030643029E+02  0.16010998627E+02  0.68599496498E+03  0.69840587961E+03  0.12500848521E+03 0.  0.
          2    1    1    2  501    0  0.22715422539E+02 -0.46143555048E+02 -0.34844032216E+03  0.35221566717E+03  0.00000000000E+00 0. -1.
          1    1    1    2  502    0  0.13315220490E+02  0.30132556422E+02  0.13393155489E+04  0.13397206446E+04  0.00000000000E+00 0. -1.
         22    1    3    3    0    0 -0.19383212520E+02  0.65303167981E+02  0.52015257508E+03  0.52459404690E+03  0.00000000000E+00 0. -1.
         22    1    3    3    0    0 -0.16647430508E+02 -0.49292169355E+02  0.16584238990E+03  0.17381183271E+03  0.00000000000E+00 0. -1.
</event>
<event>
 7    1  0.6078244E-006  0.8138556E+02  0.7818608E-02  0.1465885E+00
          2   -1    0    0  502    0  0.00000000000E+00  0.00000000000E+00  0.63648758345E+02  0.63648758345E+02  0.00000000000E+00 0. -1.
          1   -1    0    0  501    0 -0.00000000000E+00 -0.00000000000E+00 -0.51097884464E+03  0.51097884464E+03  0.00000000000E+00 0. -1.
         25    2    1    2    0    0 -0.44922671164E+01 -0.62840143780E+02 -0.36612196472E+03  0.39196616846E+03  0.12499247990E+03 0.  0.
          2    1    1    2  501    0  0.18062567504E+02 -0.19301642970E+02 -0.94699758489E+02  0.98320160822E+02  0.00000000000E+00 0. -1.
          1    1    1    2  502    0 -0.13570300387E+02  0.82141786750E+02  0.13491636918E+02  0.84341273703E+02  0.00000000000E+00 0. -1.
         22    1    3    3    0    0 -0.91434386498E+01 -0.80012952364E+02 -0.36538980806E+03  0.37415957405E+03  0.00000000000E+00 0.  1.
         22    1    3    3    0    0  0.46511715334E+01  0.17172808583E+02 -0.73215666423E+00  0.17806594415E+02  0.00000000000E+00 0.  1.
</event>
<event>
 7    1  0.6078244E-006  0.1916906E+03  0.7818608E-02  0.1158871E+00
          2   -1    0    0  502    0  0.00000000000E+00  0.00000000000E+00  0.27119322812E+03  0.27119322812E+03  0.00000000000E+00 0. -1.
          1   -1    0    0  501    0 -0.00000000000E+00 -0.00000000000E+00 -0.13651996486E+04  0.13651996486E+04  0.00000000000E+00 0. -1.
         25    2    1    2    0    0  0.37227691102E+02 -0.25074259876E+02 -0.75918211851E+02  0.15297977411E+03  0.12499846760E+03 0.  0.
          2    1    1    2  501    0 -0.22868887328E+03  0.15699119288E+02 -0.11984711334E+04  0.12201959354E+04  0.00000000000E+00 0. -1.
          1    1    1    2  502    0  0.19146118218E+03  0.93751405877E+01  0.18038292481E+03  0.26321716719E+03  0.00000000000E+00 0. -1.
         22    1    3    3    0    0  0.33684197124E+02 -0.44240060279E+02 -0.10450725324E+03  0.11837894259E+03  0.00000000000E+00 0.  1.
         22    1    3    3    0    0  0.35434939772E+01  0.19165800403E+02  0.28589041386E+02  0.34600831522E+02  0.00000000000E+00 0.  1.
</event>
<event>
 7    1  0.6078244E-006  0.9621591E+02  0.7818608E-02  0.1479878E+00
          2   -1    0    0  502    0  0.00000000000E+00  0.00000000000E+00  0.10290655224E+04  0.10290655224E+04  0.00000000000E+00 0. -1.
          1   -1    0    0  501    0 -0.00000000000E+00 -0.00000000000E+00 -0.67065801965E+02  0.67065801965E+02  0.00000000000E+00 0. -1.
         25    2    1    2    0    0  0.54074176747E+02  0.60106373275E+02  0.21606969827E+03  0.26238975643E+03  0.12500190827E+03 0.  0.
          2    1    1    2  501    0 -0.61061765811E+02 -0.79097768014E+02  0.13270102687E+02  0.10080224092E+03  0.00000000000E+00 0. -1.
          1    1    1    2  502    0  0.69875890644E+01  0.18991394739E+02  0.73265991951E+03  0.73293932705E+03  0.00000000000E+00 0. -1.
         22    1    3    3    0    0 -0.18174117021E+00  0.87878643978E+02  0.13057384602E+03  0.15739192597E+03  0.00000000000E+00 0.  1.
         22    1    3    3    0    0  0.54255917917E+02 -0.27772270703E+02  0.85495852250E+02  0.10499783046E+03  0.00000000000E+00 0.  1.
</event>
<event>
 7    1  0.6078244E-006  0.5874158E+02  0.7818608E-02  0.1416888E+00
          2   -1    0    0  502    0  0.00000000000E+00  0.00000000000E+00  0.59855779888E+03  0.59855779888E+03  0.00000000000E+00 0. -1.
          1   -1    0    0  501    0 -0.00000000000E+00 -0.00000000000E+00 -0.18105644535E+03  0.18105644535E+03  0.00000000000E+00 0. -1.
         25    2    1    2    0    0 -0.19339623591E+02  0.65229189538E+01 -0.90674357820E+02  0.15576520375E+03  0.12499756006E+03 0.  0.
          2    1    1    2  501    0 -0.24161477174E+02 -0.46932878941E+02 -0.43859271491E+02  0.68630225125E+02  0.00000000000E+00 0. -1.
          1    1    1    2  502    0  0.43501100766E+02  0.40409959987E+02  0.55203498284E+03  0.55521881535E+03  0.00000000000E+00 0. -1.
         22    1    3    3    0    0 -0.12334931227E+02  0.65205592980E+02 -0.37271659374E+02  0.76112393713E+02  0.00000000000E+00 0. -1.
         22    1    3    3    0    0 -0.70046923647E+01 -0.58682674027E+02 -0.53402698446E+02  0.79652810041E+02  0.00000000000E+00 0. -1.
</event>
<event>
 7    1  0.6078244E-006  0.1584344E+03  0.7818608E-02  0.1290661E+00
          2   -1    0    0  502    0  0.00000000000E+00  0.00000000000E+00  0.33668457558E+04  0.33668457558E+04  0.00000000000E+00 0. -1.
          1   -1    0    0  501    0 -0.00000000000E+00 -0.00000000000E+00 -0.43754381941E+03  0.43754381941E+03  0.00000000000E+00 0. -1.
         25    2    1    2    0    0  0.74016890477E+02 -0.10325885151E+03  0.40334946771E+03  0.44097471473E+03  0.12500806150E+03 0.  0.
          2    1    1    2  501    0 -0.45856330686E+02  0.15309089195E+03 -0.40319318753E+03  0.43371000764E+03  0.00000000000E+00 0. -1.
          1    1    1    2  502    0 -0.28160559791E+02 -0.49832040436E+02  0.29291456562E+04  0.29297048528E+04  0.00000000000E+00 0. -1.
         22    1    3    3    0    0  0.86012038780E+02 -0.13592715058E+02  0.17846381010E+03  0.19857533641E+03  0.00000000000E+00 0. -1.
         22    1    3    3    0    0 -0.11995148303E+02 -0.89666136452E+02  0.22488565761E+03  0.24239937832E+03  0.00000000000E+00 0. -1.
</event>
<event>
 7    1  0.6078244E-006  0.5602742E+02  0.7818608E-02  0.1464685E+00
          2   -1    0    0  502    0  0.00000000000E+00  0.00000000000E+00  0.32953289134E+03  0.32953289134E+03  0.00000000000E+00 0. -1.
          1   -1    0    0  501    0 -0.00000000000E+00 -0.00000000000E+00 -0.15296591146E+03  0.15296591146E+03  0.00000000000E+00 0. -1.
         25    2    1    2    0    0 -0.20261368394E+02 -0.67883406200E+01  0.77147677334E+02  0.14843510554E+03  0.12499844727E+03 0.  0.
          2    1    1    2  501    0  0.46480473601E+02  0.35298368031E+02 -0.10815958346E+03  0.12290201262E+03  0.00000000000E+00 0. -1.
          1    1    1    2  502    0 -0.26219105207E+02 -0.28510027411E+02  0.20757888601E+03  0.21116168464E+03  0.00000000000E+00 0. -1.
         22    1    3    3    0    0  0.46204148920E+01  0.50690804595E+02  0.24591204853E+01  0.50960309829E+02  0.00000000000E+00 0.  1.
         22    1    3    3    0    0 -0.24881783286E+02 -0.57479145215E+02  0.74688556849E+02  0.97474795708E+02  0.00000000000E+00 0.  1.
</event>
<event>
 7    1  0.6078244E-006  0.6733150E+02  0.7818608E-02  0.1380656E+00
          2   -1    0    0  502    0  0.00000000000E+00  0.00000000000E+00  0.54007227664E+03  0.54007227664E+03  0.00000000000E+00 0. -1.
          1   -1    0    0  501    0 -0.00000000000E+00 -0.00000000000E+00 -0.22170493530E+03  0.22170493530E+03  0.00000000000E+00 0. -1.
         25    2    1    2    0    0  0.39665389397E+02 -0.73202251923E+02  0.44925063762E+02  0.15676071170E+03  0.12499498621E+03 0.  0.
          2    1    1    2  501    0 -0.65602431750E+02  0.17561542465E+02 -0.15655961215E+03  0.17065461899E+03  0.00000000000E+00 0. -1.
          1    1    1    2  502    0  0.25937042353E+02  0.55640709458E+02  0.43000188973E+03  0.43436188125E+03  0.00000000000E+00 0. -1.
         22    1    3    3    0    0  0.74031328137E+02 -0.26117233762E+02 -0.68412130624E+01  0.78800695690E+02  0.00000000000E+00 0.  1.
         22    1    3    3    0    0 -0.34365938739E+02 -0.47085018161E+02  0.51766276824E+02  0.77960016014E+02  0.00000000000E+00 0.  1.
</event>
<event>
 7    1  0.6078244E-006  0.7811195E+02  0.7818608E-02  0.1389911E+00
          2   -1    0    0  502    0  0.00000000000E+00  0.00000000000E+00  0.15545474016E+04  0.15545474016E+04  0.00000000000E+00 0. -1.
          1   -1    0    0  501    0 -0.00000000000E+00 -0.00000000000E+00 -0.29269621455E+03  0.29269621455E+03  0.00000000000E+00 0. -1.
         25    2    1    2    0    0  0.25585695330E+02  0.67271193701E+02  0.72668069748E+03  0.74085700389E+03  0.12499689128E+03 0.  0.
          2    1    1    2  501    0  0.44061680117E+02 -0.21662112607E+02 -0.28136560774E+03  0.28561737342E+03  0.00000000000E+00 0. -1.
          1    1    1    2  502    0 -0.69647375447E+02 -0.45609081094E+02  0.81653609729E+03  0.82076923880E+03  0.00000000000E+00 0. -1.
         22    1    3    3    0    0 -0.31279284903E+02  0.44217096765E+02  0.57034072174E+03  0.57290669763E+03  0.00000000000E+00 0.  1.
         22    1    3    3    0    0  0.56864980233E+02  0.23054096936E+02  0.15633997573E+03  0.16795030626E+03  0.00000000000E+00 0.  1.
</event>
<event>
 7    1  0.6078244E-006  0.5677325E+02  0.7818608E-02  0.1541180E+00
          2   -1    0    0  502    0  0.00000000000E+00  0.00000000000E+00  0.43755016835E+04  0.43755016835E+04  0.00000000000E+00 0. -1.
          1   -1    0    0  501    0 -0.00000000000E+00 -0.00000000000E+00 -0.15278730151E+03  0.15278730151E+03  0.00000000000E+00 0. -1.
         25    2    1    2    0    0  0.39358262205E+02  0.44903900120E+02  0.36565205346E+03  0.39101421778E+03  0.12500104500E+03 0.  0.
          2    1    1    2  501    0  0.11452987071E+02 -0.19526751473E+02 -0.13898867774E+03  0.14082016004E+03  0.00000000000E+00 0. -1.
          1    1    1    2  502    0 -0.50811249276E+02 -0.25377148647E+02  0.39960510063E+04  0.39964546072E+04  0.00000000000E+00 0. -1.
         22    1    3    3    0    0  0.63966414502E+02  0.58349625304E+02  0.34625887476E+03  0.35691958381E+03  0.00000000000E+00 0. -1.
         22    1    3    3    0    0 -0.24608152296E+02 -0.13445725184E+02  0.19393178707E+02  0.34094633970E+02  0.00000000000E+00 0. -1.
</event>
<event>
 7    1  0.6078244E-006  0.1074785E+03  0.7818608E-02  0.1392950E+00
          2   -1    0    0  502    0  0.00000000000E+00  0.00000000000E+00  0.39850620022E+03  0.39850620022E+03  0.00000000000E+00 0. -1.
          1   -1    0    0  501    0 -0.00000000000E+00 -0.00000000000E+00 -0.70581174010E+03  0.70581174010E+03  0.00000000000E+00 0. -1.
         25    2    1    2    0    0 -0.74882327983E+02  0.10806243382E+03  0.31940451249E+03  0.36732705400E+03  0.12500027742E+03 0.  0.
          2    1    1    2  501    0  0.78159770505E+02 -0.73392886086E+02 -0.67164078144E+03  0.68014469397E+03  0.00000000000E+00 0. -1.
          1    1    1    2  502    0 -0.32774425215E+01 -0.34669547730E+02  0.44930729073E+02  0.56846192347E+02  0.00000000000E+00 0. -1.
         22    1    3    3    0    0 -0.73192084881E+02  0.13036989860E+03  0.30765030642E+03  0.34205570130E+03  0.00000000000E+00 0.  1.
         22    1    3    3    0    0 -0.16902431021E+01 -0.22307464787E+02  0.11754206071E+02  0.25271352701E+02  0.00000000000E+00 0.  1.
</event>
<event>
 7    1  0.6078244E-006  0.6815005E+02  0.7818608E-02  0.1508655E+00
          2   -1    0    0  502    0  0.00000000000E+00  0.00000000000E+00  0.19922210479E+03  0.19922210479E+03  0.00000000000E+00 0. -1.
          1   -1    0    0  501    0 -0.00000000000E+00 -0.00000000000E+00 -0.12280196673E+04  0.12280196673E+04  0.00000000000E+00 0. -1.
         25    2    1    2    0    0  0.78592338892E+02  0.33876716503E+02 -0.69814782805E+03  0.71439440896E+03  0.12499837637E+03 0.  0.
          2    1    1    2  501    0 -0.55230182483E+02 -0.32428070985E+02 -0.51905611286E+03  0.52299254406E+03  0.00000000000E+00 0. -1.
          1    1    1    2  502    0 -0.23362156408E+02 -0.14486455177E+01  0.18840637836E+03  0.18985481910E+03  0.00000000000E+00 0. -1.
         22    1    3    3    0    0  0.76962202684E+02  0.14159563338E+02 -0.18505707023E+03  0.20092235594E+03  0.00000000000E+00 0.  1.
         22    1    3    3    0    0  0.16301362074E+01  0.19717153165E+02 -0.51309075782E+03  0.51347205302E+03  0.00000000000E+00 0.  1.
</event>
<event>
 7    1  0.6078244E-006  0.3626756E+02  0.7818608E-02  0.1545498E+00
          2   -1    0    0  502    0  0.00000000000E+00  0.00000000000E+00  0.10698451457E+04  0.10698451457E+04  0.00000000000E+00 0. -1.
          1   -1    0    0  501    0 -0.00000000000E+00 -0.00000000000E+00 -0.16960215837E+03  0.16960215837E+03  0.00000000000E+00 0. -1.
         25    2    1    2    0    0  0.32418408155E+02 -0.13632548483E+01 -0.13197058235E+03  0.18464572292E+03  0.12499998695E+03 0.  0.
          2    1    1    2  501    0 -0.42220218970E+02 -0.31672613080E+02  0.52371348672E+02  0.74353611014E+02  0.00000000000E+00 0. -1.
          1    1    1    2  502    0  0.98018108150E+01  0.33035867928E+02  0.97984222102E+03  0.98044797015E+03  0.00000000000E+00 0. -1.
         22    1    3    3    0    0  0.39464021717E+02 -0.24599161696E+02 -0.14827667282E+03  0.15539787473E+03  0.00000000000E+00 0.  1.
         22    1    3    3    0    0 -0.70456135625E+01  0.23235906848E+02  0.16306090475E+02  0.29247848195E+02  0.00000000000E+00 0.  1.
</event>
<event>
 7    1  0.6078244E-006  0.4020457E+02  0.7818608E-02  0.1616533E+00
          2   -1    0    0  502    0  0.00000000000E+00  0.00000000000E+00  0.36241179746E+03  0.36241179746E+03  0.00000000000E+00 0. -1.
          1   -1    0    0  501    0 -0.00000000000E+00 -0.00000000000E+00 -0.58332222581E+03  0.58332222581E+03  0.00000000000E+00 0. -1.
         25    2    1    2    0    0 -0.38344769495E+02  0.29843393893E+02  0.22075647551E+03  0.25830983683E+03  0.12501840191E+03 0.  0.
          2    1    1    2  501    0  0.38979127939E+02 -0.97983625763E+01 -0.56300605789E+03  0.56443883774E+03  0.00000000000E+00 0. -1.
          1    1    1    2  502    0 -0.63435844373E+00 -0.20045031317E+02  0.12133915404E+03  0.12298534870E+03  0.00000000000E+00 0. -1.
         22    1    3    3    0    0 -0.16158229028E+02  0.70810031935E+02  0.18748150615E+03  0.20105836002E+03  0.00000000000E+00 0.  1.
         22    1    3    3    0    0 -0.22186540467E+02 -0.40966638042E+02  0.33274969357E+02  0.57251476802E+02  0.00000000000E+00 0.  1.
</event>
<event>
 7    1  0.6078244E-006  0.1516846E+03  0.7818608E-02  0.1350281E+00
          2   -1    0    0  502    0  0.00000000000E+00  0.00000000000E+00  0.38195343672E+03  0.38195343672E+03  0.00000000000E+00 0. -1.
          1   -1    0    0  501    0 -0.00000000000E+00 -0.00000000000E+00 -0.61809083324E+03  0.61809083324E+03  0.00000000000E+00 0. -1.
         25    2    1    2    0    0  0.53738674477E+02  0.11980899434E+03  0.13610665281E+03  0.22669954678E+03  0.12500249323E+03 0.  0.
          2    1    1    2  501    0 -0.34342225479E+02 -0.14906451118E+03 -0.56093395746E+03  0.58141768254E+03  0.00000000000E+00 0. -1.
          1    1    1    2  502    0 -0.19396448998E+02  0.29255516837E+02  0.18868990813E+03  0.19192704064E+03  0.00000000000E+00 0. -1.
         22    1    3    3    0    0  0.65871886484E+02  0.53539538045E+01  0.45885542560E+02  0.80456530290E+02  0.00000000000E+00 0.  1.
         22    1    3    3    0    0 -0.12133212007E+02  0.11445504054E+03  0.90221110246E+02  0.14624301649E+03  0.00000000000E+00 0.  1.
</event>
<event>
 7    1  0.6078244E-006  0.8808296E+02  0.7818608E-02  0.1491117E+00
          2   -1    0    0  502    0  0.00000000000E+00  0.00000000000E+00  0.12055731795E+04  0.12055731795E+04  0.00000000000E+00 0. -1.
          1   -1    0    0  501    0 -0.00000000000E+00 -0.00000000000E+00 -0.24717056810E+03  0.24717056810E+03  0.00000000000E+00 0. -1.
         25    2    1    2    0    0  0.99310088715E+02  0.30248634689E+02  0.35808907872E+03  0.39323031394E+03  0.12499927152E+03 0.  0.
          2    1    1    2  501    0 -0.79835428760E+02 -0.36422694955E+02 -0.22108381138E+03  0.23786206097E+03  0.00000000000E+00 0. -1.
          1    1    1    2  502    0 -0.19474659956E+02  0.61740602662E+01  0.82139734409E+03  0.82165137271E+03  0.00000000000E+00 0. -1.
         22    1    3    3    0    0  0.84837435238E+02  0.64348775702E+02  0.16329154441E+03  0.19494174470E+03  0.00000000000E+00 0. -1.
         22    1    3    3    0    0  0.14472653477E+02 -0.34100141013E+02  0.19479753431E+03  0.19828856924E+03  0.00000000000E+00 0. -1.
</event>
<event>
 7    1  0.6078244E-006  0.1573570E+03  0.7818608E-02  0.1208685E+00
          2   -1    0    0  502    0  0.00000000000E+00  0.00000000000E+00  0.13904558239E+04  0.13904558239E+04  0.00000000000E+00 0. -1.
          1   -1    0    0  501    0 -0.00000000000E+00 -0.00000000000E+00 -0.21523359279E+03  0.21523359279E+03  0.00000000000E+00 0. -1.
         25    2    1    2    0    0  0.37441079068E+02  0.90888424994E+02  0.60585979595E+03  0.62638000358E+03  0.12499310515E+03 0.  0.
          2    1    1    2  501    0 -0.12748800895E+03  0.92239006596E+02 -0.15852084558E+03  0.22336088567E+03  0.00000000000E+00 0. -1.
          1    1    1    2  502    0  0.90046929880E+02 -0.18312743159E+03  0.72788328070E+03  0.75594852741E+03  0.00000000000E+00 0. -1.
         22    1    3    3    0    0  0.25222214689E+02  0.10856267699E+03  0.58791273371E+03  0.59838398827E+03  0.00000000000E+00 0.  1.
         22    1    3    3    0    0  0.12218864379E+02 -0.17674252001E+02  0.17947062233E+02  0.27996015311E+02  0.00000000000E+00 0.  1.
</event>
<event>
 7    1  0.6078244E-006  0.1500200E+03  0.7818608E-02  0.1365442E+00
          2   -1    0    0  502    0  0.00000000000E+00  0.00000000000E+00  0.88914507082E+03  0.88914507082E+03  0.00000000000E+00 0. -1.
          1   -1    0    0  501    0 -0.00000000000E+00 -0.00000000000E+00 -0.15096701589E+03  0.15096701589E+03  0.00000000000E+00 0. -1.
         25    2    1    2    0    0 -0.15557494942E+03 -0.42128667398E+02  0.28830233114E+03  0.35315898884E+03  0.12499859101E+03 0.  0.
          2    1    1    2  501    0  0.87595358076E+01  0.29978947941E+02 -0.10671759618E+03  0.11119402917E+03  0.00000000000E+00 0. -1.
          1    1    1    2  502    0  0.14681541361E+03  0.12149719457E+02  0.55659331998E+03  0.57575906871E+03  0.00000000000E+00 0. -1.
         22    1    3    3    0    0 -0.15721582612E+03 -0.48926719000E+02  0.29843742920E+03  0.34084532997E+03  0.00000000000E+00 0.  1.
         22    1    3    3    0    0  0.16408767041E+01  0.67980516021E+01 -0.10135098062E+02  0.12313658866E+02  0.00000000000E+00 0.  1.
</event>
<event>
 7    1  0.6078244E-006  0.1084194E+03  0.7818608E-02  0.1271153E+00
          2   -1    0    0  502    0  0.00000000000E+00  0.00000000000E+00  0.64318660219E+03  0.64318660219E+03  0.00000000000E+00 0. -1.
          1   -1    0    0  501    0 -0.00000000000E+00 -0.00000000000E+00 -0.13156307110E+04  0.13156307110E+04  0.00000000000E+00 0. -1.
         25    2    1    2    0    0 -0.57219315581E+02 -0.10412410735E+03  0.69405398095E+02  0.18589783481E+03  0.12500006357E+03 0.  0.
          2    1    1    2  501    0 -0.43377637473E+02  0.10007161475E+03 -0.12500718410E+04  0.12548209255E+04  0.00000000000E+00 0. -1.
          1    1    1    2  502    0  0.10059695305E+03  0.40524926077E+01  0.50822233405E+03  0.51809855288E+03  0.00000000000E+00 0. -1.
         22    1    3    3    0    0 -0.80853896902E+02 -0.37925335462E+02  0.73245835569E+02  0.11550167160E+03  0.00000000000E+00 0.  1.
         22    1    3    3    0    0  0.23634581321E+02 -0.66198771892E+02 -0.38404374740E+01  0.70396163207E+02  0.00000000000E+00 0.  1.
</event>
<event>
 7    1  0.6078244E-006  0.9450389E+02  0.7818608E-02  0.1353856E+00
          2   -1    0    0  502    0  0.00000000000E+00  0.00000000000E+00  0.74266443925E+02  0.74266443925E+02  0.00000000000E+00 0. -1.
          1   -1    0    0  501    0 -0.00000000000E+00 -0.00000000000E+00 -0.41400890305E+03  0.41400890305E+03  0.00000000000E+00 0. -1.
         25    2    1    2    0    0  0.61653923580E+02  0.20843094248E+00 -0.23456453433E+03  0.27284900153E+03  0.12499922854E+03 0.  0.
          2    1    1    2  501    0  0.30571038691E+02  0.45302616092E+02 -0.98153893563E+02  0.11234367919E+03  0.00000000000E+00 0. -1.
          1    1    1    2  502    0 -0.92224962271E+02 -0.45511047034E+02 -0.70240312347E+01  0.10308266626E+03  0.00000000000E+00 0. -1.
         22    1    3    3    0    0 -0.33193883427E+02  0.18708420647E+02 -0.37990478618E+02  0.53806276267E+02  0.00000000000E+00 0. -1.
         22    1    3    3    0    0  0.94847807008E+02 -0.18499989704E+02 -0.19657405571E+03  0.21904272527E+03  0.00000000000E+00 0. -1.
</event>
<event>
 7    1  0.6078244E-006  0.3699134E+02  0.7818608E-02  0.1571191E+00
          2   -1    0    0  502    0  0.00000000000E+00  0.00000000000E+00  0.12086337214E+04  0.12086337214E+04  0.00000000000E+00 0. -1.
          1   -1    0    0  501    0 -0.00000000000E+00 -0.00000000000E+00 -0.13914676330E+02  0.13914676330E+02  0.00000000000E+00 0. -1.
         25    2    1    2    0    0 -0.11405706444E+02 -0.62990357779E+02  0.81020920992E+03  0.82229059588E+03  0.12499993965E+03 0.  0.
          2    1    1    2  501    0  0.90662580570E+01  0.34388765268E+02  0.36125512967E+02  0.50693558752E+02  0.00000000000E+00 0. -1.
          1    1    1    2  502    0  0.23394483873E+01  0.28601592510E+02  0.34838432217E+03  0.34956424309E+03  0.00000000000E+00 0. -1.
         22    1    3    3    0    0 -0.38006769566E+02  0.26128557547E+02  0.32398488081E+03  0.32725130870E+03  0.00000000000E+00 0. -1.
         22    1    3    3    0    0  0.26601063122E+02 -0.89118915325E+02  0.48622432911E+03  0.49503928717E+03  0.00000000000E+00 0. -1.
</event>
<event>
 7    1  0.6078244E-006  0.7436539E+02  0.7818608E-02  0.1468251E+00
          2   -1    0    0  502    0  0.00000000000E+00  0.00000000000E+00  0.14697328846E+04  0.14697328846E+04  0.00000000000E+00 0. -1.
          1   -1    0    0  501    0 -0.00000000000E+00 -0.00000000000E+00 -0.68983758839E+02  0.68983758839E+02  0.00000000000E+00 0. -1.
         25    2    1    2    0    0  0.96277655021E+02 -0.24444698467E+02  0.18019901891E+03  0.24075634592E+03  0.12500000618E+03 0.  0.
          2    1    1    2  501    0 -0.28240050574E+02 -0.33865854344E+01 -0.32252874422E+02  0.43002526970E+02  0.00000000000E+00 0. -1.
          1    1    1    2  502    0 -0.68037604447E+02  0.27831283901E+02  0.12528029813E+04  0.12549577706E+04  0.00000000000E+00 0. -1.
         22    1    3    3    0    0 -0.18716871936E+01  0.14804515754E+02 -0.13479598225E+02  0.20109114053E+02  0.00000000000E+00 0.  1.
         22    1    3    3    0    0  0.98149342214E+02 -0.39249214221E+02  0.19367861714E+03  0.22064723186E+03  0.00000000000E+00 0.  1.
</event>
<event>
 7    1  0.6078244E-006  0.1357089E+03  0.7818608E-02  0.1248664E+00
          2   -1    0    0  502    0  0.00000000000E+00  0.00000000000E+00  0.27790610481E+04  0.27790610481E+04  0.00000000000E+00 0. -1.
          1   -1    0    0  501    0 -0.00000000000E+00 -0.00000000000E+00 -0.45253545142E+03  0.45253545142E+03  0.00000000000E+00 0. -1.
         25    2    1    2    0    0  0.20979849982E+03 -0.82094318544E+02  0.19456728029E+03  0.32285398128E+03  0.12499351585E+03 0.  0.
          2    1    1    2  501    0 -0.10985963281E+03  0.73220160211E+02 -0.37614050582E+03  0.39863769378E+03  0.00000000000E+00 0. -1.
          1    1    1    2  502    0 -0.99938867009E+02  0.88741583333E+01  0.25080988222E+04  0.25101048245E+04  0.00000000000E+00 0. -1.
         22    1    3    3    0    0  0.65545154623E+02 -0.48856412063E+02  0.44097403989E+01  0.81869176767E+02  0.00000000000E+00 0. -1.
         22    1    3    3    0    0  0.14425334520E+03 -0.33237906481E+02  0.19015753990E+03  0.24098480452E+03  0.00000000000E+00 0. -1.
</event>
<event>
 7    1  0.6078244E-006  0.3854739E+02  0.7818608E-02  0.1528729E+00
          2   -1    0    0  502    0  0.00000000000E+00  0.00000000000E+00  0.13878998505E+04  0.13878998505E+04  0.00000000000E+00 0. -1.
          1   -1    0    0  501    0 -0.00000000000E+00 -0.00000000000E+00 -0.19028651291E+03  0.19028651291E+03  0.00000000000E+00 0. -1.
         25    2    1    2    0    0 -0.50950860119E+02  0.35314129231E+01  0.14223071492E+03  0.19612017417E+03  0.12500034170E+03 0.  0.
          2    1    1    2  501    0  0.25610522264E+02  0.25549740657E+02 -0.16102932806E+03  0.16504282048E+03  0.00000000000E+00 0. -1.
          1    1    1    2  502    0  0.25340337854E+02 -0.29081153580E+02  0.12164119508E+04  0.12170233688E+04  0.00000000000E+00 0. -1.
         22    1    3    3    0    0 -0.64170122630E+02  0.49111583271E+02  0.58096088447E+02  0.99523402990E+02  0.00000000000E+00 0. -1.
         22    1    3    3    0    0  0.13219262511E+02 -0.45580170348E+02  0.84134626477E+02  0.96596771182E+02  0.00000000000E+00 0. -1.
</event>
<event>
 7    1  0.6078244E-006  0.5468618E+02  0.7818608E-02  0.1541655E+00
          2   -1    0    0  502    0  0.00000000000E+00  0.00000000000E+00  0.28042653167E+02  0.28042653167E+02  0.00000000000E+00 0. -1.
          1   -1    0    0  501    0 -0.00000000000E+00 -0.00000000000E+00 -0.10748213013E+04  0.10748213013E+04  0.00000000000E+00 0. -1.
         25    2    1    2    0    0  0.26970702432E+02 -0.32610320810E+02 -0.43390464096E+03  0.45352992098E+03  0.12500119985E+03 0.  0.
          2    1    1    2  501    0 -0.49752399968E+02  0.27140168135E+02 -0.62171462510E+03  0.62429237148E+03  0.00000000000E+00 0. -1.
          1    1    1    2  502    0  0.22781697536E+02  0.54701526747E+01  0.88406178920E+01  0.25041662038E+02  0.00000000000E+00 0. -1.
         22    1    3    3    0    0  0.63393904328E+01  0.43395828507E+02 -0.24452768863E+03  0.24842941917E+03  0.00000000000E+00 0. -1.
         22    1    3    3    0    0  0.20631311999E+02 -0.76006149317E+02 -0.18937695233E+03  0.20510050181E+03  0.00000000000E+00 0. -1.
</event>
<event>
 7    1  0.6078244E-006  0.9709138E+02  0.7818608E-02  0.1304165E+00
          2   -1    0    0  502    0  0.00000000000E+00  0.00000000000E+00  0.28963874581E+04  0.28963874581E+04  0.00000000000E+00 0. -1.
          1   -1    0    0  501    0 -0.00000000000E+00 -0.00000000000E+00 -0.16225633339E+04  0.16225633339E+04  0.00000000000E+00 0. -1.
         25    2    1    2    0    0 -0.17800069518E+03 -0.15942722802E+01  0.19759261437E+03  0.29386220408E+03  0.12500145818E+03 0.  0.
          2    1    1    2  501    0  0.96045667578E+02  0.10411936541E+02 -0.15723047625E+04  0.15752699594E+04  0.00000000000E+00 0. -1.
          1    1    1    2  502    0  0.81955027601E+02 -0.88176642605E+01  0.26485362724E+04  0.26498186285E+04  0.00000000000E+00 0. -1.
         22    1    3    3    0    0 -0.14981391813E+03  0.50216019798E+02  0.13456984867E+03  0.20754494183E+03  0.00000000000E+00 0.  1.
         22    1    3    3    0    0 -0.28186777050E+02 -0.51810292078E+02  0.63022765696E+02  0.86317262246E+02  0.00000000000E+00 0.  1.
</event>
<event>
 7    1  0.6078244E-006  0.9987823E+02  0.7818608E-02  0.1382963E+00
          2   -1    0    0  502    0  0.00000000000E+00  0.00000000000E+00  0.38303598975E+03  0.38303598975E+03  0.00000000000E+00 0. -1.
          1   -1    0    0  501    0 -0.00000000000E+00 -0.00000000000E+00 -0.13908573236E+04  0.13908573236E+04  0.00000000000E+00 0. -1.
         25    2    1    2    0    0  0.70082011007E+01 -0.60203234189E+02 -0.18914118471E+03  0.23467829604E+03  0.12500388228E+03 0.  0.
          2    1    1    2  501    0  0.27425543250E+01 -0.40522667593E+02 -0.11714823291E+04  0.11721861864E+04  0.00000000000E+00 0. -1.
          1    1    1    2  502    0 -0.97507554257E+01  0.10072590178E+03  0.35280217997E+03  0.36702883090E+03  0.00000000000E+00 0. -1.
         22    1    3    3    0    0  0.51570102828E+02 -0.58746243130E+02 -0.16807991524E+03  0.18536842907E+03  0.00000000000E+00 0. -1.
         22    1    3    3    0    0 -0.44561901728E+02 -0.14569910590E+01 -0.21061269470E+02  0.49309866966E+02  0.00000000000E+00 0. -1.
</event>
<event>
 7    1  0.6078244E-006  0.7502521E+02  0.7818608E-02  0.1418021E+00
          2   -1    0    0  502    0  0.00000000000E+00  0.00000000000E+00  0.23736842873E+03  0.23736842873E+03  0.00000000000E+00 0. -1.
          1   -1    0    0  501    0 -0.00000000000E+00 -0.00000000000E+00 -0.42726427201E+03  0.42726427201E+03  0.00000000000E+00 0. -1.
         25    2    1    2    0    0 -0.34378748986E+02 -0.10305794360E+02  0.13588338498E+03  0.18808917258E+03  0.12500053899E+03 0.  0.
          2    1    1    2  501    0  0.68062559550E+02  0.33628503173E+02 -0.39166690760E+03  0.39895658254E+03  0.00000000000E+00 0. -1.
          1    1    1    2  502    0 -0.33683810564E+02 -0.23322708813E+02  0.65887679351E+02  0.77586945621E+02  0.00000000000E+00 0. -1.
         22    1    3    3    0    0 -0.17089262017E+02 -0.22007561697E+02 -0.17754486259E+02  0.33039331568E+02  0.00000000000E+00 0. -1.
         22    1    3    3    0    0 -0.17289486969E+02  0.11701767337E+02  0.15363787124E+03  0.15504984101E+03  0.00000000000E+00 0. -1.
</event>
<event>
 7    1  0.6078244E-006  0.1105298E+03  0.7818608E-02  0.1408007E+00
          2   -1    0    0  502    0  0.00000000000E+00  0.00000000000E+00  0.11791947795E+04  0.11791947795E+04  0.00000000000E+00 0. -1.
          1   -1    0    0  501    0 -0.00000000000E+00 -0.00000000000E+00 -0.42517497577E+02  0.42517497577E+02  0.00000000000E+00 0. -1.
         25    2    1    2    0    0 -0.39715109822E+02 -0.11204591958E+03  0.36569521610E+03  0.40433802851E+03  0.12499868870E+03 0.  0.
          2    1    1    2  501    0  0.99047898362E+01  0.10818339211E+03  0.10622912270E+03  0.15194202085E+03  0.00000000000E+00 0. -1.
          1    1    1    2  502    0  0.29810319986E+02  0.38625274625E+01  0.66475294312E+03  0.66543222772E+03  0.00000000000E+00 0. -1.
         22    1    3    3    0    0  0.22412030694E+02 -0.10449629848E+03  0.26550423748E+03  0.28620670089E+03  0.00000000000E+00 0. -1.
         22    1    3    3    0    0 -0.62127140516E+02 -0.75496210954E+01  0.10019097861E+03  0.11813132761E+03  0.00000000000E+00 0. -1.
</event>
<event>
 7    1  0.6078244E-006  0.9214088E+02  0.7818608E-02  0.1401192E+00
          2   -1    0    0  502    0  0.00000000000E+00  0.00000000000E+00  0.84874154811E+03  0.84874154811E+03  0.00000000000E+00 0. -1.
          1   -1    0    0  501    0 -0.00000000000E+00 -0.00000000000E+00 -0.18333464720E+03  0.18333464720E+03  0.00000000000E+00 0. -1.
         25    2    1    2    0    0 -0.11765397621E+02 -0.11964991295E+03  0.92241002845E+01  0.17366586732E+03  0.12498089132E+03 0.  0.
          2    1    1    2  501    0  0.24363832534E+02  0.29219262047E+02 -0.94669121195E+02  0.10202746747E+03  0.00000000000E+00 0. -1.
          1    1    1    2  502    0 -0.12598434913E+02  0.90430650901E+02  0.75085192182E+03  0.75638286052E+03  0.00000000000E+00 0. -1.
         22    1    3    3    0    0 -0.53565803445E+02 -0.11524105185E+03 -0.99418479750E+01  0.12747013639E+03  0.00000000000E+00 0. -1.
         22    1    3    3    0    0  0.41800405824E+02 -0.44088610943E+01  0.19165948259E+02  0.46195730927E+02  0.00000000000E+00 0. -1.
</event>
<event>
 7    1  0.6078244E-006  0.1148598E+03  0.7818608E-02  0.1361846E+00
          2   -1    0    0  502    0  0.00000000000E+00  0.00000000000E+00  0.38385436669E+03  0.38385436669E+03  0.00000000000E+00 0. -1.
          1   -1    0    0  501    0 -0.00000000000E+00 -0.00000000000E+00 -0.73533688101E+03  0.73533688101E+03  0.00000000000E+00 0. -1.
         25    2    1    2    0    0 -0.92981270849E+02 -0.43182866279E+02 -0.99946438137E+02  0.19006621677E+03  0.12500239835E+03 0.  0.
          2    1    1    2  501    0 -0.22899030610E+02  0.35253607570E+02 -0.57959164379E+03  0.58111415057E+03  0.00000000000E+00 0. -1.
          1    1    1    2  502    0  0.11588030146E+03  0.79292587088E+01  0.32805556761E+03  0.34801088036E+03  0.00000000000E+00 0. -1.
         22    1    3    3    0    0 -0.10910856961E+03 -0.44988149714E+02 -0.11723746759E+03  0.16635274986E+03  0.00000000000E+00 0.  1.
         22    1    3    3    0    0  0.16127298763E+02  0.18052834347E+01  0.17291029455E+02  0.23713466918E+02  0.00000000000E+00 0.  1.
</event>
<event>
 7    1  0.6078244E-006  0.9598902E+02  0.7818608E-02  0.1293923E+00
          2   -1    0    0  502    0  0.00000000000E+00  0.00000000000E+00  0.95496035565E+03  0.95496035565E+03  0.00000000000E+00 0. -1.
          1   -1    0    0  501    0 -0.00000000000E+00 -0.00000000000E+00 -0.73955553250E+02  0.73955553250E+02  0.00000000000E+00 0. -1.
         25    2    1    2    0    0  0.18981486140E+02 -0.18119886021E+02  0.15281128222E+03  0.19916083409E+03  0.12500049111E+03 0.  0.
          2    1    1    2  501    0 -0.10870476689E+03  0.52231844937E+02  0.29048250476E+02  0.12405117019E+03  0.00000000000E+00 0. -1.
          1    1    1    2  502    0  0.89723280746E+02 -0.34111958915E+02  0.69914526970E+03  0.70570390462E+03  0.00000000000E+00 0. -1.
         22    1    3    3    0    0  0.32201249192E+02  0.12151315327E+02  0.16140137824E+03  0.16503023908E+03  0.00000000000E+00 0.  1.
         22    1    3    3    0    0 -0.13219763051E+02 -0.30271201348E+02 -0.85900960181E+01  0.34130595011E+02  0.00000000000E+00 0.  1.
</event>
<event>
 7    1  0.6078244E-006  0.6781876E+02  0.7818608E-02  0.1468484E+00
          2   -1    0    0  502    0  0.00000000000E+00  0.00000000000E+00  0.13512855692E+04  0.13512855692E+04  0.00000000000E+00 0. -1.
          1   -1    0    0  501    0 -0.00000000000E+00 -0.00000000000E+00 -0.36195546253E+02  0.36195546253E+02  0.00000000000E+00 0. -1.
         25    2    1    2    0    0 -0.73957788339E+02 -0.29230408974E+01  0.36809194762E+03  0.39572099157E+03  0.12500049057E+03 0.  0.
          2    1    1    2  501    0  0.60331775545E+02  0.30919003006E+02  0.29833447011E+02  0.74067148236E+02  0.00000000000E+00 0. -1.
          1    1    1    2  502    0  0.13626012794E+02 -0.27995962108E+02  0.91716462831E+03  0.91769297564E+03  0.00000000000E+00 0. -1.
         22    1    3    3    0    0 -0.68151444613E+02 -0.35334794476E+02  0.10231560950E+03  0.12791266962E+03  0.00000000000E+00 0.  1.
         22    1    3    3    0    0 -0.58063437258E+01  0.32411753579E+02  0.26577633812E+03  0.26780832194E+03  0.00000000000E+00 0.  1.
</event>
<event>
 7    1  0.6078244E-006  0.1011144E+03  0.7818608E-02  0.1355921E+00
          2   -1    0    0  502    0  0.00000000000E+00  0.00000000000E+00  0.68357551500E+03  0.68357551500E+03  0.00000000000E+00 0. -1.
          1   -1    0    0  501    0 -0.00000000000E+00 -0.00000000000E+00 -0.18299384617E+03  0.18299384617E+03  0.00000000000E+00 0. -1.
         25    2    1    2    0    0 -0.12966376476E+03  0.20563198199E+02  0.30704245331E+03  0.35656132045E+03  0.12500148036E+03 0.  0.
          2    1    1    2  501    0  0.36256326132E+02 -0.34712440282E+02 -0.14766684254E+03  0.15596464690E+03  0.00000000000E+00 0. -1.
          1    1    1    2  502    0  0.93407438632E+02  0.14149242083E+02  0.34120605807E+03  0.35404339382E+03  0.00000000000E+00 0. -1.
         22    1    3    3    0    0 -0.11235017841E+03 -0.12526389698E+02  0.11626725865E+03  0.16216518881E+03  0.00000000000E+00 0. -1.
         22    1    3    3    0    0 -0.17313586356E+02  0.33089587897E+02  0.19077519466E+03  0.19439613164E+03  0.00000000000E+00 0. -1.
</event>
<event>
 7    1  0.6078244E-006  0.3820496E+03  0.7818608E-02  0.1122399E+00
          2   -1    0    0  502    0  0.00000000000E+00  0.00000000000E+00  0.18482371179E+04  0.18482371179E+04  0.00000000000E+00 0. -1.
          1   -1    0    0  501    0 -0.00000000000E+00 -0.00000000000E+00 -0.31601006797E+04  0.31601006797E+04  0.00000000000E+00 0. -1.
         25    2    1    2    0    0 -0.12634511288E+03 -0.30868058926E+03 -0.16704652678E+04  0.17080184424E+04  0.12500397858E+03 0.  0.
          2    1    1    2  501    0  0.12565123725E+03 -0.74234813941E+02 -0.14471116755E+04  0.14544522138E+04  0.00000000000E+00 0. -1.
          1    1    1    2  502    0  0.69387563350E+00  0.38291540320E+03  0.18057133815E+04  0.18458671414E+04  0.00000000000E+00 0. -1.
         22    1    3    3    0    0 -0.13860232750E+03 -0.18433795435E+03 -0.10347312100E+04  0.10601225229E+04  0.00000000000E+00 0.  1.
         22    1    3    3    0    0  0.12257214618E+02 -0.12434263491E+03 -0.63573405781E+03  0.64789591944E+03  0.00000000000E+00 0.  1.
</event>
<event>
 7    1  0.6078244E-006  0.2349424E+03  0.7818608E-02  0.1320208E+00
          2   -1    0    0  502    0  0.00000000000E+00  0.00000000000E+00  0.10362054630E+04  0.10362054630E+04  0.00000000000E+00 0. -1.
          1   -1    0    0  501    0 -0.00000000000E+00 -0.00000000000E+00 -0.10820832044E+04  0.10820832044E+04  0.00000000000E+00 0. -1.
         25    2    1    2    0    0  0.13521590877E+03 -0.18833536435E+03  0.21133741519E+03  0.33770133878E+03  0.12500055881E+03 0.  0.
          2    1    1    2  501    0 -0.11217859878E+03  0.20670327259E+03 -0.10050362208E+04  0.10321860715E+04  0.00000000000E+00 0. -1.
          1    1    1    2  502    0 -0.23037309992E+02 -0.18367908238E+02  0.74782106417E+03  0.74840125716E+03  0.00000000000E+00 0. -1.
         22    1    3    3    0    0  0.87304684539E+02 -0.64786091844E+02  0.29401639775E+02  0.11262238703E+03  0.00000000000E+00 0.  1.
         22    1    3    3    0    0  0.47911224232E+02 -0.12354927251E+03  0.18193577541E+03  0.22507895175E+03  0.00000000000E+00 0.  1.
</event>
<event>
 7    1  0.6078244E-006  0.5018727E+02  0.7818608E-02  0.1449411E+00
          2   -1    0    0  502    0  0.00000000000E+00  0.00000000000E+00  0.31837894528E+02  0.31837894528E+02  0.00000000000E+00 0. -1.
          1   -1    0    0  501    0 -0.00000000000E+00 -0.00000000000E+00 -0.10314569445E+04  0.10314569445E+04  0.00000000000E+00 0. -1.
         25    2    1    2    0    0  0.47229439391E+02  0.35963132375E+02 -0.17444960078E+03  0.22267193700E+03  0.12500464583E+03 0.  0.
          2    1    1    2  501    0  0.42157967392E+01 -0.48152610229E+02 -0.73124408382E+03  0.73283992586E+03  0.00000000000E+00 0. -1.
          1    1    1    2  502    0 -0.51445236131E+02  0.12189477854E+02 -0.93925365351E+02  0.10778297615E+03  0.00000000000E+00 0. -1.
         22    1    3    3    0    0  0.38781898839E+02  0.90914834928E+01  0.57834915181E+01  0.40250956806E+02  0.00000000000E+00 0.  1.
         22    1    3    3    0    0  0.84475405521E+01  0.26871648882E+02 -0.18023309230E+03  0.18242098019E+03  0.00000000000E+00 0.  1.
</event>
<event>
 7    1  0.6078244E-006  0.5692751E+02  0.7818608E-02  0.1490693E+00
          2   -1    0    0  502    0  0.00000000000E+00  0.00000000000E+00  0.12316406133E+04  0.12316406133E+04  0.00000000000E+00 0. -1.
          1   -1    0    0  501    0 -0.00000000000E+00 -0.00000000000E+00 -0.15130572328E+03  0.15130572328E+03  0.00000000000E+00 0. -1.
         25    2    1    2    0    0  0.58826605002E+02  0.12418131821E+02  0.54366585656E+03  0.56108499104E+03  0.12501609547E+03 0.  0.
          2    1    1    2  501    0 -0.41547245471E+02 -0.38999780260E+02 -0.13651521915E+03  0.14793093499E+03  0.00000000000E+00 0. -1.
          1    1    1    2  502    0 -0.17279359531E+02  0.26581648439E+02  0.67318425259E+03  0.67393041053E+03  0.00000000000E+00 0. -1.
         22    1    3    3    0    0  0.40398599298E+02 -0.52176955627E+02  0.34824096237E+03  0.35443793448E+03  0.00000000000E+00 0. -1.
         22    1    3    3    0    0  0.18428005704E+02  0.64595087448E+02  0.19542489419E+03  0.20664705656E+03  0.00000000000E+00 0. -1.
</event>
<event>
 7    1  0.6078244E-006  0.5892071E+02  0.7818608E-02  0.1459464E+00
          2   -1    0    0  502    0  0.00000000000E+00  0.00000000000E+00  0.27191671797E+04  0.27191671797E+04  0.00000000000E+00 0. -1.
          1   -1    0    0  501    0 -0.00000000000E+00 -0.00000000000E+00 -0.33017285165E+03  0.33017285165E+03  0.00000000000E+00 0. -1.
         25    2    1    2    0    0  0.40068981463E+02 -0.69080446148E+02  0.47266855260E+03  0.49539700505E+03  0.12500000271E+03 0.  0.
          2    1    1    2  501    0 -0.49400748444E+02  0.31985465242E+02 -0.31592740545E+03  0.32136214688E+03  0.00000000000E+00 0. -1.
          1    1    1    2  502    0  0.93317669805E+01  0.37094980906E+02  0.22322531809E+04  0.22325808794E+04  0.00000000000E+00 0. -1.
         22    1    3    3    0    0  0.51957491702E+02 -0.77873953026E+02  0.18489747775E+03  0.20724625637E+03  0.00000000000E+00 0.  1.
         22    1    3    3    0    0 -0.11888510239E+02  0.87935068782E+01  0.28777107485E+03  0.28815074868E+03  0.00000000000E+00 0.  1.
</event>
<event>
 7    1  0.6078244E-006  0.1665943E+03  0.7818608E-02  0.1183975E+00
          2   -1    0    0  502    0  0.00000000000E+00  0.00000000000E+00  0.13517826060E+04  0.13517826060E+04  0.00000000000E+00 0. -1.
          1   -1    0    0  501    0 -0.00000000000E+00 -0.00000000000E+00 -0.21262438462E+03  0.21262438462E+03  0.00000000000E+00 0. -1.
         25    2    1    2    0    0 -0.14404783279E+03 -0.12254928753E+03  0.12212666195E+03  0.25750395068E+03  0.12500102819E+03 0.  0.
          2    1    1    2  501    0  0.15458098392E+03 -0.48288325718E+02 -0.90976980469E+02  0.18575213045E+03  0.00000000000E+00 0. -1.
          1    1    1    2  502    0 -0.10533151133E+02  0.17083761325E+03  0.11080085399E+04  0.11211509095E+04  0.00000000000E+00 0. -1.
         22    1    3    3    0    0  0.71542242507E+01  0.17196740611E+02  0.21158361912E+02  0.28188421224E+02  0.00000000000E+00 0.  1.
         22    1    3    3    0    0 -0.15120205704E+03 -0.13974602814E+03  0.10096830004E+03  0.22931552945E+03  0.00000000000E+00 0.  1.
</event>
<event>
 7    1  0.6078244E-006  0.5144465E+02  0.7818608E-02  0.1529339E+00
          2   -1    0    0  502    0  0.00000000000E+00  0.00000000000E+00  0.11222560312E+04  0.11222560312E+04  0.00000000000E+00 0. -1.
          1   -1    0    0  501    0 -0.00000000000E+00 -0.00000000000E+00 -0.44565878245E+03  0.44565878245E+03  0.00000000000E+00 0. -1.
         25    2    1    2    0    0 -0.78224015447E+02  0.21657822221E+01  0.19863144099E+03  0.24739567948E+03  0.12500594254E+03 0.  0.
          2    1    1    2  501    0  0.51233563685E+02 -0.15540905330E+01 -0.41951380242E+03  0.42263355720E+03  0.00000000000E+00 0. -1.
          1    1    1    2  502    0  0.26990451762E+02 -0.61169168905E+00  0.89747961018E+03  0.89788557698E+03  0.00000000000E+00 0. -1.
         22    1    3    3    0    0 -0.59721365235E+01 -0.50042966453E+02  0.11326534735E+03  0.12397178637E+03  0.00000000000E+00 0.  1.
         22    1    3    3    0    0 -0.72251878924E+02  0.52208748675E+02  0.85366093637E+02  0.12342389310E+03  0.00000000000E+00 0.  1.
</event>
<event>
 7    1  0.6078244E-006  0.2153908E+03  0.7818608E-02  0.1200755E+00
          2   -1    0    0  502    0  0.00000000000E+00  0.00000000000E+00  0.21561315131E+04  0.21561315131E+04  0.00000000000E+00 0. -1.
          1   -1    0    0  501    0 -0.00000000000E+00 -0.00000000000E+00 -0.41068487488E+04  0.41068487488E+04  0.00000000000E+00 0. -1.
         25    2    1    2    0    0  0.15805357191E+03  0.27401425444E+03  0.30667195017E+03  0.45797065395E+03  0.12499876650E+03 0.  0.
          2    1    1    2  501    0 -0.12288035442E+03 -0.17599098092E+03 -0.40268100143E+04  0.40325266643E+04  0.00000000000E+00 0. -1.
          1    1    1    2  502    0 -0.35173217489E+02 -0.98023273514E+02  0.17694208285E+04  0.17724829437E+04  0.00000000000E+00 0. -1.
         22    1    3    3    0    0  0.16285862892E+03  0.19680196931E+03  0.19163213697E+03  0.31933810305E+03  0.00000000000E+00 0. -1.
         22    1    3    3    0    0 -0.48050570128E+01  0.77212285131E+02  0.11503981320E+03  0.13863255090E+03  0.00000000000E+00 0. -1.
</event>
<event>
 7    1  0.6078244E-006  0.1796857E+03  0.7818608E-02  0.1254196E+00
          2   -1    0    0  502    0  0.00000000000E+00  0.00000000000E+00  0.11587288638E+04  0.11587288638E+04  0.00000000000E+00 0. -1.
          1   -1    0    0  501    0 -0.00000000000E+00 -0.00000000000E+00 -0.26655424432E+04  0.26655424432E+04  0.00000000000E+00 0. -1.
         25    2    1    2    0    0 -0.17622505886E+03 -0.17842951271E+03  0.31129617420E+03  0.41883379983E+03  0.12499632569E+03 0.  0.
          2    1    1    2  501    0  0.12492222717E+03  0.12832294825E+03 -0.26070755387E+04  0.26132193185E+04  0.00000000000E+00 0. -1.
          1    1    1    2  502    0  0.51302831683E+02  0.50106564452E+02  0.78896578510E+03  0.79221818863E+03  0.00000000000E+00 0. -1.
         22    1    3    3    0    0 -0.19149226294E+03 -0.18220002277E+03  0.29039376347E+03  0.39267629534E+03  0.00000000000E+00 0.  1.
         22    1    3    3    0    0  0.15267204083E+02  0.37705100652E+01  0.20902410737E+02  0.26157504492E+02  0.00000000000E+00 0.  1.
</event>
<event>
 7    1  0.6078244E-006  0.1094649E+03  0.7818608E-02  0.1280175E+00
          2   -1    0    0  502    0  0.00000000000E+00  0.00000000000E+00  0.71506639911E+03  0.71506639911E+03  0.00000000000E+00 0. -1.
          1   -1    0    0  501    0 -0.00000000000E+00 -0.00000000000E+00 -0.45373551804E+03  0.45373551804E+03  0.00000000000E+00 0. -1.
         25    2    1    2    0    0 -0.16899908176E+03  0.73379454151E+02  0.10481877905E+02  0.22288972298E+03  0.12499889967E+03 0.  0.
          2    1    1    2  501    0  0.91458204340E+02 -0.30314950011E+00 -0.33663827897E+03  0.34884097510E+03  0.00000000000E+00 0. -1.
          1    1    1    2  502    0  0.77540877419E+02 -0.73076304651E+02  0.58748728213E+03  0.59707121907E+03  0.00000000000E+00 0. -1.
         22    1    3    3    0    0 -0.95463038143E+02  0.86305057015E+01  0.60025886400E+02  0.11309634971E+03  0.00000000000E+00 0. -1.
         22    1    3    3    0    0 -0.73536043616E+02  0.64748948449E+02 -0.49544008494E+02  0.10979337327E+03  0.00000000000E+00 0. -1.
</event>
<event>
 7    1  0.6078244E-006  0.6419138E+02  0.7818608E-02  0.1498835E+00
          2   -1    0    0  502    0  0.00000000000E+00  0.00000000000E+00  0.43453047376E+03  0.43453047376E+03  0.00000000000E+00 0. -1.
          1   -1    0    0  501    0 -0.00000000000E+00 -0.00000000000E+00 -0.35702097344E+03  0.35702097344E+03  0.00000000000E+00 0. -1.
         25    2    1    2    0    0 -0.50092140667E+02  0.64218316483E+02  0.35640603112E+03  0.38637110250E+03  0.12499662037E+03 0.  0.
          2    1    1    2  501    0  0.23950842509E+02 -0.59431647391E+02 -0.33607428823E+03  0.34212817887E+03  0.00000000000E+00 0. -1.
          1    1    1    2  502    0  0.26141298158E+02 -0.47866690914E+01  0.57177757435E+02  0.63052165829E+02  0.00000000000E+00 0. -1.
         22    1    3    3    0    0 -0.54120169431E+02 -0.21848274385E+02  0.19312784233E+03  0.20175406642E+03  0.00000000000E+00 0. -1.
         22    1    3    3    0    0  0.40280287643E+01  0.86066590868E+02  0.16327818879E+03  0.18461703608E+03  0.00000000000E+00 0. -1.
</event>
<event>
 7    1  0.6078244E-006  0.9155655E+02  0.7818608E-02  0.1411864E+00
          2   -1    0    0  502    0  0.00000000000E+00  0.00000000000E+00  0.86871580246E+03  0.86871580246E+03  0.00000000000E+00 0. -1.
          1   -1    0    0  501    0 -0.00000000000E+00 -0.00000000000E+00 -0.20802037461E+03  0.20802037461E+03  0.00000000000E+00 0. -1.
         25    2    1    2    0    0 -0.10164687671E+03  0.29329550410E+02  0.44024726273E+03  0.46971866678E+03  0.12500265400E+03 0.  0.
          2    1    1    2  501    0  0.74923050513E+02 -0.52259598764E+02 -0.18167908454E+03  0.20335146648E+03  0.00000000000E+00 0. -1.
          1    1    1    2  502    0  0.26723826193E+02  0.22930048354E+02  0.40212724967E+03  0.40366604382E+03  0.00000000000E+00 0. -1.
         22    1    3    3    0    0 -0.10122523794E+03 -0.13026018938E+02  0.39400527920E+03  0.40700907362E+03  0.00000000000E+00 0.  1.
         22    1    3    3    0    0 -0.42163876256E+00  0.42355569347E+02  0.46241983523E+02  0.62709593158E+02  0.00000000000E+00 0.  1.
</event>
<event>
 7    1  0.6078244E-006  0.9898488E+02  0.7818608E-02  0.1432716E+00
          2   -1    0    0  502    0  0.00000000000E+00  0.00000000000E+00  0.19031519810E+03  0.19031519810E+03  0.00000000000E+00 0. -1.
          1   -1    0    0  501    0 -0.00000000000E+00 -0.00000000000E+00 -0.73663073157E+03  0.73663073157E+03  0.00000000000E+00 0. -1.
         25    2    1    2    0    0 -0.11501820043E+03 -0.24642564903E+02 -0.31063424310E+03  0.35490095995E+03  0.12499846379E+03 0.  0.
          2    1    1    2  501    0  0.88573671197E+02  0.33083404499E+02 -0.39712839906E+03  0.40822882336E+03  0.00000000000E+00 0. -1.
          1    1    1    2  502    0  0.26444529236E+02 -0.84408395960E+01  0.16144710870E+03  0.16381614635E+03  0.00000000000E+00 0. -1.
         22    1    3    3    0    0 -0.10898056011E+03  0.19547273631E+02 -0.27915461078E+03  0.30031009825E+03  0.00000000000E+00 0. -1.
         22    1    3    3    0    0 -0.60376403190E+01 -0.44189838535E+02 -0.31479632319E+02  0.54590861701E+02  0.00000000000E+00 0. -1.
</event>
<event>
 7    1  0.6078244E-006  0.1459428E+03  0.7818608E-02  0.1267038E+00
          2   -1    0    0  502    0  0.00000000000E+00  0.00000000000E+00  0.15993404345E+04  0.15993404345E+04  0.00000000000E+00 0. -1.
          1   -1    0    0  501    0 -0.00000000000E+00 -0.00000000000E+00 -0.66129118200E+03  0.66129118200E+03  0.00000000000E+00 0. -1.
         25    2    1    2    0    0  0.55172256772E+00 -0.69905662296E+02 -0.28762548533E+03  0.32131060645E+03  0.12499991995E+03 0.  0.
          2    1    1    2  501    0  0.18046672589E+02 -0.75712321723E+02 -0.34912395979E+03  0.35769481035E+03  0.00000000000E+00 0. -1.
          1    1    1    2  502    0 -0.18598395157E+02  0.14561798402E+03  0.15747986976E+04  0.15816261997E+04  0.00000000000E+00 0. -1.
         22    1    3    3    0    0  0.66094038711E+00  0.93735864337E+01 -0.21048535658E+03  0.21069500777E+03  0.00000000000E+00 0.  1.
         22    1    3    3    0    0 -0.10921781939E+00 -0.79279248730E+02 -0.77140128748E+02  0.11061559868E+03  0.00000000000E+00 0.  1.
</event>
<event>
 7    1  0.6078244E-006  0.5969706E+02  0.7818608E-02  0.1471512E+00
          2   -1    0    0  502    0  0.00000000000E+00  0.00000000000E+00  0.20566221605E+03  0.20566221605E+03  0.00000000000E+00 0. -1.
          1   -1    0    0  501    0 -0.00000000000E+00 -0.00000000000E+00 -0.21250038345E+03  0.21250038345E+03  0.00000000000E+00 0. -1.
         25    2    1    2    0    0 -0.87556255810E+02 -0.87071414829E+01  0.79252859358E+02  0.17218495599E+03  0.12499892443E+03 0.  0.
          2    1    1    2  501    0  0.34557358975E+02 -0.19610646094E+01 -0.15475877037E+03  0.15858226206E+03  0.00000000000E+00 0. -1.
          1    1    1    2  502    0  0.52998896835E+02  0.10668206092E+02  0.68667743607E+02  0.87395381451E+02  0.00000000000E+00 0. -1.
         22    1    3    3    0    0 -0.24536184122E+02 -0.38131887597E+02 -0.21159239193E+02  0.50037771595E+02  0.00000000000E+00 0. -1.
         22    1    3    3    0    0 -0.63020071688E+02  0.29424746114E+02  0.10041209855E+03  0.12214718439E+03  0.00000000000E+00 0. -1.
</event>
<event>
 7    1  0.6078244E-006  0.4648751E+02  0.7818608E-02  0.1473099E+00
          2   -1    0    0  502    0  0.00000000000E+00  0.00000000000E+00  0.34219815948E+03  0.34219815948E+03  0.00000000000E+00 0. -1.
          1   -1    0    0  501    0 -0.00000000000E+00 -0.00000000000E+00 -0.13643563405E+03  0.13643563405E+03  0.00000000000E+00 0. -1.
         25    2    1    2    0    0  0.60149010183E+02 -0.57753539506E+02  0.93908184603E+02  0.17719116780E+03  0.12499835222E+03 0.  0.
          2    1    1    2  501    0 -0.41449208406E+02  0.17982961996E+02 -0.86869690506E+02  0.97917143179E+02  0.00000000000E+00 0. -1.
          1    1    1    2  502    0 -0.18699801776E+02  0.39770577510E+02  0.19872403133E+03  0.20352548256E+03  0.00000000000E+00 0. -1.
         22    1    3    3    0    0  0.11204805524E+02 -0.79630643172E+02  0.93837365764E+02  0.12358008825E+03  0.00000000000E+00 0. -1.
         22    1    3    3    0    0  0.48944204659E+02  0.21877103666E+02  0.70818839814E-01  0.53611079544E+02  0.00000000000E+00 0. -1.
</event>
<event>
 7    1  0.6078244E-006  0.7012467E+02  0.7818608E-02  0.1393112E+00
          2   -1    0    0  502    0  0.00000000000E+00  0.00000000000E+00  0.37727497186E+03  0.37727497186E+03  0.00000000000E+00 0. -1.
          1   -1    0    0  501    0 -0.00000000000E+00 -0.00000000000E+00 -0.73927949190E+03  0.73927949190E+03  0.00000000000E+00 0. -1.
         25    2    1    2    0    0  0.11545703361E+03 -0.17670473582E+02 -0.35466928077E+03  0.39377441114E+03  0.12500166357E+03 0.  0.
          2    1    1    2  501    0 -0.62793518576E+02  0.94252659280E+01 -0.36028000208E+03  0.36583266873E+03  0.00000000000E+00 0. -1.
          1    1    1    2  502    0 -0.52663515036E+02  0.82452076539E+01  0.35294476281E+03  0.35694738388E+03  0.00000000000E+00 0. -1.
         22    1    3    3    0    0 -0.75725074995E+01  0.22382143748E+02 -0.10067930187E+02  0.25683972567E+02  0.00000000000E+00 0. -1.
         22    1    3    3    0    0  0.12302954111E+03 -0.40052617330E+02 -0.34460135059E+03  0.36809043857E+03  0.00000000000E+00 0. -1.
</event>
<event>
 7    1  0.6078244E-006  0.1411895E+03  0.7818608E-02  0.1391191E+00
          2   -1    0    0  502    0  0.00000000000E+00  0.00000000000E+00  0.81067215200E+02  0.81067215200E+02  0.00000000000E+00 0. -1.
          1   -1    0    0  501    0 -0.00000000000E+00 -0.00000000000E+00 -0.13564349093E+04  0.13564349093E+04  0.00000000000E+00 0. -1.
         25    2    1    2    0    0 -0.11749759358E+03 -0.65861359730E+01 -0.18249158933E+03  0.25055322144E+03  0.12499869966E+03 0.  0.
          2    1    1    2  501    0  0.14429565634E+03  0.44165844358E+01 -0.11310675115E+04  0.11402431575E+04  0.00000000000E+00 0. -1.
          1    1    1    2  502    0 -0.26798062761E+02  0.21695515372E+01  0.38191406720E+02  0.46705745565E+02  0.00000000000E+00 0. -1.
         22    1    3    3    0    0 -0.82254968761E+02  0.13707124987E+02 -0.23779190475E+02  0.86713407619E+02  0.00000000000E+00 0. -1.
         22    1    3    3    0    0 -0.35242624816E+02 -0.20293260960E+02 -0.15871239885E+03  0.16383981382E+03  0.00000000000E+00 0. -1.
</event>
<event>
 7    1  0.6078244E-006  0.9228662E+02  0.7818608E-02  0.1321538E+00
          2   -1    0    0  502    0  0.00000000000E+00  0.00000000000E+00  0.25849837251E+03  0.25849837251E+03  0.00000000000E+00 0. -1.
          1   -1    0    0  501    0 -0.00000000000E+00 -0.00000000000E+00 -0.43975489925E+03  0.43975489925E+03  0.00000000000E+00 0. -1.
         25    2    1    2    0    0  0.68149521770E+02  0.61905670083E+01 -0.39518895636E+02  0.14789677888E+03  0.12501613357E+03 0.  0.
          2    1    1    2  501    0 -0.71076668414E+02  0.67874638834E+02 -0.33196000470E+03  0.34620269223E+03  0.00000000000E+00 0. -1.
          1    1    1    2  502    0  0.29271466442E+01 -0.74065205843E+02  0.19022237359E+03  0.20415380065E+03  0.00000000000E+00 0. -1.
         22    1    3    3    0    0  0.25709536106E+02 -0.49690168445E+02 -0.52284477724E+02  0.76575189831E+02  0.00000000000E+00 0.  1.
         22    1    3    3    0    0  0.42439985664E+02  0.55880735453E+02  0.12765582088E+02  0.71321589046E+02  0.00000000000E+00 0.  1.
</event>
<event>
 7    1  0.6078244E-006  0.5601808E+02  0.7818608E-02  0.1425683E+00
          2   -1    0    0  502    0  0.00000000000E+00  0.00000000000E+00  0.24879996791E+04  0.24879996791E+04  0.00000000000E+00 0. -1.
          1   -1    0    0  501    0 -0.00000000000E+00 -0.00000000000E+00 -0.94792044129E+03  0.94792044129E+03  0.00000000000E+00 0. -1.
         25    2    1    2    0    0  0.57601486479E+01  0.10720152108E+03 -0.26401391817E+01  0.16479425944E+03  0.12499932869E+03 0.  0.
          2    1    1    2  501    0  0.53140743674E+00 -0.51736943439E+02 -0.86310479693E+03  0.86465419920E+03  0.00000000000E+00 0. -1.
          1    1    1    2  502    0 -0.62915560847E+01 -0.55464577644E+02  0.24058241740E+04  0.24064716618E+04  0.00000000000E+00 0. -1.
         22    1    3    3    0    0  0.17335416261E+02  0.13099524673E+03  0.15010921415E+02  0.13298721399E+03  0.00000000000E+00 0.  1.
         22    1    3    3    0    0 -0.11575267613E+02 -0.23793725643E+02 -0.17651060597E+02  0.31807045453E+02  0.00000000000E+00 0.  1.
</event>
<event>
 7    1  0.6078244E-006  0.9892961E+02  0.7818608E-02  0.1344004E+00
          2   -1    0    0  502    0  0.00000000000E+00  0.00000000000E+00  0.19559574508E+03  0.19559574508E+03  0.00000000000E+00 0. -1.
          1   -1    0    0  501    0 -0.00000000000E+00 -0.00000000000E+00 -0.66711062796E+03  0.66711062796E+03  0.00000000000E+00 0. -1.
         25    2    1    2    0    0 -0.13089554106E+02 -0.44198301741E+02 -0.45208754621E+03  0.47131052717E+03  0.12500254910E+03 0.  0.
          2    1    1    2  501    0 -0.37309503331E+02 -0.42819693165E+02 -0.18729311866E+03  0.19571468381E+03  0.00000000000E+00 0. -1.
          1    1    1    2  502    0  0.50399057437E+02  0.87017994906E+02  0.16786578198E+03  0.19568116207E+03  0.00000000000E+00 0. -1.
         22    1    3    3    0    0 -0.49007822012E+02  0.48643073953E+01 -0.77529438454E+02  0.91849017043E+02  0.00000000000E+00 0. -1.
         22    1    3    3    0    0  0.35918267906E+02 -0.49062609136E+02 -0.37455810775E+03  0.37946151013E+03  0.00000000000E+00 0. -1.
</event>
<event>
 7    1  0.6078244E-006  0.5542795E+02  0.7818608E-02  0.1422798E+00
          2   -1    0    0  502    0  0.00000000000E+00  0.00000000000E+00  0.97089946231E+03  0.97089946231E+03  0.00000000000E+00 0. -1.
          1   -1    0    0  501    0 -0.00000000000E+00 -0.00000000000E+00 -0.87122238645E+03  0.87122238645E+03  0.00000000000E+00 0. -1.
         25    2    1    2    0    0 -0.52874039247E+02 -0.46204146929E+02  0.45077247263E+03  0.47302447165E+03  0.12500336587E+03 0.  0.
          2    1    1    2  501    0 -0.29070923255E+01  0.53377470962E+02 -0.85770820242E+03  0.85937242572E+03  0.00000000000E+00 0. -1.
          1    1    1    2  502    0  0.55781131572E+02 -0.71733240332E+01  0.50661280565E+03  0.50972495139E+03  0.00000000000E+00 0. -1.
         22    1    3    3    0    0  0.40453598642E+02 -0.87210461151E+01  0.10303379388E+03  0.11103383705E+03  0.00000000000E+00 0. -1.
         22    1    3    3    0    0 -0.93327637888E+02 -0.37483100814E+02  0.34773867875E+03  0.36199063460E+03  0.00000000000E+00 0. -1.
</event>
<event>
 7    1  0.6078244E-006  0.1135292E+03  0.7818608E-02  0.1290758E+00
          2   -1    0    0  502    0  0.00000000000E+00  0.00000000000E+00  0.40407041421E+04  0.40407041421E+04  0.00000000000E+00 0. -1.
          1   -1    0    0  501    0 -0.00000000000E+00 -0.00000000000E+00 -0.64404158214E+02  0.64404158214E+02  0.00000000000E+00 0. -1.
         25    2    1    2    0    0 -0.17751218196E+03 -0.31968790204E+02  0.18662555347E+04  0.18791134707E+04  0.12500054708E+03 0.  0.
          2    1    1    2  501    0  0.76911139675E+02  0.21299499942E+02 -0.28736947097E+02  0.84822191863E+02  0.00000000000E+00 0. -1.
          1    1    1    2  502    0  0.10060104228E+03  0.10669290263E+02  0.21387813963E+04  0.21411726378E+04  0.00000000000E+00 0. -1.
         22    1    3    3    0    0 -0.26517181452E+02 -0.59721884977E+02  0.62168180194E+03  0.62510649278E+03  0.00000000000E+00 0.  1.
         22    1    3    3    0    0 -0.15099500050E+03  0.27753094773E+02  0.12445737327E+04  0.12540069779E+04  0.00000000000E+00 0.  1.
</event>
<event>
 7    1  0.6127863E-006  0.9344409E+02  0.7818608E-02  0.1315349E+00
          2   -1    0    0  502    0  0.00000000000E+00  0.00000000000E+00  0.11805263916E+04  0.11805263916E+04  0.00000000000E+00 0. -1.
          1   -1    0    0  501    0 -0.00000000000E+00 -0.00000000000E+00 -0.96951111635E+03  0.96951111635E+03  0.00000000000E+00 0. -1.
         25    2    1    2    0    0  0.14001230259E+03  0.67182503856E+01 -0.99961296139E+02  0.21275988692E+03  0.12500371592E+03 0.  0.
          2    1    1    2  501    0 -0.58136499415E+02 -0.51061903170E+02 -0.80937407561E+03  0.81306430545E+03  0.00000000000E+00 0. -1.
          1    1    1    2  502    0 -0.81875803174E+02  0.44343652784E+02  0.11203506471E+04  0.11242133156E+04  0.00000000000E+00 0. -1.
         22    1    3    3    0    0  0.58264739082E+02 -0.57983591530E+02 -0.56846496236E+02  0.99941987379E+02  0.00000000000E+00 0.  1.
         22    1    3    3    0    0  0.81747563507E+02  0.64701841915E+02 -0.43114799903E+02  0.11281789954E+03  0.00000000000E+00 0.  1.
</event>
<event>
 7    1  0.6078244E-006  0.6458501E+02  0.7818608E-02  0.1385695E+00
          2   -1    0    0  502    0  0.00000000000E+00  0.00000000000E+00  0.82224054531E+03  0.82224054531E+03  0.00000000000E+00 0. -1.
          1   -1    0    0  501    0 -0.00000000000E+00 -0.00000000000E+00 -0.26533625803E+03  0.26533625803E+03  0.00000000000E+00 0. -1.
         25    2    1    2    0    0 -0.55546047433E+01  0.51033521883E+01  0.23282758845E+03  0.26437648045E+03  0.12501735734E+03 0.  0.
          2    1    1    2  501    0 -0.68142874786E+01 -0.65280241274E+02 -0.24356002709E+03  0.25224874868E+03  0.00000000000E+00 0. -1.
          1    1    1    2  502    0  0.12368892222E+02  0.60176889086E+02  0.56763672592E+03  0.57095157421E+03  0.00000000000E+00 0. -1.
         22    1    3    3    0    0 -0.24569898341E+02 -0.34678851775E+02  0.19895324972E+02  0.46926821975E+02  0.00000000000E+00 0. -1.
         22    1    3    3    0    0  0.19015293598E+02  0.39782203963E+02  0.21293226348E+03  0.21744965848E+03  0.00000000000E+00 0. -1.
</event>
<event>
 7    1  0.6078244E-006  0.1173765E+03  0.7818608E-02  0.1436863E+00
          2   -1    0    0  502    0  0.00000000000E+00  0.00000000000E+00  0.83144728301E+03  0.83144728301E+03  0.00000000000E+00 0. -1.
          1   -1    0    0  501    0 -0.00000000000E+00 -0.00000000000E+00 -0.75471603681E+02  0.75471603681E+02  0.00000000000E+00 0. -1.
         25    2    1    2    0    0  0.12370047915E+03 -0.59344968080E+02  0.39578948666E+03  0.43714763819E+03  0.12500042417E+03 0.  0.
          2    1    1    2  501    0 -0.10330180386E+03  0.49408979195E+02  0.57970767985E+01  0.11465651314E+03  0.00000000000E+00 0. -1.
          1    1    1    2  502    0 -0.20398675289E+02  0.99359888844E+01  0.35438911588E+03  0.35511473537E+03  0.00000000000E+00 0. -1.
         22    1    3    3    0    0  0.74700948363E+02  0.24961060222E+02  0.24699070142E+03  0.25924446533E+03  0.00000000000E+00 0. -1.
         22    1    3    3    0    0  0.48999530783E+02 -0.84306028301E+02  0.14879878524E+03  0.17790317286E+03  0.00000000000E+00 0. -1.
</event>
<event>
 7    1  0.7588181E-006  0.7968465E+02  0.7818608E-02  0.1377587E+00
          2   -1    0    0  502    0  0.00000000000E+00  0.00000000000E+00  0.14195829133E+04  0.14195829133E+04  0.00000000000E+00 0. -1.
          1   -1    0    0  501    0 -0.00000000000E+00 -0.00000000000E+00 -0.25407577849E+04  0.25407577849E+04  0.00000000000E+00 0. -1.
         25    2    1    2    0    0 -0.32049473610E+02  0.40744066741E+01 -0.12382525206E+03  0.17888933812E+03  0.12499973078E+03 0.  0.
          2    1    1    2  501    0 -0.43495850097E+02 -0.30612737516E+02 -0.23879526775E+04  0.23885449585E+04  0.00000000000E+00 0. -1.
          1    1    1    2  502    0  0.75545323708E+02  0.26538330842E+02  0.13906030580E+04  0.13929064017E+04  0.00000000000E+00 0. -1.
         22    1    3    3    0    0  0.37105853967E+02 -0.32889962985E+02 -0.59607316000E+02  0.77534677303E+02  0.00000000000E+00 0. -1.
         22    1    3    3    0    0 -0.69155327578E+02  0.36964369659E+02 -0.64217936063E+02  0.10135466081E+03  0.00000000000E+00 0. -1.
</event>
<event>
 7    1  0.6078244E-006  0.7955861E+02  0.7818608E-02  0.1332112E+00
          2   -1    0    0  502    0  0.00000000000E+00  0.00000000000E+00  0.69366648499E+03  0.69366648499E+03  0.00000000000E+00 0. -1.
          1   -1    0    0  501    0 -0.00000000000E+00 -0.00000000000E+00 -0.39980438050E+03  0.39980438050E+03  0.00000000000E+00 0. -1.
         25    2    1    2    0    0  0.22845488959E+02 -0.10087026255E+03  0.18002671866E+03  0.24234271830E+03  0.12499458968E+03 0.  0.
          2    1    1    2  501    0 -0.69736393218E+02  0.35623970781E+02 -0.36107487558E+03  0.36946893998E+03  0.00000000000E+00 0. -1.
          1    1    1    2  502    0  0.46890904260E+02  0.65246291771E+02  0.47491026142E+03  0.48165920721E+03  0.00000000000E+00 0. -1.
         22    1    3    3    0    0  0.60522356386E+02 -0.97788741957E+02  0.94551111284E+02  0.14888084605E+03  0.00000000000E+00 0. -1.
         22    1    3    3    0    0 -0.37676867427E+02 -0.30815205957E+01  0.85475607373E+02  0.93461872248E+02  0.00000000000E+00 0. -1.
</event>
<event>
 7    1  0.6078244E-006  0.9888100E+02  0.7818608E-02  0.1316256E+00
          2   -1    0    0  502    0  0.00000000000E+00  0.00000000000E+00  0.92911994687E+03  0.92911994687E+03  0.00000000000E+00 0. -1.
          1   -1    0    0  501    0 -0.00000000000E+00 -0.00000000000E+00 -0.85296515253E+02  0.85296515253E+02  0.00000000000E+00 0. -1.
         25    2    1    2    0    0  0.47609326486E+02  0.30760411664E+02  0.11856247416E+03  0.18137073710E+03  0.12500173241E+03 0.  0.
          2    1    1    2  501    0 -0.17832007199E+02  0.70302461066E+02 -0.24013049555E+02  0.76400543595E+02  0.00000000000E+00 0. -1.
          1    1    1    2  502    0 -0.29777319287E+02 -0.10106287273E+03  0.74927400701E+03  0.75664518142E+03  0.00000000000E+00 0. -1.
         22    1    3    3    0    0  0.66822493716E+02 -0.29762575540E+02  0.54966334672E+02  0.91500571126E+02  0.00000000000E+00 0.  1.
         22    1    3    3    0    0 -0.19213167230E+02  0.60522987204E+02  0.63596139488E+02  0.89870165977E+02  0.00000000000E+00 0.  1.
</event>
<event>
 7    1  0.6078244E-006  0.5813985E+02  0.7818608E-02  0.1514709E+00
          2   -1    0    0  502    0  0.00000000000E+00  0.00000000000E+00  0.21168855099E+03  0.21168855099E+03  0.00000000000E+00 0. -1.
          1   -1    0    0  501    0 -0.00000000000E+00 -0.00000000000E+00 -0.64601057706E+02  0.64601057706E+02  0.00000000000E+00 0. -1.
         25    2    1    2    0    0 -0.50255452321E+02  0.55444266155E+02  0.11435790308E+03  0.18521101954E+03  0.12500285846E+03 0.  0.
          2    1    1    2  501    0  0.24334515445E+02 -0.10071709993E+02 -0.47645364803E+01  0.26763945748E+02  0.00000000000E+00 0. -1.
          1    1    1    2  502    0  0.25920936876E+02 -0.45372556162E+02  0.37494126684E+02  0.64314643411E+02  0.00000000000E+00 0. -1.
         22    1    3    3    0    0 -0.25347519442E+02  0.55818030620E+02  0.13791474550E+03  0.15092589675E+03  0.00000000000E+00 0.  1.
         22    1    3    3    0    0 -0.24907932879E+02 -0.37376446502E+00 -0.23556842415E+02  0.34285122790E+02  0.00000000000E+00 0.  1.
</event>
<event>
 7    1  0.6078244E-006  0.5540699E+02  0.7818608E-02  0.1500045E+00
          2   -1    0    0  502    0  0.00000000000E+00  0.00000000000E+00  0.19300290386E+04  0.19300290386E+04  0.00000000000E+00 0. -1.
          1   -1    0    0  501    0 -0.00000000000E+00 -0.00000000000E+00 -0.39159085779E+03  0.39159085779E+03  0.00000000000E+00 0. -1.
         25    2    1    2    0    0 -0.67806296936E+02  0.24556481096E+02  0.11510802956E+04  0.11600906267E+04  0.12499480211E+03 0.  0.
          2    1    1    2  501    0  0.55290326960E+02  0.32946921622E+01 -0.38480101099E+03  0.38876688814E+03  0.00000000000E+00 0. -1.
          1    1    1    2  502    0  0.12515969976E+02 -0.27851173258E+02  0.77215889620E+03  0.77276238155E+03  0.00000000000E+00 0. -1.
         22    1    3    3    0    0  0.91381077085E+01 -0.26235961902E+02  0.73532217155E+02  0.78605455721E+02  0.00000000000E+00 0.  1.
         22    1    3    3    0    0 -0.76944404645E+02  0.50792442998E+02  0.10775480785E+04  0.10814851710E+04  0.00000000000E+00 0.  1.
</event>
<event>
 7    1  0.6078244E-006  0.6339685E+02  0.7818608E-02  0.1424746E+00
          2   -1    0    0  502    0  0.00000000000E+00  0.00000000000E+00  0.12235163281E+03  0.12235163281E+03  0.00000000000E+00 0. -1.
          1   -1    0    0  501    0 -0.00000000000E+00 -0.00000000000E+00 -0.74842299735E+03  0.74842299735E+03  0.00000000000E+00 0. -1.
         25    2    1    2    0    0  0.18536804776E+02 -0.56320335691E+02  0.28801306049E+02  0.14131702421E+03  0.12500157102E+03 0.  0.
          2    1    1    2  501    0  0.42292565735E+02  0.18208419551E+02 -0.65605150504E+03  0.65766540499E+03  0.00000000000E+00 0. -1.
          1    1    1    2  502    0 -0.60829370511E+02  0.38111916139E+02  0.11788344509E+01  0.71792200964E+02  0.00000000000E+00 0. -1.
         22    1    3    3    0    0 -0.24937460606E+02  0.12048673694E+02 -0.30285323375E+02  0.41039594189E+02  0.00000000000E+00 0. -1.
         22    1    3    3    0    0  0.43474265383E+02 -0.68369009385E+02  0.59086629424E+02  0.10027743002E+03  0.00000000000E+00 0. -1.
</event>
<event>
 7    1  0.6078244E-006  0.4584858E+02  0.7818608E-02  0.1485070E+00
          2   -1    0    0  502    0  0.00000000000E+00  0.00000000000E+00  0.52818453150E+03  0.52818453150E+03  0.00000000000E+00 0. -1.
          1   -1    0    0  501    0 -0.00000000000E+00 -0.00000000000E+00 -0.84600794831E+03  0.84600794831E+03  0.00000000000E+00 0. -1.
         25    2    1    2    0    0 -0.61956834026E+02 -0.58973988236E+02  0.21382653767E+01  0.15147747801E+03  0.12499709435E+03 0.  0.
          2    1    1    2  501    0  0.28333822932E+02  0.35611816527E+02 -0.76973647296E+03  0.77108056959E+03  0.00000000000E+00 0. -1.
          1    1    1    2  502    0  0.33623011094E+02  0.23362171709E+02  0.44977479077E+03  0.45163443221E+03  0.00000000000E+00 0. -1.
         22    1    3    3    0    0 -0.31852117747E+02  0.10668036297E+01 -0.54821155148E+02  0.63411785393E+02  0.00000000000E+00 0. -1.
         22    1    3    3    0    0 -0.30104716279E+02 -0.60040791866E+02  0.56959420525E+02  0.88065692620E+02  0.00000000000E+00 0. -1.
</event>
<event>
 7    1  0.6078244E-006  0.6091949E+02  0.7818608E-02  0.1394894E+00
          2   -1    0    0  502    0  0.00000000000E+00  0.00000000000E+00  0.30504169963E+03  0.30504169963E+03  0.00000000000E+00 0. -1.
          1   -1    0    0  501    0 -0.00000000000E+00 -0.00000000000E+00 -0.17362353662E+04  0.17362353662E+04  0.00000000000E+00 0. -1.
         25    2    1    2    0    0 -0.37543217837E+02 -0.85117242849E+02 -0.53273861103E+03  0.55505775489E+03  0.12499698133E+03 0.  0.
          2    1    1    2  501    0 -0.16970133294E+02  0.58063602234E+02 -0.11884090213E+04  0.11899476329E+04  0.00000000000E+00 0. -1.
          1    1    1    2  502    0  0.54513351131E+02  0.27053640616E+02  0.28995396574E+03  0.29627167798E+03  0.00000000000E+00 0. -1.
         22    1    3    3    0    0  0.15080656769E+02  0.19510163601E+02 -0.21523112442E+03  0.21663912299E+03  0.00000000000E+00 0. -1.
         22    1    3    3    0    0 -0.52623874606E+02 -0.10462740645E+03 -0.31750748661E+03  0.33841863189E+03  0.00000000000E+00 0. -1.
</event>
<event>
 7    1  0.6078244E-006  0.7553432E+02  0.7818608E-02  0.1492719E+00
          2   -1    0    0  502    0  0.00000000000E+00  0.00000000000E+00  0.14486303178E+04  0.14486303178E+04  0.00000000000E+00 0. -1.
          1   -1    0    0  501    0 -0.00000000000E+00 -0.00000000000E+00 -0.10795251683E+04  0.10795251683E+04  0.00000000000E+00 0. -1.
         25    2    1    2    0    0  0.24404556826E+02 -0.51875921361E+02  0.30351249373E+03  0.33321346045E+03  0.12499873104E+03 0.  0.
          2    1    1    2  501    0 -0.52886517296E+01 -0.22958946241E+02 -0.10632245023E+04  0.10634855079E+04  0.00000000000E+00 0. -1.
          1    1    1    2  502    0 -0.19115905096E+02  0.74834867602E+02  0.11288171581E+04  0.11314565178E+04  0.00000000000E+00 0. -1.
         22    1    3    3    0    0 -0.39646342063E+02 -0.60886587290E+02  0.15203246775E+03  0.16850187002E+03  0.00000000000E+00 0. -1.
         22    1    3    3    0    0  0.64050898888E+02  0.90106659290E+01  0.15148002599E+03  0.16471159043E+03  0.00000000000E+00 0. -1.
</event>
<event>
 7    1  0.6078244E-006  0.7593797E+02  0.7818608E-02  0.1362448E+00
          2   -1    0    0  502    0  0.00000000000E+00  0.00000000000E+00  0.70712724195E+03  0.70712724195E+03  0.00000000000E+00 0. -1.
          1   -1    0    0  501    0 -0.00000000000E+00 -0.00000000000E+00 -0.96947166181E+02  0.96947166181E+02  0.00000000000E+00 0. -1.
         25    2    1    2    0    0 -0.87825333692E+02 -0.10171303578E+03  0.26208211407E+03  0.31995412973E+03  0.12499911891E+03 0.  0.
          2    1    1    2  501    0  0.52641162383E+02  0.49135050250E+02 -0.45690907632E+02  0.85281910042E+02  0.00000000000E+00 0. -1.
          1    1    1    2  502    0  0.35184171310E+02  0.52577985525E+02  0.39378886932E+03  0.39883836836E+03  0.00000000000E+00 0. -1.
         22    1    3    3    0    0 -0.64678079029E+02 -0.12739298139E+03  0.23878937132E+03  0.27826711892E+03  0.00000000000E+00 0.  1.
         22    1    3    3    0    0 -0.23147254663E+02  0.25679945617E+02  0.23292742756E+02  0.41687010812E+02  0.00000000000E+00 0.  1.
</event>
<event>
 7    1  0.6078244E-006  0.1164324E+03  0.7818608E-02  0.1328067E+00
          2   -1    0    0  502    0  0.00000000000E+00  0.00000000000E+00  0.17289538535E+04  0.17289538535E+04  0.00000000000E+00 0. -1.
          1   -1    0    0  501    0 -0.00000000000E+00 -0.00000000000E+00 -0.76060917775E+02  0.76060917775E+02  0.00000000000E+00 0. -1.
         25    2    1    2    0    0  0.42605930495E+02 -0.12019214432E+03  0.38578347472E+03  0.42510590501E+03  0.12499889695E+03 0.  0.
          2    1    1    2  501    0  0.12660280614E+02  0.11572196984E+03  0.49348751648E+01  0.11651699448E+03  0.00000000000E+00 0. -1.
          1    1    1    2  502    0 -0.55266211109E+02  0.44701744803E+01  0.12621745859E+04  0.12633918718E+04  0.00000000000E+00 0. -1.
         22    1    3    3    0    0 -0.15253279898E+02 -0.12722564187E+02 -0.63150386779E+00  0.19872719599E+02  0.00000000000E+00 0. -1.
         22    1    3    3    0    0  0.57859210394E+02 -0.10746958014E+03  0.38641497859E+03  0.40523318541E+03  0.00000000000E+00 0. -1.
</event>
<event>
 7    1  0.6078244E-006  0.5084849E+02  0.7818608E-02  0.1467750E+00
          2   -1    0    0  502    0  0.00000000000E+00  0.00000000000E+00  0.31375426668E+04  0.31375426668E+04  0.00000000000E+00 0. -1.
          1   -1    0    0  501    0 -0.00000000000E+00 -0.00000000000E+00 -0.56987820614E+03  0.56987820614E+03  0.00000000000E+00 0. -1.
         25    2    1    2    0    0 -0.95903379444E+00 -0.52957737658E+02  0.87682283743E+03  0.88727035891E+03  0.12499983937E+03 0.  0.
          2    1    1    2  501    0  0.38094289750E+02  0.17076661117E+02 -0.56358676975E+03  0.56513081168E+03  0.00000000000E+00 0. -1.
          1    1    1    2  502    0 -0.37135255955E+02  0.35881076542E+02  0.22544283930E+04  0.22550197024E+04  0.00000000000E+00 0. -1.
         22    1    3    3    0    0  0.44560609050E+02 -0.41222356116E+02  0.74216196132E+03  0.74464038795E+03  0.00000000000E+00 0. -1.
         22    1    3    3    0    0 -0.45519642844E+02 -0.11735381542E+02  0.13466087611E+03  0.14262997097E+03  0.00000000000E+00 0. -1.
</event>
<event>
 7    1  0.6078244E-006  0.7158614E+02  0.7818608E-02  0.1521189E+00
          2   -1    0    0  502    0  0.00000000000E+00  0.00000000000E+00  0.12978779388E+04  0.12978779388E+04  0.00000000000E+00 0. -1.
          1   -1    0    0  501    0 -0.00000000000E+00 -0.00000000000E+00 -0.96617356076E+03  0.96617356076E+03  0.00000000000E+00 0. -1.
         25    2    1    2    0    0  0.57848525873E+01  0.81828171020E+02  0.29074219970E+03  0.32693351282E+03  0.12500072411E+03 0.  0.
          2    1    1    2  501    0 -0.16807742941E+02 -0.11701956973E+02 -0.94669325328E+03  0.94691475425E+03  0.00000000000E+00 0. -1.
          1    1    1    2  502    0  0.11022890353E+02 -0.70126214047E+02  0.98765543162E+03  0.99020323249E+03  0.00000000000E+00 0. -1.
         22    1    3    3    0    0  0.38907063873E+02  0.92517456648E+02  0.26579129838E+03  0.28410958044E+03  0.00000000000E+00 0.  1.
         22    1    3    3    0    0 -0.33122211286E+02 -0.10689285628E+02  0.24950901312E+02  0.42823932374E+02  0.00000000000E+00 0.  1.
</event>
<event>
 7    1  0.7557067E-006  0.1109924E+03  0.7818608E-02  0.1278380E+00
          2   -1    0    0  502    0  0.00000000000E+00  0.00000000000E+00  0.25927824368E+04  0.25927824368E+04  0.00000000000E+00 0. -1.
          1   -1    0    0  501    0 -0.00000000000E+00 -0.00000000000E+00 -0.75496060687E+03  0.75496060687E+03  0.00000000000E+00 0. -1.
         25    2    1    2    0    0 -0.66697700718E+00 -0.29813948805E+02  0.14927855744E+02  0.12937550059E+03  0.12500345145E+03 0.  0.
          2    1    1    2  501    0  0.69968803281E+02 -0.59359289418E+02 -0.69344816308E+03  0.69949232559E+03  0.00000000000E+00 0. -1.
          1    1    1    2  502    0 -0.69301826274E+02  0.89173238223E+02  0.25163421372E+04  0.25188752174E+04  0.00000000000E+00 0. -1.
         22    1    3    3    0    0 -0.44418828300E+02  0.31231911909E+00  0.49100992713E+02  0.66212063373E+02  0.00000000000E+00 0. -1.
         22    1    3    3    0    0  0.43751851292E+02 -0.30126267924E+02 -0.34173136969E+02  0.63163437215E+02  0.00000000000E+00 0. -1.
</event>
<event>
 7    1  0.6078244E-006  0.7053904E+02  0.7818608E-02  0.1388417E+00
          2   -1    0    0  502    0  0.00000000000E+00  0.00000000000E+00  0.50755650908E+03  0.50755650908E+03  0.00000000000E+00 0. -1.
          1   -1    0    0  501    0 -0.00000000000E+00 -0.00000000000E+00 -0.80830466123E+03  0.80830466123E+03  0.00000000000E+00 0. -1.
         25    2    1    2    0    0  0.71433409487E+02 -0.57285148891E+02 -0.51180407319E+03  0.53474573717E+03  0.12500109522E+03 0.  0.
          2    1    1    2  501    0 -0.94427308926E+00  0.55019104842E+02 -0.27983004484E+03  0.28518914345E+03  0.00000000000E+00 0. -1.
          1    1    1    2  502    0 -0.70489136398E+02  0.22660440498E+01  0.49088596588E+03  0.49592628969E+03  0.00000000000E+00 0. -1.
         22    1    3    3    0    0  0.33831034623E+02  0.34890666950E+02 -0.24943216270E+03  0.25412261083E+03  0.00000000000E+00 0.  1.
         22    1    3    3    0    0  0.37602374865E+02 -0.92175815842E+02 -0.26237191049E+03  0.28062312634E+03  0.00000000000E+00 0.  1.
</event>
<event>
 7    1  0.6078244E-006  0.3303314E+02  0.7818608E-02  0.1589862E+00
          2   -1    0    0  502    0  0.00000000000E+00  0.00000000000E+00  0.33246089993E+03  0.33246089993E+03  0.00000000000E+00 0. -1.
          1   -1    0    0  501    0 -0.00000000000E+00 -0.00000000000E+00 -0.64080380006E+03  0.64080380006E+03  0.00000000000E+00 0. -1.
         25    2    1    2    0    0 -0.23633275227E+02  0.30254545609E+02 -0.13145227641E+03  0.18541247925E+03  0.12499686901E+03 0.  0.
          2    1    1    2  501    0  0.33013278781E+02 -0.31953387281E+01 -0.48112799954E+03  0.48226988161E+03  0.00000000000E+00 0. -1.
          1    1    1    2  502    0 -0.93800035541E+01 -0.27059206880E+02  0.30423737582E+03  0.30558233913E+03  0.00000000000E+00 0. -1.
         22    1    3    3    0    0  0.37092849987E+02 -0.25940101576E+02 -0.29139004907E+02  0.53831682093E+02  0.00000000000E+00 0. -1.
         22    1    3    3    0    0 -0.60726125214E+02  0.56194647185E+02 -0.10231327150E+03  0.13158079716E+03  0.00000000000E+00 0. -1.
</event>
<event>
 7    1  0.6078244E-006  0.1286115E+03  0.7818608E-02  0.1376232E+00
          2   -1    0    0  502    0  0.00000000000E+00  0.00000000000E+00  0.18403021332E+04  0.18403021332E+04  0.00000000000E+00 0. -1.
          1   -1    0    0  501    0 -0.00000000000E+00 -0.00000000000E+00 -0.15477478009E+04  0.15477478009E+04  0.00000000000E+00 0. -1.
         25    2    1    2    0    0  0.98457971386E+02 -0.68549687203E+02  0.75529004122E+03  0.77490499669E+03  0.12498670239E+03 0.  0.
          2    1    1    2  501    0 -0.10483840549E+02 -0.31630227511E+02 -0.15336256007E+04  0.15339875701E+04  0.00000000000E+00 0. -1.
          1    1    1    2  502    0 -0.87974130837E+02  0.10017991471E+03  0.10708898918E+04  0.10791573673E+04  0.00000000000E+00 0. -1.
         22    1    3    3    0    0 -0.40635529281E+01  0.27939891655E+02  0.20295604535E+03  0.20491048376E+03  0.00000000000E+00 0. -1.
         22    1    3    3    0    0  0.10252152431E+03 -0.96489578858E+02  0.55233399587E+03  0.56999451293E+03  0.00000000000E+00 0. -1.
</event>
<event>
 7    1  0.6078244E-006  0.1046211E+03  0.7818608E-02  0.1393947E+00
          2   -1    0    0  502    0  0.00000000000E+00  0.00000000000E+00  0.70778291959E+03  0.70778291959E+03  0.00000000000E+00 0. -1.
          1   -1    0    0  501    0 -0.00000000000E+00 -0.00000000000E+00 -0.11995314974E+04  0.11995314974E+04  0.00000000000E+00 0. -1.
         25    2    1    2    0    0 -0.11750461559E+03  0.23706396980E+02  0.57171854979E+02  0.18238082900E+03  0.12499927136E+03 0.  0.
          2    1    1    2  501    0  0.25591040849E+02  0.24591184593E+02 -0.11320631332E+04  0.11326193382E+04  0.00000000000E+00 0. -1.
          1    1    1    2  502    0  0.91913574746E+02 -0.48297581573E+02  0.58314270034E+03  0.59231424985E+03  0.00000000000E+00 0. -1.
         22    1    3    3    0    0 -0.45510248100E+02  0.67124052103E+02  0.69705048273E+00  0.81100597607E+02  0.00000000000E+00 0.  1.
         22    1    3    3    0    0 -0.71994367495E+02 -0.43417655123E+02  0.56474804496E+02  0.10128023139E+03  0.00000000000E+00 0.  1.
</event>
<event>
 7    1  0.6078244E-006  0.6010341E+02  0.7818608E-02  0.1462313E+00
          2   -1    0    0  502    0  0.00000000000E+00  0.00000000000E+00  0.16537086757E+04  0.16537086757E+04  0.00000000000E+00 0. -1.
          1   -1    0    0  501    0 -0.00000000000E+00 -0.00000000000E+00 -0.31563511531E+02  0.31563511531E+02  0.00000000000E+00 0. -1.
         25    2    1    2    0    0 -0.38820506417E+02  0.67935817505E+02  0.81010105519E+03  0.82341449622E+03  0.12500162376E+03 0.  0.
          2    1    1    2  501    0  0.30544374040E+01 -0.59572677386E+02  0.11844487878E+02  0.60815502727E+02  0.00000000000E+00 0. -1.
          1    1    1    2  502    0  0.35766069013E+02 -0.83631401183E+01  0.80019962111E+03  0.80104218830E+03  0.00000000000E+00 0. -1.
         22    1    3    3    0    0  0.13997634302E+02  0.30392977392E+02  0.47710161444E+02  0.58274577183E+02  0.00000000000E+00 0. -1.
         22    1    3    3    0    0 -0.52818140720E+02  0.37542840113E+02  0.76239089375E+03  0.76513991903E+03  0.00000000000E+00 0. -1.
</event>
<event>
 7    1  0.6078244E-006  0.9029354E+02  0.7818608E-02  0.1426360E+00
          2   -1    0    0  502    0  0.00000000000E+00  0.00000000000E+00  0.73611527180E+03  0.73611527180E+03  0.00000000000E+00 0. -1.
          1   -1    0    0  501    0 -0.00000000000E+00 -0.00000000000E+00 -0.58083151624E+03  0.58083151624E+03  0.00000000000E+00 0. -1.
         25    2    1    2    0    0 -0.21298627261E+02 -0.73133015288E+02 -0.31745278257E+03  0.34957572651E+03  0.12499939983E+03 0.  0.
          2    1    1    2  501    0  0.41739008772E+01  0.10008725075E+03 -0.23679964641E+03  0.25711661119E+03  0.00000000000E+00 0. -1.
          1    1    1    2  502    0  0.17124726384E+02 -0.26954235458E+02  0.70953618453E+03  0.71025445034E+03  0.00000000000E+00 0. -1.
         22    1    3    3    0    0 -0.39668486414E+02 -0.19756388079E+02 -0.27601502073E+03  0.27954998722E+03  0.00000000000E+00 0. -1.
         22    1    3    3    0    0  0.18369859153E+02 -0.53376627209E+02 -0.41437761839E+02  0.70025739295E+02  0.00000000000E+00 0. -1.
</event>
<event>
 7    1  0.6078244E-006  0.1210080E+03  0.7818608E-02  0.1269548E+00
          2   -1    0    0  502    0  0.00000000000E+00  0.00000000000E+00  0.25025230680E+04  0.25025230680E+04  0.00000000000E+00 0. -1.
          1   -1    0    0  501    0 -0.00000000000E+00 -0.00000000000E+00 -0.15494221553E+04  0.15494221553E+04  0.00000000000E+00 0. -1.
         25    2    1    2    0    0  0.18672028044E+03 -0.21796497661E+02  0.31855523506E+02  0.22799029423E+03  0.12500099778E+03 0.  0.
          2    1    1    2  501    0 -0.82953258589E+02 -0.38884755903E+02 -0.14483839861E+04  0.14512785531E+04  0.00000000000E+00 0. -1.
          1    1    1    2  502    0 -0.10376702185E+03  0.60681253564E+02  0.23696293753E+04  0.23726763761E+04  0.00000000000E+00 0. -1.
         22    1    3    3    0    0  0.28814478449E+02 -0.50568855190E+02  0.34125024246E+02  0.67468515349E+02  0.00000000000E+00 0.  1.
         22    1    3    3    0    0  0.15790580199E+03  0.28772357530E+02 -0.22695007408E+01  0.16052177888E+03  0.00000000000E+00 0.  1.
</event>
<event>
 7    1  0.6078244E-006  0.1503065E+03  0.7818608E-02  0.1301871E+00
          2   -1    0    0  502    0  0.00000000000E+00  0.00000000000E+00  0.13102647125E+04  0.13102647125E+04  0.00000000000E+00 0. -1.
          1   -1    0    0  501    0 -0.00000000000E+00 -0.00000000000E+00 -0.31440048413E+03  0.31440048413E+03  0.00000000000E+00 0. -1.
         25    2    1    2    0    0  0.10761355954E+03 -0.99903414755E+02  0.75441217052E+02  0.20706797259E+03  0.12499759025E+03 0.  0.
          2    1    1    2  501    0  0.32696262532E+02  0.43449307493E+02 -0.24064910897E+03  0.24671619638E+03  0.00000000000E+00 0. -1.
          1    1    1    2  502    0 -0.14030982207E+03  0.56454107261E+02  0.11610721203E+04  0.11708810277E+04  0.00000000000E+00 0. -1.
         22    1    3    3    0    0  0.21970702705E+02  0.29703823315E+02  0.20751969242E+02  0.42375383471E+02  0.00000000000E+00 0. -1.
         22    1    3    3    0    0  0.85642856831E+02 -0.12960723807E+03  0.54689247809E+02  0.16469258912E+03  0.00000000000E+00 0. -1.
</event>
<event>
 7    1  0.6078244E-006  0.3726670E+02  0.7818608E-02  0.1586977E+00
          2   -1    0    0  502    0  0.00000000000E+00  0.00000000000E+00  0.17696145867E+04  0.17696145867E+04  0.00000000000E+00 0. -1.
          1   -1    0    0  501    0 -0.00000000000E+00 -0.00000000000E+00 -0.85616173101E+01  0.85616173101E+01  0.00000000000E+00 0. -1.
         25    2    1    2    0    0 -0.45731053734E+02 -0.41057419457E+02  0.83582018787E+03  0.84734757798E+03  0.12500196190E+03 0.  0.
          2    1    1    2  501    0  0.18075807348E+02  0.18460697478E+02  0.66338665550E+02  0.71192350078E+02  0.00000000000E+00 0. -1.
          1    1    1    2  502    0  0.27655246386E+02  0.22596721979E+02  0.85889411592E+03  0.85963627591E+03  0.00000000000E+00 0. -1.
         22    1    3    3    0    0 -0.62366221263E+02 -0.29438718292E+02  0.81624546192E+03  0.81915373270E+03  0.00000000000E+00 0.  1.
         22    1    3    3    0    0  0.16635167529E+02 -0.11618701165E+02  0.19574725957E+02  0.28193845282E+02  0.00000000000E+00 0.  1.
</event>
<event>
 7    1  0.6078244E-006  0.4129870E+03  0.7818608E-02  0.1246146E+00
          2   -1    0    0  502    0  0.00000000000E+00  0.00000000000E+00  0.37585595081E+03  0.37585595081E+03  0.00000000000E+00 0. -1.
          1   -1    0    0  501    0 -0.00000000000E+00 -0.00000000000E+00 -0.14106349876E+04  0.14106349876E+04  0.00000000000E+00 0. -1.
         25    2    1    2    0    0  0.36742317345E+03  0.23688796325E+03 -0.29771285639E+03  0.54348268142E+03  0.12499913849E+03 0.  0.
          2    1    1    2  501    0 -0.34537958398E+03 -0.21124826324E+03 -0.94723877898E+03  0.10301330934E+04  0.00000000000E+00 0. -1.
          1    1    1    2  502    0 -0.22043589471E+02 -0.25639700006E+02  0.21017259861E+03  0.21287516355E+03  0.00000000000E+00 0. -1.
         22    1    3    3    0    0  0.21430803724E+02 -0.12360239312E+02 -0.25463405933E+01  0.24870438567E+02  0.00000000000E+00 0.  1.
         22    1    3    3    0    0  0.34599236973E+03  0.24924820256E+03 -0.29516651580E+03  0.51861224285E+03  0.00000000000E+00 0.  1.
</event>
<event>
 7    1  0.6078244E-006  0.1064670E+03  0.7818608E-02  0.1460550E+00
          2   -1    0    0  502    0  0.00000000000E+00  0.00000000000E+00  0.68960735597E+03  0.68960735597E+03  0.00000000000E+00 0. -1.
          1   -1    0    0  501    0 -0.00000000000E+00 -0.00000000000E+00 -0.82119201079E+03  0.82119201079E+03  0.00000000000E+00 0. -1.
         25    2    1    2    0    0  0.85937948102E+02  0.93165182105E+02 -0.22531197737E+03  0.28714938130E+03  0.12499679179E+03 0.  0.
          2    1    1    2  501    0 -0.16710806113E+02 -0.12721882940E+02 -0.56048839741E+03  0.56088175311E+03  0.00000000000E+00 0. -1.
          1    1    1    2  502    0 -0.69227141989E+02 -0.80443299165E+02  0.65421571995E+03  0.66276823234E+03  0.00000000000E+00 0. -1.
         22    1    3    3    0    0  0.10436281848E+03  0.57516104960E+02 -0.99979432343E+02  0.15554930762E+03  0.00000000000E+00 0. -1.
         22    1    3    3    0    0 -0.18424870378E+02  0.35649077146E+02 -0.12533254503E+03  0.13160007368E+03  0.00000000000E+00 0. -1.
</event>
<event>
 7    1  0.6078244E-006  0.6618123E+02  0.7818608E-02  0.1374971E+00
          2   -1    0    0  502    0  0.00000000000E+00  0.00000000000E+00  0.44399261142E+03  0.44399261142E+03  0.00000000000E+00 0. -1.
          1   -1    0    0  501    0 -0.00000000000E+00 -0.00000000000E+00 -0.11466430609E+04  0.11466430609E+04  0.00000000000E+00 0. -1.
         25    2    1    2    0    0  0.11160029368E+03  0.39623356603E+02 -0.74086206432E+03  0.76060891292E+03  0.12499873648E+03 0.  0.
          2    1    1    2  501    0 -0.45925874330E+02 -0.46603196266E+02 -0.39065915469E+03  0.39610051625E+03  0.00000000000E+00 0. -1.
          1    1    1    2  502    0 -0.65674419350E+02  0.69798396637E+01  0.42887076954E+03  0.43392624314E+03  0.00000000000E+00 0. -1.
         22    1    3    3    0    0  0.80516072600E+02 -0.10550769732E+02 -0.19042609249E+03  0.20701751952E+03  0.00000000000E+00 0.  1.
         22    1    3    3    0    0  0.31084221080E+02  0.50174126334E+02 -0.55043597183E+03  0.55359139339E+03  0.00000000000E+00 0.  1.
</event>
<event>
 7    1  0.6078244E-006  0.4936304E+02  0.7818608E-02  0.1518302E+00
          2   -1    0    0  502    0  0.00000000000E+00  0.00000000000E+00  0.26972123947E+04  0.26972123947E+04  0.00000000000E+00 0. -1.
          1   -1    0    0  501    0 -0.00000000000E+00 -0.00000000000E+00 -0.18900483734E+03  0.18900483734E+03  0.00000000000E+00 0. -1.
         25    2    1    2    0    0 -0.74785611152E+02  0.11876807669E+02 -0.49570673015E+02  0.15432608547E+03  0.12500137134E+03 0.  0.
          2    1    1    2  501    0  0.25656579588E+02 -0.16080553576E+02 -0.84186532130E+02  0.89466286788E+02  0.00000000000E+00 0. -1.
          1    1    1    2  502    0  0.49129031564E+02  0.42037459065E+01  0.26419647625E+04  0.26424248598E+04  0.00000000000E+00 0. -1.
         22    1    3    3    0    0 -0.17299318795E+02  0.35872587301E+02 -0.76667426691E+02  0.86394463167E+02  0.00000000000E+00 0.  1.
         22    1    3    3    0    0 -0.57486292357E+02 -0.23995779632E+02  0.27096753676E+02  0.67931622304E+02  0.00000000000E+00 0.  1.
</event>
<event>
 7    1  0.6078244E-006  0.1064131E+03  0.7818608E-02  0.1316947E+00
          2   -1    0    0  502    0  0.00000000000E+00  0.00000000000E+00  0.12272012700E+04  0.12272012700E+04  0.00000000000E+00 0. -1.
          1   -1    0    0  501    0 -0.00000000000E+00 -0.00000000000E+00 -0.16897310798E+03  0.16897310798E+03  0.00000000000E+00 0. -1.
         25    2    1    2    0    0 -0.97251256028E+02 -0.12650783771E+03  0.54866057498E+03  0.58490583865E+03  0.12499749497E+03 0.  0.
          2    1    1    2  501    0  0.25864640890E+02  0.61782433858E+02 -0.13968041732E+03  0.15490857873E+03  0.00000000000E+00 0. -1.
          1    1    1    2  502    0  0.71386615139E+02  0.64725403856E+02  0.64924800438E+03  0.65635996063E+03  0.00000000000E+00 0. -1.
         22    1    3    3    0    0 -0.11303993620E+03 -0.13379249554E+03  0.41975249950E+03  0.45483031987E+03  0.00000000000E+00 0. -1.
         22    1    3    3    0    0  0.15788680175E+02  0.72846578291E+01  0.12890807548E+03  0.13007551878E+03  0.00000000000E+00 0. -1.
</event>
<event>
 7    1  0.6078244E-006  0.8127918E+02  0.7818608E-02  0.1336241E+00
          2   -1    0    0  502    0  0.00000000000E+00  0.00000000000E+00  0.13260303333E+04  0.13260303333E+04  0.00000000000E+00 0. -1.
          1   -1    0    0  501    0 -0.00000000000E+00 -0.00000000000E+00 -0.39054283823E+02  0.39054283823E+02  0.00000000000E+00 0. -1.
         25    2    1    2    0    0  0.25282705951E+02 -0.96514679946E+01  0.31720434625E+03  0.34201742330E+03  0.12499981802E+03 0.  0.
          2    1    1    2  501    0 -0.97256452876E+02 -0.72622291354E+01  0.69482243590E+02  0.11974698231E+03  0.00000000000E+00 0. -1.
          1    1    1    2  502    0  0.71973746925E+02  0.16913697130E+02  0.90028945961E+03  0.90332021149E+03  0.00000000000E+00 0. -1.
         22    1    3    3    0    0 -0.45403618663E+00 -0.40381506065E+02  0.29175586211E+03  0.29453752776E+03  0.00000000000E+00 0.  1.
         22    1    3    3    0    0  0.25736742137E+02  0.30730038071E+02  0.25448484139E+02  0.47479895542E+02  0.00000000000E+00 0.  1.
</event>
<event>
 7    1  0.6078244E-006  0.1573716E+03  0.7818608E-02  0.1310109E+00
          2   -1    0    0  502    0  0.00000000000E+00  0.00000000000E+00  0.53708966328E+03  0.53708966328E+03  0.00000000000E+00 0. -1.
          1   -1    0    0  501    0 -0.00000000000E+00 -0.00000000000E+00 -0.10653927259E+04  0.10653927259E+04  0.00000000000E+00 0. -1.
         25    2    1    2    0    0  0.13635903207E+03  0.15667135324E+02 -0.20435968293E+03  0.27609185380E+03  0.12499834786E+03 0.  0.
          2    1    1    2  501    0 -0.16078650938E+03  0.25852657358E+02 -0.81594419914E+03  0.83203701697E+03  0.00000000000E+00 0. -1.
          1    1    1    2  502    0  0.24427477304E+02 -0.41519792682E+02  0.49200081945E+03  0.49435351842E+03  0.00000000000E+00 0. -1.
         22    1    3    3    0    0  0.90640525269E+02 -0.22102322367E+02 -0.40272368729E+02  0.10161732706E+03  0.00000000000E+00 0.  1.
         22    1    3    3    0    0  0.45718506804E+02  0.37769457691E+02 -0.16408731420E+03  0.17447452674E+03  0.00000000000E+00 0.  1.
</event>
<event>
 7    1  0.6078244E-006  0.1090329E+03  0.7818608E-02  0.1352746E+00
          2   -1    0    0  502    0  0.00000000000E+00  0.00000000000E+00  0.28452413602E+03  0.28452413602E+03  0.00000000000E+00 0. -1.
          1   -1    0    0  501    0 -0.00000000000E+00 -0.00000000000E+00 -0.37722086685E+03  0.37722086685E+03  0.00000000000E+00 0. -1.
         25    2    1    2    0    0 -0.51788192450E+02 -0.14072108491E+03 -0.17800581034E+02  0.19602763509E+03  0.12500212966E+03 0.  0.
          2    1    1    2  501    0  0.25838356906E+02  0.40236836541E+02 -0.25413859663E+03  0.25859824052E+03  0.00000000000E+00 0. -1.
          1    1    1    2  502    0  0.25949835544E+02  0.10048424837E+03  0.17924244683E+03  0.20711912727E+03  0.00000000000E+00 0. -1.
         22    1    3    3    0    0 -0.79632811976E+02 -0.41747021530E+02  0.72488487391E+01  0.90203904338E+02  0.00000000000E+00 0. -1.
         22    1    3    3    0    0  0.27844619526E+02 -0.98974063378E+02 -0.25049429773E+02  0.10582373075E+03  0.00000000000E+00 0. -1.
</event>
<event>
 7    1  0.6078244E-006  0.2666544E+02  0.7818608E-02  0.1664438E+00
          2   -1    0    0  502    0  0.00000000000E+00  0.00000000000E+00  0.50859316508E+03  0.50859316508E+03  0.00000000000E+00 0. -1.
          1   -1    0    0  501    0 -0.00000000000E+00 -0.00000000000E+00 -0.16692423147E+03  0.16692423147E+03  0.00000000000E+00 0. -1.
         25    2    1    2    0    0  0.10613197825E+02  0.24404115018E+02  0.10583420696E+03  0.16592981827E+03  0.12499449760E+03 0.  0.
          2    1    1    2  501    0 -0.22987200318E+02 -0.60589295900E+00 -0.13542335295E+03  0.13736179603E+03  0.00000000000E+00 0. -1.
          1    1    1    2  502    0  0.12374002493E+02 -0.23798222059E+02  0.37125807959E+03  0.37222578225E+03  0.00000000000E+00 0. -1.
         22    1    3    3    0    0 -0.39596134305E+02 -0.57364494500E+01  0.99236077129E+02  0.10699794254E+03  0.00000000000E+00 0. -1.
         22    1    3    3    0    0  0.50209332130E+02  0.30140564468E+02  0.65981298357E+01  0.58931875727E+02  0.00000000000E+00 0. -1.
</event>
<event>
 7    1  0.6078244E-006  0.3948561E+03  0.7818608E-02  0.1165594E+00
          2   -1    0    0  502    0  0.00000000000E+00  0.00000000000E+00  0.30512394921E+04  0.30512394921E+04  0.00000000000E+00 0. -1.
          1   -1    0    0  501    0 -0.00000000000E+00 -0.00000000000E+00 -0.30342029445E+03  0.30342029445E+03  0.00000000000E+00 0. -1.
         25    2    1    2    0    0  0.32696870143E+03  0.26047881586E+03  0.53545138721E+03  0.69071774957E+03  0.12500030513E+03 0.  0.
          2    1    1    2  501    0 -0.74650240302E+02  0.38877582617E+02 -0.20158303531E+03  0.21844872380E+03  0.00000000000E+00 0. -1.
          1    1    1    2  502    0 -0.25231846113E+03 -0.29935639848E+03  0.24139508458E+04  0.24454933132E+04  0.00000000000E+00 0. -1.
         22    1    3    3    0    0  0.30291968479E+02 -0.11764741645E+02  0.54615528381E+02  0.63552092339E+02  0.00000000000E+00 0. -1.
         22    1    3    3    0    0  0.29667673295E+03  0.27224355750E+03  0.48083585883E+03  0.62716565724E+03  0.00000000000E+00 0. -1.
</event>
<event>
 7    1  0.6078244E-006  0.5801804E+02  0.7818608E-02  0.1436166E+00
          2   -1    0    0  502    0  0.00000000000E+00  0.00000000000E+00  0.31016723677E+02  0.31016723677E+02  0.00000000000E+00 0. -1.
          1   -1    0    0  501    0 -0.00000000000E+00 -0.00000000000E+00 -0.19294275675E+04  0.19294275675E+04  0.00000000000E+00 0. -1.
         25    2    1    2    0    0  0.56677151644E+02 -0.11212829238E+02 -0.78044184484E+03  0.79249880357E+03  0.12500741349E+03 0.  0.
          2    1    1    2  501    0 -0.49407563609E+02 -0.34355832632E+02 -0.11201344749E+04  0.11217498261E+04  0.00000000000E+00 0. -1.
          1    1    1    2  502    0 -0.72695880345E+01  0.45568661870E+02  0.21654758937E+01  0.46195661492E+02  0.00000000000E+00 0. -1.
         22    1    3    3    0    0  0.55750292547E+02 -0.63304466102E+02 -0.53275909005E+03  0.53939577174E+03  0.00000000000E+00 0.  1.
         22    1    3    3    0    0  0.92685909640E+00  0.52091636864E+02 -0.24768275479E+03  0.25310303183E+03  0.00000000000E+00 0.  1.
</event>
<event>
 7    1  0.6078244E-006  0.6558533E+02  0.7818608E-02  0.1413562E+00
          2   -1    0    0  502    0  0.00000000000E+00  0.00000000000E+00  0.23066828041E+04  0.23066828041E+04  0.00000000000E+00 0. -1.
          1   -1    0    0  501    0 -0.00000000000E+00 -0.00000000000E+00 -0.16509050654E+03  0.16509050654E+03  0.00000000000E+00 0. -1.
         25    2    1    2    0    0 -0.10357689237E+03 -0.13387400955E+02  0.34856105691E+03  0.38474201832E+03  0.12499686049E+03 0.  0.
          2    1    1    2  501    0  0.45900801879E+02 -0.15702348316E+02 -0.14244400801E+03  0.15047837976E+03  0.00000000000E+00 0. -1.
          1    1    1    2  502    0  0.57676090490E+02  0.29089749272E+02  0.19354752486E+04  0.19365529125E+04  0.00000000000E+00 0. -1.
         22    1    3    3    0    0 -0.89065934081E+02 -0.29421130420E+01  0.35478857116E+03  0.36580913994E+03  0.00000000000E+00 0. -1.
         22    1    3    3    0    0 -0.14510958288E+02 -0.10445287913E+02 -0.62275142474E+01  0.18932878379E+02  0.00000000000E+00 0. -1.
</event>
<event>
 7    1  0.6078244E-006  0.4577211E+02  0.7818608E-02  0.1474587E+00
          2   -1    0    0  502    0  0.00000000000E+00  0.00000000000E+00  0.55333214753E+02  0.55333214753E+02  0.00000000000E+00 0. -1.
          1   -1    0    0  501    0 -0.00000000000E+00 -0.00000000000E+00 -0.64288910570E+03  0.64288910570E+03  0.00000000000E+00 0. -1.
         25    2    1    2    0    0 -0.46926966101E+01  0.17900662569E+01 -0.13561428381E+03  0.18450319049E+03  0.12499987035E+03 0.  0.
          2    1    1    2  501    0  0.23146157112E+02 -0.41913632583E+02 -0.46516155919E+03  0.46761926108E+03  0.00000000000E+00 0. -1.
          1    1    1    2  502    0 -0.18453460501E+02  0.40123566327E+02  0.13219952053E+02  0.46099868888E+02  0.00000000000E+00 0. -1.
         22    1    3    3    0    0  0.46386271372E+02  0.13701150151E+02 -0.12061466652E+03  0.12995116570E+03  0.00000000000E+00 0. -1.
         22    1    3    3    0    0 -0.51078967982E+02 -0.11911083894E+02 -0.14999617296E+02  0.54552024790E+02  0.00000000000E+00 0. -1.
</event>
<event>
 7    1  0.6078244E-006  0.6045851E+02  0.7818608E-02  0.1480393E+00
          2   -1    0    0  502    0  0.00000000000E+00  0.00000000000E+00  0.46269123793E+03  0.46269123793E+03  0.00000000000E+00 0. -1.
          1   -1    0    0  501    0 -0.00000000000E+00 -0.00000000000E+00 -0.12334020470E+04  0.12334020470E+04  0.00000000000E+00 0. -1.
         25    2    1    2    0    0  0.49074182782E+02 -0.75224722467E+02  0.95887008364E+02  0.18134515773E+03  0.12499885429E+03 0.  0.
          2    1    1    2  501    0 -0.23855297483E+02  0.55384850249E+02 -0.11891127636E+04  0.11906408868E+04  0.00000000000E+00 0. -1.
          1    1    1    2  502    0 -0.25218885299E+02  0.19839872218E+02  0.32251494620E+03  0.32410724032E+03  0.00000000000E+00 0. -1.
         22    1    3    3    0    0  0.51409649639E+02 -0.97846406095E+02  0.34356592607E+02  0.11574647605E+03  0.00000000000E+00 0.  1.
         22    1    3    3    0    0 -0.23354668568E+01  0.22621683628E+02  0.61530415757E+02  0.65598681685E+02  0.00000000000E+00 0.  1.
</event>
<event>
 7    1  0.6078244E-006  0.5459517E+02  0.7818608E-02  0.1461546E+00
          2   -1    0    0  502    0  0.00000000000E+00  0.00000000000E+00  0.10656186624E+03  0.10656186624E+03  0.00000000000E+00 0. -1.
          1   -1    0    0  501    0 -0.00000000000E+00 -0.00000000000E+00 -0.45188616436E+03  0.45188616436E+03  0.00000000000E+00 0. -1.
         25    2    1    2    0    0  0.50802298952E+02 -0.11541489187E+02 -0.10923068126E+03  0.17398035281E+03  0.12499496744E+03 0.  0.
          2    1    1    2  501    0 -0.30545051986E+02  0.46798279283E+02 -0.30194544172E+03  0.30707349107E+03  0.00000000000E+00 0. -1.
          1    1    1    2  502    0 -0.20257246966E+02 -0.35256790096E+02  0.65851824846E+02  0.77394186720E+02  0.00000000000E+00 0. -1.
         22    1    3    3    0    0  0.13149045898E+02 -0.56475038681E+02 -0.10167296249E+02  0.58870207364E+02  0.00000000000E+00 0.  1.
         22    1    3    3    0    0  0.37653253054E+02  0.44933549494E+02 -0.99063385006E+02  0.11511014545E+03  0.00000000000E+00 0.  1.
</event>
<event>
 7    1  0.6078244E-006  0.8028221E+02  0.7818608E-02  0.1452208E+00
          2   -1    0    0  502    0  0.00000000000E+00  0.00000000000E+00  0.54281366993E+03  0.54281366993E+03  0.00000000000E+00 0. -1.
          1   -1    0    0  501    0 -0.00000000000E+00 -0.00000000000E+00 -0.29428856094E+04  0.29428856094E+04  0.00000000000E+00 0. -1.
         25    2    1    2    0    0 -0.88990421977E+02  0.81549878023E+01 -0.46873468889E+02  0.16064924919E+03  0.12500104060E+03 0.  0.
          2    1    1    2  501    0  0.77888320747E+02  0.19285616761E+02 -0.28381058757E+04  0.28392399489E+04  0.00000000000E+00 0. -1.
          1    1    1    2  502    0  0.11102101230E+02 -0.27440604563E+02  0.48490740517E+03  0.48581008122E+03  0.00000000000E+00 0. -1.
         22    1    3    3    0    0  0.28594908486E+02  0.94309929958E+01  0.75973424615E+01  0.31053695959E+02  0.00000000000E+00 0.  1.
         22    1    3    3    0    0 -0.11758533046E+03 -0.12760051934E+01 -0.54470811350E+02  0.12959555324E+03  0.00000000000E+00 0.  1.
</event>
<event>
 7    1  0.6078244E-006  0.1263155E+03  0.7818608E-02  0.1428291E+00
          2   -1    0    0  502    0  0.00000000000E+00  0.00000000000E+00  0.28002679605E+04  0.28002679605E+04  0.00000000000E+00 0. -1.
          1   -1    0    0  501    0 -0.00000000000E+00 -0.00000000000E+00 -0.98128134628E+03  0.98128134628E+03  0.00000000000E+00 0. -1.
         25    2    1    2    0    0 -0.46280093842E+02  0.12318714326E+03 -0.14658282358E+03  0.23329842167E+03  0.12499884013E+03 0.  0.
          2    1    1    2  501    0 -0.17470622275E+02 -0.14169259685E+02 -0.78973421493E+03  0.79005450495E+03  0.00000000000E+00 0. -1.
          1    1    1    2  502    0  0.63750716117E+02 -0.10901788357E+03  0.27553036527E+04  0.27581963801E+04  0.00000000000E+00 0. -1.
         22    1    3    3    0    0 -0.34569603079E+02 -0.14260717038E+02 -0.89856516558E+01  0.38459945959E+02  0.00000000000E+00 0. -1.
         22    1    3    3    0    0 -0.11710490763E+02  0.13744786030E+03 -0.13759717193E+03  0.19483847571E+03  0.00000000000E+00 0. -1.
</event>
<event>
 7    1  0.6078244E-006  0.1599404E+03  0.7818608E-02  0.1314575E+00
          2   -1    0    0  502    0  0.00000000000E+00  0.00000000000E+00  0.16499831786E+04  0.16499831786E+04  0.00000000000E+00 0. -1.
          1   -1    0    0  501    0 -0.00000000000E+00 -0.00000000000E+00 -0.11051390131E+03  0.11051390131E+03  0.00000000000E+00 0. -1.
         25    2    1    2    0    0 -0.12794925154E+03  0.71166930864E+02  0.12375515969E+03  0.22885823594E+03  0.12500003837E+03 0.  0.
          2    1    1    2  501    0  0.12591181064E+03 -0.11664435889E+03  0.70336070701E+02  0.18549084441E+03  0.00000000000E+00 0. -1.
          1    1    1    2  502    0  0.20374409007E+01  0.45477428026E+02  0.13453780469E+04  0.13461479996E+04  0.00000000000E+00 0. -1.
         22    1    3    3    0    0 -0.56505180757E+02  0.49025273796E+02 -0.10135457709E+02  0.75491989152E+02  0.00000000000E+00 0.  1.
         22    1    3    3    0    0 -0.71444070783E+02  0.22141657069E+02  0.13389061740E+03  0.15336624679E+03  0.00000000000E+00 0.  1.
</event>
<event>
 7    1  0.6078244E-006  0.6922323E+02  0.7818608E-02  0.1465230E+00
          2   -1    0    0  502    0  0.00000000000E+00  0.00000000000E+00  0.32845063319E+04  0.32845063319E+04  0.00000000000E+00 0. -1.
          1   -1    0    0  501    0 -0.00000000000E+00 -0.00000000000E+00 -0.36099606800E+03  0.36099606800E+03  0.00000000000E+00 0. -1.
         25    2    1    2    0    0  0.68384590931E+02  0.49616672464E+02  0.16843306360E+04  0.16910748987E+04  0.12500541966E+03 0.  0.
          2    1    1    2  501    0 -0.30713510969E+02  0.56377721394E+01 -0.35624047015E+03  0.35760645521E+03  0.00000000000E+00 0. -1.
          1    1    1    2  502    0 -0.37671079962E+02 -0.55254444603E+02  0.15954200980E+04  0.15968210460E+04  0.00000000000E+00 0. -1.
         22    1    3    3    0    0 -0.31334012571E+01  0.49980597808E+02  0.25022516377E+03  0.25518720765E+03  0.00000000000E+00 0.  1.
         22    1    3    3    0    0  0.71517992188E+02 -0.36392534445E+00  0.14341054723E+04  0.14358876910E+04  0.00000000000E+00 0.  1.
</event>
<event>
 7    1  0.6078244E-006  0.6296003E+02  0.7818608E-02  0.1449484E+00
          2   -1    0    0  502    0  0.00000000000E+00  0.00000000000E+00  0.23823145651E+03  0.23823145651E+03  0.00000000000E+00 0. -1.
          1   -1    0    0  501    0 -0.00000000000E+00 -0.00000000000E+00 -0.15119041171E+04  0.15119041171E+04  0.00000000000E+00 0. -1.
         25    2    1    2    0    0  0.18665679477E+02  0.41590072494E+02 -0.78126829833E+03  0.79251692521E+03  0.12499912416E+03 0.  0.
          2    1    1    2  501    0 -0.57144790972E+02 -0.40053451179E+02 -0.72172305299E+03  0.72508894027E+03  0.00000000000E+00 0. -1.
          1    1    1    2  502    0  0.38479111494E+02 -0.15366213154E+01  0.22931869075E+03  0.23252970811E+03  0.00000000000E+00 0. -1.
         22    1    3    3    0    0  0.23943070370E+02  0.59930234045E+02 -0.76417954443E+03  0.76689978465E+03  0.00000000000E+00 0.  1.
         22    1    3    3    0    0 -0.52773908926E+01 -0.18340161551E+02 -0.17088753900E+02  0.25617140555E+02  0.00000000000E+00 0.  1.
</event>
<event>
 7    1  0.6078244E-006  0.6735305E+02  0.7818608E-02  0.1410010E+00
          2   -1    0    0  502    0  0.00000000000E+00  0.00000000000E+00  0.92719574835E+03  0.92719574835E+03  0.00000000000E+00 0. -1.
          1   -1    0    0  501    0 -0.00000000000E+00 -0.00000000000E+00 -0.68875207711E+03  0.68875207711E+03  0.00000000000E+00 0. -1.
         25    2    1    2    0    0  0.43240000450E+02  0.13831753178E+02 -0.19270678656E+03  0.23414499865E+03  0.12500783883E+03 0.  0.
          2    1    1    2  501    0  0.16314329450E+02 -0.45740775797E+02 -0.47282178849E+03  0.47530918315E+03  0.00000000000E+00 0. -1.
          1    1    1    2  502    0 -0.59554329900E+02  0.31909022619E+02  0.90397224629E+03  0.90649364366E+03  0.00000000000E+00 0. -1.
         22    1    3    3    0    0  0.83302489061E+02  0.26347876905E+02 -0.10272241785E+03  0.13485329225E+03  0.00000000000E+00 0.  1.
         22    1    3    3    0    0 -0.40062488611E+02 -0.12516123727E+02 -0.89984368715E+02  0.99291706400E+02  0.00000000000E+00 0.  1.
</event>
<event>
 7    1  0.6078244E-006  0.6273506E+02  0.7818608E-02  0.1485364E+00
          2   -1    0    0  502    0  0.00000000000E+00  0.00000000000E+00  0.66066538420E+03  0.66066538420E+03  0.00000000000E+00 0. -1.
          1   -1    0    0  501    0 -0.00000000000E+00 -0.00000000000E+00 -0.28288180814E+03  0.28288180814E+03  0.00000000000E+00 0. -1.
         25    2    1    2    0    0  0.15085577650E+02 -0.81044555721E+02  0.97158521164E+02  0.17849774089E+03  0.12500348236E+03 0.  0.
          2    1    1    2  501    0  0.77365762601E+01  0.61788638410E+02 -0.23777307496E+03  0.24579203735E+03  0.00000000000E+00 0. -1.
          1    1    1    2  502    0 -0.22822153910E+02  0.19255917310E+02  0.51839812985E+03  0.51925741410E+03  0.00000000000E+00 0. -1.
         22    1    3    3    0    0 -0.12292838570E+02 -0.68438367946E+02 -0.71701453597E+01  0.69902325224E+02  0.00000000000E+00 0. -1.
         22    1    3    3    0    0  0.27378416220E+02 -0.12606187775E+02  0.10432866652E+03  0.10859541567E+03  0.00000000000E+00 0. -1.
</event>
<event>
 7    1  0.6078244E-006  0.3475266E+02  0.7818608E-02  0.1568230E+00
          2   -1    0    0  502    0  0.00000000000E+00  0.00000000000E+00  0.25384128156E+03  0.25384128156E+03  0.00000000000E+00 0. -1.
          1   -1    0    0  501    0 -0.00000000000E+00 -0.00000000000E+00 -0.17092352343E+03  0.17092352343E+03  0.00000000000E+00 0. -1.
         25    2    1    2    0    0  0.37200384596E+02  0.20519724773E+02  0.85928720583E+02  0.15752290539E+03  0.12499917193E+03 0.  0.
          2    1    1    2  501    0 -0.89968856978E+01 -0.33666242194E+02 -0.13098390097E+03  0.13554018640E+03  0.00000000000E+00 0. -1.
          1    1    1    2  502    0 -0.28203498898E+02  0.13146517421E+02  0.12797293851E+03  0.13170171320E+03  0.00000000000E+00 0. -1.
         22    1    3    3    0    0  0.61245224910E+02 -0.20666369349E+02  0.88697769563E+02  0.10975140419E+03  0.00000000000E+00 0. -1.
         22    1    3    3    0    0 -0.24044840315E+02  0.41186094122E+02 -0.27690489802E+01  0.47771501202E+02  0.00000000000E+00 0. -1.
</event>
<event>
 7    1  0.6078244E-006  0.6227202E+02  0.7818608E-02  0.1413815E+00
          2   -1    0    0  502    0  0.00000000000E+00  0.00000000000E+00  0.15297660108E+03  0.15297660108E+03  0.00000000000E+00 0. -1.
          1   -1    0    0  501    0 -0.00000000000E+00 -0.00000000000E+00 -0.50619105855E+03  0.50619105855E+03  0.00000000000E+00 0. -1.
         25    2    1    2    0    0 -0.31270855892E+02 -0.25224798260E+02 -0.41072306687E+02  0.13756950822E+03  0.12499711333E+03 0.  0.
          2    1    1    2  501    0  0.62405822909E+02 -0.15159981564E+02 -0.40799861478E+03  0.41302201084E+03  0.00000000000E+00 0. -1.
          1    1    1    2  502    0 -0.31134967017E+02  0.40384779824E+02  0.95856463989E+02  0.10857614057E+03  0.00000000000E+00 0. -1.
         22    1    3    3    0    0  0.21617774763E+02 -0.61625382780E+02 -0.94070819948E+01  0.65981127454E+02  0.00000000000E+00 0. -1.
         22    1    3    3    0    0 -0.52888630655E+02  0.36400584520E+02 -0.31665224692E+02  0.71588380767E+02  0.00000000000E+00 0. -1.
</event>
<event>
 7    1  0.6078244E-006  0.5380660E+02  0.7818608E-02  0.1533973E+00
          2   -1    0    0  502    0  0.00000000000E+00  0.00000000000E+00  0.45821845332E+03  0.45821845332E+03  0.00000000000E+00 0. -1.
          1   -1    0    0  501    0 -0.00000000000E+00 -0.00000000000E+00 -0.21433750751E+04  0.21433750751E+04  0.00000000000E+00 0. -1.
         25    2    1    2    0    0  0.16214996578E+02  0.76272578696E+02 -0.44890249539E+03  0.47246073972E+03  0.12500107133E+03 0.  0.
          2    1    1    2  501    0 -0.10398950826E+02 -0.51920649923E+02 -0.16819254411E+04  0.16827587711E+04  0.00000000000E+00 0. -1.
          1    1    1    2  502    0 -0.58160457520E+01 -0.24351928774E+02  0.44567131475E+03  0.44637401762E+03  0.00000000000E+00 0. -1.
         22    1    3    3    0    0  0.65290131133E+02  0.12014823615E+02 -0.21053591051E+03  0.22075444916E+03  0.00000000000E+00 0.  1.
         22    1    3    3    0    0 -0.49075134556E+02  0.64257755081E+02 -0.23836658488E+03  0.25170629056E+03  0.00000000000E+00 0.  1.
</event>
<event>
 7    1  0.6078244E-006  0.1253856E+03  0.7818608E-02  0.1299500E+00
          2   -1    0    0  502    0  0.00000000000E+00  0.00000000000E+00  0.37556239679E+03  0.37556239679E+03  0.00000000000E+00 0. -1.
          1   -1    0    0  501    0 -0.00000000000E+00 -0.00000000000E+00 -0.83425214510E+03  0.83425214510E+03  0.00000000000E+00 0. -1.
         25    2    1    2    0    0  0.11349286810E+03 -0.30181922139E+02 -0.20740295524E+03  0.26913278859E+03  0.12499957008E+03 0.  0.
          2    1    1    2  501    0 -0.91389908742E+02  0.93032765996E+02 -0.58552286899E+03  0.59987018685E+03  0.00000000000E+00 0. -1.
          1    1    1    2  502    0 -0.22102959363E+02 -0.62850843857E+02  0.33423607591E+03  0.34081156645E+03  0.00000000000E+00 0. -1.
         22    1    3    3    0    0  0.86346323066E+02 -0.58479846883E+02 -0.20481195206E+03  0.22983366965E+03  0.00000000000E+00 0.  1.
         22    1    3    3    0    0  0.27146545039E+02  0.28297924744E+02 -0.25910031805E+01  0.39299118945E+02  0.00000000000E+00 0.  1.
</event>
<event>
 7    1  0.6078244E-006  0.1741314E+03  0.7818608E-02  0.1277116E+00
          2   -1    0    0  502    0  0.00000000000E+00  0.00000000000E+00  0.12223777175E+04  0.12223777175E+04  0.00000000000E+00 0. -1.
          1   -1    0    0  501    0 -0.00000000000E+00 -0.00000000000E+00 -0.77919451267E+03  0.77919451267E+03  0.00000000000E+00 0. -1.
         25    2    1    2    0    0  0.96271978529E+02 -0.21079601007E+03  0.39236426256E+03  0.47252328198E+03  0.12500114308E+03 0.  0.
          2    1    1    2  501    0 -0.75958627102E+02  0.15519436925E+03 -0.72787801216E+03  0.74810521042E+03  0.00000000000E+00 0. -1.
          1    1    1    2  502    0 -0.20313351427E+02  0.55601640813E+02  0.77869695438E+03  0.78094373771E+03  0.00000000000E+00 0. -1.
         22    1    3    3    0    0  0.94464159789E+02 -0.59042076451E+02  0.17375405615E+03  0.20639747165E+03  0.00000000000E+00 0. -1.
         22    1    3    3    0    0  0.18078187394E+01 -0.15175393362E+03  0.21861020641E+03  0.26612581033E+03  0.00000000000E+00 0. -1.
</event>
<event>
 7    1  0.6078244E-006  0.1291526E+03  0.7818608E-02  0.1399803E+00
          2   -1    0    0  502    0  0.00000000000E+00  0.00000000000E+00  0.14515393127E+04  0.14515393127E+04  0.00000000000E+00 0. -1.
          1   -1    0    0  501    0 -0.00000000000E+00 -0.00000000000E+00 -0.22905658290E+04  0.22905658290E+04  0.00000000000E+00 0. -1.
         25    2    1    2    0    0  0.92581739173E+02  0.64320097839E+02 -0.57873132959E+03  0.60271408557E+03  0.12500345468E+03 0.  0.
          2    1    1    2  501    0 -0.96468786300E+02 -0.91484932078E+02 -0.16971122974E+04  0.17023119189E+04  0.00000000000E+00 0. -1.
          1    1    1    2  502    0  0.38870471262E+01  0.27164834239E+02  0.14368171106E+04  0.14370791372E+04  0.00000000000E+00 0. -1.
         22    1    3    3    0    0  0.75114317818E+02  0.98537627858E+02 -0.36233808679E+03  0.38293695824E+03  0.00000000000E+00 0. -1.
         22    1    3    3    0    0  0.17467421355E+02 -0.34217530019E+02 -0.21639324279E+03  0.21977712733E+03  0.00000000000E+00 0. -1.
</event>
<event>
 7    1  0.6078244E-006  0.5958297E+02  0.7818608E-02  0.1489194E+00
          2   -1    0    0  502    0  0.00000000000E+00  0.00000000000E+00  0.89374143995E+03  0.89374143995E+03  0.00000000000E+00 0. -1.
          1   -1    0    0  501    0 -0.00000000000E+00 -0.00000000000E+00 -0.61850808125E+03  0.61850808125E+03  0.00000000000E+00 0. -1.
         25    2    1    2    0    0 -0.43992575036E+00  0.67327032414E+02  0.39802368898E+03  0.42258459162E+03  0.12498702837E+03 0.  0.
          2    1    1    2  501    0  0.27081516590E+02 -0.14265689255E+02 -0.60401559985E+03  0.60479067725E+03  0.00000000000E+00 0. -1.
          1    1    1    2  502    0 -0.26641590840E+02 -0.53061343159E+02  0.48122526957E+03  0.48487425233E+03  0.00000000000E+00 0. -1.
         22    1    3    3    0    0  0.26227210812E+02  0.15894168953E+02  0.13138260364E+02  0.33363229446E+02  0.00000000000E+00 0.  1.
         22    1    3    3    0    0 -0.26667136562E+02  0.51432863461E+02  0.38488542861E+03  0.38922136218E+03  0.00000000000E+00 0.  1.
</event>
<event>
 7    1  0.6078244E-006  0.1448574E+03  0.7818608E-02  0.1385220E+00
          2   -1    0    0  502    0  0.00000000000E+00  0.00000000000E+00  0.53094854561E+03  0.53094854561E+03  0.00000000000E+00 0. -1.
          1   -1    0    0  501    0 -0.00000000000E+00 -0.00000000000E+00 -0.83037611391E+03  0.83037611391E+03  0.00000000000E+00 0. -1.
         25    2    1    2    0    0  0.11049617754E+03 -0.45953915963E+02  0.13595408627E+02  0.17358325332E+03  0.12500057222E+03 0.  0.
          2    1    1    2  501    0 -0.13737912927E+03  0.51729283254E+02 -0.74275927922E+03  0.75712633739E+03  0.00000000000E+00 0. -1.
          1    1    1    2  502    0  0.26882951731E+02 -0.57753672916E+01  0.42973630230E+03  0.43061506880E+03  0.00000000000E+00 0. -1.
         22    1    3    3    0    0 -0.19449258430E+02 -0.59670241378E+00  0.29176827155E+02  0.35070171800E+02  0.00000000000E+00 0. -1.
         22    1    3    3    0    0  0.12994543597E+03 -0.45357213549E+02 -0.15581418528E+02  0.13851308152E+03  0.00000000000E+00 0. -1.
</event>
<event>
 7    1  0.6078244E-006  0.3981430E+02  0.7818608E-02  0.1596633E+00
          2   -1    0    0  502    0  0.00000000000E+00  0.00000000000E+00  0.11024187790E+04  0.11024187790E+04  0.00000000000E+00 0. -1.
          1   -1    0    0  501    0 -0.00000000000E+00 -0.00000000000E+00 -0.94266749697E+03  0.94266749697E+03  0.00000000000E+00 0. -1.
         25    2    1    2    0    0 -0.36536489605E+02  0.83705651835E+01  0.34854972338E+03  0.37217936027E+03  0.12500234042E+03 0.  0.
          2    1    1    2  501    0  0.90217391709E+01  0.20943977203E+02 -0.93016825534E+03  0.93044775522E+03  0.00000000000E+00 0. -1.
          1    1    1    2  502    0  0.27514750434E+02 -0.29314542386E+02  0.74136981399E+03  0.74245916048E+03  0.00000000000E+00 0. -1.
         22    1    3    3    0    0 -0.13116498016E+02 -0.43504914362E+02  0.27724427465E+03  0.28094324679E+03  0.00000000000E+00 0. -1.
         22    1    3    3    0    0 -0.23419991589E+02  0.51875479546E+02  0.71305448733E+02  0.91236113481E+02  0.00000000000E+00 0. -1.
</event>
<event>
 7    1  0.6078244E-006  0.6280917E+02  0.7818608E-02  0.1518064E+00
          2   -1    0    0  502    0  0.00000000000E+00  0.00000000000E+00  0.12158076493E+04  0.12158076493E+04  0.00000000000E+00 0. -1.
          1   -1    0    0  501    0 -0.00000000000E+00 -0.00000000000E+00 -0.23918913884E+04  0.23918913884E+04  0.00000000000E+00 0. -1.
         25    2    1    2    0    0 -0.47413673125E+02 -0.14369173615E+02 -0.72111763993E+03  0.73354933136E+03  0.12501776418E+03 0.  0.
          2    1    1    2  501    0  0.52183118214E+02  0.37722288548E+02 -0.16638176842E+04  0.16650631625E+04  0.00000000000E+00 0. -1.
          1    1    1    2  502    0 -0.47694450890E+01 -0.23353114933E+02  0.12088515850E+04  0.12090865437E+04  0.00000000000E+00 0. -1.
         22    1    3    3    0    0 -0.88898491223E+02 -0.18523527826E+02 -0.43198760915E+03  0.44142876808E+03  0.00000000000E+00 0. -1.
         22    1    3    3    0    0  0.41484818098E+02  0.41543542111E+01 -0.28913003078E+03  0.29212056328E+03  0.00000000000E+00 0. -1.
</event>
<event>
 7    1  0.6078244E-006  0.4142695E+02  0.7818608E-02  0.1528838E+00
          2   -1    0    0  502    0  0.00000000000E+00  0.00000000000E+00  0.31802149742E+02  0.31802149742E+02  0.00000000000E+00 0. -1.
          1   -1    0    0  501    0 -0.00000000000E+00 -0.00000000000E+00 -0.62446430087E+03  0.62446430087E+03  0.00000000000E+00 0. -1.
         25    2    1    2    0    0 -0.26754900623E+02  0.14408666852E+02 -0.29889978879E+03  0.32540552694E+03  0.12499695532E+03 0.  0.
          2    1    1    2  501    0  0.18521297877E+02  0.28078682155E+02 -0.28465464757E+03  0.28663516751E+03  0.00000000000E+00 0. -1.
          1    1    1    2  502    0  0.82336027453E+01 -0.42487349007E+02 -0.91077147621E+01  0.44225756161E+02  0.00000000000E+00 0. -1.
         22    1    3    3    0    0 -0.74359189001E+02  0.14574830841E+02 -0.22576774833E+03  0.23814447478E+03  0.00000000000E+00 0.  1.
         22    1    3    3    0    0  0.47604288378E+02 -0.16616398977E+00 -0.73132040461E+02  0.87261052162E+02  0.00000000000E+00 0.  1.
</event>
<event>
 7    1  0.6078244E-006  0.1305980E+03  0.7818608E-02  0.1291892E+00
          2   -1    0    0  502    0  0.00000000000E+00  0.00000000000E+00  0.63712475774E+03  0.63712475774E+03  0.00000000000E+00 0. -1.
          1   -1    0    0  501    0 -0.00000000000E+00 -0.00000000000E+00 -0.21558956637E+04  0.21558956637E+04  0.00000000000E+00 0. -1.
         25    2    1    2    0    0 -0.35066236900E+01  0.92640349056E+02  0.42663822338E+01  0.15570970692E+03  0.12503111665E+03 0.  0.
          2    1    1    2  501    0 -0.60614615860E+02 -0.11714633761E+03 -0.20759586177E+04  0.20801446052E+04  0.00000000000E+00 0. -1.
          1    1    1    2  502    0  0.64121239550E+02  0.24505988552E+02  0.55292132947E+03  0.55716610936E+03  0.00000000000E+00 0. -1.
         22    1    3    3    0    0  0.51721778337E+02  0.71435515830E+02 -0.22130846500E+02  0.90928266469E+02  0.00000000000E+00 0.  1.
         22    1    3    3    0    0 -0.55228402027E+02  0.21204833226E+02  0.26397228734E+02  0.64781440455E+02  0.00000000000E+00 0.  1.
</event>
<event>
 7    1  0.6078244E-006  0.1044160E+03  0.7818608E-02  0.1388167E+00
          2   -1    0    0  502    0  0.00000000000E+00  0.00000000000E+00  0.50538766023E+03  0.50538766023E+03  0.00000000000E+00 0. -1.
          1   -1    0    0  501    0 -0.00000000000E+00 -0.00000000000E+00 -0.22514794090E+03  0.22514794090E+03  0.00000000000E+00 0. -1.
         25    2    1    2    0    0 -0.10269249502E+03 -0.20990157285E+02  0.75290556867E+02  0.17966538853E+03  0.12499859458E+03 0.  0.
          2    1    1    2  501    0  0.13482615508E+02 -0.34723164872E+02 -0.16350699821E+03  0.16769620617E+03  0.00000000000E+00 0. -1.
          1    1    1    2  502    0  0.89209879509E+02  0.55713322157E+02  0.36845616067E+03  0.38317400643E+03  0.00000000000E+00 0. -1.
         22    1    3    3    0    0 -0.65399817505E+02 -0.55322279943E+02  0.92559560545E+02  0.12611488031E+03  0.00000000000E+00 0.  1.
         22    1    3    3    0    0 -0.37292677512E+02  0.34332122658E+02 -0.17269003677E+02  0.53550508216E+02  0.00000000000E+00 0.  1.
</event>
<event>
 7    1  0.6078244E-006  0.4510078E+02  0.7818608E-02  0.1478653E+00
          2   -1    0    0  502    0  0.00000000000E+00  0.00000000000E+00  0.13480542109E+04  0.13480542109E+04  0.00000000000E+00 0. -1.
          1   -1    0    0  501    0 -0.00000000000E+00 -0.00000000000E+00 -0.60756868411E+03  0.60756868411E+03  0.00000000000E+00 0. -1.
         25    2    1    2    0    0 -0.31127667124E+02 -0.59532345614E+01 -0.17875199807E+03  0.22041283803E+03  0.12500067876E+03 0.  0.
          2    1    1    2  501    0  0.21113297179E+02 -0.38085651148E+02 -0.40643864614E+03  0.40876479939E+03  0.00000000000E+00 0. -1.
          1    1    1    2  502    0  0.10014369946E+02  0.44038885710E+02  0.13256761710E+04  0.13264452576E+04  0.00000000000E+00 0. -1.
         22    1    3    3    0    0  0.17587887362E+02 -0.55864086053E+02 -0.92624729017E+02  0.10958772887E+03  0.00000000000E+00 0.  1.
         22    1    3    3    0    0 -0.48715554486E+02  0.49910851492E+02 -0.86127269057E+02  0.11082510916E+03  0.00000000000E+00 0.  1.
</event>
<event>
 7    1  0.6078244E-006  0.5114922E+02  0.7818608E-02  0.1479980E+00
          2   -1    0    0  502    0  0.00000000000E+00  0.00000000000E+00  0.22623531525E+04  0.22623531525E+04  0.00000000000E+00 0. -1.
          1   -1    0    0  501    0 -0.00000000000E+00 -0.00000000000E+00 -0.44137082243E+03  0.44137082243E+03  0.00000000000E+00 0. -1.
         25    2    1    2    0    0 -0.19763917363E+01  0.20480130050E+02  0.17557152393E+04  0.17602796825E+04  0.12500086923E+03 0.  0.
          2    1    1    2  501    0  0.36970161647E+02 -0.35391259796E+02 -0.43687547095E+03  0.43986305964E+03  0.00000000000E+00 0. -1.
          1    1    1    2  502    0 -0.34993769910E+02  0.14911129746E+02  0.50214256178E+03  0.50358123285E+03  0.00000000000E+00 0. -1.
         22    1    3    3    0    0 -0.48074662646E+02  0.51136827328E+02  0.86292494193E+03  0.86577456864E+03  0.00000000000E+00 0.  1.
         22    1    3    3    0    0  0.46098270909E+02 -0.30656697278E+02  0.89279029734E+03  0.89450511385E+03  0.00000000000E+00 0.  1.
</event>
<event>
 7    1  0.6078244E-006  0.2460438E+03  0.7818608E-02  0.1190366E+00
          2   -1    0    0  502    0  0.00000000000E+00  0.00000000000E+00  0.48614346301E+03  0.48614346301E+03  0.00000000000E+00 0. -1.
          1   -1    0    0  501    0 -0.00000000000E+00 -0.00000000000E+00 -0.43545010287E+03  0.43545010287E+03  0.00000000000E+00 0. -1.
         25    2    1    2    0    0 -0.18126713993E+03  0.11346222888E+03  0.10949923446E+03  0.27082833838E+03  0.12500581235E+03 0.  0.
          2    1    1    2  501    0 -0.89874775535E+02 -0.48538123084E+02 -0.27796171199E+03  0.29613533730E+03  0.00000000000E+00 0. -1.
          1    1    1    2  502    0  0.27114191547E+03 -0.64924105799E+02  0.21915583767E+03  0.35462989020E+03  0.00000000000E+00 0. -1.
         22    1    3    3    0    0 -0.19648487421E+03  0.82344538064E+02  0.92876285381E+02  0.23240682677E+03  0.00000000000E+00 0.  1.
         22    1    3    3    0    0  0.15217734278E+02  0.31117690819E+02  0.16622949075E+02  0.38421511610E+02  0.00000000000E+00 0.  1.
</event>
<event>
 7    1  0.6078244E-006  0.8403284E+02  0.7818608E-02  0.1446567E+00
          2   -1    0    0  502    0  0.00000000000E+00  0.00000000000E+00  0.50404501477E+03  0.50404501477E+03  0.00000000000E+00 0. -1.
          1   -1    0    0  501    0 -0.00000000000E+00 -0.00000000000E+00 -0.28892332885E+03  0.28892332885E+03  0.00000000000E+00 0. -1.
         25    2    1    2    0    0 -0.24160563071E+02 -0.50286561875E+02 -0.89663760625E+02  0.16363330181E+03  0.12499518542E+03 0.  0.
          2    1    1    2  501    0 -0.17705598986E+02 -0.23572532046E+02 -0.15703356727E+03  0.15977701259E+03  0.00000000000E+00 0. -1.
          1    1    1    2  502    0  0.41866162057E+02  0.73859093921E+02  0.46181901382E+03  0.46955802922E+03  0.00000000000E+00 0. -1.
         22    1    3    3    0    0 -0.30302796666E+02 -0.90845808647E+02 -0.59996731103E+02  0.11300808899E+03  0.00000000000E+00 0. -1.
         22    1    3    3    0    0  0.61422335955E+01  0.40559246772E+02 -0.29667029522E+02  0.50625212818E+02  0.00000000000E+00 0. -1.
</event>
<event>
 7    1  0.6078244E-006  0.9343767E+02  0.7818608E-02  0.1319877E+00
          2   -1    0    0  502    0  0.00000000000E+00  0.00000000000E+00  0.99647707327E+03  0.99647707327E+03  0.00000000000E+00 0. -1.
          1   -1    0    0  501    0 -0.00000000000E+00 -0.00000000000E+00 -0.34175704137E+03  0.34175704137E+03  0.00000000000E+00 0. -1.
         25    2    1    2    0    0 -0.72011296305E+02  0.14178730929E+03  0.31132573140E+03  0.37126473517E+03  0.12499809868E+03 0.  0.
          2    1    1    2  501    0  0.20477583002E+02 -0.71425783048E+02 -0.30439642374E+03  0.31333393796E+03  0.00000000000E+00 0. -1.
          1    1    1    2  502    0  0.51533713303E+02 -0.70361526243E+02  0.64779072424E+03  0.65363544151E+03  0.00000000000E+00 0. -1.
         22    1    3    3    0    0  0.16955218588E+02  0.51922388455E+02  0.18350866086E+03  0.19146499019E+03  0.00000000000E+00 0.  1.
         22    1    3    3    0    0 -0.88966514893E+02  0.89864920836E+02  0.12781707055E+03  0.17979974497E+03  0.00000000000E+00 0.  1.
</event>
<event>
 7    1  0.6078244E-006  0.1056311E+03  0.7818608E-02  0.1273771E+00
          2   -1    0    0  502    0  0.00000000000E+00  0.00000000000E+00  0.39503067547E+04  0.39503067547E+04  0.00000000000E+00 0. -1.
          1   -1    0    0  501    0 -0.00000000000E+00 -0.00000000000E+00 -0.14364381310E+02  0.14364381310E+02  0.00000000000E+00 0. -1.
         25    2    1    2    0    0 -0.39426374443E+02  0.83862716148E+02  0.23731852143E+04  0.23782810679E+04  0.12500153027E+03 0.  0.
          2    1    1    2  501    0  0.10769326938E+03 -0.32552113641E+01  0.29188319736E+03  0.31113379368E+03  0.00000000000E+00 0. -1.
          1    1    1    2  502    0 -0.68266894933E+02 -0.80607504784E+02  0.12708739617E+04  0.12752562744E+04  0.00000000000E+00 0. -1.
         22    1    3    3    0    0  0.40002499261E+02  0.29229342821E+02  0.12446744892E+04  0.12456601216E+04  0.00000000000E+00 0. -1.
         22    1    3    3    0    0 -0.79428873704E+02  0.54633373326E+02  0.11285107251E+04  0.11326209463E+04  0.00000000000E+00 0. -1.
</event>
<event>
 7    1  0.6078244E-006  0.1878977E+03  0.7818608E-02  0.1312840E+00
          2   -1    0    0  502    0  0.00000000000E+00  0.00000000000E+00  0.77586387107E+03  0.77586387107E+03  0.00000000000E+00 0. -1.
          1   -1    0    0  501    0 -0.00000000000E+00 -0.00000000000E+00 -0.12947337592E+04  0.12947337592E+04  0.00000000000E+00 0. -1.
         25    2    1    2    0    0  0.15653016714E+02 -0.16523792150E+03  0.22959493658E+01  0.20780039273E+03  0.12500857652E+03 0.  0.
          2    1    1    2  501    0 -0.50938694532E+02  0.18267987599E+03 -0.11838504099E+04  0.11989447363E+04  0.00000000000E+00 0. -1.
          1    1    1    2  502    0  0.35285677818E+02 -0.17441954493E+02  0.66268457243E+03  0.66385250121E+03  0.00000000000E+00 0. -1.
         22    1    3    3    0    0 -0.19010847327E+02  0.15012818546E+02 -0.39452748397E+00  0.24227106487E+02  0.00000000000E+00 0. -1.
         22    1    3    3    0    0  0.34663864041E+02 -0.18025074005E+03  0.26904768498E+01  0.18357328625E+03  0.00000000000E+00 0. -1.
</event>
<event>
 7    1  0.6078244E-006  0.3926722E+02  0.7818608E-02  0.1547428E+00
          2   -1    0    0  502    0  0.00000000000E+00  0.00000000000E+00  0.83898501447E+03  0.83898501447E+03  0.00000000000E+00 0. -1.
          1   -1    0    0  501    0 -0.00000000000E+00 -0.00000000000E+00 -0.17141988788E+04  0.17141988788E+04  0.00000000000E+00 0. -1.
         25    2    1    2    0    0  0.29838573874E+02  0.89143474417E+01  0.36701819759E+02  0.13394799127E+03  0.12500093884E+03 0.  0.
          2    1    1    2  501    0 -0.14953430533E+02  0.27648295747E+02 -0.16649104011E+04  0.16652070974E+04  0.00000000000E+00 0. -1.
          1    1    1    2  502    0 -0.14885143341E+02 -0.36562643189E+02  0.75299471703E+03  0.75402880465E+03  0.00000000000E+00 0. -1.
         22    1    3    3    0    0  0.61055316364E+02 -0.10201410099E+02 -0.21212565963E+02  0.65435413800E+02  0.00000000000E+00 0.  1.
         22    1    3    3    0    0 -0.31216742491E+02  0.19115757541E+02  0.57914385722E+02  0.68512577471E+02  0.00000000000E+00 0.  1.
</event>
<event>
 7    1  0.6078244E-006  0.6875500E+02  0.7818608E-02  0.1424694E+00
          2   -1    0    0  502    0  0.00000000000E+00  0.00000000000E+00  0.11270883335E+04  0.11270883335E+04  0.00000000000E+00 0. -1.
          1   -1    0    0  501    0 -0.00000000000E+00 -0.00000000000E+00 -0.16876566807E+04  0.16876566807E+04  0.00000000000E+00 0. -1.
         25    2    1    2    0    0 -0.10586205720E+03 -0.27600457555E+02  0.23185407391E+02  0.16772701015E+03  0.12500490553E+03 0.  0.
          2    1    1    2  501    0  0.42377680883E+02  0.28639460957E+01 -0.16139812234E+04  0.16145400148E+04  0.00000000000E+00 0. -1.
          1    1    1    2  502    0  0.63484376315E+02  0.24736511459E+02  0.10302274688E+04  0.10324779893E+04  0.00000000000E+00 0. -1.
         22    1    3    3    0    0 -0.59798093517E+02 -0.44234999812E+02  0.68415851124E+02  0.10106075342E+03  0.00000000000E+00 0. -1.
         22    1    3    3    0    0 -0.46063963681E+02  0.16634542257E+02 -0.45230443732E+02  0.66666256730E+02  0.00000000000E+00 0. -1.
</event>
<event>
 7    1  0.6078244E-006  0.3560629E+02  0.7818608E-02  0.1577458E+00
          2   -1    0    0  502    0  0.00000000000E+00  0.00000000000E+00  0.97361039642E+03  0.97361039642E+03  0.00000000000E+00 0. -1.
          1   -1    0    0  501    0 -0.00000000000E+00 -0.00000000000E+00 -0.19159956302E+03  0.19159956302E+03  0.00000000000E+00 0. -1.
         25    2    1    2    0    0  0.36587305582E+01 -0.11801419735E+02  0.35572316843E+02  0.13055222148E+03  0.12500333192E+03 0.  0.
          2    1    1    2  501    0 -0.20985132722E+02 -0.19539727932E+02 -0.14231912608E+03  0.14517889106E+03  0.00000000000E+00 0. -1.
          1    1    1    2  502    0  0.17326402164E+02  0.31341147667E+02  0.88875764263E+03  0.88947884690E+03  0.00000000000E+00 0. -1.
         22    1    3    3    0    0  0.43947044441E+02 -0.51099395099E+02  0.79701443211E+01  0.67867621847E+02  0.00000000000E+00 0. -1.
         22    1    3    3    0    0 -0.40288313883E+02  0.39297975364E+02  0.27602172521E+02  0.62684599633E+02  0.00000000000E+00 0. -1.
</event>
<event>
 7    1  0.6078244E-006  0.1176490E+03  0.7818608E-02  0.1297405E+00
          2   -1    0    0  502    0  0.00000000000E+00  0.00000000000E+00  0.62571923686E+03  0.62571923686E+03  0.00000000000E+00 0. -1.
          1   -1    0    0  501    0 -0.00000000000E+00 -0.00000000000E+00 -0.36552475902E+04  0.36552475902E+04  0.00000000000E+00 0. -1.
         25    2    1    2    0    0  0.13633189593E+03 -0.90721243270E+02 -0.27379673682E+03  0.34264484841E+03  0.12499643684E+03 0.  0.
          2    1    1    2  501    0 -0.64244980701E+02  0.97369869552E+02 -0.33437900743E+04  0.33458243185E+04  0.00000000000E+00 0. -1.
          1    1    1    2  502    0 -0.72086915224E+02 -0.66486262815E+01  0.58805845778E+03  0.59249766020E+03  0.00000000000E+00 0. -1.
         22    1    3    3    0    0  0.26372451325E+02  0.31645428571E+02 -0.62528513372E+02  0.74878263354E+02  0.00000000000E+00 0. -1.
         22    1    3    3    0    0  0.10995944460E+03 -0.12236667184E+03 -0.21126822345E+03  0.26776658506E+03  0.00000000000E+00 0. -1.
</event>
<event>
 7    1  0.6078244E-006  0.8994356E+02  0.7818608E-02  0.1457981E+00
          2   -1    0    0  502    0  0.00000000000E+00  0.00000000000E+00  0.25896992338E+03  0.25896992338E+03  0.00000000000E+00 0. -1.
          1   -1    0    0  501    0 -0.00000000000E+00 -0.00000000000E+00 -0.79695316256E+03  0.79695316256E+03  0.00000000000E+00 0. -1.
         25    2    1    2    0    0  0.14688286223E+02 -0.11355166713E+03 -0.40071585210E+03  0.43509546119E+03  0.12500055744E+03 0.  0.
          2    1    1    2  501    0 -0.65683079619E+01  0.24462869345E+02 -0.37032524310E+03  0.37119046367E+03  0.00000000000E+00 0. -1.
          1    1    1    2  502    0 -0.81199782609E+01  0.89088797782E+02  0.23305785602E+03  0.24963716107E+03  0.00000000000E+00 0. -1.
         22    1    3    3    0    0 -0.54243555799E+02 -0.36835321069E+02 -0.13545982563E+03  0.15049441380E+03  0.00000000000E+00 0.  1.
         22    1    3    3    0    0  0.68931842022E+02 -0.76716346058E+02 -0.26525602647E+03  0.28460104739E+03  0.00000000000E+00 0.  1.
</event>
<event>
 7    1  0.6078244E-006  0.9062909E+02  0.7818608E-02  0.1390942E+00
          2   -1    0    0  502    0  0.00000000000E+00  0.00000000000E+00  0.74445445605E+03  0.74445445605E+03  0.00000000000E+00 0. -1.
          1   -1    0    0  501    0 -0.00000000000E+00 -0.00000000000E+00 -0.55157683670E+03  0.55157683670E+03  0.00000000000E+00 0. -1.
         25    2    1    2    0    0 -0.12384348217E+03 -0.44448048133E+02 -0.51617549890E+02  0.18868171126E+03  0.12499431847E+03 0.  0.
          2    1    1    2  501    0  0.39685795514E+02  0.13652297741E+02 -0.42742459805E+03  0.42948007476E+03  0.00000000000E+00 0. -1.
          1    1    1    2  502    0  0.84157686659E+02  0.30795750393E+02  0.67191976729E+03  0.67786950672E+03  0.00000000000E+00 0. -1.
         22    1    3    3    0    0 -0.57871259127E+02 -0.83487176653E+02 -0.11703646742E+02  0.10225539910E+03  0.00000000000E+00 0. -1.
         22    1    3    3    0    0 -0.65972223046E+02  0.39039128519E+02 -0.39913903148E+02  0.86426312161E+02  0.00000000000E+00 0. -1.
</event>
<event>
 7    1  0.6078244E-006  0.6789389E+02  0.7818608E-02  0.1479488E+00
          2   -1    0    0  502    0  0.00000000000E+00  0.00000000000E+00  0.11087303669E+04  0.11087303669E+04  0.00000000000E+00 0. -1.
          1   -1    0    0  501    0 -0.00000000000E+00 -0.00000000000E+00 -0.27613325502E+03  0.27613325502E+03  0.00000000000E+00 0. -1.
         25    2    1    2    0    0  0.37682411654E+02  0.30591760254E+02  0.44154767718E+03  0.46145497045E+03  0.12498207309E+03 0.  0.
          2    1    1    2  501    0 -0.64793199652E+02 -0.21002638882E+02 -0.26150048528E+03  0.27022541214E+03  0.00000000000E+00 0. -1.
          1    1    1    2  502    0  0.27110787998E+02 -0.95891213722E+01  0.65254992000E+03  0.65318323935E+03  0.00000000000E+00 0. -1.
         22    1    3    3    0    0  0.32473301955E+02  0.14155688856E+02  0.22313405500E+02  0.41866298282E+02  0.00000000000E+00 0.  1.
         22    1    3    3    0    0  0.52091096988E+01  0.16436071397E+02  0.41923427168E+03  0.41958867217E+03  0.00000000000E+00 0.  1.
</event>
<event>
 7    1  0.6078244E-006  0.7498047E+02  0.7818608E-02  0.1463339E+00
          2   -1    0    0  502    0  0.00000000000E+00  0.00000000000E+00  0.62294032670E+03  0.62294032670E+03  0.00000000000E+00 0. -1.
          1   -1    0    0  501    0 -0.00000000000E+00 -0.00000000000E+00 -0.47571165611E+03  0.47571165611E+03  0.00000000000E+00 0. -1.
         25    2    1    2    0    0 -0.92671919813E+02  0.24571092768E+02 -0.12043088557E+03  0.19829748831E+03  0.12500588926E+03 0.  0.
          2    1    1    2  501    0  0.72869969788E+02 -0.30768115841E+01 -0.31177044349E+03  0.32018792717E+03  0.00000000000E+00 0. -1.
          1    1    1    2  502    0  0.19801950025E+02 -0.21494281184E+02  0.57942999966E+03  0.58016656734E+03  0.00000000000E+00 0. -1.
         22    1    3    3    0    0  0.10047858687E+02 -0.92849250933E+01 -0.82586854461E+02  0.83712351704E+02  0.00000000000E+00 0.  1.
         22    1    3    3    0    0 -0.10271977850E+03  0.33856017861E+02 -0.37844031108E+02  0.11458513661E+03  0.00000000000E+00 0.  1.
</event>
<event>
 7    1  0.6078244E-006  0.2680406E+03  0.7818608E-02  0.1148072E+00
          2   -1    0    0  502    0  0.00000000000E+00  0.00000000000E+00  0.15757201675E+04  0.15757201675E+04  0.00000000000E+00 0. -1.
          1   -1    0    0  501    0 -0.00000000000E+00 -0.00000000000E+00 -0.44779833810E+03  0.44779833810E+03  0.00000000000E+00 0. -1.
         25    2    1    2    0    0  0.29875053081E+03  0.19447444642E+03  0.72808853066E+03  0.82024934806E+03  0.12499557805E+03 0.  0.
          2    1    1    2  501    0 -0.26020481058E+03 -0.47222592411E+02 -0.34969995350E+03  0.43843651098E+03  0.00000000000E+00 0. -1.
          1    1    1    2  502    0 -0.38545720228E+02 -0.14725185401E+03  0.74953325226E+03  0.76483264660E+03  0.00000000000E+00 0. -1.
         22    1    3    3    0    0  0.17188000479E+03  0.11976513280E+03  0.28762383159E+03  0.35582845808E+03  0.00000000000E+00 0. -1.
         22    1    3    3    0    0  0.12687052602E+03  0.74709313623E+02  0.44046469908E+03  0.46442088998E+03  0.00000000000E+00 0. -1.
</event>
<event>
 7    1  0.6078244E-006  0.3986792E+02  0.7818608E-02  0.1592567E+00
          2   -1    0    0  502    0  0.00000000000E+00  0.00000000000E+00  0.29669942849E+03  0.29669942849E+03  0.00000000000E+00 0. -1.
          1   -1    0    0  501    0 -0.00000000000E+00 -0.00000000000E+00 -0.80493574618E+03  0.80493574618E+03  0.00000000000E+00 0. -1.
         25    2    1    2    0    0  0.14156520129E+01 -0.38679074279E+02  0.37392745454E+02  0.13609744228E+03  0.12500488600E+03 0.  0.
          2    1    1    2  501    0 -0.23795668848E+02  0.32047883207E+02 -0.75440537590E+03  0.75546063555E+03  0.00000000000E+00 0. -1.
          1    1    1    2  502    0  0.22380016835E+02  0.66311910713E+01  0.20877631276E+03  0.21007709684E+03  0.00000000000E+00 0. -1.
         22    1    3    3    0    0 -0.22841298689E+02  0.22920576119E+02  0.58293974093E+02  0.66672821682E+02  0.00000000000E+00 0. -1.
         22    1    3    3    0    0  0.24256950702E+02 -0.61599650398E+02 -0.20901228640E+02  0.69424620598E+02  0.00000000000E+00 0. -1.
</event>
<event>
 7    1  0.6078244E-006  0.1207987E+03  0.7818608E-02  0.1254273E+00
          2   -1    0    0  502    0  0.00000000000E+00  0.00000000000E+00  0.25063409858E+03  0.25063409858E+03  0.00000000000E+00 0. -1.
          1   -1    0    0  501    0 -0.00000000000E+00 -0.00000000000E+00 -0.87780120633E+03  0.87780120633E+03  0.00000000000E+00 0. -1.
         25    2    1    2    0    0 -0.84435132141E+02 -0.12583191418E+02 -0.41700938752E+02  0.15701095612E+03  0.12500337517E+03 0.  0.
          2    1    1    2  501    0  0.85961171637E+02 -0.93994589662E+02 -0.75799660129E+03  0.76862419523E+03  0.00000000000E+00 0. -1.
          1    1    1    2  502    0 -0.15260394951E+01  0.10657778108E+03  0.17253043229E+03  0.20280015356E+03  0.00000000000E+00 0. -1.
         22    1    3    3    0    0 -0.13044476594E+02 -0.53010521801E+02 -0.50665536392E+02  0.74479999793E+02  0.00000000000E+00 0.  1.
         22    1    3    3    0    0 -0.71390655547E+02  0.40427330383E+02  0.89645976398E+01  0.82530956327E+02  0.00000000000E+00 0.  1.
</event>
<event>
 7    1  0.6078244E-006  0.5882819E+02  0.7818608E-02  0.1471226E+00
          2   -1    0    0  502    0  0.00000000000E+00  0.00000000000E+00  0.18141108377E+04  0.18141108377E+04  0.00000000000E+00 0. -1.
          1   -1    0    0  501    0 -0.00000000000E+00 -0.00000000000E+00 -0.18332500064E+03  0.18332500064E+03  0.00000000000E+00 0. -1.
         25    2    1    2    0    0 -0.86631202324E+02  0.19577915795E+02 -0.23981157487E+02  0.15520586652E+03  0.12500202032E+03 0.  0.
          2    1    1    2  501    0  0.51438358531E+02 -0.20050683243E+02 -0.85408648363E+02  0.10169843579E+03  0.00000000000E+00 0. -1.
          1    1    1    2  502    0  0.35192843793E+02  0.47276744848E+00  0.17401756429E+04  0.17405315361E+04  0.00000000000E+00 0. -1.
         22    1    3    3    0    0 -0.86594433861E+02  0.55333722304E+02  0.13216026080E+02  0.10361023186E+03  0.00000000000E+00 0.  1.
         22    1    3    3    0    0 -0.36768462073E-01 -0.35755806509E+02 -0.37197183568E+02  0.51595634664E+02  0.00000000000E+00 0.  1.
</event>
<event>
 7    1  0.6078244E-006  0.1037296E+03  0.7818608E-02  0.1309688E+00
          2   -1    0    0  502    0  0.00000000000E+00  0.00000000000E+00  0.93389297376E+02  0.93389297376E+02  0.00000000000E+00 0. -1.
          1   -1    0    0  501    0 -0.00000000000E+00 -0.00000000000E+00 -0.13599535161E+04  0.13599535161E+04  0.00000000000E+00 0. -1.
         25    2    1    2    0    0  0.17270969652E+02  0.13704393227E+03 -0.14139665269E+03  0.23387317006E+03  0.12499728204E+03 0.  0.
          2    1    1    2  501    0  0.42103674134E+02 -0.93951367655E+02 -0.11399845131E+04  0.11446240732E+04  0.00000000000E+00 0. -1.
          1    1    1    2  502    0 -0.59374643786E+02 -0.43092564616E+02  0.14816947117E+02  0.74845570154E+02  0.00000000000E+00 0. -1.
         22    1    3    3    0    0 -0.12285223840E+02  0.14822434758E+03 -0.90920215306E+02  0.17432116765E+03  0.00000000000E+00 0. -1.
         22    1    3    3    0    0  0.29556193492E+02 -0.11180415309E+02 -0.50476437386E+02  0.59552002413E+02  0.00000000000E+00 0. -1.
</event>
<event>
 7    1  0.6078244E-006  0.6525053E+02  0.7818608E-02  0.1527970E+00
          2   -1    0    0  502    0  0.00000000000E+00  0.00000000000E+00  0.12560291720E+04  0.12560291720E+04  0.00000000000E+00 0. -1.
          1   -1    0    0  501    0 -0.00000000000E+00 -0.00000000000E+00 -0.25705834166E+02  0.25705834166E+02  0.00000000000E+00 0. -1.
         25    2    1    2    0    0 -0.37741071382E+02 -0.75090986858E+02  0.39793289165E+03  0.42548839281E+03  0.12500696534E+03 0.  0.
          2    1    1    2  501    0  0.14461431151E+02  0.15880758126E+02  0.50553548344E-01  0.21478687698E+02  0.00000000000E+00 0. -1.
          1    1    1    2  502    0  0.23279640231E+02  0.59210228732E+02  0.83233989262E+03  0.83476792565E+03  0.00000000000E+00 0. -1.
         22    1    3    3    0    0  0.12360183827E+02 -0.16312172050E+02  0.30031770689E+03  0.30101426241E+03  0.00000000000E+00 0. -1.
         22    1    3    3    0    0 -0.50101255208E+02 -0.58778814808E+02  0.97615184761E+02  0.12447413040E+03  0.00000000000E+00 0. -1.
</event>
<event>
 7    1  0.6078244E-006  0.6549418E+02  0.7818608E-02  0.1480710E+00
          2   -1    0    0  502    0  0.00000000000E+00  0.00000000000E+00  0.98227034012E+03  0.98227034012E+03  0.00000000000E+00 0. -1.
          1   -1    0    0  501    0 -0.00000000000E+00 -0.00000000000E+00 -0.35163974215E+03  0.35163974215E+03  0.00000000000E+00 0. -1.
         25    2    1    2    0    0 -0.63464371831E+02 -0.64187753423E+02  0.49774870087E+03  0.52108342461E+03  0.12500548791E+03 0.  0.
          2    1    1    2  501    0  0.23956785696E+02  0.17306604993E+02 -0.33733635208E+03  0.33862849938E+03  0.00000000000E+00 0. -1.
          1    1    1    2  502    0  0.39507586135E+02  0.46881148430E+02  0.47021824919E+03  0.47419815827E+03  0.00000000000E+00 0. -1.
         22    1    3    3    0    0 -0.94758315734E+02 -0.60848938023E+02  0.29238186572E+03  0.31331914570E+03  0.00000000000E+00 0. -1.
         22    1    3    3    0    0  0.31293943903E+02 -0.33388153999E+01  0.20536683515E+03  0.20776427891E+03  0.00000000000E+00 0. -1.
</event>
<event>
 7    1  0.6078244E-006  0.9508362E+02  0.7818608E-02  0.1330626E+00
          2   -1    0    0  502    0  0.00000000000E+00  0.00000000000E+00  0.17451499983E+03  0.17451499983E+03  0.00000000000E+00 0. -1.
          1   -1    0    0  501    0 -0.00000000000E+00 -0.00000000000E+00 -0.31575799900E+04  0.31575799900E+04  0.00000000000E+00 0. -1.
         25    2    1    2    0    0  0.10866415125E+02 -0.15308471063E+03 -0.54892177722E+03  0.58351871463E+03  0.12500386077E+03 0.  0.
          2    1    1    2  501    0 -0.26847515280E+02  0.60711670490E+02 -0.25769195666E+04  0.25777744565E+04  0.00000000000E+00 0. -1.
          1    1    1    2  502    0  0.15981100154E+02  0.92373040137E+02  0.14277635364E+03  0.17080181868E+03  0.00000000000E+00 0. -1.
         22    1    3    3    0    0  0.89367068528E+01 -0.16264907119E+03 -0.36927301818E+03  0.40360518709E+03  0.00000000000E+00 0. -1.
         22    1    3    3    0    0  0.19297082724E+01  0.95643605632E+01 -0.17964875904E+03  0.17991352754E+03  0.00000000000E+00 0. -1.
</event>
<event>
 7    1  0.6078244E-006  0.1012313E+03  0.7818608E-02  0.1460717E+00
          2   -1    0    0  502    0  0.00000000000E+00  0.00000000000E+00  0.89612000927E+03  0.89612000927E+03  0.00000000000E+00 0. -1.
          1   -1    0    0  501    0 -0.00000000000E+00 -0.00000000000E+00 -0.52688429330E+03  0.52688429330E+03  0.00000000000E+00 0. -1.
         25    2    1    2    0    0  0.24581040035E+02  0.10783551414E+03  0.16756262624E+03  0.23650691606E+03  0.12500224794E+03 0.  0.
          2    1    1    2  501    0  0.15459425790E+02 -0.15739333105E+02 -0.48852943838E+03  0.48902733320E+03  0.00000000000E+00 0. -1.
          1    1    1    2  502    0 -0.40040465825E+02 -0.92096181040E+02  0.69020252811E+03  0.69747005332E+03  0.00000000000E+00 0. -1.
         22    1    3    3    0    0  0.65218866557E+02  0.69216900677E+02  0.52783166318E+02  0.10876829750E+03  0.00000000000E+00 0.  1.
         22    1    3    3    0    0 -0.40637826522E+02  0.38618613468E+02  0.11477945993E+03  0.12773861856E+03  0.00000000000E+00 0.  1.
</event>
<event>
 7    1  0.6078244E-006  0.3868196E+02  0.7818608E-02  0.1585186E+00
          2   -1    0    0  502    0  0.00000000000E+00  0.00000000000E+00  0.12155827608E+03  0.12155827608E+03  0.00000000000E+00 0. -1.
          1   -1    0    0  501    0 -0.00000000000E+00 -0.00000000000E+00 -0.22344555720E+04  0.22344555720E+04  0.00000000000E+00 0. -1.
         25    2    1    2    0    0  0.21138842770E+02 -0.37198268000E+02 -0.13674235002E+04  0.13737912574E+04  0.12499931269E+03 0.  0.
          2    1    1    2  501    0  0.39711981194E+01  0.38876132214E+02 -0.86206297543E+03  0.86294825898E+03  0.00000000000E+00 0. -1.
          1    1    1    2  502    0 -0.25110040890E+02 -0.16778642139E+01  0.11658917970E+03  0.11927433171E+03  0.00000000000E+00 0. -1.
         22    1    3    3    0    0 -0.32314460550E+01  0.45598426905E+02 -0.44870202366E+03  0.45102457230E+03  0.00000000000E+00 0. -1.
         22    1    3    3    0    0  0.24370288825E+02 -0.82796694905E+02 -0.91872147650E+03  0.92276668506E+03  0.00000000000E+00 0. -1.
</event>
<event>
 7    1  0.6078244E-006  0.4436010E+02  0.7818608E-02  0.1540192E+00
          2   -1    0    0  502    0  0.00000000000E+00  0.00000000000E+00  0.22476247193E+03  0.22476247193E+03  0.00000000000E+00 0. -1.
          1   -1    0    0  501    0 -0.00000000000E+00 -0.00000000000E+00 -0.31009188251E+03  0.31009188251E+03  0.00000000000E+00 0. -1.
         25    2    1    2    0    0 -0.68215010153E+02 -0.14798046365E+02 -0.10805997054E+02  0.14357423799E+03  0.12499808981E+03 0.  0.
          2    1    1    2  501    0  0.24780766020E+02  0.15367784666E+02 -0.22898130412E+03  0.23083044168E+03  0.00000000000E+00 0. -1.
          1    1    1    2  502    0  0.43434244133E+02 -0.56973830152E+00  0.15445789059E+03  0.16044967476E+03  0.00000000000E+00 0. -1.
         22    1    3    3    0    0 -0.35280856144E+02  0.53684783447E+02 -0.19384470611E+02  0.67101061728E+02  0.00000000000E+00 0. -1.
         22    1    3    3    0    0 -0.32934154009E+02 -0.68482829812E+02  0.85784735572E+01  0.76473176264E+02  0.00000000000E+00 0. -1.
</event>
<event>
 7    1  0.6078244E-006  0.6368274E+02  0.7818608E-02  0.1456610E+00
          2   -1    0    0  502    0  0.00000000000E+00  0.00000000000E+00  0.13426961803E+03  0.13426961803E+03  0.00000000000E+00 0. -1.
          1   -1    0    0  501    0 -0.00000000000E+00 -0.00000000000E+00 -0.36610353775E+03  0.36610353775E+03  0.00000000000E+00 0. -1.
         25    2    1    2    0    0  0.33077868117E+02 -0.67652608089E+01 -0.14757650577E+03  0.19632505030E+03  0.12499914483E+03 0.  0.
          2    1    1    2  501    0  0.31557942042E+02  0.17599769907E+02 -0.18244972686E+03  0.18599343654E+03  0.00000000000E+00 0. -1.
          1    1    1    2  502    0 -0.64635810159E+02 -0.10834509098E+02  0.98192312905E+02  0.11805466893E+03  0.00000000000E+00 0. -1.
         22    1    3    3    0    0  0.70864950908E+02  0.28678178618E+02 -0.74486745185E+02  0.10673590963E+03  0.00000000000E+00 0.  1.
         22    1    3    3    0    0 -0.37787082791E+02 -0.35443439427E+02 -0.73089760586E+02  0.89589140674E+02  0.00000000000E+00 0.  1.
</event>
<event>
 7    1  0.6078244E-006  0.7470858E+02  0.7818608E-02  0.1447623E+00
          2   -1    0    0  502    0  0.00000000000E+00  0.00000000000E+00  0.23654684792E+03  0.23654684792E+03  0.00000000000E+00 0. -1.
          1   -1    0    0  501    0 -0.00000000000E+00 -0.00000000000E+00 -0.40382509955E+03  0.40382509955E+03  0.00000000000E+00 0. -1.
         25    2    1    2    0    0 -0.41046362526E+02  0.43295717983E+02 -0.67960662080E+02  0.15428313727E+03  0.12500124713E+03 0.  0.
          2    1    1    2  501    0  0.25951202994E+02 -0.72531406413E+02 -0.28617230245E+03  0.29635933686E+03  0.00000000000E+00 0. -1.
          1    1    1    2  502    0  0.15095159532E+02  0.29235688430E+02  0.18685471290E+03  0.18972947334E+03  0.00000000000E+00 0. -1.
         22    1    3    3    0    0 -0.71124049443E+02 -0.54104341268E-01 -0.72203016087E+02  0.10135042609E+03  0.00000000000E+00 0. -1.
         22    1    3    3    0    0  0.30077686917E+02  0.43349822325E+02  0.42423540071E+01  0.52932711185E+02  0.00000000000E+00 0. -1.
</event>
<event>
 7    1  0.6078244E-006  0.1001980E+03  0.7818608E-02  0.1402900E+00
          2   -1    0    0  502    0  0.00000000000E+00  0.00000000000E+00  0.27827068484E+03  0.27827068484E+03  0.00000000000E+00 0. -1.
          1   -1    0    0  501    0 -0.00000000000E+00 -0.00000000000E+00 -0.27957161951E+03  0.27957161951E+03  0.00000000000E+00 0. -1.
         25    2    1    2    0    0 -0.21566130735E+02  0.12185364940E+03  0.29456709391E+02  0.17834332604E+03  0.12500093738E+03 0.  0.
          2    1    1    2  501    0 -0.12988071208E+02 -0.31979456177E+02 -0.19016264087E+03  0.19326977414E+03  0.00000000000E+00 0. -1.
          1    1    1    2  502    0  0.34554201943E+02 -0.89874193227E+02  0.15940499682E+03  0.18622920418E+03  0.00000000000E+00 0. -1.
         22    1    3    3    0    0 -0.36653798891E+02 -0.13083999345E+02 -0.19932812970E+01  0.38970054944E+02  0.00000000000E+00 0. -1.
         22    1    3    3    0    0  0.15087668156E+02  0.13493764875E+03  0.31449990688E+02  0.13937327109E+03  0.00000000000E+00 0. -1.
</event>
<event>
 7    1  0.6078244E-006  0.1054526E+03  0.7818608E-02  0.1416427E+00
          2   -1    0    0  502    0  0.00000000000E+00  0.00000000000E+00  0.71954569932E+03  0.71954569932E+03  0.00000000000E+00 0. -1.
          1   -1    0    0  501    0 -0.00000000000E+00 -0.00000000000E+00 -0.31179179464E+03  0.31179179464E+03  0.00000000000E+00 0. -1.
         25    2    1    2    0    0  0.92185095463E+02  0.69973185606E+02  0.17703596787E+03  0.24568517882E+03  0.12500053857E+03 0.  0.
          2    1    1    2  501    0 -0.27140280921E+02  0.11585591783E+02 -0.27130497961E+03  0.27290513507E+03  0.00000000000E+00 0. -1.
          1    1    1    2  502    0 -0.65044814542E+02 -0.81558777389E+02  0.50202291641E+03  0.51274718007E+03  0.00000000000E+00 0. -1.
         22    1    3    3    0    0 -0.19463253435E+02  0.49781184388E+02  0.80956052176E+02  0.97009622910E+02  0.00000000000E+00 0. -1.
         22    1    3    3    0    0  0.11164834890E+03  0.20192001218E+02  0.96079915696E+02  0.14867555591E+03  0.00000000000E+00 0. -1.
</event>
<event>
 7    1  0.6078244E-006  0.2484226E+03  0.7818608E-02  0.1240551E+00
          2   -1    0    0  502    0  0.00000000000E+00  0.00000000000E+00  0.42033035018E+04  0.42033035018E+04  0.00000000000E+00 0. -1.
          1   -1    0    0  501    0 -0.00000000000E+00 -0.00000000000E+00 -0.20608436934E+04  0.20608436934E+04  0.00000000000E+00 0. -1.
         25    2    1    2    0    0  0.45436765370E+02  0.18824727256E+03  0.23214485167E+03  0.32713643411E+03  0.12500191636E+03 0.  0.
          2    1    1    2  501    0  0.13464752589E+02  0.57935373504E+02 -0.20088246382E+04  0.20097050118E+04  0.00000000000E+00 0. -1.
          1    1    1    2  502    0 -0.58901517959E+02 -0.24618264606E+03  0.39191395950E+04  0.39273057494E+04  0.00000000000E+00 0. -1.
         22    1    3    3    0    0  0.78968040029E+02  0.72181877642E+02  0.84300325625E+02  0.13620836871E+03  0.00000000000E+00 0. -1.
         22    1    3    3    0    0 -0.33531274659E+02  0.11606539492E+03  0.14784452604E+03  0.19092806540E+03  0.00000000000E+00 0. -1.
</event>
<event>
 7    1  0.6078244E-006  0.4145217E+02  0.7818608E-02  0.1573198E+00
          2   -1    0    0  502    0  0.00000000000E+00  0.00000000000E+00  0.13214887992E+04  0.13214887992E+04  0.00000000000E+00 0. -1.
          1   -1    0    0  501    0 -0.00000000000E+00 -0.00000000000E+00 -0.30114715521E+03  0.30114715521E+03  0.00000000000E+00 0. -1.
         25    2    1    2    0    0  0.55762418956E+02 -0.30143997955E+02  0.12458664920E+03  0.18752479867E+03  0.12500243589E+03 0.  0.
          2    1    1    2  501    0 -0.30593667344E+02  0.27666890552E+02 -0.26796260972E+03  0.27111877382E+03  0.00000000000E+00 0. -1.
          1    1    1    2  502    0 -0.25168751612E+02  0.24771074031E+01  0.11637176045E+04  0.11639923819E+04  0.00000000000E+00 0. -1.
         22    1    3    3    0    0  0.77100089730E+02 -0.43538965759E+01  0.23014633858E+02  0.80579486368E+02  0.00000000000E+00 0. -1.
         22    1    3    3    0    0 -0.21337670774E+02 -0.25790101379E+02  0.10157201534E+03  0.10694531230E+03  0.00000000000E+00 0. -1.
</event>
<event>
 7    1  0.6078244E-006  0.5566796E+02  0.7818608E-02  0.1494771E+00
          2   -1    0    0  502    0  0.00000000000E+00  0.00000000000E+00  0.14963793995E+04  0.14963793995E+04  0.00000000000E+00 0. -1.
          1   -1    0    0  501    0 -0.00000000000E+00 -0.00000000000E+00 -0.59104799953E+03  0.59104799953E+03  0.00000000000E+00 0. -1.
         25    2    1    2    0    0  0.33925744186E+02 -0.15940965861E+02  0.10749835026E+04  0.10828755269E+04  0.12499922158E+03 0.  0.
          2    1    1    2  501    0  0.26077573037E+02 -0.17699467866E+02 -0.58384015421E+03  0.58469020570E+03  0.00000000000E+00 0. -1.
          1    1    1    2  502    0 -0.60003317223E+02  0.33640433727E+02  0.41418805157E+03  0.41986166641E+03  0.00000000000E+00 0. -1.
         22    1    3    3    0    0 -0.17067480883E+02  0.32758148863E+02  0.12671230127E+03  0.13198637245E+03  0.00000000000E+00 0. -1.
         22    1    3    3    0    0  0.50993225069E+02 -0.48699114724E+02  0.94827120135E+03  0.95088915447E+03  0.00000000000E+00 0. -1.
</event>
<event>
 7    1  0.6078244E-006  0.9323030E+02  0.7818608E-02  0.1315297E+00
          2   -1    0    0  502    0  0.00000000000E+00  0.00000000000E+00  0.99668328302E+02  0.99668328302E+02  0.00000000000E+00 0. -1.
          1   -1    0    0  501    0 -0.00000000000E+00 -0.00000000000E+00 -0.10202391914E+04  0.10202391914E+04  0.00000000000E+00 0. -1.
         25    2    1    2    0    0  0.11280352094E+03 -0.38176337698E+02 -0.12613716340E+03  0.21381711184E+03  0.12500042492E+03 0.  0.
          2    1    1    2  501    0 -0.47600166784E+02  0.80233553658E+02 -0.81931418604E+03  0.82460835216E+03  0.00000000000E+00 0. -1.
          1    1    1    2  502    0 -0.65203354152E+02 -0.42057215960E+02  0.24880486312E+02  0.81482055731E+02  0.00000000000E+00 0. -1.
         22    1    3    3    0    0  0.56482626385E+02 -0.75014160414E+02 -0.10996687660E+03  0.14460333777E+03  0.00000000000E+00 0.  1.
         22    1    3    3    0    0  0.56320894550E+02  0.36837822716E+02 -0.16170286804E+02  0.69213774068E+02  0.00000000000E+00 0.  1.
</event>
<event>
 7    1  0.6078244E-006  0.5700672E+02  0.7818608E-02  0.1449464E+00
          2   -1    0    0  502    0  0.00000000000E+00  0.00000000000E+00  0.24835919201E+03  0.24835919201E+03  0.00000000000E+00 0. -1.
          1   -1    0    0  501    0 -0.00000000000E+00 -0.00000000000E+00 -0.21504742500E+04  0.21504742500E+04  0.00000000000E+00 0. -1.
         25    2    1    2    0    0 -0.14763039450E+02  0.93079216583E+00 -0.45024760757E+03  0.46751097998E+03  0.12499917827E+03 0.  0.
          2    1    1    2  501    0 -0.42322464725E+02  0.42746340790E+01 -0.16878965062E+04  0.16884324326E+04  0.00000000000E+00 0. -1.
          1    1    1    2  502    0  0.57085504175E+02 -0.52054262449E+01  0.23602905580E+03  0.24289002950E+03  0.00000000000E+00 0. -1.
         22    1    3    3    0    0 -0.19533799954E+02 -0.17054335445E+02 -0.11496145503E+02  0.28365138102E+02  0.00000000000E+00 0.  1.
         22    1    3    3    0    0  0.47707605035E+01  0.17985127611E+02 -0.43875146207E+03  0.43914584188E+03  0.00000000000E+00 0.  1.
</event>
<event>
 7    1  0.6078244E-006  0.5669246E+02  0.7818608E-02  0.1514900E+00
          2   -1    0    0  502    0  0.00000000000E+00  0.00000000000E+00  0.28942198082E+03  0.28942198082E+03  0.00000000000E+00 0. -1.
          1   -1    0    0  501    0 -0.00000000000E+00 -0.00000000000E+00 -0.11431571984E+04  0.11431571984E+04  0.00000000000E+00 0. -1.
         25    2    1    2    0    0 -0.37472503002E+02 -0.34147253461E+02 -0.46050312589E+02  0.14253717042E+03  0.12500396098E+03 0.  0.
          2    1    1    2  501    0  0.55184076075E+02  0.13802533826E+02 -0.10473349965E+04  0.10488786332E+04  0.00000000000E+00 0. -1.
          1    1    1    2  502    0 -0.17711573073E+02  0.20344719635E+02  0.23965009147E+03  0.24116337570E+03  0.00000000000E+00 0. -1.
         22    1    3    3    0    0 -0.61762462875E+02  0.11912989674E+02  0.12553170154E+02  0.64141275512E+02  0.00000000000E+00 0.  1.
         22    1    3    3    0    0  0.24289959874E+02 -0.46060243135E+02 -0.58603482743E+02  0.78395894905E+02  0.00000000000E+00 0.  1.
</event>
<event>
 7    1  0.6078244E-006  0.1679099E+03  0.7818608E-02  0.1209796E+00
          2   -1    0    0  502    0  0.00000000000E+00  0.00000000000E+00  0.14167448492E+04  0.14167448492E+04  0.00000000000E+00 0. -1.
          1   -1    0    0  501    0 -0.00000000000E+00 -0.00000000000E+00 -0.50400853197E+03  0.50400853197E+03  0.00000000000E+00 0. -1.
         25    2    1    2    0    0 -0.12625038611E+03 -0.19105040237E+03  0.35149161005E+03  0.43773395633E+03  0.12500099342E+03 0.  0.
          2    1    1    2  501    0  0.75422915864E+01  0.16657657456E+03 -0.44203755568E+03  0.47244242187E+03  0.00000000000E+00 0. -1.
          1    1    1    2  502    0  0.11870809452E+03  0.24473827808E+02  0.10032822629E+04  0.10105770030E+04  0.00000000000E+00 0. -1.
         22    1    3    3    0    0 -0.97062159386E+02 -0.20208032394E+03  0.33310235173E+03  0.40151550012E+03  0.00000000000E+00 0.  1.
         22    1    3    3    0    0 -0.29188226724E+02  0.11029921569E+02  0.18389258317E+02  0.36218456215E+02  0.00000000000E+00 0.  1.
</event>
<event>
 7    1  0.6078244E-006  0.5407762E+02  0.7818608E-02  0.1512150E+00
          2   -1    0    0  502    0  0.00000000000E+00  0.00000000000E+00  0.66173077303E+03  0.66173077303E+03  0.00000000000E+00 0. -1.
          1   -1    0    0  501    0 -0.00000000000E+00 -0.00000000000E+00 -0.63126352251E+03  0.63126352251E+03  0.00000000000E+00 0. -1.
         25    2    1    2    0    0 -0.16554536931E+02  0.39995285763E+02  0.23044811986E+03  0.26571523520E+03  0.12499829875E+03 0.  0.
          2    1    1    2  501    0 -0.89346546738E+01 -0.53419177072E+02 -0.61193084124E+03  0.61432303473E+03  0.00000000000E+00 0. -1.
          1    1    1    2  502    0  0.25489191604E+02  0.13423891309E+02  0.41194997190E+03  0.41295602562E+03  0.00000000000E+00 0. -1.
         22    1    3    3    0    0 -0.16451518840E+02 -0.31247703488E+02  0.16577878066E+03  0.16949830549E+03  0.00000000000E+00 0.  1.
         22    1    3    3    0    0 -0.10301809072E+00  0.71242989251E+02  0.64669339202E+02  0.96216929710E+02  0.00000000000E+00 0.  1.
</event>
<event>
 7    1  0.6078244E-006  0.6790186E+02  0.7818608E-02  0.1523441E+00
          2   -1    0    0  502    0  0.00000000000E+00  0.00000000000E+00  0.15623954294E+02  0.15623954294E+02  0.00000000000E+00 0. -1.
          1   -1    0    0  501    0 -0.00000000000E+00 -0.00000000000E+00 -0.10732108644E+04  0.10732108644E+04  0.00000000000E+00 0. -1.
         25    2    1    2    0    0  0.61850183235E+02 -0.30994922911E+01 -0.78957609059E+03  0.80180373149E+03  0.12499507582E+03 0.  0.
          2    1    1    2  501    0  0.44458780244E+01 -0.20799847221E+02 -0.19977040698E+02  0.29180158171E+02  0.00000000000E+00 0. -1.
          1    1    1    2  502    0 -0.66296061260E+02  0.23899339512E+02 -0.24803377877E+03  0.25785092899E+03  0.00000000000E+00 0. -1.
         22    1    3    3    0    0 -0.11858983007E+01 -0.24295138607E+02 -0.27030280706E+02  0.36363390790E+02  0.00000000000E+00 0. -1.
         22    1    3    3    0    0  0.63036081536E+02  0.21195646316E+02 -0.76254580988E+03  0.76544034070E+03  0.00000000000E+00 0. -1.
</event>
<event>
 7    1  0.6078244E-006  0.4979865E+02  0.7818608E-02  0.1467429E+00
          2   -1    0    0  502    0  0.00000000000E+00  0.00000000000E+00  0.22317294956E+03  0.22317294956E+03  0.00000000000E+00 0. -1.
          1   -1    0    0  501    0 -0.00000000000E+00 -0.00000000000E+00 -0.12930748767E+03  0.12930748767E+03  0.00000000000E+00 0. -1.
         25    2    1    2    0    0  0.61107046037E+02  0.13578472811E+02  0.82434045381E+02  0.16228655877E+03  0.12499243705E+03 0.  0.
          2    1    1    2  501    0 -0.32655290528E+02  0.27551124187E+02 -0.77309923397E+02  0.88330383782E+02  0.00000000000E+00 0. -1.
          1    1    1    2  502    0 -0.28451755509E+02 -0.41129596998E+02  0.88741339907E+02  0.10186349468E+03  0.00000000000E+00 0. -1.
         22    1    3    3    0    0  0.61719259909E+02 -0.39080344921E+02  0.11516102879E+02  0.73953776295E+02  0.00000000000E+00 0. -1.
         22    1    3    3    0    0 -0.61221387151E+00  0.52658817732E+02  0.70917942502E+02  0.88332782473E+02  0.00000000000E+00 0. -1.
</event>
<event>
 7    1  0.6078244E-006  0.4195176E+02  0.7818608E-02  0.1522893E+00
          2   -1    0    0  502    0  0.00000000000E+00  0.00000000000E+00  0.46340575448E+03  0.46340575448E+03  0.00000000000E+00 0. -1.
          1   -1    0    0  501    0 -0.00000000000E+00 -0.00000000000E+00 -0.13269100007E+03  0.13269100007E+03  0.00000000000E+00 0. -1.
         25    2    1    2    0    0 -0.14670814330E+02  0.30915912899E+01  0.89211304150E+02  0.15429952166E+03  0.12499957947E+03 0.  0.
          2    1    1    2  501    0 -0.21255450108E+02 -0.27241021127E+02 -0.95741411081E+02  0.10178548613E+03  0.00000000000E+00 0. -1.
          1    1    1    2  502    0  0.35926264438E+02  0.24149429837E+02  0.33724486134E+03  0.34001174676E+03  0.00000000000E+00 0. -1.
         22    1    3    3    0    0 -0.42870867826E+01 -0.31282310342E+02 -0.21308876261E+02  0.38092391116E+02  0.00000000000E+00 0. -1.
         22    1    3    3    0    0 -0.10383727548E+02  0.34373901632E+02  0.11052018041E+03  0.11620713054E+03  0.00000000000E+00 0. -1.
</event>
<event>
 7    1  0.6078244E-006  0.5763212E+02  0.7818608E-02  0.1517429E+00
          2   -1    0    0  502    0  0.00000000000E+00  0.00000000000E+00  0.53271171339E+03  0.53271171339E+03  0.00000000000E+00 0. -1.
          1   -1    0    0  501    0 -0.00000000000E+00 -0.00000000000E+00 -0.21884116764E+03  0.21884116764E+03  0.00000000000E+00 0. -1.
         25    2    1    2    0    0  0.53897297444E+02  0.19242298668E+02  0.17592912364E+03  0.22327441741E+03  0.12500089678E+03 0.  0.
          2    1    1    2  501    0 -0.57385169063E+02  0.66106936951E+01 -0.19036555148E+03  0.19893667859E+03  0.00000000000E+00 0. -1.
          1    1    1    2  502    0  0.34878716195E+01 -0.25852992363E+02  0.32830697358E+03  0.32934178503E+03  0.00000000000E+00 0. -1.
         22    1    3    3    0    0 -0.28042726115E+02  0.41288983305E+02  0.44704270555E+02  0.67004823977E+02  0.00000000000E+00 0. -1.
         22    1    3    3    0    0  0.81940023559E+02 -0.22046684636E+02  0.13122485309E+03  0.15626959343E+03  0.00000000000E+00 0. -1.
</event>
<event>
 7    1  0.6078244E-006  0.3152608E+02  0.7818608E-02  0.1612321E+00
          2   -1    0    0  502    0  0.00000000000E+00  0.00000000000E+00  0.12156817188E+03  0.12156817188E+03  0.00000000000E+00 0. -1.
          1   -1    0    0  501    0 -0.00000000000E+00 -0.00000000000E+00 -0.10968823959E+04  0.10968823959E+04  0.00000000000E+00 0. -1.
         25    2    1    2    0    0 -0.52226934239E+02  0.21836035499E+02 -0.27188248793E+03  0.30454723522E+03  0.12499786450E+03 0.  0.
          2    1    1    2  501    0  0.26679118802E+02 -0.15937134545E+02 -0.80673049623E+03  0.80732884328E+03  0.00000000000E+00 0. -1.
          1    1    1    2  502    0  0.25547815438E+02 -0.58989009534E+01  0.10329876017E+03  0.10657448925E+03  0.00000000000E+00 0. -1.
         22    1    3    3    0    0 -0.65298895549E+02  0.60612949560E+02 -0.22674903619E+03  0.24362471309E+03  0.00000000000E+00 0. -1.
         22    1    3    3    0    0  0.13071961310E+02 -0.38776914061E+02 -0.45133451738E+02  0.60922522128E+02  0.00000000000E+00 0. -1.
</event>
<event>
 7    1  0.6078244E-006  0.5975213E+02  0.7818608E-02  0.1503390E+00
          2   -1    0    0  502    0  0.00000000000E+00  0.00000000000E+00  0.89487952698E+03  0.89487952698E+03  0.00000000000E+00 0. -1.
          1   -1    0    0  501    0 -0.00000000000E+00 -0.00000000000E+00 -0.67323681189E+02  0.67323681189E+02  0.00000000000E+00 0. -1.
         25    2    1    2    0    0 -0.10615411791E+02  0.85710056191E+02  0.42671839920E+03  0.45295842378E+03  0.12499536292E+03 0.  0.
          2    1    1    2  501    0  0.90321696757E+01 -0.58083432326E+02 -0.37701827880E+02  0.69833323172E+02  0.00000000000E+00 0. -1.
          1    1    1    2  502    0  0.15832421154E+01 -0.27626623865E+02  0.43853927447E+03  0.43941146122E+03  0.00000000000E+00 0. -1.
         22    1    3    3    0    0 -0.46947671313E+02  0.10216895893E+02  0.60388888165E+02  0.77170503544E+02  0.00000000000E+00 0. -1.
         22    1    3    3    0    0  0.36332259522E+02  0.75493160298E+02  0.36632951104E+03  0.37578792023E+03  0.00000000000E+00 0. -1.
</event>
<event>
 7    1  0.6078244E-006  0.5028709E+02  0.7818608E-02  0.1470185E+00
          2   -1    0    0  502    0  0.00000000000E+00  0.00000000000E+00  0.23912647001E+04  0.23912647001E+04  0.00000000000E+00 0. -1.
          1   -1    0    0  501    0 -0.00000000000E+00 -0.00000000000E+00 -0.96645381508E+02  0.96645381508E+02  0.00000000000E+00 0. -1.
         25    2    1    2    0    0 -0.23924803142E+02  0.29132104244E+02  0.10306164653E+04  0.10388539877E+04  0.12500493407E+03 0.  0.
          2    1    1    2  501    0  0.50395668651E+02  0.28057442271E+01 -0.85300669744E+02  0.99115084010E+02  0.00000000000E+00 0. -1.
          1    1    1    2  502    0 -0.26470865509E+02 -0.31937848472E+02  0.13493035230E+04  0.13499410099E+04  0.00000000000E+00 0. -1.
         22    1    3    3    0    0 -0.60629491873E+02 -0.90765874169E+01  0.29341359601E+03  0.29974965896E+03  0.00000000000E+00 0. -1.
         22    1    3    3    0    0  0.36704688731E+02  0.38208691661E+02  0.73720286929E+03  0.73910432875E+03  0.00000000000E+00 0. -1.
</event>
<event>
 7    1  0.6078244E-006  0.2251078E+03  0.7818608E-02  0.1244268E+00
          2   -1    0    0  502    0  0.00000000000E+00  0.00000000000E+00  0.38997355859E+04  0.38997355859E+04  0.00000000000E+00 0. -1.
          1   -1    0    0  501    0 -0.00000000000E+00 -0.00000000000E+00 -0.43725852308E+03  0.43725852308E+03  0.00000000000E+00 0. -1.
         25    2    1    2    0    0  0.14828887231E+03 -0.15226052261E+03  0.63478819999E+03  0.68099367562E+03  0.12499388381E+03 0.  0.
          2    1    1    2  501    0 -0.19664564678E+03  0.11154069588E+03 -0.38296900701E+03  0.44472024641E+03  0.00000000000E+00 0. -1.
          1    1    1    2  502    0  0.48356774469E+02  0.40719826735E+02  0.32106578698E+04  0.32112801869E+04  0.00000000000E+00 0. -1.
         22    1    3    3    0    0  0.66116382505E+02 -0.92873477602E+02  0.49709811840E+03  0.51000333155E+03  0.00000000000E+00 0. -1.
         22    1    3    3    0    0  0.82172489803E+02 -0.59387045012E+02  0.13769008159E+03  0.17099034406E+03  0.00000000000E+00 0. -1.
</event>
<event>
 7    1  0.6078244E-006  0.4063698E+02  0.7818608E-02  0.1570988E+00
          2   -1    0    0  502    0  0.00000000000E+00  0.00000000000E+00  0.23622716959E+04  0.23622716959E+04  0.00000000000E+00 0. -1.
          1   -1    0    0  501    0 -0.00000000000E+00 -0.00000000000E+00 -0.48356760909E+02  0.48356760909E+02  0.00000000000E+00 0. -1.
         25    2    1    2    0    0 -0.10395996734E+01  0.59293388189E+02  0.31094400910E+03  0.34033431109E+03  0.12499791942E+03 0.  0.
          2    1    1    2  501    0 -0.14319356825E+02 -0.21887971453E+02 -0.28348928374E+02  0.38571868171E+02  0.00000000000E+00 0. -1.
          1    1    1    2  502    0  0.15358956499E+02 -0.37405416737E+02  0.20313198543E+04  0.20317222776E+04  0.00000000000E+00 0. -1.
         22    1    3    3    0    0 -0.57642598902E+02  0.53978070539E+02  0.21184810238E+03  0.22608830087E+03  0.00000000000E+00 0. -1.
         22    1    3    3    0    0  0.56602999228E+02  0.53153176502E+01  0.99095906716E+02  0.11424601022E+03  0.00000000000E+00 0. -1.
</event>
<event>
 7    1  0.6078244E-006  0.1363987E+03  0.7818608E-02  0.1239584E+00
          2   -1    0    0  502    0  0.00000000000E+00  0.00000000000E+00  0.22189537293E+04  0.22189537293E+04  0.00000000000E+00 0. -1.
          1   -1    0    0  501    0 -0.00000000000E+00 -0.00000000000E+00 -0.66966976114E+03  0.66966976114E+03  0.00000000000E+00 0. -1.
         25    2    1    2    0    0 -0.15901414887E+03  0.11207571193E+03  0.11013567719E+03  0.25612780984E+03  0.12500049135E+03 0.  0.
          2    1    1    2  501    0  0.50434962537E+02 -0.12544231814E+03 -0.58752055647E+03  0.60287632637E+03  0.00000000000E+00 0. -1.
          1    1    1    2  502    0  0.10857918634E+03  0.13366606207E+02  0.20266688474E+04  0.20296193542E+04  0.00000000000E+00 0. -1.
         22    1    3    3    0    0 -0.12855811079E+03  0.10409194536E+03  0.13696684642E+03  0.21476088553E+03  0.00000000000E+00 0.  1.
         22    1    3    3    0    0 -0.30456038087E+02  0.79837665741E+01 -0.26831169227E+02  0.41366924309E+02  0.00000000000E+00 0.  1.
</event>
<event>
 7    1  0.6078244E-006  0.5391653E+02  0.7818608E-02  0.1475306E+00
          2   -1    0    0  502    0  0.00000000000E+00  0.00000000000E+00  0.19407838303E+04  0.19407838303E+04  0.00000000000E+00 0. -1.
          1   -1    0    0  501    0 -0.00000000000E+00 -0.00000000000E+00 -0.17474228226E+03  0.17474228226E+03  0.00000000000E+00 0. -1.
         25    2    1    2    0    0 -0.58525415950E+02 -0.49620640853E+02  0.72161485263E+02  0.16346229566E+03  0.12500083935E+03 0.  0.
          2    1    1    2  501    0  0.37300693916E+02  0.19829746621E+00 -0.12599166270E+03  0.13139741306E+03  0.00000000000E+00 0. -1.
          1    1    1    2  502    0  0.21224722034E+02  0.49422343387E+02  0.18198717255E+04  0.18206664038E+04  0.00000000000E+00 0. -1.
         22    1    3    3    0    0  0.26664947632E+01  0.32201679218E+02 -0.83574779573E+01  0.33375226989E+02  0.00000000000E+00 0.  1.
         22    1    3    3    0    0 -0.61191910713E+02 -0.81822320071E+02  0.80518963220E+02  0.13008706868E+03  0.00000000000E+00 0.  1.
</event>
<event>
 7    1  0.6078244E-006  0.8642926E+02  0.7818608E-02  0.1424707E+00
          2   -1    0    0  502    0  0.00000000000E+00  0.00000000000E+00  0.33596718176E+04  0.33596718176E+04  0.00000000000E+00 0. -1.
          1   -1    0    0  501    0 -0.00000000000E+00 -0.00000000000E+00 -0.10562728485E+03  0.10562728485E+03  0.00000000000E+00 0. -1.
         25    2    1    2    0    0 -0.66679565650E+01  0.11849336903E+03  0.13760032443E+04  0.13867566978E+04  0.12499628191E+03 0.  0.
          2    1    1    2  501    0 -0.24725895487E+01 -0.85968057710E+02 -0.81632787485E+02  0.11857711684E+03  0.00000000000E+00 0. -1.
          1    1    1    2  502    0  0.91405461137E+01 -0.32525311317E+02  0.19596740759E+04  0.19599652878E+04  0.00000000000E+00 0. -1.
         22    1    3    3    0    0  0.97328861725E+01 -0.26619699442E+00  0.70887657101E+03  0.70894343417E+03  0.00000000000E+00 0. -1.
         22    1    3    3    0    0 -0.16400842737E+02  0.11875956602E+03  0.66712667331E+03  0.67781326367E+03  0.00000000000E+00 0. -1.
</event>
<event>
 7    1  0.6078244E-006  0.9701426E+02  0.7818608E-02  0.1427877E+00
          2   -1    0    0  502    0  0.00000000000E+00  0.00000000000E+00  0.78439065933E+02  0.78439065933E+02  0.00000000000E+00 0. -1.
          1   -1    0    0  501    0 -0.00000000000E+00 -0.00000000000E+00 -0.18628593019E+04  0.18628593019E+04  0.00000000000E+00 0. -1.
         25    2    1    2    0    0  0.19015093577E+02 -0.95223529733E+02 -0.55512277112E+02  0.16773470817E+03  0.12499690002E+03 0.  0.
          2    1    1    2  501    0  0.10334915075E+02  0.96565431916E+02 -0.17395919402E+04  0.17423007236E+04  0.00000000000E+00 0. -1.
          1    1    1    2  502    0 -0.29350008652E+02 -0.13419021835E+01  0.10683981387E+02  0.31262936005E+02  0.00000000000E+00 0. -1.
         22    1    3    3    0    0  0.40165939642E+02  0.17088681761E+02 -0.20355803264E+02  0.48163102871E+02  0.00000000000E+00 0. -1.
         22    1    3    3    0    0 -0.21150846065E+02 -0.11231221149E+03 -0.35156473848E+02  0.11957160530E+03  0.00000000000E+00 0. -1.
</event>
<event>
 7    1  0.6078244E-006  0.3793905E+02  0.7818608E-02  0.1617733E+00
          2   -1    0    0  502    0  0.00000000000E+00  0.00000000000E+00  0.16257774935E+04  0.16257774935E+04  0.00000000000E+00 0. -1.
          1   -1    0    0  501    0 -0.00000000000E+00 -0.00000000000E+00 -0.68067350883E+02  0.68067350883E+02  0.00000000000E+00 0. -1.
         25    2    1    2    0    0 -0.23472791297E+02  0.45410919748E+02  0.53756769098E+02  0.14535452251E+03  0.12500009371E+03 0.  0.
          2    1    1    2  501    0  0.26796114892E+02 -0.24571179063E+02 -0.73064760278E+01  0.37083139103E+02  0.00000000000E+00 0. -1.
          1    1    1    2  502    0 -0.33233235942E+01 -0.20839740686E+02  0.15112598495E+04  0.15114071828E+04  0.00000000000E+00 0. -1.
         22    1    3    3    0    0  0.37617000800E+02  0.71975578189E+01  0.61950130714E+02  0.72833112547E+02  0.00000000000E+00 0. -1.
         22    1    3    3    0    0 -0.61089792098E+02  0.38213361929E+02 -0.81933616167E+01  0.72521409963E+02  0.00000000000E+00 0. -1.
</event>
<event>
 7    1  0.6078244E-006  0.3908065E+02  0.7818608E-02  0.1543327E+00
          2   -1    0    0  502    0  0.00000000000E+00  0.00000000000E+00  0.10286268500E+04  0.10286268500E+04  0.00000000000E+00 0. -1.
          1   -1    0    0  501    0 -0.00000000000E+00 -0.00000000000E+00 -0.52803955953E+03  0.52803955953E+03  0.00000000000E+00 0. -1.
         25    2    1    2    0    0 -0.31658252943E+02  0.24075208409E+02  0.21796508358E+03  0.25439302313E+03  0.12500068768E+03 0.  0.
          2    1    1    2  501    0  0.28636904030E+02  0.15222058568E+02 -0.50881895226E+03  0.50985145829E+03  0.00000000000E+00 0. -1.
          1    1    1    2  502    0  0.30213489132E+01 -0.39297266976E+02  0.79144115915E+03  0.79242192810E+03  0.00000000000E+00 0. -1.
         22    1    3    3    0    0  0.36824595046E+02 -0.26904035492E+02  0.82606973364E+02  0.94359896007E+02  0.00000000000E+00 0. -1.
         22    1    3    3    0    0 -0.68482847990E+02  0.50979243901E+02  0.13535811021E+03  0.16003312713E+03  0.00000000000E+00 0. -1.
</event>
<event>
 7    1  0.6078244E-006  0.8545346E+02  0.7818608E-02  0.1471564E+00
          2   -1    0    0  502    0  0.00000000000E+00  0.00000000000E+00  0.12704792328E+03  0.12704792328E+03  0.00000000000E+00 0. -1.
          1   -1    0    0  501    0 -0.00000000000E+00 -0.00000000000E+00 -0.14890386390E+03  0.14890386390E+03  0.00000000000E+00 0. -1.
         25    2    1    2    0    0  0.58135032403E+02 -0.33337545542E+02  0.22781938341E+02  0.14364407526E+03  0.12499411869E+03 0.  0.
          2    1    1    2  501    0 -0.79162411366E+02  0.45258214162E+02 -0.54466133607E+02  0.10621465545E+03  0.00000000000E+00 0. -1.
          1    1    1    2  502    0  0.21027378963E+02 -0.11920668620E+02  0.98282546504E+01  0.26093056469E+02  0.00000000000E+00 0. -1.
         22    1    3    3    0    0 -0.80430663806E+01 -0.12670212343E+02 -0.44543394486E+02  0.47003608266E+02  0.00000000000E+00 0. -1.
         22    1    3    3    0    0  0.66178098783E+02 -0.20667333199E+02  0.67325332827E+02  0.96640466992E+02  0.00000000000E+00 0. -1.
</event>
<event>
 7    1  0.6078244E-006  0.1216312E+03  0.7818608E-02  0.1249197E+00
          2   -1    0    0  502    0  0.00000000000E+00  0.00000000000E+00  0.42086738383E+03  0.42086738383E+03  0.00000000000E+00 0. -1.
          1   -1    0    0  501    0 -0.00000000000E+00 -0.00000000000E+00 -0.82160965932E+03  0.82160965932E+03  0.00000000000E+00 0. -1.
         25    2    1    2    0    0 -0.26206446396E+02 -0.89661096999E+00  0.60396908407E+02  0.14126583642E+03  0.12498267180E+03 0.  0.
          2    1    1    2  501    0 -0.12154500285E+03 -0.45796454319E+01 -0.75899422504E+03  0.76867834269E+03  0.00000000000E+00 0. -1.
          1    1    1    2  502    0  0.14775144925E+03  0.54762564019E+01  0.29785504114E+03  0.33253286405E+03  0.00000000000E+00 0. -1.
         22    1    3    3    0    0 -0.46845281816E+02 -0.37315792739E+01 -0.25093518478E+02  0.53273725061E+02  0.00000000000E+00 0. -1.
         22    1    3    3    0    0  0.20638835420E+02  0.28349683039E+01  0.85490426885E+02  0.87992111361E+02  0.00000000000E+00 0. -1.
</event>
<event>
 7    1  0.6078244E-006  0.7134464E+02  0.7818608E-02  0.1399686E+00
          2   -1    0    0  502    0  0.00000000000E+00  0.00000000000E+00  0.11538339367E+04  0.11538339367E+04  0.00000000000E+00 0. -1.
          1   -1    0    0  501    0 -0.00000000000E+00 -0.00000000000E+00 -0.10986880476E+03  0.10986880476E+03  0.00000000000E+00 0. -1.
         25    2    1    2    0    0 -0.21528405227E+02 -0.18311493825E+02  0.37031020831E+03  0.39185788654E+03  0.12499667929E+03 0.  0.
          2    1    1    2  501    0  0.27280845972E+02  0.67700205274E+02 -0.84728953621E+02  0.11183272300E+03  0.00000000000E+00 0. -1.
          1    1    1    2  502    0 -0.57524407441E+01 -0.49388711449E+02  0.75838387726E+03  0.76001213193E+03  0.00000000000E+00 0. -1.
         22    1    3    3    0    0  0.10090552723E+02  0.45155195122E+02  0.23046378138E+03  0.23506247134E+03  0.00000000000E+00 0.  1.
         22    1    3    3    0    0 -0.31618957951E+02 -0.63466688948E+02  0.13984642692E+03  0.15679541521E+03  0.00000000000E+00 0.  1.
</event>
<event>
 7    1  0.6078244E-006  0.1589536E+03  0.7818608E-02  0.1398922E+00
          2   -1    0    0  502    0  0.00000000000E+00  0.00000000000E+00  0.22532460071E+04  0.22532460071E+04  0.00000000000E+00 0. -1.
          1   -1    0    0  501    0 -0.00000000000E+00 -0.00000000000E+00 -0.27799298787E+03  0.27799298787E+03  0.00000000000E+00 0. -1.
         25    2    1    2    0    0  0.20582632171E+02  0.17740094249E+03  0.45043926956E+03  0.50041556985E+03  0.12500187135E+03 0.  0.
          2    1    1    2  501    0 -0.43404173779E+00 -0.22448854121E+02 -0.24906541754E+03  0.25007543194E+03  0.00000000000E+00 0. -1.
          1    1    1    2  502    0 -0.20148590434E+02 -0.15495208836E+03  0.17738791672E+04  0.17807479932E+04  0.00000000000E+00 0. -1.
         22    1    3    3    0    0 -0.43124936077E+02  0.94796956725E+02  0.15188202864E+03  0.18415855598E+03  0.00000000000E+00 0. -1.
         22    1    3    3    0    0  0.63707568248E+02  0.82603985761E+02  0.29855724092E+03  0.31625701387E+03  0.00000000000E+00 0. -1.
</event>
<event>
 7    1  0.6078244E-006  0.1224486E+03  0.7818608E-02  0.1249551E+00
          2   -1    0    0  502    0  0.00000000000E+00  0.00000000000E+00  0.99375209028E+03  0.99375209028E+03  0.00000000000E+00 0. -1.
          1   -1    0    0  501    0 -0.00000000000E+00 -0.00000000000E+00 -0.14648202825E+03  0.14648202825E+03  0.00000000000E+00 0. -1.
         25    2    1    2    0    0 -0.12222668874E+02 -0.44868342805E+02  0.17306587584E+03  0.21849343098E+03  0.12500008071E+03 0.  0.
          2    1    1    2  501    0 -0.10843143319E+03  0.65754884566E+02 -0.85040162232E+02  0.15268565663E+03  0.00000000000E+00 0. -1.
          1    1    1    2  502    0  0.12065410207E+03 -0.20886541761E+02  0.75924434842E+03  0.76905503092E+03  0.00000000000E+00 0. -1.
         22    1    3    3    0    0 -0.44527075287E+01  0.35764567617E+02  0.11023271780E+03  0.11597492391E+03  0.00000000000E+00 0. -1.
         22    1    3    3    0    0 -0.77699613455E+01 -0.80632910423E+02  0.62833158040E+02  0.10251850707E+03  0.00000000000E+00 0. -1.
</event>
<event>
 7    1  0.6078244E-006  0.5987018E+02  0.7818608E-02  0.1408631E+00
          2   -1    0    0  502    0  0.00000000000E+00  0.00000000000E+00  0.22792937213E+04  0.22792937213E+04  0.00000000000E+00 0. -1.
          1   -1    0    0  501    0 -0.00000000000E+00 -0.00000000000E+00 -0.80537428742E+03  0.80537428742E+03  0.00000000000E+00 0. -1.
         25    2    1    2    0    0  0.50209620529E+02 -0.68648538920E+02  0.31555601803E+03  0.34990568289E+03  0.12499903407E+03 0.  0.
          2    1    1    2  501    0 -0.58191409819E+02  0.14004080207E+02 -0.78667073381E+03  0.78894435664E+03  0.00000000000E+00 0. -1.
          1    1    1    2  502    0  0.79817892907E+01  0.54644458713E+02  0.19450341497E+04  0.19458179692E+04  0.00000000000E+00 0. -1.
         22    1    3    3    0    0 -0.35538655057E+02 -0.27648615059E+02  0.47279521404E+02  0.65290083950E+02  0.00000000000E+00 0.  1.
         22    1    3    3    0    0  0.85748275586E+02 -0.40999923861E+02  0.26827649662E+03  0.28461559894E+03  0.00000000000E+00 0.  1.
</event>
<event>
 7    1  0.6078244E-006  0.1454676E+03  0.7818608E-02  0.1365511E+00
          2   -1    0    0  502    0  0.00000000000E+00  0.00000000000E+00  0.94434087445E+03  0.94434087445E+03  0.00000000000E+00 0. -1.
          1   -1    0    0  501    0 -0.00000000000E+00 -0.00000000000E+00 -0.30373030198E+03  0.30373030198E+03  0.00000000000E+00 0. -1.
         25    2    1    2    0    0  0.11352926659E+03  0.70990721107E+02 -0.47188660749E+02  0.18915679649E+03  0.12499978840E+03 0.  0.
          2    1    1    2  501    0 -0.87386891807E+01  0.30982540413E+02 -0.17798361192E+03  0.18087135929E+03  0.00000000000E+00 0. -1.
          1    1    1    2  502    0 -0.10479057741E+03 -0.10197326152E+03  0.86578284514E+03  0.87804302065E+03  0.00000000000E+00 0. -1.
         22    1    3    3    0    0 -0.22431454774E+02 -0.71758317036E+01 -0.17982157542E+02  0.29631414306E+02  0.00000000000E+00 0. -1.
         22    1    3    3    0    0  0.13596072136E+03  0.78166552811E+02 -0.29206503206E+02  0.15952538218E+03  0.00000000000E+00 0. -1.
</event>
<event>
 7    1  0.6078244E-006  0.1162101E+03  0.7818608E-02  0.1269980E+00
          2   -1    0    0  502    0  0.00000000000E+00  0.00000000000E+00  0.17320582435E+03  0.17320582435E+03  0.00000000000E+00 0. -1.
          1   -1    0    0  501    0 -0.00000000000E+00 -0.00000000000E+00 -0.12216154675E+04  0.12216154675E+04  0.00000000000E+00 0. -1.
         25    2    1    2    0    0 -0.11756062363E+03 -0.42801247637E+02 -0.53415168825E+03  0.56266814396E+03  0.12499986858E+03 0.  0.
          2    1    1    2  501    0  0.69842900759E+02 -0.64396149311E+02 -0.64760212073E+03  0.65453296449E+03  0.00000000000E+00 0. -1.
          1    1    1    2  502    0  0.47717722872E+02  0.10719739695E+03  0.13334416583E+03  0.17762018339E+03  0.00000000000E+00 0. -1.
         22    1    3    3    0    0 -0.53868040983E+02 -0.10508957281E+02 -0.44533165512E+03  0.44870088820E+03  0.00000000000E+00 0. -1.
         22    1    3    3    0    0 -0.63692582648E+02 -0.32292290357E+02 -0.88820033132E+02  0.11396725576E+03  0.00000000000E+00 0. -1.
</event>
<event>
 7    1  0.6078244E-006  0.5132349E+02  0.7818608E-02  0.1514374E+00
          2   -1    0    0  502    0  0.00000000000E+00  0.00000000000E+00  0.11788009526E+04  0.11788009526E+04  0.00000000000E+00 0. -1.
          1   -1    0    0  501    0 -0.00000000000E+00 -0.00000000000E+00 -0.16688075782E+03  0.16688075782E+03  0.00000000000E+00 0. -1.
         25    2    1    2    0    0 -0.50269231071E+01  0.34093744256E+02  0.19727289088E+03  0.23607216283E+03  0.12500327689E+03 0.  0.
          2    1    1    2  501    0  0.34594533273E+02 -0.38550450824E+02 -0.14269257959E+03  0.15180280387E+03  0.00000000000E+00 0. -1.
          1    1    1    2  502    0 -0.29567610166E+02  0.44567065678E+01  0.95733988345E+03  0.95780674368E+03  0.00000000000E+00 0. -1.
         22    1    3    3    0    0 -0.20397887192E+02  0.20094121654E+02  0.20983593951E+03  0.21178047369E+03  0.00000000000E+00 0. -1.
         22    1    3    3    0    0  0.15370964085E+02  0.13999622603E+02 -0.12563048636E+02  0.24291689133E+02  0.00000000000E+00 0. -1.
</event>
<event>
 7    1  0.6078244E-006  0.6468015E+02  0.7818608E-02  0.1456858E+00
          2   -1    0    0  502    0  0.00000000000E+00  0.00000000000E+00  0.67725501762E+03  0.67725501762E+03  0.00000000000E+00 0. -1.
          1   -1    0    0  501    0 -0.00000000000E+00 -0.00000000000E+00 -0.18785643912E+04  0.18785643912E+04  0.00000000000E+00 0. -1.
         25    2    1    2    0    0 -0.59774007738E+02  0.45979721643E+02 -0.18992044819E+03  0.23954435163E+03  0.12499861181E+03 0.  0.
          2    1    1    2  501    0 -0.40012834153E+01 -0.35286045366E+02 -0.16620395513E+04  0.16624188959E+04  0.00000000000E+00 0. -1.
          1    1    1    2  502    0  0.63775291153E+02 -0.10693676278E+02  0.65065062600E+03  0.65385616123E+03  0.00000000000E+00 0. -1.
         22    1    3    3    0    0 -0.31949065780E+01  0.33067803332E+02  0.72559623320E+01  0.34004941326E+02  0.00000000000E+00 0. -1.
         22    1    3    3    0    0 -0.56579101160E+02  0.12911918311E+02 -0.19717641052E+03  0.20553941031E+03  0.00000000000E+00 0. -1.
</event>
<event>
 7    1  0.6078244E-006  0.4432776E+02  0.7818608E-02  0.1493315E+00
          2   -1    0    0  502    0  0.00000000000E+00  0.00000000000E+00  0.25702598126E+04  0.25702598126E+04  0.00000000000E+00 0. -1.
          1   -1    0    0  501    0 -0.00000000000E+00 -0.00000000000E+00 -0.27904346477E+03  0.27904346477E+03  0.00000000000E+00 0. -1.
         25    2    1    2    0    0  0.71060809767E+02  0.43065151242E+02  0.42089387499E+03  0.44685671189E+03  0.12500008411E+03 0.  0.
          2    1    1    2  501    0 -0.31444249334E+02 -0.24692828924E+02 -0.26433549112E+03  0.26734196917E+03  0.00000000000E+00 0. -1.
          1    1    1    2  502    0 -0.39616560433E+02 -0.18372322318E+02  0.21346579640E+04  0.21351045963E+04  0.00000000000E+00 0. -1.
         22    1    3    3    0    0 -0.99930619737E+01  0.60428433743E+02  0.11964346326E+03  0.13440987759E+03  0.00000000000E+00 0. -1.
         22    1    3    3    0    0  0.81053871741E+02 -0.17363282501E+02  0.30125041173E+03  0.31244683431E+03  0.00000000000E+00 0. -1.
</event>
<event>
 7    1  0.6078244E-006  0.1090224E+03  0.7818608E-02  0.1376538E+00
          2   -1    0    0  502    0  0.00000000000E+00  0.00000000000E+00  0.24047929995E+03  0.24047929995E+03  0.00000000000E+00 0. -1.
          1   -1    0    0  501    0 -0.00000000000E+00 -0.00000000000E+00 -0.21041536032E+04  0.21041536032E+04  0.00000000000E+00 0. -1.
         25    2    1    2    0    0  0.12311421272E+03  0.64794076671E+00 -0.27243348079E+03  0.32403981334E+03  0.12499707987E+03 0.  0.
          2    1    1    2  501    0 -0.10329239919E+03  0.33183947707E+02 -0.18024816952E+04  0.18057438234E+04  0.00000000000E+00 0. -1.
          1    1    1    2  502    0 -0.19821813537E+02 -0.33831888474E+02  0.21124087274E+03  0.21484926643E+03  0.00000000000E+00 0. -1.
         22    1    3    3    0    0  0.51044981817E+02 -0.60074168808E+02 -0.15088481030E+03  0.17023725181E+03  0.00000000000E+00 0. -1.
         22    1    3    3    0    0  0.72069230907E+02  0.60722109575E+02 -0.12154867049E+03  0.15380256153E+03  0.00000000000E+00 0. -1.
</event>
<event>
 7    1  0.6651711E-006  0.8764113E+02  0.7818608E-02  0.1458316E+00
          2   -1    0    0  502    0  0.00000000000E+00  0.00000000000E+00  0.86058623885E+03  0.86058623885E+03  0.00000000000E+00 0. -1.
          1   -1    0    0  501    0 -0.00000000000E+00 -0.00000000000E+00 -0.11341338786E+04  0.11341338786E+04  0.00000000000E+00 0. -1.
         25    2    1    2    0    0 -0.33359967850E+02  0.55738777912E+02 -0.50880364296E+03  0.52794455610E+03  0.12499843361E+03 0.  0.
          2    1    1    2  501    0  0.12103893705E+01  0.25903128192E+02 -0.61322332484E+03  0.61377136070E+03  0.00000000000E+00 0. -1.
          1    1    1    2  502    0  0.32149578480E+02 -0.81641906105E+02  0.84847932804E+03  0.85300420066E+03  0.00000000000E+00 0. -1.
         22    1    3    3    0    0 -0.72079351437E+02  0.59719993586E+02 -0.26483707734E+03  0.28089248490E+03  0.00000000000E+00 0. -1.
         22    1    3    3    0    0  0.38719383587E+02 -0.39812156735E+01 -0.24396656562E+03  0.24705207120E+03  0.00000000000E+00 0. -1.
</event>
<event>
 7    1  0.6078244E-006  0.3554706E+02  0.7818608E-02  0.1560451E+00
          2   -1    0    0  502    0  0.00000000000E+00  0.00000000000E+00  0.23273382522E+04  0.23273382522E+04  0.00000000000E+00 0. -1.
          1   -1    0    0  501    0 -0.00000000000E+00 -0.00000000000E+00 -0.39223233117E+03  0.39223233117E+03  0.00000000000E+00 0. -1.
         25    2    1    2    0    0  0.35107126192E+02  0.45897581115E+02  0.57379305763E+03  0.59008073511E+03  0.12497080740E+03 0.  0.
          2    1    1    2  501    0 -0.29975586934E+02 -0.11058341490E+02 -0.38324604754E+03  0.38457555264E+03  0.00000000000E+00 0. -1.
          1    1    1    2  502    0 -0.51315392582E+01 -0.34839239625E+02  0.17445589109E+04  0.17449142956E+04  0.00000000000E+00 0. -1.
         22    1    3    3    0    0  0.21599325497E+01 -0.34518841634E+02  0.62291389475E+02  0.71249090795E+02  0.00000000000E+00 0.  1.
         22    1    3    3    0    0  0.32947193642E+02  0.80416422749E+02  0.51150166816E+03  0.51883164431E+03  0.00000000000E+00 0.  1.
</event>
<event>
 7    1  0.6078244E-006  0.4464719E+03  0.7818608E-02  0.1147863E+00
          2   -1    0    0  502    0  0.00000000000E+00  0.00000000000E+00  0.86784789982E+03  0.86784789982E+03  0.00000000000E+00 0. -1.
          1   -1    0    0  501    0 -0.00000000000E+00 -0.00000000000E+00 -0.17324575335E+04  0.17324575335E+04  0.00000000000E+00 0. -1.
         25    2    1    2    0    0  0.36587218803E+03 -0.13818780426E+03  0.16661814113E+02  0.41092600781E+03  0.12499696244E+03 0.  0.
          2    1    1    2  501    0  0.55031777312E+02 -0.73237311366E+02 -0.14488887181E+04  0.14517819112E+04  0.00000000000E+00 0. -1.
          1    1    1    2  502    0 -0.42090396534E+03  0.21142511563E+03  0.56761727030E+03  0.73759751430E+03  0.00000000000E+00 0. -1.
         22    1    3    3    0    0  0.81119744174E+02  0.96597187432E+01 -0.29331860009E+02  0.86799084516E+02  0.00000000000E+00 0.  1.
         22    1    3    3    0    0  0.28475244386E+03 -0.14784752301E+03  0.45993674123E+02  0.32412692329E+03  0.00000000000E+00 0.  1.
</event>
<event>
 7    1  0.6078244E-006  0.8755754E+02  0.7818608E-02  0.1328370E+00
          2   -1    0    0  502    0  0.00000000000E+00  0.00000000000E+00  0.59711096528E+03  0.59711096528E+03  0.00000000000E+00 0. -1.
          1   -1    0    0  501    0 -0.00000000000E+00 -0.00000000000E+00 -0.37226765996E+03  0.37226765996E+03  0.00000000000E+00 0. -1.
         25    2    1    2    0    0  0.27863839366E+02  0.48236278186E+02 -0.14369060574E+03  0.19843324167E+03  0.12500251656E+03 0.  0.
          2    1    1    2  501    0  0.60592911695E+02 -0.41664745630E+02 -0.19087388647E+03  0.20454899783E+03  0.00000000000E+00 0. -1.
          1    1    1    2  502    0 -0.88456751061E+02 -0.65715325552E+01  0.55940779752E+03  0.56639638574E+03  0.00000000000E+00 0. -1.
         22    1    3    3    0    0  0.44109142344E+02  0.76776536234E+02 -0.13963676364E+03  0.16534412210E+03  0.00000000000E+00 0.  1.
         22    1    3    3    0    0 -0.16245302978E+02 -0.28540258048E+02 -0.40538420982E+01  0.33089119572E+02  0.00000000000E+00 0.  1.
</event>
<event>
 7    1  0.6078244E-006  0.6393178E+02  0.7818608E-02  0.1470688E+00
          2   -1    0    0  502    0  0.00000000000E+00  0.00000000000E+00  0.79371784187E+01  0.79371784187E+01  0.00000000000E+00 0. -1.
          1   -1    0    0  501    0 -0.00000000000E+00 -0.00000000000E+00 -0.30882078157E+04  0.30882078157E+04  0.00000000000E+00 0. -1.
         25    2    1    2    0    0  0.73865588681E+02  0.57190890260E+02 -0.19907325060E+04  0.19968394239E+04  0.12499940512E+03 0.  0.
          2    1    1    2  501    0 -0.26418366371E+02 -0.18948490649E+02 -0.89174284014E+03  0.89233528919E+03  0.00000000000E+00 0. -1.
          1    1    1    2  502    0 -0.47447222311E+02 -0.38242399611E+02 -0.19779529108E+03  0.20697028097E+03  0.00000000000E+00 0. -1.
         22    1    3    3    0    0  0.16870069650E+02  0.44661709791E+02 -0.21887895163E+03  0.22402513930E+03  0.00000000000E+00 0. -1.
         22    1    3    3    0    0  0.56995519031E+02  0.12529180469E+02 -0.17718535544E+04  0.17728142846E+04  0.00000000000E+00 0. -1.
</event>
<event>
 7    1  0.6078244E-006  0.7005973E+02  0.7818608E-02  0.1363061E+00
          2   -1    0    0  502    0  0.00000000000E+00  0.00000000000E+00  0.16200695785E+03  0.16200695785E+03  0.00000000000E+00 0. -1.
          1   -1    0    0  501    0 -0.00000000000E+00 -0.00000000000E+00 -0.53295236218E+03  0.53295236218E+03  0.00000000000E+00 0. -1.
         25    2    1    2    0    0 -0.21075505044E+02 -0.20566630312E+02 -0.78087071289E+02  0.15032118954E+03  0.12502682163E+03 0.  0.
          2    1    1    2  501    0 -0.44917137258E+02  0.53766308234E+02 -0.40463521400E+03  0.41065559966E+03  0.00000000000E+00 0. -1.
          1    1    1    2  502    0  0.65992642303E+02 -0.33199677922E+02  0.11177688096E+03  0.13398253084E+03  0.00000000000E+00 0. -1.
         22    1    3    3    0    0  0.23012028070E+01  0.36665848591E+02 -0.80462760876E+02  0.88453015071E+02  0.00000000000E+00 0.  1.
         22    1    3    3    0    0 -0.23376707851E+02 -0.57232478902E+02  0.23756895871E+01  0.61868174470E+02  0.00000000000E+00 0.  1.
</event>
<event>
 7    1  0.6078244E-006  0.8650038E+02  0.7818608E-02  0.1487488E+00
          2   -1    0    0  502    0  0.00000000000E+00  0.00000000000E+00  0.58152483158E+03  0.58152483158E+03  0.00000000000E+00 0. -1.
          1   -1    0    0  501    0 -0.00000000000E+00 -0.00000000000E+00 -0.73115596983E+03  0.73115596983E+03  0.00000000000E+00 0. -1.
         25    2    1    2    0    0 -0.78447899651E+02  0.57888105218E+02 -0.27426697338E+03  0.31678475380E+03  0.12500040746E+03 0.  0.
          2    1    1    2  501    0  0.57528858758E+02 -0.62089807566E+02 -0.43131183060E+03  0.43953908701E+03  0.00000000000E+00 0. -1.
          1    1    1    2  502    0  0.20919040893E+02  0.42017023476E+01  0.55594766574E+03  0.55635696060E+03  0.00000000000E+00 0. -1.
         22    1    3    3    0    0 -0.40933311043E+02 -0.16839639174E+02 -0.20035149283E+03  0.20518243121E+03  0.00000000000E+00 0.  1.
         22    1    3    3    0    0 -0.37514588608E+02  0.74727744392E+02 -0.73915480557E+02  0.11160232258E+03  0.00000000000E+00 0.  1.
</event>
<event>
 7    1  0.6078244E-006  0.3149925E+02  0.7818608E-02  0.1629051E+00
          2   -1    0    0  502    0  0.00000000000E+00  0.00000000000E+00  0.11495388194E+04  0.11495388194E+04  0.00000000000E+00 0. -1.
          1   -1    0    0  501    0 -0.00000000000E+00 -0.00000000000E+00 -0.81432266043E+02  0.81432266043E+02  0.00000000000E+00 0. -1.
         25    2    1    2    0    0  0.18855937174E+02  0.11658241347E+02  0.90890484931E+03  0.91772762434E+03  0.12499802567E+03 0.  0.
          2    1    1    2  501    0 -0.51853527685E+01 -0.31130591256E+02 -0.73154832196E+02  0.79672021871E+02  0.00000000000E+00 0. -1.
          1    1    1    2  502    0 -0.13670584405E+02  0.19472349909E+02  0.23235653628E+03  0.23357143927E+03  0.00000000000E+00 0. -1.
         22    1    3    3    0    0  0.37691320898E+02 -0.36962685113E+02  0.71463014213E+03  0.71657736205E+03  0.00000000000E+00 0. -1.
         22    1    3    3    0    0 -0.18835383724E+02  0.48620926460E+02  0.19427470718E+03  0.20115026229E+03  0.00000000000E+00 0. -1.
</event>
<event>
 7    1  0.6078244E-006  0.4662291E+02  0.7818608E-02  0.1537009E+00
          2   -1    0    0  502    0  0.00000000000E+00  0.00000000000E+00  0.99923286513E+03  0.99923286513E+03  0.00000000000E+00 0. -1.
          1   -1    0    0  501    0 -0.00000000000E+00 -0.00000000000E+00 -0.19935949443E+04  0.19935949443E+04  0.00000000000E+00 0. -1.
         25    2    1    2    0    0  0.68474875802E+02  0.30145541500E+02 -0.77067086377E+02  0.16480835682E+03  0.12499958554E+03 0.  0.
          2    1    1    2  501    0 -0.25908081832E+02 -0.11451037226E+02 -0.18719844111E+04  0.18721987049E+04  0.00000000000E+00 0. -1.
          1    1    1    2  502    0 -0.42566793970E+02 -0.18694504273E+02  0.95468941831E+03  0.95582074778E+03  0.00000000000E+00 0. -1.
         22    1    3    3    0    0 -0.26253577129E+02  0.13449402025E+02  0.13727911042E+02  0.32536014944E+02  0.00000000000E+00 0.  1.
         22    1    3    3    0    0  0.94728452931E+02  0.16696139474E+02 -0.90794997419E+02  0.13227234187E+03  0.00000000000E+00 0.  1.
</event>
<event>
 7    1  0.6078244E-006  0.3968017E+02  0.7818608E-02  0.1535456E+00
          2   -1    0    0  502    0  0.00000000000E+00  0.00000000000E+00  0.32694916803E+04  0.32694916803E+04  0.00000000000E+00 0. -1.
          1   -1    0    0  501    0 -0.00000000000E+00 -0.00000000000E+00 -0.11450004068E+02  0.11450004068E+02  0.00000000000E+00 0. -1.
         25    2    1    2    0    0 -0.15476278427E+02 -0.17686427873E+02  0.25400289626E+04  0.25432117156E+04  0.12500549847E+03 0.  0.
          2    1    1    2  501    0  0.33498399904E+02 -0.21269056209E+02  0.33663445114E+02  0.52035978756E+02  0.00000000000E+00 0. -1.
          1    1    1    2  502    0 -0.18022121477E+02  0.38955484082E+02  0.68434926854E+03  0.68569399002E+03  0.00000000000E+00 0. -1.
         22    1    3    3    0    0 -0.14759927256E+02 -0.66860182861E+02  0.97042882803E+03  0.97284132816E+03  0.00000000000E+00 0.  1.
         22    1    3    3    0    0 -0.71635117156E+00  0.49173754988E+02  0.15696001346E+04  0.15703703875E+04  0.00000000000E+00 0.  1.
</event>
<event>
 7    1  0.6078244E-006  0.5558001E+02  0.7818608E-02  0.1440026E+00
          2   -1    0    0  502    0  0.00000000000E+00  0.00000000000E+00  0.26963480219E+03  0.26963480219E+03  0.00000000000E+00 0. -1.
          1   -1    0    0  501    0 -0.00000000000E+00 -0.00000000000E+00 -0.51944923650E+03  0.51944923650E+03  0.00000000000E+00 0. -1.
         25    2    1    2    0    0  0.77968986238E+02 -0.13591168626E+02 -0.39461921914E+03  0.42144194043E+03  0.12500039343E+03 0.  0.
          2    1    1    2  501    0 -0.38967172838E+02 -0.25911612370E+02 -0.10329874782E+03  0.11340407187E+03  0.00000000000E+00 0. -1.
          1    1    1    2  502    0 -0.39001813400E+02  0.39502780996E+02  0.24810353265E+03  0.25423802640E+03  0.00000000000E+00 0. -1.
         22    1    3    3    0    0  0.32294410720E+02 -0.59363329228E+02 -0.10631668295E+03  0.12597686650E+03  0.00000000000E+00 0. -1.
         22    1    3    3    0    0  0.45674575518E+02  0.45772160602E+02 -0.28830253619E+03  0.29546507392E+03  0.00000000000E+00 0. -1.
</event>
<event>
 7    1  0.6078244E-006  0.9578431E+02  0.7818608E-02  0.1312275E+00
          2   -1    0    0  502    0  0.00000000000E+00  0.00000000000E+00  0.24132050793E+04  0.24132050793E+04  0.00000000000E+00 0. -1.
          1   -1    0    0  501    0 -0.00000000000E+00 -0.00000000000E+00 -0.23672065447E+03  0.23672065447E+03  0.00000000000E+00 0. -1.
         25    2    1    2    0    0 -0.92556726539E+02 -0.14444746143E+03  0.10237541160E+03  0.23566393155E+03  0.12499978797E+03 0.  0.
          2    1    1    2  501    0  0.48186665238E+02  0.60837809067E+02 -0.16016823252E+03  0.17798049452E+03  0.00000000000E+00 0. -1.
          1    1    1    2  502    0  0.44370061301E+02  0.83609652368E+02  0.22342772458E+04  0.22362813077E+04  0.00000000000E+00 0. -1.
         22    1    3    3    0    0 -0.65159054497E+02 -0.58114057569E+02  0.11481114297E+03  0.14423780580E+03  0.00000000000E+00 0. -1.
         22    1    3    3    0    0 -0.27397672042E+02 -0.86333403865E+02 -0.12435731369E+02  0.91426125757E+02  0.00000000000E+00 0. -1.
</event>
<event>
 7    1  0.6078244E-006  0.4421559E+02  0.7818608E-02  0.1533922E+00
          2   -1    0    0  502    0  0.00000000000E+00  0.00000000000E+00  0.12797227852E+04  0.12797227852E+04  0.00000000000E+00 0. -1.
          1   -1    0    0  501    0 -0.00000000000E+00 -0.00000000000E+00 -0.36786182103E+03  0.36786182103E+03  0.00000000000E+00 0. -1.
         25    2    1    2    0    0  0.54449277304E+01  0.27011628916E+02  0.36886390463E+03  0.39044208762E+03  0.12500067322E+03 0.  0.
          2    1    1    2  501    0 -0.35904454505E+02 -0.25953275104E+02 -0.35543916955E+03  0.35818948280E+03  0.00000000000E+00 0. -1.
          1    1    1    2  502    0  0.30459526775E+02 -0.10583538127E+01  0.89843622911E+03  0.89895303584E+03  0.00000000000E+00 0. -1.
         22    1    3    3    0    0 -0.11185650199E+02  0.29081463771E+02  0.37207582411E+03  0.37337818521E+03  0.00000000000E+00 0.  1.
         22    1    3    3    0    0  0.16630577930E+02 -0.20698348549E+01 -0.32119194726E+01  0.17063902406E+02  0.00000000000E+00 0.  1.
</event>
<event>
 7    1  0.6078244E-006  0.3825637E+03  0.7818608E-02  0.1128394E+00
          2   -1    0    0  502    0  0.00000000000E+00  0.00000000000E+00  0.86169765930E+03  0.86169765930E+03  0.00000000000E+00 0. -1.
          1   -1    0    0  501    0 -0.00000000000E+00 -0.00000000000E+00 -0.75352773207E+03  0.75352773207E+03  0.00000000000E+00 0. -1.
         25    2    1    2    0    0 -0.28665699360E+03  0.85004339712E+02  0.12089581451E+03  0.34588933473E+03  0.12500265664E+03 0.  0.
          2    1    1    2  501    0  0.40726253052E+03 -0.23644158703E+02 -0.56715537478E+03  0.69863225960E+03  0.00000000000E+00 0. -1.
          1    1    1    2  502    0 -0.12060553693E+03 -0.61360181009E+02  0.55442948750E+03  0.57070379704E+03  0.00000000000E+00 0. -1.
         22    1    3    3    0    0 -0.79495687564E+02  0.76903037528E+02  0.10750981072E+02  0.11112706743E+03  0.00000000000E+00 0.  1.
         22    1    3    3    0    0 -0.20716130603E+03  0.81013021843E+01  0.11014483344E+03  0.23476226730E+03  0.00000000000E+00 0.  1.
</event>
<event>
 7    1  0.6078244E-006  0.1430715E+03  0.7818608E-02  0.1305616E+00
          2   -1    0    0  502    0  0.00000000000E+00  0.00000000000E+00  0.27962676156E+04  0.27962676156E+04  0.00000000000E+00 0. -1.
          1   -1    0    0  501    0 -0.00000000000E+00 -0.00000000000E+00 -0.19399342823E+03  0.19399342823E+03  0.00000000000E+00 0. -1.
         25    2    1    2    0    0  0.42152097613E+02  0.81000889820E+02  0.69143530492E+03  0.70855883972E+03  0.12503961360E+03 0.  0.
          2    1    1    2  501    0 -0.53283869138E+02 -0.13506660244E+03 -0.15658360805E+03  0.21354293272E+03  0.00000000000E+00 0. -1.
          1    1    1    2  502    0  0.11131771525E+02  0.54065712618E+02  0.20674224905E+04  0.20681592714E+04  0.00000000000E+00 0. -1.
         22    1    3    3    0    0  0.12417853029E+01 -0.28268519081E+02  0.58798447031E+02  0.65252651862E+02  0.00000000000E+00 0. -1.
         22    1    3    3    0    0  0.40910312310E+02  0.10926940890E+03  0.63263685789E+03  0.64330618786E+03  0.00000000000E+00 0. -1.
</event>
<event>
 7    1  0.6078244E-006  0.1027038E+03  0.7818608E-02  0.1362498E+00
          2   -1    0    0  502    0  0.00000000000E+00  0.00000000000E+00  0.58715339724E+03  0.58715339724E+03  0.00000000000E+00 0. -1.
          1   -1    0    0  501    0 -0.00000000000E+00 -0.00000000000E+00 -0.33103292790E+04  0.33103292790E+04  0.00000000000E+00 0. -1.
         25    2    1    2    0    0  0.52266318771E+02  0.10993946247E+03 -0.80404388655E+03  0.82275773419E+03  0.12500105674E+03 0.  0.
          2    1    1    2  501    0 -0.74544264813E+02 -0.68830471335E+02 -0.24949497262E+04  0.24970119378E+04  0.00000000000E+00 0. -1.
          1    1    1    2  502    0  0.22277946042E+02 -0.41108991132E+02  0.57581773096E+03  0.57771300428E+03  0.00000000000E+00 0. -1.
         22    1    3    3    0    0 -0.14961745677E+02  0.84163940034E+01 -0.10928992039E+02  0.20350242965E+02  0.00000000000E+00 0. -1.
         22    1    3    3    0    0  0.67228064449E+02  0.10152306846E+03 -0.79311489451E+03  0.80240749123E+03  0.00000000000E+00 0. -1.
</event>
<event>
 7    1  0.6078244E-006  0.4154935E+02  0.7818608E-02  0.1555654E+00
          2   -1    0    0  502    0  0.00000000000E+00  0.00000000000E+00  0.15397205938E+04  0.15397205938E+04  0.00000000000E+00 0. -1.
          1   -1    0    0  501    0 -0.00000000000E+00 -0.00000000000E+00 -0.41457382603E+03  0.41457382603E+03  0.00000000000E+00 0. -1.
         25    2    1    2    0    0  0.14903394926E+02  0.57416613593E+02 -0.80733746898E+02  0.16019130568E+03  0.12499815131E+03 0.  0.
          2    1    1    2  501    0 -0.26253629302E+02 -0.31622733406E+02 -0.29254227259E+03  0.29541535433E+03  0.00000000000E+00 0. -1.
          1    1    1    2  502    0  0.11350234376E+02 -0.25793880186E+02  0.14984227873E+04  0.14986877599E+04  0.00000000000E+00 0. -1.
         22    1    3    3    0    0 -0.11601677281E+02  0.42024658583E+02  0.24896140847E+02  0.50204468664E+02  0.00000000000E+00 0. -1.
         22    1    3    3    0    0  0.26505072207E+02  0.15391955010E+02 -0.10562988774E+03  0.10998683702E+03  0.00000000000E+00 0. -1.
</event>
<event>
 7    1  0.6078244E-006  0.6273473E+02  0.7818608E-02  0.1411967E+00
          2   -1    0    0  502    0  0.00000000000E+00  0.00000000000E+00  0.69409042588E+03  0.69409042588E+03  0.00000000000E+00 0. -1.
          1   -1    0    0  501    0 -0.00000000000E+00 -0.00000000000E+00 -0.11240133242E+03  0.11240133242E+03  0.00000000000E+00 0. -1.
         25    2    1    2    0    0  0.89303157172E+02  0.54025001644E+02  0.77151661394E+02  0.18019868038E+03  0.12500172347E+03 0.  0.
          2    1    1    2  501    0 -0.51018343435E+02 -0.58196416588E+01 -0.48027827335E+02  0.70309400470E+02  0.00000000000E+00 0. -1.
          1    1    1    2  502    0 -0.38284813737E+02 -0.48205359985E+02  0.55256525940E+03  0.55598367745E+03  0.00000000000E+00 0. -1.
         22    1    3    3    0    0  0.93214361251E+02  0.35668408583E+02 -0.10145749052E+01  0.99810730268E+02  0.00000000000E+00 0.  1.
         22    1    3    3    0    0 -0.39112040790E+01  0.18356593060E+02  0.78166236299E+02  0.80387950113E+02  0.00000000000E+00 0.  1.
</event>
<event>
 7    1  0.6078244E-006  0.9348153E+02  0.7818608E-02  0.1296369E+00
          2   -1    0    0  502    0  0.00000000000E+00  0.00000000000E+00  0.23746545054E+04  0.23746545054E+04  0.00000000000E+00 0. -1.
          1   -1    0    0  501    0 -0.00000000000E+00 -0.00000000000E+00 -0.84497673979E+02  0.84497673979E+02  0.00000000000E+00 0. -1.
         25    2    1    2    0    0  0.62812836588E+01 -0.22387512693E+02  0.12059317493E+03  0.17523523478E+03  0.12499607362E+03 0.  0.
          2    1    1    2  501    0  0.90413169850E+02  0.16942496980E+02 -0.18401507310E+02  0.93809407617E+02  0.00000000000E+00 0. -1.
          1    1    1    2  502    0 -0.96694453509E+02  0.54450157127E+01  0.21879651638E+04  0.21901075370E+04  0.00000000000E+00 0. -1.
         22    1    3    3    0    0  0.14931810394E+02  0.50486223471E+02  0.39165340335E+02  0.65618149971E+02  0.00000000000E+00 0.  1.
         22    1    3    3    0    0 -0.86505267356E+01 -0.72873736164E+02  0.81427834597E+02  0.10961708481E+03  0.00000000000E+00 0.  1.
</event>
<event>
 7    1  0.6231223E-006  0.1137640E+03  0.7818608E-02  0.1411875E+00
          2   -1    0    0  502    0  0.00000000000E+00  0.00000000000E+00  0.75932370033E+03  0.75932370033E+03  0.00000000000E+00 0. -1.
          1   -1    0    0  501    0 -0.00000000000E+00 -0.00000000000E+00 -0.17576567608E+04  0.17576567608E+04  0.00000000000E+00 0. -1.
         25    2    1    2    0    0 -0.10637629149E+02  0.90320041507E+02 -0.38031304355E+03  0.41053035302E+03  0.12500516231E+03 0.  0.
          2    1    1    2  501    0 -0.20741933877E+02  0.19306418875E+02 -0.13577184553E+04  0.13580141271E+04  0.00000000000E+00 0. -1.
          1    1    1    2  502    0  0.31379563026E+02 -0.10962646038E+03  0.73969843841E+03  0.74843598095E+03  0.00000000000E+00 0. -1.
         22    1    3    3    0    0  0.21756613676E+02 -0.25000764010E+02 -0.10957512851E+03  0.11447749660E+03  0.00000000000E+00 0. -1.
         22    1    3    3    0    0 -0.32394242825E+02  0.11532080552E+03 -0.27073791504E+03  0.29605285642E+03  0.00000000000E+00 0. -1.
</event>
<event>
 7    1  0.6078244E-006  0.6028142E+02  0.7818608E-02  0.1444072E+00
          2   -1    0    0  502    0  0.00000000000E+00  0.00000000000E+00  0.81683124851E+03  0.81683124851E+03  0.00000000000E+00 0. -1.
          1   -1    0    0  501    0 -0.00000000000E+00 -0.00000000000E+00 -0.27329894334E+03  0.27329894334E+03  0.00000000000E+00 0. -1.
         25    2    1    2    0    0 -0.36395321016E+02 -0.45043542223E+02 -0.58872473208E+02  0.14981860592E+03  0.12500442588E+03 0.  0.
          2    1    1    2  501    0 -0.23209441178E+02  0.34842279627E+02 -0.16515240230E+03  0.17037599184E+03  0.00000000000E+00 0. -1.
          1    1    1    2  502    0  0.59604762194E+02  0.10201262596E+02  0.76755718068E+03  0.76993559409E+03  0.00000000000E+00 0. -1.
         22    1    3    3    0    0 -0.75558913367E+02 -0.59318161185E+02 -0.42262879213E+02  0.10494734201E+03  0.00000000000E+00 0.  1.
         22    1    3    3    0    0  0.39163592351E+02  0.14274618962E+02 -0.16609593995E+02  0.44871263911E+02  0.00000000000E+00 0.  1.
</event>
<event>
 7    1  0.6078244E-006  0.7682671E+02  0.7818608E-02  0.1351781E+00
          2   -1    0    0  502    0  0.00000000000E+00  0.00000000000E+00  0.38256735082E+03  0.38256735082E+03  0.00000000000E+00 0. -1.
          1   -1    0    0  501    0 -0.00000000000E+00 -0.00000000000E+00 -0.26490536452E+03  0.26490536452E+03  0.00000000000E+00 0. -1.
         25    2    1    2    0    0 -0.10266492292E+02 -0.28077634594E+02  0.69377268554E+02  0.14605506052E+03  0.12500048353E+03 0.  0.
          2    1    1    2  501    0 -0.66339894807E+02  0.38747401748E+02 -0.21431233364E+03  0.22766668429E+03  0.00000000000E+00 0. -1.
          1    1    1    2  502    0  0.76606387099E+02 -0.10669767154E+02  0.26259705139E+03  0.27375097054E+03  0.00000000000E+00 0. -1.
         22    1    3    3    0    0  0.48883539899E+02  0.32565976558E+01  0.61541408895E+02  0.78660987218E+02  0.00000000000E+00 0.  1.
         22    1    3    3    0    0 -0.59150032191E+02 -0.31334232250E+02  0.78358596595E+01  0.67394073297E+02  0.00000000000E+00 0.  1.
</event>
<event>
 7    1  0.6078244E-006  0.7008216E+02  0.7818608E-02  0.1375134E+00
          2   -1    0    0  502    0  0.00000000000E+00  0.00000000000E+00  0.77303855716E+02  0.77303855716E+02  0.00000000000E+00 0. -1.
          1   -1    0    0  501    0 -0.00000000000E+00 -0.00000000000E+00 -0.10268774641E+04  0.10268774641E+04  0.00000000000E+00 0. -1.
         25    2    1    2    0    0  0.30511661085E+02  0.27598209581E+02 -0.20043097397E+03  0.23977178520E+03  0.12500124405E+03 0.  0.
          2    1    1    2  501    0  0.42891143233E+02 -0.44360631712E+02 -0.78043696606E+03  0.78287251440E+03  0.00000000000E+00 0. -1.
          1    1    1    2  502    0 -0.73402804318E+02  0.16762422131E+02  0.31294331628E+02  0.81537020239E+02  0.00000000000E+00 0. -1.
         22    1    3    3    0    0 -0.68445039926E+01  0.39361688919E+02 -0.47775133749E+01  0.40236978310E+02  0.00000000000E+00 0. -1.
         22    1    3    3    0    0  0.37356165078E+02 -0.11763479338E+02 -0.19565346060E+03  0.19953480689E+03  0.00000000000E+00 0. -1.
</event>
<event>
 7    1  0.6078244E-006  0.3757914E+02  0.7818608E-02  0.1577832E+00
          2   -1    0    0  502    0  0.00000000000E+00  0.00000000000E+00  0.41781543739E+03  0.41781543739E+03  0.00000000000E+00 0. -1.
          1   -1    0    0  501    0 -0.00000000000E+00 -0.00000000000E+00 -0.16314015867E+03  0.16314015867E+03  0.00000000000E+00 0. -1.
         25    2    1    2    0    0  0.15711312082E+02 -0.39941383428E+02  0.61327217036E+01  0.13230694702E+03  0.12500143406E+03 0.  0.
          2    1    1    2  501    0 -0.32727056002E+02  0.18842291405E+02 -0.95938267964E+02  0.10310307173E+03  0.00000000000E+00 0. -1.
          1    1    1    2  502    0  0.17015743920E+02  0.21099092022E+02  0.34448082497E+03  0.34554557731E+03  0.00000000000E+00 0. -1.
         22    1    3    3    0    0  0.32331832990E+02 -0.34450342647E+02 -0.52786846253E+02  0.70842252013E+02  0.00000000000E+00 0.  1.
         22    1    3    3    0    0 -0.16620520908E+02 -0.54910407805E+01  0.58919567957E+02  0.61464695007E+02  0.00000000000E+00 0.  1.
</event>
<event>
 7    1  0.6078244E-006  0.1014514E+03  0.7818608E-02  0.1280171E+00
          2   -1    0    0  502    0  0.00000000000E+00  0.00000000000E+00  0.46980364079E+02  0.46980364079E+02  0.00000000000E+00 0. -1.
          1   -1    0    0  501    0 -0.00000000000E+00 -0.00000000000E+00 -0.11568428876E+04  0.11568428876E+04  0.00000000000E+00 0. -1.
         25    2    1    2    0    0 -0.62797769320E+02  0.23203491894E+02 -0.58058620573E+03  0.59765117302E+03  0.12499848184E+03 0.  0.
          2    1    1    2  501    0  0.15173512137E+03  0.25607689506E+02 -0.45533554400E+03  0.48063474536E+03  0.00000000000E+00 0. -1.
          1    1    1    2  502    0 -0.88937352048E+02 -0.48811181400E+02 -0.73940773758E+02  0.12553733326E+03  0.00000000000E+00 0. -1.
         22    1    3    3    0    0 -0.77792316150E+02  0.20966381864E+02 -0.57628863636E+03  0.58189331154E+03  0.00000000000E+00 0. -1.
         22    1    3    3    0    0  0.14994546830E+02  0.22371100305E+01 -0.42975693713E+01  0.15757861480E+02  0.00000000000E+00 0. -1.
</event>
<event>
 7    1  0.6078244E-006  0.8076154E+02  0.7818608E-02  0.1398617E+00
          2   -1    0    0  502    0  0.00000000000E+00  0.00000000000E+00  0.13003823437E+04  0.13003823437E+04  0.00000000000E+00 0. -1.
          1   -1    0    0  501    0 -0.00000000000E+00 -0.00000000000E+00 -0.33199987241E+03  0.33199987241E+03  0.00000000000E+00 0. -1.
         25    2    1    2    0    0 -0.88525983489E+00  0.41175023733E+02  0.15471049866E+03  0.20311188162E+03  0.12499172690E+03 0.  0.
          2    1    1    2  501    0  0.18255362671E+02  0.40362422819E+02 -0.30464568556E+03  0.30784960155E+03  0.00000000000E+00 0. -1.
          1    1    1    2  502    0 -0.17370102837E+02 -0.81537446552E+02  0.11183176582E+04  0.11214207329E+04  0.00000000000E+00 0. -1.
         22    1    3    3    0    0  0.32048860758E+02 -0.34113524585E+02  0.76395114591E+02  0.89593948283E+02  0.00000000000E+00 0. -1.
         22    1    3    3    0    0 -0.32934120593E+02  0.75288548318E+02  0.78315384070E+02  0.11351793334E+03  0.00000000000E+00 0. -1.
</event>
<event>
 7    1  0.6078244E-006  0.1126287E+03  0.7818608E-02  0.1333436E+00
          2   -1    0    0  502    0  0.00000000000E+00  0.00000000000E+00  0.23787890078E+04  0.23787890078E+04  0.00000000000E+00 0. -1.
          1   -1    0    0  501    0 -0.00000000000E+00 -0.00000000000E+00 -0.82300723741E+02  0.82300723741E+02  0.00000000000E+00 0. -1.
         25    2    1    2    0    0 -0.12811175576E+03  0.86738547266E+02  0.59767770227E+03  0.62990528754E+03  0.12500335167E+03 0.  0.
          2    1    1    2  501    0  0.10292232927E+03 -0.38208576550E+02 -0.19925172852E+02  0.11157918129E+03  0.00000000000E+00 0. -1.
          1    1    1    2  502    0  0.25189426488E+02 -0.48529970716E+02  0.17187357546E+04  0.17196052627E+04  0.00000000000E+00 0. -1.
         22    1    3    3    0    0 -0.41293800674E+02 -0.22323090125E+02  0.71168845395E+02  0.85255515256E+02  0.00000000000E+00 0.  1.
         22    1    3    3    0    0 -0.86817955087E+02  0.10906163739E+03  0.52650885688E+03  0.54464977228E+03  0.00000000000E+00 0.  1.
</event>
<event>
 7    1  0.6078244E-006  0.5832507E+02  0.7818608E-02  0.1528283E+00
          2   -1    0    0  502    0  0.00000000000E+00  0.00000000000E+00  0.10953715849E+04  0.10953715849E+04  0.00000000000E+00 0. -1.
          1   -1    0    0  501    0 -0.00000000000E+00 -0.00000000000E+00 -0.35913752900E+03  0.35913752900E+03  0.00000000000E+00 0. -1.
         25    2    1    2    0    0 -0.35728404512E+02  0.22820627859E+02 -0.19255350758E+02  0.13339017166E+03  0.12499947766E+03 0.  0.
          2    1    1    2  501    0 -0.21508167663E+02 -0.10602389602E+02 -0.28147984478E+03  0.28249940701E+03  0.00000000000E+00 0. -1.
          1    1    1    2  502    0  0.57236572175E+02 -0.12218238257E+02  0.10369692514E+04  0.10386195352E+04  0.00000000000E+00 0. -1.
         22    1    3    3    0    0 -0.19293150649E+02  0.39479039410E+02 -0.67054911342E+02  0.80169703441E+02  0.00000000000E+00 0. -1.
         22    1    3    3    0    0 -0.16435253863E+02 -0.16658411551E+02  0.47799560584E+02  0.53220468215E+02  0.00000000000E+00 0. -1.
</event>
<event>
 7    1  0.6078244E-006  0.7364213E+02  0.7818608E-02  0.1415458E+00
          2   -1    0    0  502    0  0.00000000000E+00  0.00000000000E+00  0.14410159717E+04  0.14410159717E+04  0.00000000000E+00 0. -1.
          1   -1    0    0  501    0 -0.00000000000E+00 -0.00000000000E+00 -0.21450507026E+03  0.21450507026E+03  0.00000000000E+00 0. -1.
         25    2    1    2    0    0 -0.71484562130E+02  0.64878708268E+02  0.97311569433E+02  0.18553182976E+03  0.12503291127E+03 0.  0.
          2    1    1    2  501    0  0.28954205976E+02 -0.66818632194E+02 -0.16224753513E+03  0.17784076672E+03  0.00000000000E+00 0. -1.
          1    1    1    2  502    0  0.42530356153E+02  0.19399239270E+01  0.12914468671E+04  0.12921484455E+04  0.00000000000E+00 0. -1.
         22    1    3    3    0    0 -0.39877088264E+02  0.81625418677E+02  0.11424052441E+03  0.14595817401E+03  0.00000000000E+00 0.  1.
         22    1    3    3    0    0 -0.31607473865E+02 -0.16746710410E+02 -0.16928954972E+02  0.39573655759E+02  0.00000000000E+00 0.  1.
</event>
<event>
 7    1  0.6078244E-006  0.1310739E+03  0.7818608E-02  0.1258466E+00
          2   -1    0    0  502    0  0.00000000000E+00  0.00000000000E+00  0.66689174719E+02  0.66689174719E+02  0.00000000000E+00 0. -1.
          1   -1    0    0  501    0 -0.00000000000E+00 -0.00000000000E+00 -0.20764817743E+04  0.20764817743E+04  0.00000000000E+00 0. -1.
         25    2    1    2    0    0  0.83016067682E+02 -0.12184233390E+03 -0.10443794900E+04  0.10621162883E+04  0.12500107520E+03 0.  0.
          2    1    1    2  501    0  0.43462269863E+02  0.83624693020E+02 -0.94220363068E+03  0.94690534894E+03  0.00000000000E+00 0. -1.
          1    1    1    2  502    0 -0.12647833754E+03  0.38217640881E+02 -0.23209478848E+02  0.13414931178E+03  0.00000000000E+00 0. -1.
         22    1    3    3    0    0  0.71330929126E+01 -0.63848143492E+02 -0.15735396238E+03  0.16996392535E+03  0.00000000000E+00 0.  1.
         22    1    3    3    0    0  0.75882974770E+02 -0.57994190409E+02 -0.88702552764E+03  0.89215236292E+03  0.00000000000E+00 0.  1.
</event>
<event>
 7    1  0.6078244E-006  0.7688139E+02  0.7818608E-02  0.1438233E+00
          2   -1    0    0  502    0  0.00000000000E+00  0.00000000000E+00  0.12148097543E+03  0.12148097543E+03  0.00000000000E+00 0. -1.
          1   -1    0    0  501    0 -0.00000000000E+00 -0.00000000000E+00 -0.20954061956E+04  0.20954061956E+04  0.00000000000E+00 0. -1.
         25    2    1    2    0    0  0.37600838306E+02  0.10400666851E+03 -0.75985977381E+03  0.77797766854E+03  0.12502466457E+03 0.  0.
          2    1    1    2  501    0 -0.12099421494E+02 -0.32081205650E+02 -0.13132876003E+04  0.13137351030E+04  0.00000000000E+00 0. -1.
          1    1    1    2  502    0 -0.25501416812E+02 -0.71925462864E+02  0.99222153917E+02  0.12517439952E+03  0.00000000000E+00 0. -1.
         22    1    3    3    0    0  0.49720717584E+02  0.10815638230E+03 -0.75492035017E+03  0.76424779220E+03  0.00000000000E+00 0. -1.
         22    1    3    3    0    0 -0.12119879278E+02 -0.41497137901E+01 -0.49394236453E+01  0.13729876336E+02  0.00000000000E+00 0. -1.
</event>
<event>
 7    1  0.6078244E-006  0.1155018E+03  0.7818608E-02  0.1404964E+00
          2   -1    0    0  502    0  0.00000000000E+00  0.00000000000E+00  0.14298183188E+04  0.14298183188E+04  0.00000000000E+00 0. -1.
          1   -1    0    0  501    0 -0.00000000000E+00 -0.00000000000E+00 -0.47813326514E+03  0.47813326514E+03  0.00000000000E+00 0. -1.
         25    2    1    2    0    0  0.95625697641E+02 -0.35990672555E+02  0.38356063242E+03  0.41615144073E+03  0.12499464117E+03 0.  0.
          2    1    1    2  501    0 -0.95524965551E+02  0.65450896264E+02 -0.45436394997E+03  0.46888744694E+03  0.00000000000E+00 0. -1.
          1    1    1    2  502    0 -0.10073209018E+00 -0.29460223709E+02  0.10224883712E+04  0.10229126963E+04  0.00000000000E+00 0. -1.
         22    1    3    3    0    0  0.69088454121E+02 -0.74621606599E+02  0.32831495884E+03  0.34370381270E+03  0.00000000000E+00 0. -1.
         22    1    3    3    0    0  0.26537243520E+02  0.38630934044E+02  0.55245673584E+02  0.72447628039E+02  0.00000000000E+00 0. -1.
</event>
<event>
 7    1  0.6078244E-006  0.4021736E+02  0.7818608E-02  0.1577952E+00
          2   -1    0    0  502    0  0.00000000000E+00  0.00000000000E+00  0.12440980590E+04  0.12440980590E+04  0.00000000000E+00 0. -1.
          1   -1    0    0  501    0 -0.00000000000E+00 -0.00000000000E+00 -0.50381938105E+02  0.50381938105E+02  0.00000000000E+00 0. -1.
         25    2    1    2    0    0  0.64938437523E+01 -0.16941832995E+02  0.44279771819E+03  0.46046268005E+03  0.12500745888E+03 0.  0.
          2    1    1    2  501    0  0.22852600439E+01  0.40678874495E+02 -0.31307302937E+02  0.51382297154E+02  0.00000000000E+00 0. -1.
          1    1    1    2  502    0 -0.87791037962E+01 -0.23737041500E+02  0.78222570564E+03  0.78263501990E+03  0.00000000000E+00 0. -1.
         22    1    3    3    0    0  0.24790841020E+02  0.36100644599E+02  0.34454726805E+03  0.34731925121E+03  0.00000000000E+00 0.  1.
         22    1    3    3    0    0 -0.18296997268E+02 -0.53042477595E+02  0.98250450138E+02  0.11314342884E+03  0.00000000000E+00 0.  1.
</event>
<event>
 7    1  0.6078244E-006  0.1243066E+03  0.7818608E-02  0.1254236E+00
          2   -1    0    0  502    0  0.00000000000E+00  0.00000000000E+00  0.46630473548E+03  0.46630473548E+03  0.00000000000E+00 0. -1.
          1   -1    0    0  501    0 -0.00000000000E+00 -0.00000000000E+00 -0.33859554890E+04  0.33859554890E+04  0.00000000000E+00 0. -1.
         25    2    1    2    0    0  0.22384226825E+02  0.59062909077E+01 -0.97003719900E+01  0.12749146557E+03  0.12499615471E+03 0.  0.
          2    1    1    2  501    0 -0.12583896315E+03 -0.11732104839E+02 -0.33095453782E+04  0.33119576835E+04  0.00000000000E+00 0. -1.
          1    1    1    2  502    0  0.10345473633E+03  0.58258139311E+01  0.39959499670E+03  0.41281107538E+03  0.00000000000E+00 0. -1.
         22    1    3    3    0    0  0.10411743691E+02 -0.46406774726E+02  0.33851473788E+02  0.58377353698E+02  0.00000000000E+00 0.  1.
         22    1    3    3    0    0  0.11972483133E+02  0.52313065634E+02 -0.43551845779E+02  0.69114111867E+02  0.00000000000E+00 0.  1.
</event>
<event>
 7    1  0.6078244E-006  0.9576134E+02  0.7818608E-02  0.1417093E+00
          2   -1    0    0  502    0  0.00000000000E+00  0.00000000000E+00  0.15358647055E+04  0.15358647055E+04  0.00000000000E+00 0. -1.
          1   -1    0    0  501    0 -0.00000000000E+00 -0.00000000000E+00 -0.18522304107E+03  0.18522304107E+03  0.00000000000E+00 0. -1.
         25    2    1    2    0    0 -0.79195830810E+02 -0.84253868898E+02  0.26167932016E+03  0.31220522104E+03  0.12500135760E+03 0.  0.
          2    1    1    2  501    0  0.46912339266E+02  0.82534612766E+02 -0.14564392219E+03  0.17385304700E+03  0.00000000000E+00 0. -1.
          1    1    1    2  502    0  0.32283491544E+02  0.17192561325E+01  0.12346062664E+04  0.12350294785E+04  0.00000000000E+00 0. -1.
         22    1    3    3    0    0  0.30689663613E+02 -0.27992828708E+02  0.10371254315E+03  0.11172173253E+03  0.00000000000E+00 0.  1.
         22    1    3    3    0    0 -0.10988549442E+03 -0.56261040190E+02  0.15796677701E+03  0.20048348852E+03  0.00000000000E+00 0.  1.
</event>
<event>
 7    1  0.6078244E-006  0.9831882E+02  0.7818608E-02  0.1418448E+00
          2   -1    0    0  502    0  0.00000000000E+00  0.00000000000E+00  0.11034893073E+04  0.11034893073E+04  0.00000000000E+00 0. -1.
          1   -1    0    0  501    0 -0.00000000000E+00 -0.00000000000E+00 -0.54657070696E+03  0.54657070696E+03  0.00000000000E+00 0. -1.
         25    2    1    2    0    0  0.22938112610E+02  0.11297527564E+03  0.10287673487E+03  0.19874026058E+03  0.12499799471E+03 0.  0.
          2    1    1    2  501    0  0.18881368504E+02 -0.24788920262E+02 -0.49564867228E+03  0.49662722738E+03  0.00000000000E+00 0. -1.
          1    1    1    2  502    0 -0.41819481113E+02 -0.88186355374E+02  0.94969053771E+03  0.95469252625E+03  0.00000000000E+00 0. -1.
         22    1    3    3    0    0 -0.82029525804E+01  0.13062997876E+03  0.95923438742E+02  0.16227379913E+03  0.00000000000E+00 0.  1.
         22    1    3    3    0    0  0.31141065190E+02 -0.17654703127E+02  0.69532961305E+01  0.36466461451E+02  0.00000000000E+00 0.  1.
</event>
<event>
 7    1  0.6078244E-006  0.1084901E+03  0.7818608E-02  0.1292815E+00
          2   -1    0    0  502    0  0.00000000000E+00  0.00000000000E+00  0.17444253322E+04  0.17444253322E+04  0.00000000000E+00 0. -1.
          1   -1    0    0  501    0 -0.00000000000E+00 -0.00000000000E+00 -0.19537922398E+04  0.19537922398E+04  0.00000000000E+00 0. -1.
         25    2    1    2    0    0 -0.74959309289E+02  0.29830390707E+02 -0.99453924040E+01  0.14910765623E+03  0.12500172822E+03 0.  0.
          2    1    1    2  501    0  0.38009130262E+02 -0.10294887032E+03 -0.18716556802E+04  0.18748701686E+04  0.00000000000E+00 0. -1.
          1    1    1    2  502    0  0.36950179026E+02  0.73118479615E+02  0.16722341651E+04  0.16742397470E+04  0.00000000000E+00 0. -1.
         22    1    3    3    0    0 -0.49547678949E+02  0.77315137812E+02  0.83987714473E+01  0.92212484979E+02  0.00000000000E+00 0. -1.
         22    1    3    3    0    0 -0.25411630340E+02 -0.47484747105E+02 -0.18344163851E+02  0.56895171250E+02  0.00000000000E+00 0. -1.
</event>
<event>
 7    1  0.6396281E-006  0.6782172E+02  0.7818608E-02  0.1436261E+00
          2   -1    0    0  502    0  0.00000000000E+00  0.00000000000E+00  0.57217962484E+03  0.57217962484E+03  0.00000000000E+00 0. -1.
          1   -1    0    0  501    0 -0.00000000000E+00 -0.00000000000E+00 -0.25240755125E+04  0.25240755125E+04  0.00000000000E+00 0. -1.
         25    2    1    2    0    0 -0.10032466875E+03 -0.32193019949E+02 -0.37183265718E+03  0.40618575540E+03  0.12500365293E+03 0.  0.
          2    1    1    2  501    0  0.33720907885E+02  0.20467774300E+02 -0.21328231110E+04  0.21331878615E+04  0.00000000000E+00 0. -1.
          1    1    1    2  502    0  0.66603760866E+02  0.11725245648E+02  0.55275988053E+03  0.55688152050E+03  0.00000000000E+00 0. -1.
         22    1    3    3    0    0 -0.77536511152E+01 -0.64839917402E+02 -0.14514726007E+03  0.15916048850E+03  0.00000000000E+00 0.  1.
         22    1    3    3    0    0 -0.92571017636E+02  0.32646897454E+02 -0.22668539712E+03  0.24702526690E+03  0.00000000000E+00 0.  1.
</event>
<event>
 7    1  0.6078244E-006  0.7492104E+02  0.7818608E-02  0.1364749E+00
          2   -1    0    0  502    0  0.00000000000E+00  0.00000000000E+00  0.29181427776E+03  0.29181427776E+03  0.00000000000E+00 0. -1.
          1   -1    0    0  501    0 -0.00000000000E+00 -0.00000000000E+00 -0.56083735348E+03  0.56083735348E+03  0.00000000000E+00 0. -1.
         25    2    1    2    0    0  0.11239591099E+02 -0.90060705744E+02 -0.71910408341E+02  0.17038836285E+03  0.12499531288E+03 0.  0.
          2    1    1    2  501    0 -0.58082030903E+02  0.48079642646E+02 -0.43229145698E+03  0.43881781884E+03  0.00000000000E+00 0. -1.
          1    1    1    2  502    0  0.46842439804E+02  0.41981063098E+02  0.23517878961E+03  0.24344544955E+03  0.00000000000E+00 0. -1.
         22    1    3    3    0    0  0.34341768028E+02 -0.66758838341E+02 -0.10147089966E+03  0.12622378146E+03  0.00000000000E+00 0. -1.
         22    1    3    3    0    0 -0.23102176929E+02 -0.23301867403E+02  0.29560491314E+02  0.44164581398E+02  0.00000000000E+00 0. -1.
</event>
<event>
 7    1  0.6078244E-006  0.1200861E+03  0.7818608E-02  0.1390757E+00
          2   -1    0    0  502    0  0.00000000000E+00  0.00000000000E+00  0.23799540700E+04  0.23799540700E+04  0.00000000000E+00 0. -1.
          1   -1    0    0  501    0 -0.00000000000E+00 -0.00000000000E+00 -0.16395215970E+03  0.16395215970E+03  0.00000000000E+00 0. -1.
         25    2    1    2    0    0  0.14411686900E+03 -0.25662744565E+02  0.10206704611E+03  0.21788477062E+03  0.12501137138E+03 0.  0.
          2    1    1    2  501    0 -0.24879451325E+02  0.19677943004E+02 -0.10202776513E+03  0.10684509065E+03  0.00000000000E+00 0. -1.
          1    1    1    2  502    0 -0.11923741768E+03  0.59848015610E+01  0.22159626293E+04  0.22191763684E+04  0.00000000000E+00 0. -1.
         22    1    3    3    0    0  0.83931755308E+02 -0.76268602656E+02  0.67617510120E+02  0.13203623357E+03  0.00000000000E+00 0. -1.
         22    1    3    3    0    0  0.60185113695E+02  0.50605858090E+02  0.34449535994E+02  0.85848537051E+02  0.00000000000E+00 0. -1.
</event>
<event>
 7    1  0.6078244E-006  0.1435615E+03  0.7818608E-02  0.1269313E+00
          2   -1    0    0  502    0  0.00000000000E+00  0.00000000000E+00  0.67009979632E+03  0.67009979632E+03  0.00000000000E+00 0. -1.
          1   -1    0    0  501    0 -0.00000000000E+00 -0.00000000000E+00 -0.94388321029E+02  0.94388321029E+02  0.00000000000E+00 0. -1.
         25    2    1    2    0    0 -0.59236927149E+02 -0.10585565606E+03  0.76073311930E+02  0.19006955108E+03  0.12499940801E+03 0.  0.
          2    1    1    2  501    0  0.11120296991E+03  0.16321439555E+03  0.28923560431E+03  0.35023174361E+03  0.00000000000E+00 0. -1.
          1    1    1    2  502    0 -0.51966042765E+02 -0.57358739493E+02  0.21040255906E+03  0.22418682266E+03  0.00000000000E+00 0. -1.
         22    1    3    3    0    0 -0.49432092565E+02 -0.65961774596E+02  0.10953487050E+03  0.13708528491E+03  0.00000000000E+00 0. -1.
         22    1    3    3    0    0 -0.98048345845E+01 -0.39893881466E+02 -0.33461558571E+02  0.52984266171E+02  0.00000000000E+00 0. -1.
</event>
<event>
 7    1  0.6078244E-006  0.4882919E+02  0.7818608E-02  0.1493888E+00
          2   -1    0    0  502    0  0.00000000000E+00  0.00000000000E+00  0.16210893196E+04  0.16210893196E+04  0.00000000000E+00 0. -1.
          1   -1    0    0  501    0 -0.00000000000E+00 -0.00000000000E+00 -0.66898720395E+02  0.66898720395E+02  0.00000000000E+00 0. -1.
         25    2    1    2    0    0  0.30145685264E+02  0.70167569955E+02  0.51411274129E+03  0.53457412190E+03  0.12500132334E+03 0.  0.
          2    1    1    2  501    0 -0.28265521567E+02 -0.22538099554E+02 -0.50328259773E+02  0.61966437471E+02  0.00000000000E+00 0. -1.
          1    1    1    2  502    0 -0.18801636967E+01 -0.47629470401E+02  0.10904061176E+04  0.10914474806E+04  0.00000000000E+00 0. -1.
         22    1    3    3    0    0  0.36245571177E+02  0.10467466636E+03  0.36749294148E+03  0.38382494609E+03  0.00000000000E+00 0. -1.
         22    1    3    3    0    0 -0.60998859128E+01 -0.34507096403E+02  0.14661979981E+03  0.15074917581E+03  0.00000000000E+00 0. -1.
</event>
<event>
 7    1  0.6078244E-006  0.4588624E+02  0.7818608E-02  0.1525662E+00
          2   -1    0    0  502    0  0.00000000000E+00  0.00000000000E+00  0.15575132884E+03  0.15575132884E+03  0.00000000000E+00 0. -1.
          1   -1    0    0  501    0 -0.00000000000E+00 -0.00000000000E+00 -0.58517539242E+03  0.58517539242E+03  0.00000000000E+00 0. -1.
         25    2    1    2    0    0  0.18475223980E+02  0.73209645609E+02  0.95088080520E+01  0.14635745960E+03  0.12501640868E+03 0.  0.
          2    1    1    2  501    0 -0.16960925182E+02 -0.42233225480E+02 -0.51261231679E+03  0.51462870659E+03  0.00000000000E+00 0. -1.
          1    1    1    2  502    0 -0.15142987989E+01 -0.30976420129E+02  0.73679445159E+02  0.79940555063E+02  0.00000000000E+00 0. -1.
         22    1    3    3    0    0 -0.16591845986E+02  0.37681490733E+02  0.61674596251E+02  0.74154837467E+02  0.00000000000E+00 0. -1.
         22    1    3    3    0    0  0.35067069966E+02  0.35528154876E+02 -0.52165788199E+02  0.72202622136E+02  0.00000000000E+00 0. -1.
</event>
<event>
 7    1  0.6078244E-006  0.6436554E+02  0.7818608E-02  0.1410573E+00
          2   -1    0    0  502    0  0.00000000000E+00  0.00000000000E+00  0.90534043521E+02  0.90534043521E+02  0.00000000000E+00 0. -1.
          1   -1    0    0  501    0 -0.00000000000E+00 -0.00000000000E+00 -0.80878716797E+03  0.80878716797E+03  0.00000000000E+00 0. -1.
         25    2    1    2    0    0  0.53920705450E+02  0.92460965550E+02 -0.18255647693E+03  0.24578121284E+03  0.12500025876E+03 0.  0.
          2    1    1    2  501    0 -0.14620569412E+02 -0.60597308141E+02 -0.58177645125E+03  0.58510651511E+03  0.00000000000E+00 0. -1.
          1    1    1    2  502    0 -0.39300136038E+02 -0.31863657409E+02  0.46079803734E+02  0.68433483531E+02  0.00000000000E+00 0. -1.
         22    1    3    3    0    0  0.82835570789E+02  0.28638899938E+02 -0.13551314084E+03  0.16138689451E+03  0.00000000000E+00 0. -1.
         22    1    3    3    0    0 -0.28914865339E+02  0.63822065612E+02 -0.47043336086E+02  0.84394318332E+02  0.00000000000E+00 0. -1.
</event>
<event>
 7    1  0.6078244E-006  0.1130830E+03  0.7818608E-02  0.1304474E+00
          2   -1    0    0  502    0  0.00000000000E+00  0.00000000000E+00  0.59599723053E+03  0.59599723053E+03  0.00000000000E+00 0. -1.
          1   -1    0    0  501    0 -0.00000000000E+00 -0.00000000000E+00 -0.16050919984E+03  0.16050919984E+03  0.00000000000E+00 0. -1.
         25    2    1    2    0    0 -0.38307497049E+02 -0.75919076024E+02  0.30873141976E+03  0.34375916856E+03  0.12499642391E+03 0.  0.
          2    1    1    2  501    0  0.66000573321E+01 -0.70262399811E+02 -0.11118724361E+03  0.13169270567E+03  0.00000000000E+00 0. -1.
          1    1    1    2  502    0  0.31707439717E+02  0.14618147584E+03  0.23794385455E+03  0.28105455614E+03  0.00000000000E+00 0. -1.
         22    1    3    3    0    0 -0.22696140700E+02  0.27109664195E+02  0.14829789786E+03  0.15245430530E+03  0.00000000000E+00 0.  1.
         22    1    3    3    0    0 -0.15611356348E+02 -0.10302874022E+03  0.16043352189E+03  0.19130486326E+03  0.00000000000E+00 0.  1.
</event>
<event>
 7    1  0.6078244E-006  0.9486856E+02  0.7818608E-02  0.1313764E+00
          2   -1    0    0  502    0  0.00000000000E+00  0.00000000000E+00  0.39554993941E+03  0.39554993941E+03  0.00000000000E+00 0. -1.
          1   -1    0    0  501    0 -0.00000000000E+00 -0.00000000000E+00 -0.21360785718E+04  0.21360785718E+04  0.00000000000E+00 0. -1.
         25    2    1    2    0    0  0.16911342884E+01 -0.43818810286E+02  0.74457970054E+02  0.15196478398E+03  0.12500543266E+03 0.  0.
          2    1    1    2  501    0  0.60617092309E+02 -0.47986268585E+02 -0.20856807771E+04  0.20871131780E+04  0.00000000000E+00 0. -1.
          1    1    1    2  502    0 -0.62308226598E+02  0.91805078871E+02  0.27069417470E+03  0.29255054918E+03  0.00000000000E+00 0. -1.
         22    1    3    3    0    0  0.42372554155E+01 -0.33900486249E+02  0.10989233460E+03  0.11508050446E+03  0.00000000000E+00 0.  1.
         22    1    3    3    0    0 -0.25461211271E+01 -0.99183240371E+01 -0.35434364550E+02  0.36884279518E+02  0.00000000000E+00 0.  1.
</event>
<event>
 7    1  0.6078244E-006  0.7531171E+02  0.7818608E-02  0.1445405E+00
          2   -1    0    0  502    0  0.00000000000E+00  0.00000000000E+00  0.60533000758E+03  0.60533000758E+03  0.00000000000E+00 0. -1.
          1   -1    0    0  501    0 -0.00000000000E+00 -0.00000000000E+00 -0.68807508782E+02  0.68807508782E+02  0.00000000000E+00 0. -1.
         25    2    1    2    0    0 -0.18904943780E+02 -0.48763402883E+02  0.11760273383E+03  0.17941759615E+03  0.12500001778E+03 0.  0.
          2    1    1    2  501    0  0.13792908236E+02  0.81546871586E+02  0.87010472109E+01  0.83161558461E+02  0.00000000000E+00 0. -1.
          1    1    1    2  502    0  0.51120355433E+01 -0.32783468703E+02  0.41021871776E+03  0.41155836175E+03  0.00000000000E+00 0. -1.
         22    1    3    3    0    0 -0.27561452212E+02 -0.85241511848E+02  0.10874480338E+03  0.14089422008E+03  0.00000000000E+00 0.  1.
         22    1    3    3    0    0  0.86565084326E+01  0.36478108965E+02  0.88579304501E+01  0.38523376070E+02  0.00000000000E+00 0.  1.
</event>
<event>
 7    1  0.6078244E-006  0.2614229E+02  0.7818608E-02  0.1671380E+00
          2   -1    0    0  502    0  0.00000000000E+00  0.00000000000E+00  0.33703815146E+02  0.33703815146E+02  0.00000000000E+00 0. -1.
          1   -1    0    0  501    0 -0.00000000000E+00 -0.00000000000E+00 -0.15044954016E+04  0.15044954016E+04  0.00000000000E+00 0. -1.
         25    2    1    2    0    0  0.10376499266E+02  0.13231232778E+02 -0.58271069489E+03  0.59620586388E+03  0.12500776348E+03 0.  0.
          2    1    1    2  501    0 -0.19426498663E+02  0.11496026972E+02 -0.90843305928E+03  0.90871347006E+03  0.00000000000E+00 0. -1.
          1    1    1    2  502    0  0.90499993974E+01 -0.24727259749E+02  0.20352167757E+02  0.33279882755E+02  0.00000000000E+00 0. -1.
         22    1    3    3    0    0 -0.45901838019E+02 -0.17852817650E+02 -0.38898101391E+03  0.39208663713E+03  0.00000000000E+00 0. -1.
         22    1    3    3    0    0  0.56278337284E+02  0.31084050428E+02 -0.19372968098E+03  0.20411922675E+03  0.00000000000E+00 0. -1.
</event>
<event>
 7    1  0.6078244E-006  0.2634272E+03  0.7818608E-02  0.1174702E+00
          2   -1    0    0  502    0  0.00000000000E+00  0.00000000000E+00  0.16262514212E+04  0.16262514212E+04  0.00000000000E+00 0. -1.
          1   -1    0    0  501    0 -0.00000000000E+00 -0.00000000000E+00 -0.20290126925E+04  0.20290126925E+04  0.00000000000E+00 0. -1.
         25    2    1    2    0    0  0.12848800610E+03 -0.15758520451E+03  0.27926078876E+03  0.36736038614E+03  0.12499920309E+03 0.  0.
          2    1    1    2  501    0 -0.24430264094E+02 -0.11102632386E+03 -0.19673802341E+04  0.19706619873E+04  0.00000000000E+00 0. -1.
          1    1    1    2  502    0 -0.10405774200E+03  0.26861152836E+03  0.12853581740E+04  0.13172417403E+04  0.00000000000E+00 0. -1.
         22    1    3    3    0    0 -0.10551575474E+02 -0.77218753626E+02  0.85269837930E+02  0.11552063416E+03  0.00000000000E+00 0. -1.
         22    1    3    3    0    0  0.13903958157E+03 -0.80366450879E+02  0.19399095083E+03  0.25183975197E+03  0.00000000000E+00 0. -1.
</event>
<event>
 7    1  0.6078244E-006  0.1227132E+03  0.7818608E-02  0.1313076E+00
          2   -1    0    0  502    0  0.00000000000E+00  0.00000000000E+00  0.59302049804E+03  0.59302049804E+03  0.00000000000E+00 0. -1.
          1   -1    0    0  501    0 -0.00000000000E+00 -0.00000000000E+00 -0.15235775067E+03  0.15235775067E+03  0.00000000000E+00 0. -1.
         25    2    1    2    0    0 -0.12627291739E+03  0.67891134789E+02  0.73013847341E+02  0.20373637259E+03  0.12499372690E+03 0.  0.
          2    1    1    2  501    0  0.72472733687E+02 -0.94770257486E+02 -0.42845492943E+02  0.12676527560E+03  0.00000000000E+00 0. -1.
          1    1    1    2  502    0  0.53800183704E+02  0.26879122697E+02  0.41049439297E+03  0.41487660052E+03  0.00000000000E+00 0. -1.
         22    1    3    3    0    0 -0.12109680038E+03  0.95746717273E+01  0.16905614120E+02  0.12264546135E+03  0.00000000000E+00 0.  1.
         22    1    3    3    0    0 -0.51761170142E+01  0.58316463061E+02  0.56108233220E+02  0.81090911244E+02  0.00000000000E+00 0.  1.
</event>
<event>
 7    1  0.6078244E-006  0.6289250E+02  0.7818608E-02  0.1389625E+00
          2   -1    0    0  502    0  0.00000000000E+00  0.00000000000E+00  0.42160546682E+03  0.42160546682E+03  0.00000000000E+00 0. -1.
          1   -1    0    0  501    0 -0.00000000000E+00 -0.00000000000E+00 -0.12919122056E+03  0.12919122056E+03  0.00000000000E+00 0. -1.
         25    2    1    2    0    0 -0.25593136904E+02  0.13585286385E+02  0.88595337741E+02  0.15592904863E+03  0.12500066269E+03 0.  0.
          2    1    1    2  501    0  0.54954597415E+02  0.40020861721E+02 -0.79745829985E+02  0.10479062243E+03  0.00000000000E+00 0. -1.
          1    1    1    2  502    0 -0.29361460511E+02 -0.53606148106E+02  0.28356473850E+03  0.29007701632E+03  0.00000000000E+00 0. -1.
         22    1    3    3    0    0  0.16939284984E+02  0.58408369131E+02  0.20979663150E+02  0.64332132145E+02  0.00000000000E+00 0.  1.
         22    1    3    3    0    0 -0.42532421888E+02 -0.44823082747E+02  0.67615674590E+02  0.91596916481E+02  0.00000000000E+00 0.  1.
</event>
<event>
 7    1  0.6078244E-006  0.6089179E+02  0.7818608E-02  0.1450053E+00
          2   -1    0    0  502    0  0.00000000000E+00  0.00000000000E+00  0.34025033629E+04  0.34025033629E+04  0.00000000000E+00 0. -1.
          1   -1    0    0  501    0 -0.00000000000E+00 -0.00000000000E+00 -0.26116681612E+02  0.26116681612E+02  0.00000000000E+00 0. -1.
         25    2    1    2    0    0 -0.30035672420E+02  0.20472529882E+02  0.10909230432E+04  0.10986622614E+04  0.12499764934E+03 0.  0.
          2    1    1    2  501    0 -0.34398382806E+02 -0.19722370708E+02 -0.37584333811E+01  0.39828965183E+02  0.00000000000E+00 0. -1.
          1    1    1    2  502    0  0.64434055226E+02 -0.75015917375E+00  0.22892220714E+04  0.22901288179E+04  0.00000000000E+00 0. -1.
         22    1    3    3    0    0  0.27583343028E+02  0.53423623257E+02  0.39053784665E+03  0.39513887939E+03  0.00000000000E+00 0.  1.
         22    1    3    3    0    0 -0.57619015448E+02 -0.32951093374E+02  0.70038519655E+03  0.70352338201E+03  0.00000000000E+00 0.  1.
</event>
<event>
 7    1  0.6078244E-006  0.4426593E+02  0.7818608E-02  0.1514216E+00
          2   -1    0    0  502    0  0.00000000000E+00  0.00000000000E+00  0.15373932179E+03  0.15373932179E+03  0.00000000000E+00 0. -1.
          1   -1    0    0  501    0 -0.00000000000E+00 -0.00000000000E+00 -0.19081806739E+04  0.19081806739E+04  0.00000000000E+00 0. -1.
         25    2    1    2    0    0  0.12042094378E+02  0.13683523819E+02 -0.54788279647E+03  0.56225634895E+03  0.12499756957E+03 0.  0.
          2    1    1    2  501    0  0.79783018800E+00 -0.45927107674E+02 -0.13506604428E+04  0.13514412927E+04  0.00000000000E+00 0. -1.
          1    1    1    2  502    0 -0.12839924566E+02  0.32243583855E+02  0.14410188717E+03  0.14822235408E+03  0.00000000000E+00 0. -1.
         22    1    3    3    0    0 -0.19740383926E+02 -0.47787510261E+02 -0.15698563583E+03  0.16528102961E+03  0.00000000000E+00 0. -1.
         22    1    3    3    0    0  0.31782478304E+02  0.61471034080E+02 -0.39089716065E+03  0.39697531933E+03  0.00000000000E+00 0. -1.
</event>
<event>
 7    1  0.6078244E-006  0.6429470E+02  0.7818608E-02  0.1387776E+00
          2   -1    0    0  502    0  0.00000000000E+00  0.00000000000E+00  0.71693362256E+02  0.71693362256E+02  0.00000000000E+00 0. -1.
          1   -1    0    0  501    0 -0.00000000000E+00 -0.00000000000E+00 -0.71534111143E+03  0.71534111143E+03  0.00000000000E+00 0. -1.
         25    2    1    2    0    0  0.20993151173E+02  0.11618602015E+03 -0.28087592334E+03  0.32932793175E+03  0.12500279454E+03 0.  0.
          2    1    1    2  501    0 -0.24713397181E+02 -0.55423607204E+02 -0.38733626835E+03  0.39206110878E+03  0.00000000000E+00 0. -1.
          1    1    1    2  502    0  0.37202460081E+01 -0.60762412944E+02  0.24564442528E+02  0.65645433153E+02  0.00000000000E+00 0. -1.
         22    1    3    3    0    0 -0.43398058136E+02  0.61429335742E+02 -0.72521869166E+02  0.10448146365E+03  0.00000000000E+00 0. -1.
         22    1    3    3    0    0  0.64391209310E+02  0.54756684406E+02 -0.20835405418E+03  0.22484646810E+03  0.00000000000E+00 0. -1.
</event>
<event>
 7    1  0.6078244E-006  0.6452177E+02  0.7818608E-02  0.1399319E+00
          2   -1    0    0  502    0  0.00000000000E+00  0.00000000000E+00  0.77275291480E+03  0.77275291480E+03  0.00000000000E+00 0. -1.
          1   -1    0    0  501    0 -0.00000000000E+00 -0.00000000000E+00 -0.38121605266E+03  0.38121605266E+03  0.00000000000E+00 0. -1.
         25    2    1    2    0    0 -0.60382456941E+02 -0.92570251614E+02 -0.15382896288E+02  0.16756006827E+03  0.12499780155E+03 0.  0.
          2    1    1    2  501    0  0.91703918408E+01  0.54372716427E+02 -0.28563746407E+03  0.29091106761E+03  0.00000000000E+00 0. -1.
          1    1    1    2  502    0  0.51212065101E+02  0.38197535188E+02  0.69255722249E+03  0.69549783158E+03  0.00000000000E+00 0. -1.
         22    1    3    3    0    0 -0.75537024257E+02 -0.42864968799E+02 -0.54485003478E+02  0.10252737775E+03  0.00000000000E+00 0. -1.
         22    1    3    3    0    0  0.15154567316E+02 -0.49705282816E+02  0.39102107190E+02  0.65032690526E+02  0.00000000000E+00 0. -1.
</event>
<event>
 7    1  0.6078244E-006  0.5140347E+02  0.7818608E-02  0.1473098E+00
          2   -1    0    0  502    0  0.00000000000E+00  0.00000000000E+00  0.88724819465E+02  0.88724819465E+02  0.00000000000E+00 0. -1.
          1   -1    0    0  501    0 -0.00000000000E+00 -0.00000000000E+00 -0.48568741353E+03  0.48568741353E+03  0.00000000000E+00 0. -1.
         25    2    1    2    0    0 -0.40848563488E+02  0.50796505946E+01 -0.19306777813E+03  0.23365351583E+03  0.12499756204E+03 0.  0.
          2    1    1    2  501    0  0.32212136228E+02 -0.43874902598E+02 -0.26353020946E+03  0.26909254931E+03  0.00000000000E+00 0. -1.
          1    1    1    2  502    0  0.86364272598E+01  0.38795252003E+02  0.59635393527E+02  0.71666167854E+02  0.00000000000E+00 0. -1.
         22    1    3    3    0    0  0.29930888979E+02  0.28759399602E+02 -0.12825382776E+03  0.13480358124E+03  0.00000000000E+00 0.  1.
         22    1    3    3    0    0 -0.70779452467E+02 -0.23679749007E+02 -0.64813950370E+02  0.98849934583E+02  0.00000000000E+00 0.  1.
</event>
<event>
 7    1  0.6078244E-006  0.6732072E+02  0.7818608E-02  0.1371385E+00
          2   -1    0    0  502    0  0.00000000000E+00  0.00000000000E+00  0.32130303485E+02  0.32130303485E+02  0.00000000000E+00 0. -1.
          1   -1    0    0  501    0 -0.00000000000E+00 -0.00000000000E+00 -0.20281846076E+04  0.20281846076E+04  0.00000000000E+00 0. -1.
         25    2    1    2    0    0  0.35969677562E+02 -0.42151716599E+02 -0.30964512212E+03  0.33848682625E+03  0.12499057954E+03 0.  0.
          2    1    1    2  501    0  0.39638413002E+02  0.53084543783E+02 -0.16177740404E+04  0.16191300189E+04  0.00000000000E+00 0. -1.
          1    1    1    2  502    0 -0.75608090564E+02 -0.10932827185E+02 -0.68635141595E+02  0.10269806586E+03  0.00000000000E+00 0. -1.
         22    1    3    3    0    0  0.21962438720E+01 -0.20175919097E+02 -0.29487311967E+03  0.29557071557E+03  0.00000000000E+00 0. -1.
         22    1    3    3    0    0  0.33773433690E+02 -0.21975797502E+02 -0.14772002446E+02  0.42916110674E+02  0.00000000000E+00 0. -1.
</event>
<event>
 7    1  0.6078244E-006  0.5668436E+02  0.7818608E-02  0.1463568E+00
          2   -1    0    0  502    0  0.00000000000E+00  0.00000000000E+00  0.39297338487E+03  0.39297338487E+03  0.00000000000E+00 0. -1.
          1   -1    0    0  501    0 -0.00000000000E+00 -0.00000000000E+00 -0.56171170139E+03  0.56171170139E+03  0.00000000000E+00 0. -1.
         25    2    1    2    0    0 -0.24824519929E+02  0.42540600693E+02 -0.11316923964E+03  0.17566514743E+03  0.12500003090E+03 0.  0.
          2    1    1    2  501    0 -0.29402634535E+02 -0.25000507956E+02 -0.41414674542E+03  0.41594118221E+03  0.00000000000E+00 0. -1.
          1    1    1    2  502    0  0.54227154464E+02 -0.17540092737E+02  0.35857766854E+03  0.36307875662E+03  0.00000000000E+00 0. -1.
         22    1    3    3    0    0 -0.52505685668E+02 -0.11827311005E+02 -0.99529771131E+02  0.11314993440E+03  0.00000000000E+00 0.  1.
         22    1    3    3    0    0  0.27681165739E+02  0.54367911698E+02 -0.13639468505E+02  0.62515213030E+02  0.00000000000E+00 0.  1.
</event>
<event>
 7    1  0.6078244E-006  0.1902341E+03  0.7818608E-02  0.1313800E+00
          2   -1    0    0  502    0  0.00000000000E+00  0.00000000000E+00  0.27218851696E+03  0.27218851696E+03  0.00000000000E+00 0. -1.
          1   -1    0    0  501    0 -0.00000000000E+00 -0.00000000000E+00 -0.43553183635E+03  0.43553183635E+03  0.00000000000E+00 0. -1.
         25    2    1    2    0    0  0.71466092006E+02  0.17485165470E+03  0.12110126764E+03  0.25685076962E+03  0.12500518937E+03 0.  0.
          2    1    1    2  501    0 -0.10636261300E+03 -0.15848888871E+03 -0.33604210670E+03  0.38646607971E+03  0.00000000000E+00 0. -1.
          1    1    1    2  502    0  0.34896520999E+02 -0.16362765993E+02  0.51597519673E+02  0.64403503982E+02  0.00000000000E+00 0. -1.
         22    1    3    3    0    0  0.12147860721E+02 -0.13657573949E+02 -0.88729056047E+01  0.20318176595E+02  0.00000000000E+00 0. -1.
         22    1    3    3    0    0  0.59318231285E+02  0.18850922865E+03  0.12997417325E+03  0.23653259302E+03  0.00000000000E+00 0. -1.
</event>
<event>
 7    1  0.6078244E-006  0.3458896E+02  0.7818608E-02  0.1622099E+00
          2   -1    0    0  502    0  0.00000000000E+00  0.00000000000E+00  0.32103305208E+03  0.32103305208E+03  0.00000000000E+00 0. -1.
          1   -1    0    0  501    0 -0.00000000000E+00 -0.00000000000E+00 -0.13695012214E+03  0.13695012214E+03  0.00000000000E+00 0. -1.
         25    2    1    2    0    0 -0.24831956189E+02 -0.29713899908E+02 -0.26838582238E+02  0.13358517865E+03  0.12500059425E+03 0.  0.
          2    1    1    2  501    0 -0.86414928164E+01  0.20841198364E+02 -0.53320048942E+02  0.57896965089E+02  0.00000000000E+00 0. -1.
          1    1    1    2  502    0  0.33473449006E+02  0.88727015443E+01  0.26424156113E+03  0.26650103048E+03  0.00000000000E+00 0. -1.
         22    1    3    3    0    0  0.42280000276E+01 -0.17370843297E+01 -0.72507912297E+02  0.72651846445E+02  0.00000000000E+00 0. -1.
         22    1    3    3    0    0 -0.29059956217E+02 -0.27976815578E+02  0.45669330059E+02  0.60933332202E+02  0.00000000000E+00 0. -1.
</event>
<event>
 7    1  0.6078244E-006  0.1811916E+03  0.7818608E-02  0.1394754E+00
          2   -1    0    0  502    0  0.00000000000E+00  0.00000000000E+00  0.37016646733E+03  0.37016646733E+03  0.00000000000E+00 0. -1.
          1   -1    0    0  501    0 -0.00000000000E+00 -0.00000000000E+00 -0.44239170773E+03  0.44239170773E+03  0.00000000000E+00 0. -1.
         25    2    1    2    0    0 -0.17872050171E+03 -0.64675928202E+02  0.86291961286E+02  0.24330055007E+03  0.12499944664E+03 0.  0.
          2    1    1    2  501    0  0.76545109359E+01  0.18867696748E+02 -0.32533252814E+03  0.32596907120E+03  0.00000000000E+00 0. -1.
          1    1    1    2  502    0  0.17106599077E+03  0.45808231455E+02  0.16681532644E+03  0.24328855379E+03  0.00000000000E+00 0. -1.
         22    1    3    3    0    0 -0.16511912560E+03 -0.43237123857E+02  0.19439978226E+02  0.17178965997E+03  0.00000000000E+00 0. -1.
         22    1    3    3    0    0 -0.13601376113E+02 -0.21438804345E+02  0.66851983060E+02  0.71510890101E+02  0.00000000000E+00 0. -1.
</event>
<event>
 7    1  0.6500638E-006  0.1822345E+03  0.7818608E-02  0.1311658E+00
          2   -1    0    0  502    0  0.00000000000E+00  0.00000000000E+00  0.17260798090E+04  0.17260798090E+04  0.00000000000E+00 0. -1.
          1   -1    0    0  501    0 -0.00000000000E+00 -0.00000000000E+00 -0.24155043619E+04  0.24155043619E+04  0.00000000000E+00 0. -1.
         25    2    1    2    0    0  0.24809362934E+02 -0.15957334907E+03 -0.67308230412E+03  0.70338063123E+03  0.12500146416E+03 0.  0.
          2    1    1    2  501    0 -0.60273431509E+02  0.18018803859E+03 -0.17218004363E+04  0.17322521058E+04  0.00000000000E+00 0. -1.
          1    1    1    2  502    0  0.35464068575E+02 -0.20614689517E+02  0.17054581874E+04  0.17059514338E+04  0.00000000000E+00 0. -1.
         22    1    3    3    0    0 -0.32470513021E+02 -0.73113925796E+02 -0.14883330147E+03  0.16897139400E+03  0.00000000000E+00 0. -1.
         22    1    3    3    0    0  0.57279875955E+02 -0.86459423278E+02 -0.52424900264E+03  0.53440923723E+03  0.00000000000E+00 0. -1.
</event>
<event>
 7    1  0.9600107E-006  0.5274400E+02  0.7818608E-02  0.1459505E+00
          2   -1    0    0  502    0  0.00000000000E+00  0.00000000000E+00  0.34236514704E+04  0.34236514704E+04  0.00000000000E+00 0. -1.
          1   -1    0    0  501    0 -0.00000000000E+00 -0.00000000000E+00 -0.64219775657E+03  0.64219775657E+03  0.00000000000E+00 0. -1.
         25    2    1    2    0    0  0.12379820767E+02  0.78568336385E+00 -0.37555766327E+03  0.39600788772E+03  0.12499924573E+03 0.  0.
          2    1    1    2  501    0 -0.70171290969E+01 -0.53256347195E+02 -0.25339553496E+03  0.25902659276E+03  0.00000000000E+00 0. -1.
          1    1    1    2  502    0 -0.53626916703E+01  0.52470663832E+02  0.34104069120E+04  0.34108147465E+04  0.00000000000E+00 0. -1.
         22    1    3    3    0    0  0.24177370659E+01 -0.51206137323E+02 -0.75136509886E+02  0.90958282031E+02  0.00000000000E+00 0.  1.
         22    1    3    3    0    0  0.99620837013E+01  0.51991820687E+02 -0.30042115339E+03  0.30504960569E+03  0.00000000000E+00 0.  1.
</event>
<event>
 7    1  0.6078244E-006  0.5978076E+02  0.7818608E-02  0.1539172E+00
          2   -1    0    0  502    0  0.00000000000E+00  0.00000000000E+00  0.53611824453E+03  0.53611824453E+03  0.00000000000E+00 0. -1.
          1   -1    0    0  501    0 -0.00000000000E+00 -0.00000000000E+00 -0.32982655866E+03  0.32982655866E+03  0.00000000000E+00 0. -1.
         25    2    1    2    0    0 -0.49555913234E+02  0.12329726585E+02  0.16427933852E+03  0.21264974684E+03  0.12499761227E+03 0.  0.
          2    1    1    2  501    0  0.49321707184E+02 -0.34110121602E+02 -0.30235248835E+03  0.30824204516E+03  0.00000000000E+00 0. -1.
          1    1    1    2  502    0  0.23420605073E+00  0.21780395017E+02  0.34436483570E+03  0.34505301118E+03  0.00000000000E+00 0. -1.
         22    1    3    3    0    0 -0.59946054728E+02 -0.26378966252E+02  0.29123724407E+02  0.71676848852E+02  0.00000000000E+00 0. -1.
         22    1    3    3    0    0  0.10390141494E+02  0.38708692837E+02  0.13515561411E+03  0.14097289799E+03  0.00000000000E+00 0. -1.
</event>
<event>
 7    1  0.6078244E-006  0.3522758E+03  0.7818608E-02  0.1122568E+00
          2   -1    0    0  502    0  0.00000000000E+00  0.00000000000E+00  0.28123441922E+04  0.28123441922E+04  0.00000000000E+00 0. -1.
          1   -1    0    0  501    0 -0.00000000000E+00 -0.00000000000E+00 -0.36385675995E+03  0.36385675995E+03  0.00000000000E+00 0. -1.
         25    2    1    2    0    0 -0.18247261986E+03 -0.12422556688E+03  0.54697032686E+03  0.60293410014E+03  0.12499896873E+03 0.  0.
          2    1    1    2  501    0  0.29245031404E+03  0.23758700337E+03 -0.22634373006E+03  0.43955233419E+03  0.00000000000E+00 0. -1.
          1    1    1    2  502    0 -0.10997769418E+03 -0.11336143648E+03  0.21278608355E+04  0.21337145178E+04  0.00000000000E+00 0. -1.
         22    1    3    3    0    0 -0.17923992527E+03 -0.60529110657E+02  0.38862414936E+03  0.43222616015E+03  0.00000000000E+00 0.  1.
         22    1    3    3    0    0 -0.32326945932E+01 -0.63696456225E+02  0.15834617749E+03  0.17070793999E+03  0.00000000000E+00 0.  1.
</event>
<event>
 7    1  0.6078244E-006  0.3141101E+02  0.7818608E-02  0.1622072E+00
          2   -1    0    0  502    0  0.00000000000E+00  0.00000000000E+00  0.32952510727E+04  0.32952510727E+04  0.00000000000E+00 0. -1.
          1   -1    0    0  501    0 -0.00000000000E+00 -0.00000000000E+00 -0.15031719933E+02  0.15031719933E+02  0.00000000000E+00 0. -1.
         25    2    1    2    0    0 -0.81995106857E+01 -0.37773916456E+02  0.14490844669E+04  0.14549810454E+04  0.12501979606E+03 0.  0.
          2    1    1    2  501    0 -0.14580156929E+02  0.27847938245E+02  0.85886011988E+01  0.32586081555E+02  0.00000000000E+00 0. -1.
          1    1    1    2  502    0  0.22779667614E+02  0.99259782111E+01  0.18225462846E+04  0.18227156656E+04  0.00000000000E+00 0. -1.
         22    1    3    3    0    0 -0.14566171175E+02 -0.82806762880E+02  0.83838443012E+03  0.84258980886E+03  0.00000000000E+00 0.  1.
         22    1    3    3    0    0  0.63666604891E+01  0.45032846424E+02  0.61070003682E+03  0.61239123654E+03  0.00000000000E+00 0.  1.
</event>
<event>
 7    1  0.6078244E-006  0.4393376E+02  0.7818608E-02  0.1567845E+00
          2   -1    0    0  502    0  0.00000000000E+00  0.00000000000E+00  0.11183275312E+04  0.11183275312E+04  0.00000000000E+00 0. -1.
          1   -1    0    0  501    0 -0.00000000000E+00 -0.00000000000E+00 -0.48730092656E+02  0.48730092656E+02  0.00000000000E+00 0. -1.
         25    2    1    2    0    0 -0.22690188952E+02 -0.32881286389E+01  0.26785794235E+03  0.29647640229E+03  0.12499889347E+03 0.  0.
          2    1    1    2  501    0  0.39973486527E+02  0.20897394601E+02 -0.19378324482E+02  0.49092771219E+02  0.00000000000E+00 0. -1.
          1    1    1    2  502    0 -0.17283297575E+02 -0.17609265962E+02  0.82111782069E+03  0.82148845036E+03  0.00000000000E+00 0. -1.
         22    1    3    3    0    0  0.38016874911E+02  0.28165877411E+02  0.53214864022E+02  0.71206889984E+02  0.00000000000E+00 0. -1.
         22    1    3    3    0    0 -0.60707063864E+02 -0.31454006050E+02  0.21464307833E+03  0.22526951230E+03  0.00000000000E+00 0. -1.
</event>
<event>
 7    1  0.9913488E-006  0.8268211E+02  0.7818608E-02  0.1330107E+00
          2   -1    0    0  502    0  0.00000000000E+00  0.00000000000E+00  0.10797822699E+04  0.10797822699E+04  0.00000000000E+00 0. -1.
          1   -1    0    0  501    0 -0.00000000000E+00 -0.00000000000E+00 -0.12091580223E+04  0.12091580223E+04  0.00000000000E+00 0. -1.
         25    2    1    2    0    0 -0.63794093579E+02  0.16255887401E+02 -0.56033604794E+03  0.57787168823E+03  0.12500104472E+03 0.  0.
          2    1    1    2  501    0  0.68335506797E+01 -0.76384262540E+02 -0.63614649173E+03  0.64075237956E+03  0.00000000000E+00 0. -1.
          1    1    1    2  502    0  0.56960542899E+02  0.60128375139E+02  0.10671067872E+04  0.10703162244E+04  0.00000000000E+00 0. -1.
         22    1    3    3    0    0  0.30605875573E+02 -0.23451755712E+02 -0.17082684174E+03  0.17512428251E+03  0.00000000000E+00 0. -1.
         22    1    3    3    0    0 -0.94399969152E+02  0.39707643113E+02 -0.38950920620E+03  0.40274740572E+03  0.00000000000E+00 0. -1.
</event>
<event>
 7    1  0.6078244E-006  0.1209972E+03  0.7818608E-02  0.1440493E+00
          2   -1    0    0  502    0  0.00000000000E+00  0.00000000000E+00  0.64012698216E+03  0.64012698216E+03  0.00000000000E+00 0. -1.
          1   -1    0    0  501    0 -0.00000000000E+00 -0.00000000000E+00 -0.64656965352E+03  0.64656965352E+03  0.00000000000E+00 0. -1.
         25    2    1    2    0    0  0.91181646447E+02  0.99242155453E+02  0.12680522827E+03  0.22331162196E+03  0.12500166606E+03 0.  0.
          2    1    1    2  501    0 -0.92057119094E+02 -0.77839294963E+02 -0.59199134634E+03  0.60414172440E+03  0.00000000000E+00 0. -1.
          1    1    1    2  502    0  0.87547264647E+00 -0.21402860490E+02  0.45874344671E+03  0.45924328932E+03  0.00000000000E+00 0. -1.
         22    1    3    3    0    0  0.42514228506E+02  0.26286961206E+02  0.12606219453E+03  0.13561025346E+03  0.00000000000E+00 0.  1.
         22    1    3    3    0    0  0.48667417942E+02  0.72955194246E+02  0.74303374097E+00  0.87701368494E+02  0.00000000000E+00 0.  1.
</event>
<event>
 7    1  0.6078244E-006  0.6490852E+02  0.7818608E-02  0.1513190E+00
          2   -1    0    0  502    0  0.00000000000E+00  0.00000000000E+00  0.33525598651E+04  0.33525598651E+04  0.00000000000E+00 0. -1.
          1   -1    0    0  501    0 -0.00000000000E+00 -0.00000000000E+00 -0.38834333839E+02  0.38834333839E+02  0.00000000000E+00 0. -1.
         25    2    1    2    0    0 -0.68530737639E+02  0.52889344402E+02  0.19103163293E+04  0.19163576549E+04  0.12499775491E+03 0.  0.
          2    1    1    2  501    0  0.55597681003E+02 -0.32870698040E+02 -0.65107842834E+01  0.64915138716E+02  0.00000000000E+00 0. -1.
          1    1    1    2  502    0  0.12933056636E+02 -0.20018646362E+02  0.14099199863E+04  0.14101214054E+04  0.00000000000E+00 0. -1.
         22    1    3    3    0    0 -0.85699560482E+02  0.65573852061E+02  0.10025978869E+04  0.10083882523E+04  0.00000000000E+00 0.  1.
         22    1    3    3    0    0  0.17168822843E+02 -0.12684507659E+02  0.90771844243E+03  0.90796940253E+03  0.00000000000E+00 0.  1.
</event>
<event>
 7    1  0.6078244E-006  0.2040317E+03  0.7818608E-02  0.1326822E+00
          2   -1    0    0  502    0  0.00000000000E+00  0.00000000000E+00  0.81870584516E+03  0.81870584516E+03  0.00000000000E+00 0. -1.
          1   -1    0    0  501    0 -0.00000000000E+00 -0.00000000000E+00 -0.23962966130E+04  0.23962966130E+04  0.00000000000E+00 0. -1.
         25    2    1    2    0    0  0.73633506509E+02  0.15823284967E+03 -0.14947927756E+03  0.26158716684E+03  0.12499705372E+03 0.  0.
          2    1    1    2  501    0  0.78007325851E+01  0.31025248222E+02 -0.21767283974E+04  0.21769634663E+04  0.00000000000E+00 0. -1.
          1    1    1    2  502    0 -0.81434239094E+02 -0.18925809789E+03  0.74861690715E+03  0.77645182502E+03  0.00000000000E+00 0. -1.
         22    1    3    3    0    0  0.71130531108E+02  0.10758494703E+03 -0.16418885852E+03  0.20878710339E+03  0.00000000000E+00 0.  1.
         22    1    3    3    0    0  0.25029754009E+01  0.50647902643E+02  0.14709580953E+02  0.52800063445E+02  0.00000000000E+00 0.  1.
</event>
<event>
 7    1  0.6078244E-006  0.1980053E+03  0.7818608E-02  0.1363533E+00
          2   -1    0    0  502    0  0.00000000000E+00  0.00000000000E+00  0.72983091945E+03  0.72983091945E+03  0.00000000000E+00 0. -1.
          1   -1    0    0  501    0 -0.00000000000E+00 -0.00000000000E+00 -0.93528679460E+03  0.93528679460E+03  0.00000000000E+00 0. -1.
         25    2    1    2    0    0  0.12806980455E+00 -0.21479775195E+03 -0.14488172415E+03  0.28767091045E+03  0.12500299229E+03 0.  0.
          2    1    1    2  501    0  0.15352739075E+02  0.18503747819E+02 -0.70407982325E+03  0.70449023612E+03  0.00000000000E+00 0. -1.
          1    1    1    2  502    0 -0.15480808880E+02  0.19629400413E+03  0.64350567225E+03  0.67295656749E+03  0.00000000000E+00 0. -1.
         22    1    3    3    0    0  0.59314919757E+01 -0.21731023454E+03 -0.16089417403E+03  0.27045490543E+03  0.00000000000E+00 0. -1.
         22    1    3    3    0    0 -0.58034221711E+01  0.25124825884E+01  0.16012449883E+02  0.17216005022E+02  0.00000000000E+00 0. -1.
</event>
<event>
 7    1  0.6078244E-006  0.1459331E+03  0.7818608E-02  0.1352383E+00
          2   -1    0    0  502    0  0.00000000000E+00  0.00000000000E+00  0.81174222776E+03  0.81174222776E+03  0.00000000000E+00 0. -1.
          1   -1    0    0  501    0 -0.00000000000E+00 -0.00000000000E+00 -0.18606221953E+03  0.18606221953E+03  0.00000000000E+00 0. -1.
         25    2    1    2    0    0  0.12438904567E+03 -0.83436670656E+02  0.10606420424E+03  0.22205631939E+03  0.12500032347E+03 0.  0.
          2    1    1    2  501    0 -0.98157597426E+02  0.10785478358E+03 -0.85847075072E+02  0.16922555532E+03  0.00000000000E+00 0. -1.
          1    1    1    2  502    0 -0.26231448243E+02 -0.24418112925E+02  0.60546287907E+03  0.60652257258E+03  0.00000000000E+00 0. -1.
         22    1    3    3    0    0  0.57850746503E+02 -0.35924307192E+01  0.10286619900E+03  0.11807230550E+03  0.00000000000E+00 0.  1.
         22    1    3    3    0    0  0.66538299166E+02 -0.79844239937E+02  0.31980052366E+01  0.10398401389E+03  0.00000000000E+00 0.  1.
</event>
<event>
 7    1  0.6078244E-006  0.7181794E+02  0.7818608E-02  0.1409260E+00
          2   -1    0    0  502    0  0.00000000000E+00  0.00000000000E+00  0.29416902165E+04  0.29416902165E+04  0.00000000000E+00 0. -1.
          1   -1    0    0  501    0 -0.00000000000E+00 -0.00000000000E+00 -0.69685786113E+01  0.69685786113E+01  0.00000000000E+00 0. -1.
         25    2    1    2    0    0  0.46012483297E+01  0.35650940107E+02  0.21122919839E+04  0.21162920105E+04  0.12498914953E+03 0.  0.
          2    1    1    2  501    0 -0.30882465616E+02 -0.73174137057E+02  0.43013873026E+03  0.43741000022E+03  0.00000000000E+00 0. -1.
          1    1    1    2  502    0  0.26281217286E+02  0.37523196950E+02  0.39229092372E+03  0.39495678437E+03  0.00000000000E+00 0. -1.
         22    1    3    3    0    0  0.63526649688E+02  0.30415631635E+02  0.10582709987E+04  0.10606122065E+04  0.00000000000E+00 0.  1.
         22    1    3    3    0    0 -0.58925401358E+02  0.52353084718E+01  0.10540209852E+04  0.10556798040E+04  0.00000000000E+00 0.  1.
</event>
<event>
 7    1  0.6078244E-006  0.1463294E+03  0.7818608E-02  0.1313058E+00
          2   -1    0    0  502    0  0.00000000000E+00  0.00000000000E+00  0.34552373337E+04  0.34552373337E+04  0.00000000000E+00 0. -1.
          1   -1    0    0  501    0 -0.00000000000E+00 -0.00000000000E+00 -0.32025963936E+03  0.32025963936E+03  0.00000000000E+00 0. -1.
         25    2    1    2    0    0 -0.12028676280E+03  0.14715972494E+03  0.93355534516E+03  0.96087206551E+03  0.12499861544E+03 0.  0.
          2    1    1    2  501    0  0.27202915943E+02 -0.42479452273E+02 -0.30255557347E+03  0.30673176806E+03  0.00000000000E+00 0. -1.
          1    1    1    2  502    0  0.93083846856E+02 -0.10468027267E+03  0.25039779226E+04  0.25078931395E+04  0.00000000000E+00 0. -1.
         22    1    3    3    0    0 -0.38140222628E+02  0.99695930532E+02  0.71057505401E+03  0.71854774547E+03  0.00000000000E+00 0. -1.
         22    1    3    3    0    0 -0.82146540170E+02  0.47463794408E+02  0.22298029115E+03  0.24232432004E+03  0.00000000000E+00 0. -1.
</event>
<event>
 7    1  0.6078244E-006  0.8260774E+02  0.7818608E-02  0.1389677E+00
          2   -1    0    0  502    0  0.00000000000E+00  0.00000000000E+00  0.11226231291E+04  0.11226231291E+04  0.00000000000E+00 0. -1.
          1   -1    0    0  501    0 -0.00000000000E+00 -0.00000000000E+00 -0.15529111641E+03  0.15529111641E+03  0.00000000000E+00 0. -1.
         25    2    1    2    0    0  0.30578855155E+02 -0.24961730947E+02  0.36056421713E+02  0.13595222845E+03  0.12499915391E+03 0.  0.
          2    1    1    2  501    0  0.44878346238E+02 -0.12225967997E+02 -0.98408401373E+02  0.10884738727E+03  0.00000000000E+00 0. -1.
          1    1    1    2  502    0 -0.75457201393E+02  0.37187698944E+02  0.10296839923E+04  0.10331146298E+04  0.00000000000E+00 0. -1.
         22    1    3    3    0    0  0.32246284338E+02  0.47791029324E+02  0.91950393609E+01  0.58381110697E+02  0.00000000000E+00 0.  1.
         22    1    3    3    0    0 -0.16674291827E+01 -0.72752760270E+02  0.26861382352E+02  0.77571117750E+02  0.00000000000E+00 0.  1.
</event>
<event>
 7    1  0.6078244E-006  0.5403029E+02  0.7818608E-02  0.1434654E+00
          2   -1    0    0  502    0  0.00000000000E+00  0.00000000000E+00  0.96883690503E+02  0.96883690503E+02  0.00000000000E+00 0. -1.
          1   -1    0    0  501    0 -0.00000000000E+00 -0.00000000000E+00 -0.32443863928E+03  0.32443863928E+03  0.00000000000E+00 0. -1.
         25    2    1    2    0    0 -0.45752700944E+02  0.12621469491E+02 -0.88240793810E+02  0.16020186113E+03  0.12500234991E+03 0.  0.
          2    1    1    2  501    0  0.27264262044E+01 -0.50043170659E+02 -0.18271235028E+03  0.18946122367E+03  0.00000000000E+00 0. -1.
          1    1    1    2  502    0  0.43026274739E+02  0.37421701168E+02  0.43398195307E+02  0.71659244988E+02  0.00000000000E+00 0. -1.
         22    1    3    3    0    0  0.24760200797E+02 -0.24390182049E+02 -0.70517570774E+02  0.78617277438E+02  0.00000000000E+00 0.  1.
         22    1    3    3    0    0 -0.70512901741E+02  0.37011651540E+02 -0.17723223036E+02  0.81584583694E+02  0.00000000000E+00 0.  1.
</event>
<event>
 7    1  0.9075426E-006  0.8092910E+02  0.7818608E-02  0.1391747E+00
          2   -1    0    0  502    0  0.00000000000E+00  0.00000000000E+00  0.27076047283E+04  0.27076047283E+04  0.00000000000E+00 0. -1.
          1   -1    0    0  501    0 -0.00000000000E+00 -0.00000000000E+00 -0.58907185830E+03  0.58907185830E+03  0.00000000000E+00 0. -1.
         25    2    1    2    0    0  0.22161350265E+02 -0.33402775984E+02 -0.12827000661E+03  0.18353617289E+03  0.12500184508E+03 0.  0.
          2    1    1    2  501    0 -0.67041675270E+01 -0.46212608691E+02 -0.43129462328E+03  0.43381517162E+03  0.00000000000E+00 0. -1.
          1    1    1    2  502    0 -0.15457182738E+02  0.79615384675E+02  0.26780974999E+04  0.26793252421E+04  0.00000000000E+00 0. -1.
         22    1    3    3    0    0 -0.18459357795E+02  0.41816971058E+02 -0.41760478319E+02  0.61914008981E+02  0.00000000000E+00 0.  1.
         22    1    3    3    0    0  0.40620708060E+02 -0.75219747042E+02 -0.86509528290E+02  0.12162216391E+03  0.00000000000E+00 0.  1.
</event>
<event>
 7    1  0.6078244E-006  0.6658612E+02  0.7818608E-02  0.1412854E+00
          2   -1    0    0  502    0  0.00000000000E+00  0.00000000000E+00  0.19924256221E+03  0.19924256221E+03  0.00000000000E+00 0. -1.
          1   -1    0    0  501    0 -0.00000000000E+00 -0.00000000000E+00 -0.31193358443E+03  0.31193358443E+03  0.00000000000E+00 0. -1.
         25    2    1    2    0    0 -0.39789114115E+01 -0.22875293805E+02 -0.12710643531E+03  0.17977416580E+03  0.12499437583E+03 0.  0.
          2    1    1    2  501    0 -0.32919323532E+02 -0.34997237211E+02 -0.14772024065E+03  0.15533756137E+03  0.00000000000E+00 0. -1.
          1    1    1    2  502    0  0.36898234944E+02  0.57872531016E+02  0.16213565374E+03  0.17606441947E+03  0.00000000000E+00 0. -1.
         22    1    3    3    0    0  0.39373406441E+02  0.34624508221E+02 -0.72143020212E+02  0.89183726484E+02  0.00000000000E+00 0.  1.
         22    1    3    3    0    0 -0.43352317852E+02 -0.57499802026E+02 -0.54963415102E+02  0.90590439319E+02  0.00000000000E+00 0.  1.
</event>
<event>
 7    1  0.6078244E-006  0.5459316E+02  0.7818608E-02  0.1440745E+00
          2   -1    0    0  502    0  0.00000000000E+00  0.00000000000E+00  0.69131408085E+03  0.69131408085E+03  0.00000000000E+00 0. -1.
          1   -1    0    0  501    0 -0.00000000000E+00 -0.00000000000E+00 -0.11251868787E+04  0.11251868787E+04  0.00000000000E+00 0. -1.
         25    2    1    2    0    0  0.95084263421E+02  0.21911122893E+02 -0.48677774659E+03  0.51195548218E+03  0.12499890682E+03 0.  0.
          2    1    1    2  501    0 -0.47873482398E+02 -0.17834792679E+02 -0.62394790395E+03  0.62603589114E+03  0.00000000000E+00 0. -1.
          1    1    1    2  502    0 -0.47210781024E+02 -0.40763302144E+01  0.67685285273E+03  0.67850958620E+03  0.00000000000E+00 0. -1.
         22    1    3    3    0    0 -0.29647997711E+02 -0.16350836215E+01 -0.64387125028E+02  0.70904013540E+02  0.00000000000E+00 0.  1.
         22    1    3    3    0    0  0.12473226113E+03  0.23546206515E+02 -0.42239062156E+03  0.44105146864E+03  0.00000000000E+00 0.  1.
</event>
<event>
 7    1  0.6078244E-006  0.1127368E+03  0.7818608E-02  0.1386167E+00
          2   -1    0    0  502    0  0.00000000000E+00  0.00000000000E+00  0.54438715573E+03  0.54438715573E+03  0.00000000000E+00 0. -1.
          1   -1    0    0  501    0 -0.00000000000E+00 -0.00000000000E+00 -0.13963318914E+03  0.13963318914E+03  0.00000000000E+00 0. -1.
         25    2    1    2    0    0  0.11477093342E+03 -0.61916619456E+02  0.12188248314E+03  0.21791557179E+03  0.12500328719E+03 0.  0.
          2    1    1    2  501    0 -0.32950265981E+02 -0.11981094339E+02 -0.79737374655E+02  0.87105198276E+02  0.00000000000E+00 0. -1.
          1    1    1    2  502    0 -0.81820667440E+02  0.73897713795E+02  0.36260885811E+03  0.37899957480E+03  0.00000000000E+00 0. -1.
         22    1    3    3    0    0  0.12138497288E+03 -0.86410925562E+02  0.80450383710E+02  0.16933228853E+03  0.00000000000E+00 0. -1.
         22    1    3    3    0    0 -0.66140394619E+01  0.24494306106E+02  0.41432099428E+02  0.48583283263E+02  0.00000000000E+00 0. -1.
</event>
<event>
 7    1  0.6078244E-006  0.6961745E+02  0.7818608E-02  0.1513815E+00
          2   -1    0    0  502    0  0.00000000000E+00  0.00000000000E+00  0.73919149821E+03  0.73919149821E+03  0.00000000000E+00 0. -1.
          1   -1    0    0  501    0 -0.00000000000E+00 -0.00000000000E+00 -0.29245307634E+03  0.29245307634E+03  0.00000000000E+00 0. -1.
         25    2    1    2    0    0 -0.73816163098E+02  0.11153221327E+02  0.57270956049E+02  0.15645048518E+03  0.12499428637E+03 0.  0.
          2    1    1    2  501    0  0.68750619177E+02  0.10386466602E+02 -0.23768760509E+03  0.24764879151E+03  0.00000000000E+00 0. -1.
          1    1    1    2  502    0  0.50655439219E+01 -0.21539687929E+02  0.62715507092E+03  0.62754529786E+03  0.00000000000E+00 0. -1.
         22    1    3    3    0    0 -0.24164538882E+02  0.30010259153E+02  0.87309076754E+02  0.95432779889E+02  0.00000000000E+00 0. -1.
         22    1    3    3    0    0 -0.49651624216E+02 -0.18857037827E+02 -0.30038120705E+02  0.61017705286E+02  0.00000000000E+00 0. -1.
</event>
<event>
 7    1  0.6078244E-006  0.7253937E+02  0.7818608E-02  0.1412765E+00
          2   -1    0    0  502    0  0.00000000000E+00  0.00000000000E+00  0.49874566641E+03  0.49874566641E+03  0.00000000000E+00 0. -1.
          1   -1    0    0  501    0 -0.00000000000E+00 -0.00000000000E+00 -0.33061699262E+03  0.33061699262E+03  0.00000000000E+00 0. -1.
         25    2    1    2    0    0  0.76642723357E+02 -0.55526179983E+02 -0.13692167769E+03  0.20813317591E+03  0.12495843062E+03 0.  0.
          2    1    1    2  501    0 -0.68287281907E+02  0.12190336642E+02 -0.14935943143E+03  0.16468150150E+03  0.00000000000E+00 0. -1.
          1    1    1    2  502    0 -0.83554414502E+01  0.43335843342E+02  0.45440978291E+03  0.45654798162E+03  0.00000000000E+00 0. -1.
         22    1    3    3    0    0  0.68430037932E+02 -0.80561866979E+02 -0.14601585083E+03  0.18025957172E+03  0.00000000000E+00 0. -1.
         22    1    3    3    0    0  0.82126854246E+01  0.25035686996E+02  0.90941731379E+01  0.27873604186E+02  0.00000000000E+00 0. -1.
</event>
<event>
 7    1  0.6078244E-006  0.1328459E+03  0.7818608E-02  0.1353826E+00
          2   -1    0    0  502    0  0.00000000000E+00  0.00000000000E+00  0.61221399953E+03  0.61221399953E+03  0.00000000000E+00 0. -1.
          1   -1    0    0  501    0 -0.00000000000E+00 -0.00000000000E+00 -0.42175766850E+03  0.42175766850E+03  0.00000000000E+00 0. -1.
         25    2    1    2    0    0 -0.14544194433E+03  0.64531035499E+02  0.13156922885E+03  0.24134596352E+03  0.12497919192E+03 0.  0.
          2    1    1    2  501    0  0.10794462094E+03 -0.74840524289E+02 -0.35416963686E+03  0.37774234200E+03  0.00000000000E+00 0. -1.
          1    1    1    2  502    0  0.37497323384E+02  0.10309488790E+02  0.41305673904E+03  0.41488336251E+03  0.00000000000E+00 0. -1.
         22    1    3    3    0    0 -0.56794376273E+02 -0.36803595551E+02  0.45472299034E+02  0.81534261517E+02  0.00000000000E+00 0.  1.
         22    1    3    3    0    0 -0.88647568055E+02  0.10133463105E+03  0.86096929819E+02  0.15981170200E+03  0.00000000000E+00 0.  1.
</event>
<event>
 7    1  0.6078244E-006  0.6501953E+02  0.7818608E-02  0.1502259E+00
          2   -1    0    0  502    0  0.00000000000E+00  0.00000000000E+00  0.20140343286E+03  0.20140343286E+03  0.00000000000E+00 0. -1.
          1   -1    0    0  501    0 -0.00000000000E+00 -0.00000000000E+00 -0.15688789308E+03  0.15688789308E+03  0.00000000000E+00 0. -1.
         25    2    1    2    0    0  0.74448999422E+02  0.26526286271E+01 -0.47966898777E+02  0.15321458235E+03  0.12499677960E+03 0.  0.
          2    1    1    2  501    0 -0.14386187472E+02  0.21209119807E+02 -0.45774208188E+02  0.52460149525E+02  0.00000000000E+00 0. -1.
          1    1    1    2  502    0 -0.60062811949E+02 -0.23861748434E+02  0.13825664674E+03  0.15261659407E+03  0.00000000000E+00 0. -1.
         22    1    3    3    0    0  0.84568270549E+02 -0.31856331376E+02  0.34898235227E+01  0.90436702177E+02  0.00000000000E+00 0. -1.
         22    1    3    3    0    0 -0.10119271127E+02  0.34508960004E+02 -0.51456722300E+02  0.62777880169E+02  0.00000000000E+00 0. -1.
</event>
<event>
 7    1  0.6078244E-006  0.2465839E+03  0.7818608E-02  0.1199818E+00
          2   -1    0    0  502    0  0.00000000000E+00  0.00000000000E+00  0.10133160040E+04  0.10133160040E+04  0.00000000000E+00 0. -1.
          1   -1    0    0  501    0 -0.00000000000E+00 -0.00000000000E+00 -0.29530112553E+04  0.29530112553E+04  0.00000000000E+00 0. -1.
         25    2    1    2    0    0 -0.28233908713E+03  0.16191282250E+02 -0.73849945677E+03  0.80061007871E+03  0.12497012743E+03 0.  0.
          2    1    1    2  501    0  0.23323541718E+03  0.61487505054E+02 -0.21746243714E+04  0.21879603812E+04  0.00000000000E+00 0. -1.
          1    1    1    2  502    0  0.49103669950E+02 -0.77678787304E+02  0.97342857690E+03  0.97775679937E+03  0.00000000000E+00 0. -1.
         22    1    3    3    0    0 -0.22948613328E+03  0.58110055709E+02 -0.50815443403E+03  0.56059039661E+03  0.00000000000E+00 0. -1.
         22    1    3    3    0    0 -0.52852953850E+02 -0.41918773459E+02 -0.23034502274E+03  0.24001968211E+03  0.00000000000E+00 0. -1.
</event>
<event>
 7    1  0.6078244E-006  0.1170951E+03  0.7818608E-02  0.1279283E+00
          2   -1    0    0  502    0  0.00000000000E+00  0.00000000000E+00  0.64777035759E+03  0.64777035759E+03  0.00000000000E+00 0. -1.
          1   -1    0    0  501    0 -0.00000000000E+00 -0.00000000000E+00 -0.17967537516E+04  0.17967537516E+04  0.00000000000E+00 0. -1.
         25    2    1    2    0    0 -0.32325416957E+02 -0.10674879381E+02  0.20997002085E+03  0.24673050222E+03  0.12501858037E+03 0.  0.
          2    1    1    2  501    0  0.94326925180E+02  0.70600190245E+02 -0.17719644959E+04  0.17758772848E+04  0.00000000000E+00 0. -1.
          1    1    1    2  502    0 -0.62001508222E+02 -0.59925310864E+02  0.41301108105E+03  0.42191632224E+03  0.00000000000E+00 0. -1.
         22    1    3    3    0    0 -0.73414849839E+02 -0.28933920106E+02  0.96369568788E+02  0.12455523152E+03  0.00000000000E+00 0.  1.
         22    1    3    3    0    0  0.41089432882E+02  0.18259040725E+02  0.11360045206E+03  0.12217527070E+03  0.00000000000E+00 0.  1.
</event>
<event>
 7    1  0.6078244E-006  0.1275278E+03  0.7818608E-02  0.1240598E+00
          2   -1    0    0  502    0  0.00000000000E+00  0.00000000000E+00  0.20775640137E+04  0.20775640137E+04  0.00000000000E+00 0. -1.
          1   -1    0    0  501    0 -0.00000000000E+00 -0.00000000000E+00 -0.58547915507E+02  0.58547915507E+02  0.00000000000E+00 0. -1.
         25    2    1    2    0    0 -0.32889664974E+02 -0.35147561428E+02  0.44155783370E+03  0.46142710577E+03  0.12499828921E+03 0.  0.
          2    1    1    2  501    0  0.68967940999E+02 -0.10726955321E+03  0.45051425967E+02  0.13525148766E+03  0.00000000000E+00 0. -1.
          1    1    1    2  502    0 -0.36078276025E+02  0.14241711464E+03  0.15324068385E+04  0.15394333358E+04  0.00000000000E+00 0. -1.
         22    1    3    3    0    0  0.12503671163E+02 -0.63044202843E+02  0.12645256728E+03  0.14184909262E+03  0.00000000000E+00 0.  1.
         22    1    3    3    0    0 -0.45393336138E+02  0.27896641414E+02  0.31510526642E+03  0.31957801315E+03  0.00000000000E+00 0.  1.
</event>
<event>
 7    1  0.6078244E-006  0.9595315E+02  0.7818608E-02  0.1296806E+00
          2   -1    0    0  502    0  0.00000000000E+00  0.00000000000E+00  0.48284972587E+03  0.48284972587E+03  0.00000000000E+00 0. -1.
          1   -1    0    0  501    0 -0.00000000000E+00 -0.00000000000E+00 -0.26713280616E+03  0.26713280616E+03  0.00000000000E+00 0. -1.
         25    2    1    2    0    0 -0.32807902468E+02  0.11304481755E+02 -0.26728669176E+02  0.13244919774E+03  0.12499687377E+03 0.  0.
          2    1    1    2  501    0  0.11919915871E+03  0.11124038471E+02 -0.16307808634E+03  0.20230335121E+03  0.00000000000E+00 0. -1.
          1    1    1    2  502    0 -0.86391256240E+02 -0.22428520226E+02  0.40552367523E+03  0.41522998307E+03  0.00000000000E+00 0. -1.
         22    1    3    3    0    0 -0.67906464438E+02  0.39980903503E+02  0.19286275038E+01  0.78825631374E+02  0.00000000000E+00 0.  1.
         22    1    3    3    0    0  0.35098561970E+02 -0.28676421748E+02 -0.28657296680E+02  0.53623566364E+02  0.00000000000E+00 0.  1.
</event>
<event>
 7    1  0.6078244E-006  0.1709137E+03  0.7818608E-02  0.1302894E+00
          2   -1    0    0  502    0  0.00000000000E+00  0.00000000000E+00  0.67604938907E+03  0.67604938907E+03  0.00000000000E+00 0. -1.
          1   -1    0    0  501    0 -0.00000000000E+00 -0.00000000000E+00 -0.38410151831E+03  0.38410151831E+03  0.00000000000E+00 0. -1.
         25    2    1    2    0    0  0.17224291302E+03  0.97216525053E+02  0.26205111008E+03  0.35130131984E+03  0.12499263656E+03 0.  0.
          2    1    1    2  501    0 -0.12716962022E+03 -0.11179991016E+03 -0.31664978982E+03  0.35907996549E+03  0.00000000000E+00 0. -1.
          1    1    1    2  502    0 -0.45073292801E+02  0.14583385111E+02  0.34654655050E+03  0.34976962205E+03  0.00000000000E+00 0. -1.
         22    1    3    3    0    0  0.69250934162E+02  0.72921349025E+02  0.21115365866E+03  0.23387834998E+03  0.00000000000E+00 0. -1.
         22    1    3    3    0    0  0.10299197886E+03  0.24295176027E+02  0.50897451422E+02  0.11742296985E+03  0.00000000000E+00 0. -1.
</event>
<event>
 7    1  0.6078244E-006  0.5476647E+02  0.7818608E-02  0.1430580E+00
          2   -1    0    0  502    0  0.00000000000E+00  0.00000000000E+00  0.80408385609E+03  0.80408385609E+03  0.00000000000E+00 0. -1.
          1   -1    0    0  501    0 -0.00000000000E+00 -0.00000000000E+00 -0.62914231060E+03  0.62914231060E+03  0.00000000000E+00 0. -1.
         25    2    1    2    0    0  0.90630269937E+02  0.15820791079E+02  0.37353625767E+03  0.40449782157E+03  0.12500003440E+03 0.  0.
          2    1    1    2  501    0 -0.48839135265E+02  0.14647548840E+02 -0.61098438477E+03  0.61310825329E+03  0.00000000000E+00 0. -1.
          1    1    1    2  502    0 -0.41791134672E+02 -0.30468339918E+02  0.41238967259E+03  0.41562009183E+03  0.00000000000E+00 0. -1.
         22    1    3    3    0    0  0.97866421752E+01  0.21355344407E+01 -0.88823700666E+01  0.13387881476E+02  0.00000000000E+00 0. -1.
         22    1    3    3    0    0  0.80843627762E+02  0.13685256638E+02  0.38241862773E+03  0.39110994009E+03  0.00000000000E+00 0. -1.
</event>
<event>
 7    1  0.6078244E-006  0.1162865E+03  0.7818608E-02  0.1419995E+00
          2   -1    0    0  502    0  0.00000000000E+00  0.00000000000E+00  0.32693455794E+03  0.32693455794E+03  0.00000000000E+00 0. -1.
          1   -1    0    0  501    0 -0.00000000000E+00 -0.00000000000E+00 -0.14809816052E+04  0.14809816052E+04  0.00000000000E+00 0. -1.
         25    2    1    2    0    0  0.90509848492E+02 -0.26768347219E+02 -0.14032012517E+03  0.21029367406E+03  0.12500045895E+03 0.  0.
          2    1    1    2  501    0 -0.10906023014E+03  0.45034654142E+02 -0.13024220480E+04  0.13077558812E+04  0.00000000000E+00 0. -1.
          1    1    1    2  502    0  0.18550381645E+02 -0.18266306924E+02  0.28869512588E+03  0.28986660783E+03  0.00000000000E+00 0. -1.
         22    1    3    3    0    0  0.82571002246E+02 -0.67640104816E+02 -0.12842652370E+03  0.16699259319E+03  0.00000000000E+00 0.  1.
         22    1    3    3    0    0  0.79388462462E+01  0.40871757598E+02 -0.11893601469E+02  0.43301080873E+02  0.00000000000E+00 0.  1.
</event>
<event>
 7    1  0.6078244E-006  0.4757301E+02  0.7818608E-02  0.1462861E+00
          2   -1    0    0  502    0  0.00000000000E+00  0.00000000000E+00  0.23936254984E+03  0.23936254984E+03  0.00000000000E+00 0. -1.
          1   -1    0    0  501    0 -0.00000000000E+00 -0.00000000000E+00 -0.11520378967E+04  0.11520378967E+04  0.00000000000E+00 0. -1.
         25    2    1    2    0    0  0.27851098455E+02  0.27928909422E+02 -0.55482062844E+02  0.14233427519E+03  0.12500031572E+03 0.  0.
          2    1    1    2  501    0 -0.42458307685E+02  0.18269156262E+02 -0.10496179101E+04  0.10506351541E+04  0.00000000000E+00 0. -1.
          1    1    1    2  502    0  0.14607209230E+02 -0.46198065684E+02  0.19242462611E+03  0.19843101716E+03  0.00000000000E+00 0. -1.
         22    1    3    3    0    0  0.69229288482E+02 -0.14454168148E+02 -0.20900180068E+02  0.73745744877E+02  0.00000000000E+00 0. -1.
         22    1    3    3    0    0 -0.41378190026E+02  0.42383077571E+02 -0.34581882776E+02  0.68588530313E+02  0.00000000000E+00 0. -1.
</event>
<event>
 7    1  0.6078244E-006  0.1746598E+03  0.7818608E-02  0.1234297E+00
          2   -1    0    0  502    0  0.00000000000E+00  0.00000000000E+00  0.47078033477E+03  0.47078033477E+03  0.00000000000E+00 0. -1.
          1   -1    0    0  501    0 -0.00000000000E+00 -0.00000000000E+00 -0.84543045376E+03  0.84543045376E+03  0.00000000000E+00 0. -1.
         25    2    1    2    0    0 -0.17116635500E+03  0.51389513733E+02 -0.79234582090E+02  0.23203797268E+03  0.12499879423E+03 0.  0.
          2    1    1    2  501    0  0.17276638183E+03  0.38766688498E+02 -0.67303534030E+03  0.69593652593E+03  0.00000000000E+00 0. -1.
          1    1    1    2  502    0 -0.16000268282E+01 -0.90156202232E+02  0.37761980340E+03  0.38823628992E+03  0.00000000000E+00 0. -1.
         22    1    3    3    0    0 -0.18432655772E+02  0.43917725157E+02  0.17897159369E+02  0.50880622001E+02  0.00000000000E+00 0.  1.
         22    1    3    3    0    0 -0.15273369923E+03  0.74717885766E+01 -0.97131741459E+02  0.18115735068E+03  0.00000000000E+00 0.  1.
</event>
<event>
 7    1  0.6078244E-006  0.7781166E+02  0.7818608E-02  0.1398651E+00
          2   -1    0    0  502    0  0.00000000000E+00  0.00000000000E+00  0.70714688778E+03  0.70714688778E+03  0.00000000000E+00 0. -1.
          1   -1    0    0  501    0 -0.00000000000E+00 -0.00000000000E+00 -0.62074225938E+03  0.62074225938E+03  0.00000000000E+00 0. -1.
         25    2    1    2    0    0 -0.20828670535E+01  0.59595547259E+02  0.15169052039E+03  0.20540518678E+03  0.12500123676E+03 0.  0.
          2    1    1    2  501    0  0.47996415823E+02 -0.61783696126E+02 -0.59029976657E+03  0.59546174978E+03  0.00000000000E+00 0. -1.
          1    1    1    2  502    0 -0.45913548769E+02  0.21881488676E+01  0.52501387459E+03  0.52702221060E+03  0.00000000000E+00 0. -1.
         22    1    3    3    0    0 -0.55146485204E+02  0.41971023980E+02  0.38793513793E+02  0.79420642132E+02  0.00000000000E+00 0.  1.
         22    1    3    3    0    0  0.53063618150E+02  0.17624523279E+02  0.11289700660E+03  0.12598454465E+03  0.00000000000E+00 0.  1.
</event>
<event>
 7    1  0.6078244E-006  0.6946859E+02  0.7818608E-02  0.1382529E+00
          2   -1    0    0  502    0  0.00000000000E+00  0.00000000000E+00  0.29700044449E+03  0.29700044449E+03  0.00000000000E+00 0. -1.
          1   -1    0    0  501    0 -0.00000000000E+00 -0.00000000000E+00 -0.11459520550E+04  0.11459520550E+04  0.00000000000E+00 0. -1.
         25    2    1    2    0    0  0.18838836193E+02 -0.32862677836E+02 -0.66419012239E+03  0.67691102496E+03  0.12500063875E+03 0.  0.
          2    1    1    2  501    0  0.42656451468E+02  0.65176979613E+02 -0.46798469653E+03  0.47442311043E+03  0.00000000000E+00 0. -1.
          1    1    1    2  502    0 -0.61495287661E+02 -0.32314301777E+02  0.28322320840E+03  0.29161836410E+03  0.00000000000E+00 0. -1.
         22    1    3    3    0    0  0.62171762214E+02 -0.53772707882E+02 -0.39643366790E+03  0.40486600891E+03  0.00000000000E+00 0. -1.
         22    1    3    3    0    0 -0.43332926021E+02  0.20910030046E+02 -0.26775645449E+03  0.27204501605E+03  0.00000000000E+00 0. -1.
</event>
<event>
 7    1  0.6078244E-006  0.8592557E+02  0.7818608E-02  0.1358159E+00
          2   -1    0    0  502    0  0.00000000000E+00  0.00000000000E+00  0.54076293741E+03  0.54076293741E+03  0.00000000000E+00 0. -1.
          1   -1    0    0  501    0 -0.00000000000E+00 -0.00000000000E+00 -0.15777913940E+03  0.15777913940E+03  0.00000000000E+00 0. -1.
         25    2    1    2    0    0  0.64461693564E+02 -0.47128534216E+02  0.58607074281E+02  0.15948824931E+03  0.12500121534E+03 0.  0.
          2    1    1    2  501    0 -0.43433583216E+02 -0.38380879991E+02 -0.94588445492E+02  0.11093485530E+03  0.00000000000E+00 0. -1.
          1    1    1    2  502    0 -0.21028110348E+02  0.85509414207E+02  0.41896516922E+03  0.42811897221E+03  0.00000000000E+00 0. -1.
         22    1    3    3    0    0  0.17055192105E+02 -0.18998155537E+02  0.91703806238E+02  0.95191373402E+02  0.00000000000E+00 0. -1.
         22    1    3    3    0    0  0.47406501459E+02 -0.28130378679E+02 -0.33096731958E+02  0.64296875907E+02  0.00000000000E+00 0. -1.
</event>
<event>
 7    1  0.6078244E-006  0.3730659E+02  0.7818608E-02  0.1579167E+00
          2   -1    0    0  502    0  0.00000000000E+00  0.00000000000E+00  0.70516887212E+01  0.70516887212E+01  0.00000000000E+00 0. -1.
          1   -1    0    0  501    0 -0.00000000000E+00 -0.00000000000E+00 -0.15470431715E+04  0.15470431715E+04  0.00000000000E+00 0. -1.
         25    2    1    2    0    0  0.28138973716E+02 -0.53569507230E+01 -0.91886417626E+03  0.92776996292E+03  0.12500092367E+03 0.  0.
          2    1    1    2  501    0 -0.37307355147E+01 -0.26820676418E+02 -0.43615144142E+03  0.43699124353E+03  0.00000000000E+00 0. -1.
          1    1    1    2  502    0 -0.24408238201E+02  0.32177627141E+02 -0.18497586506E+03  0.18933365373E+03  0.00000000000E+00 0. -1.
         22    1    3    3    0    0  0.27534309218E+02 -0.63694589168E+02 -0.45773078062E+03  0.46296069639E+03  0.00000000000E+00 0.  1.
         22    1    3    3    0    0  0.60466449807E+00  0.58337638445E+02 -0.46113339564E+03  0.46480926653E+03  0.00000000000E+00 0.  1.
</event>
<event>
 7    1  0.6078244E-006  0.9687230E+02  0.7818608E-02  0.1464799E+00
          2   -1    0    0  502    0  0.00000000000E+00  0.00000000000E+00  0.16197147411E+04  0.16197147411E+04  0.00000000000E+00 0. -1.
          1   -1    0    0  501    0 -0.00000000000E+00 -0.00000000000E+00 -0.41469854880E+02  0.41469854880E+02  0.00000000000E+00 0. -1.
         25    2    1    2    0    0  0.57747531948E+02  0.95757693196E+02  0.69722325521E+03  0.71711321398E+03  0.12500712303E+03 0.  0.
          2    1    1    2  501    0 -0.36712285485E+02 -0.88106812294E+02  0.41216938867E+02  0.10396844871E+03  0.00000000000E+00 0. -1.
          1    1    1    2  502    0 -0.21035246463E+02 -0.76508809019E+01  0.83980469215E+03  0.84010293329E+03  0.00000000000E+00 0. -1.
         22    1    3    3    0    0  0.31181501071E+02  0.71126443113E+02  0.15202644540E+03  0.17071407973E+03  0.00000000000E+00 0.  1.
         22    1    3    3    0    0  0.26566030877E+02  0.24631250082E+02  0.54519680981E+03  0.54639913425E+03  0.00000000000E+00 0.  1.
</event>
<event>
 7    1  0.6078244E-006  0.6100733E+02  0.7818608E-02  0.1455840E+00
          2   -1    0    0  502    0  0.00000000000E+00  0.00000000000E+00  0.72545104184E+02  0.72545104184E+02  0.00000000000E+00 0. -1.
          1   -1    0    0  501    0 -0.00000000000E+00 -0.00000000000E+00 -0.92810398518E+03  0.92810398518E+03  0.00000000000E+00 0. -1.
         25    2    1    2    0    0  0.64324776192E+02 -0.71014752393E+02 -0.31690258279E+03  0.35388335692E+03  0.12500164572E+03 0.  0.
          2    1    1    2  501    0 -0.18815880869E+02  0.32935239157E+02 -0.57561162611E+03  0.57686004496E+03  0.00000000000E+00 0. -1.
          1    1    1    2  502    0 -0.45508895323E+02  0.38079513236E+02  0.36955327912E+02  0.69905687486E+02  0.00000000000E+00 0. -1.
         22    1    3    3    0    0 -0.13179446459E+02 -0.95085066872E+01 -0.20030024398E+03  0.20095844656E+03  0.00000000000E+00 0.  1.
         22    1    3    3    0    0  0.77504222651E+02 -0.61506245706E+02 -0.11660233882E+03  0.15292491035E+03  0.00000000000E+00 0.  1.
</event>
<event>
 7    1  0.6078244E-006  0.5398918E+02  0.7818608E-02  0.1460051E+00
          2   -1    0    0  502    0  0.00000000000E+00  0.00000000000E+00  0.25821887336E+04  0.25821887336E+04  0.00000000000E+00 0. -1.
          1   -1    0    0  501    0 -0.00000000000E+00 -0.00000000000E+00 -0.24810284451E+02  0.24810284451E+02  0.00000000000E+00 0. -1.
         25    2    1    2    0    0  0.76420665393E+01  0.22835142387E+02  0.45091031114E+03  0.46853449355E+03  0.12499847218E+03 0.  0.
          2    1    1    2  501    0 -0.31254220169E+02  0.27403879638E+02  0.12004710756E+02  0.43265598088E+02  0.00000000000E+00 0. -1.
          1    1    1    2  502    0  0.23612153629E+02 -0.50239022025E+02  0.20944634273E+04  0.20951989264E+04  0.00000000000E+00 0. -1.
         22    1    3    3    0    0 -0.42085876813E+02  0.54070926040E+02  0.24954911424E+03  0.25878494254E+03  0.00000000000E+00 0. -1.
         22    1    3    3    0    0  0.49727943352E+02 -0.31235783653E+02  0.20136119691E+03  0.20974955101E+03  0.00000000000E+00 0. -1.
</event>
<event>
 7    1  0.6078244E-006  0.1302505E+03  0.7818608E-02  0.1394109E+00
          2   -1    0    0  502    0  0.00000000000E+00  0.00000000000E+00  0.15903222012E+03  0.15903222012E+03  0.00000000000E+00 0. -1.
          1   -1    0    0  501    0 -0.00000000000E+00 -0.00000000000E+00 -0.96313032260E+03  0.96313032260E+03  0.00000000000E+00 0. -1.
         25    2    1    2    0    0  0.26705580936E+02  0.13978079264E+03 -0.41710488806E+03  0.45809768592E+03  0.12500057663E+03 0.  0.
          2    1    1    2  501    0 -0.45078375111E+02 -0.11803149751E+03 -0.51636470791E+03  0.53159759770E+03  0.00000000000E+00 0. -1.
          1    1    1    2  502    0  0.18372794175E+02 -0.21749295128E+02  0.12937149349E+03  0.13246725909E+03  0.00000000000E+00 0. -1.
         22    1    3    3    0    0  0.76159234966E+02  0.10116630932E+03 -0.27444745856E+03  0.30225197885E+03  0.00000000000E+00 0.  1.
         22    1    3    3    0    0 -0.49453654030E+02  0.38614483326E+02 -0.14265742950E+03  0.15584570707E+03  0.00000000000E+00 0.  1.
</event>
<event>
 7    1  0.6078244E-006  0.1560013E+03  0.7818608E-02  0.1224290E+00
          2   -1    0    0  502    0  0.00000000000E+00  0.00000000000E+00  0.10082767976E+04  0.10082767976E+04  0.00000000000E+00 0. -1.
          1   -1    0    0  501    0 -0.00000000000E+00 -0.00000000000E+00 -0.37514532657E+03  0.37514532657E+03  0.00000000000E+00 0. -1.
         25    2    1    2    0    0  0.68345771418E+02  0.95279665147E+02  0.12737077733E+03  0.21353543328E+03  0.12499882914E+03 0.  0.
          2    1    1    2  501    0 -0.16096737880E+03 -0.32386988992E+02 -0.30769490456E+03  0.34876291142E+03  0.00000000000E+00 0. -1.
          1    1    1    2  502    0  0.92621607380E+02 -0.62892676154E+02  0.81345559829E+03  0.82112377949E+03  0.00000000000E+00 0. -1.
         22    1    3    3    0    0  0.90952166764E+01  0.10336165566E+03  0.11010696615E+03  0.15129408059E+03  0.00000000000E+00 0.  1.
         22    1    3    3    0    0  0.59250554742E+02 -0.80819905134E+01  0.17263811181E+02  0.62241352687E+02  0.00000000000E+00 0.  1.
</event>
<event>
 7    1  0.6078244E-006  0.4954010E+02  0.7818608E-02  0.1452224E+00
          2   -1    0    0  502    0  0.00000000000E+00  0.00000000000E+00  0.17442384693E+04  0.17442384693E+04  0.00000000000E+00 0. -1.
          1   -1    0    0  501    0 -0.00000000000E+00 -0.00000000000E+00 -0.43070491077E+02  0.43070491077E+02  0.00000000000E+00 0. -1.
         25    2    1    2    0    0 -0.15237912381E+02 -0.34179555838E+02  0.72842610993E+03  0.74002003197E+03  0.12499845630E+03 0.  0.
          2    1    1    2  501    0 -0.37809765704E+02  0.29513827387E+02 -0.20828734519E+02  0.52292261103E+02  0.00000000000E+00 0. -1.
          1    1    1    2  502    0  0.53047678086E+02  0.46657284507E+01  0.99357060279E+03  0.99499666728E+03  0.00000000000E+00 0. -1.
         22    1    3    3    0    0 -0.26686743059E+02 -0.32443327053E+02  0.72715869980E+03  0.72837114607E+03  0.00000000000E+00 0.  1.
         22    1    3    3    0    0  0.11448830678E+02 -0.17362287846E+01  0.12674101260E+01  0.11648885900E+02  0.00000000000E+00 0.  1.
</event>
<event>
 7    1  0.6078244E-006  0.8274339E+02  0.7818608E-02  0.1363916E+00
          2   -1    0    0  502    0  0.00000000000E+00  0.00000000000E+00  0.64553038190E+03  0.64553038190E+03  0.00000000000E+00 0. -1.
          1   -1    0    0  501    0 -0.00000000000E+00 -0.00000000000E+00 -0.16849174647E+03  0.16849174647E+03  0.00000000000E+00 0. -1.
         25    2    1    2    0    0  0.11407545855E+01  0.91388365549E+02  0.36507978042E+02  0.15909613382E+03  0.12500245061E+03 0.  0.
          2    1    1    2  501    0  0.50775532487E+02 -0.67015296248E+02 -0.88920970073E+02  0.12237705483E+03  0.00000000000E+00 0. -1.
          1    1    1    2  502    0 -0.51916287072E+02 -0.24373069301E+02  0.52945162746E+03  0.53254893972E+03  0.00000000000E+00 0. -1.
         22    1    3    3    0    0 -0.42854421731E+02  0.20621337803E+02 -0.26670057761E+02  0.54525526276E+02  0.00000000000E+00 0.  1.
         22    1    3    3    0    0  0.43995176316E+02  0.70767027746E+02  0.63178035803E+02  0.10457060755E+03  0.00000000000E+00 0.  1.
</event>
<event>
 7    1  0.6078244E-006  0.8266741E+02  0.7818608E-02  0.1329395E+00
          2   -1    0    0  502    0  0.00000000000E+00  0.00000000000E+00  0.19289290807E+04  0.19289290807E+04  0.00000000000E+00 0. -1.
          1   -1    0    0  501    0 -0.00000000000E+00 -0.00000000000E+00 -0.36720095480E+03  0.36720095480E+03  0.00000000000E+00 0. -1.
         25    2    1    2    0    0  0.10434503463E+03 -0.16110097890E+02  0.59057323063E+03  0.61282078139E+03  0.12500059141E+03 0.  0.
          2    1    1    2  501    0 -0.56723770155E+02 -0.52343992621E+02 -0.35056499327E+03  0.35896141042E+03  0.00000000000E+00 0. -1.
          1    1    1    2  502    0 -0.47621264474E+02  0.68454090512E+02  0.13217198886E+04  0.13243478437E+04  0.00000000000E+00 0. -1.
         22    1    3    3    0    0  0.60486768513E+02 -0.69959572743E+02  0.37992101752E+03  0.39101530729E+03  0.00000000000E+00 0. -1.
         22    1    3    3    0    0  0.43858266117E+02  0.53849474852E+02  0.21065221311E+03  0.22180547409E+03  0.00000000000E+00 0. -1.
</event>
<event>
 7    1  0.6078244E-006  0.4856976E+02  0.7818608E-02  0.1523815E+00
          2   -1    0    0  502    0  0.00000000000E+00  0.00000000000E+00  0.18663945608E+04  0.18663945608E+04  0.00000000000E+00 0. -1.
          1   -1    0    0  501    0 -0.00000000000E+00 -0.00000000000E+00 -0.19810546182E+02  0.19810546182E+02  0.00000000000E+00 0. -1.
         25    2    1    2    0    0  0.13765673897E+02  0.17328253106E+02  0.58337728771E+03  0.59703026444E+03  0.12500525873E+03 0.  0.
          2    1    1    2  501    0  0.26542723138E+02  0.13240254753E+02  0.51549864390E+01  0.30106384417E+02  0.00000000000E+00 0. -1.
          1    1    1    2  502    0 -0.40308397034E+02 -0.30568507860E+02  0.12580517404E+04  0.12590684581E+04  0.00000000000E+00 0. -1.
         22    1    3    3    0    0  0.18849333515E+01  0.68643251500E+02  0.23977837257E+03  0.24941755532E+03  0.00000000000E+00 0. -1.
         22    1    3    3    0    0  0.11880740545E+02 -0.51314998394E+02  0.34359891514E+03  0.34761270912E+03  0.00000000000E+00 0. -1.
</event>
<event>
 7    1  0.6078244E-006  0.9811858E+02  0.7818608E-02  0.1338508E+00
          2   -1    0    0  502    0  0.00000000000E+00  0.00000000000E+00  0.32810544965E+03  0.32810544965E+03  0.00000000000E+00 0. -1.
          1   -1    0    0  501    0 -0.00000000000E+00 -0.00000000000E+00 -0.13714670692E+04  0.13714670692E+04  0.00000000000E+00 0. -1.
         25    2    1    2    0    0 -0.11398248329E+03  0.10417404816E+03 -0.61829533824E+02  0.20807197661E+03  0.12500726935E+03 0.  0.
          2    1    1    2  501    0  0.79539045987E+02 -0.54984740730E+02 -0.12310585701E+04  0.12348501871E+04  0.00000000000E+00 0. -1.
          1    1    1    2  502    0  0.34443437299E+02 -0.49189307429E+02  0.24952648443E+03  0.25665035509E+03  0.00000000000E+00 0. -1.
         22    1    3    3    0    0  0.20744104263E+02  0.22863229771E+02 -0.37930679137E+02  0.48905843793E+02  0.00000000000E+00 0. -1.
         22    1    3    3    0    0 -0.13472658755E+03  0.81310818387E+02 -0.23898854687E+02  0.15916613281E+03  0.00000000000E+00 0. -1.
</event>
<event>
 7    1  0.6078244E-006  0.3718329E+02  0.7818608E-02  0.1531974E+00
          2   -1    0    0  502    0  0.00000000000E+00  0.00000000000E+00  0.15406524921E+04  0.15406524921E+04  0.00000000000E+00 0. -1.
          1   -1    0    0  501    0 -0.00000000000E+00 -0.00000000000E+00 -0.16950339931E+03  0.16950339931E+03  0.00000000000E+00 0. -1.
         25    2    1    2    0    0 -0.28393550182E+02 -0.25653784814E+02  0.41737868026E+03  0.43737237060E+03  0.12500126985E+03 0.  0.
          2    1    1    2  501    0 -0.72242924351E+01  0.36474736704E+02 -0.15702353005E+03  0.16136599954E+03  0.00000000000E+00 0. -1.
          1    1    1    2  502    0  0.35617842617E+02 -0.10820951890E+02  0.11107939426E+04  0.11114175213E+04  0.00000000000E+00 0. -1.
         22    1    3    3    0    0 -0.55502711017E+02  0.88921913595E+01  0.83740818777E+02  0.10085706087E+03  0.00000000000E+00 0.  1.
         22    1    3    3    0    0  0.27109160835E+02 -0.34545976174E+02  0.33363786148E+03  0.33651530973E+03  0.00000000000E+00 0.  1.
</event>
<event>
 7    1  0.6078244E-006  0.1594590E+03  0.7818608E-02  0.1280743E+00
          2   -1    0    0  502    0  0.00000000000E+00  0.00000000000E+00  0.98101606842E+03  0.98101606842E+03  0.00000000000E+00 0. -1.
          1   -1    0    0  501    0 -0.00000000000E+00 -0.00000000000E+00 -0.86880277959E+02  0.86880277959E+02  0.00000000000E+00 0. -1.
         25    2    1    2    0    0  0.56257364063E+02 -0.20123180894E+03  0.38955216515E+03  0.45938508829E+03  0.12499855211E+03 0.  0.
          2    1    1    2  501    0 -0.44914916527E+02  0.13982432756E+03  0.58509137882E+02  0.15808703780E+03  0.00000000000E+00 0. -1.
          1    1    1    2  502    0 -0.11342447536E+02  0.61407481379E+02  0.44607448743E+03  0.45042422029E+03  0.00000000000E+00 0. -1.
         22    1    3    3    0    0  0.74524776449E+02 -0.69435996948E+02  0.23059582275E+03  0.25209072463E+03  0.00000000000E+00 0. -1.
         22    1    3    3    0    0 -0.18267412386E+02 -0.13179581199E+03  0.15895634240E+03  0.20729436365E+03  0.00000000000E+00 0. -1.
</event>
<event>
 7    1  0.6078244E-006  0.9777719E+02  0.7818608E-02  0.1338696E+00
          2   -1    0    0  502    0  0.00000000000E+00  0.00000000000E+00  0.25643354174E+04  0.25643354174E+04  0.00000000000E+00 0. -1.
          1   -1    0    0  501    0 -0.00000000000E+00 -0.00000000000E+00 -0.26708776857E+04  0.26708776857E+04  0.00000000000E+00 0. -1.
         25    2    1    2    0    0  0.90573802609E+02  0.10938910572E+03 -0.18658715718E+03  0.26572397208E+03  0.12499948777E+03 0.  0.
          2    1    1    2  501    0 -0.57555147378E+02 -0.17514673154E+02 -0.24434079554E+04  0.24441484806E+04  0.00000000000E+00 0. -1.
          1    1    1    2  502    0 -0.33018655231E+02 -0.91874432566E+02  0.25234528444E+04  0.25253406504E+04  0.00000000000E+00 0. -1.
         22    1    3    3    0    0 -0.11534543461E+02  0.18049532462E+02 -0.10307402953E+03  0.10527624081E+03  0.00000000000E+00 0.  1.
         22    1    3    3    0    0  0.10210834607E+03  0.91339573258E+02 -0.83513127644E+02  0.16044773127E+03  0.00000000000E+00 0.  1.
</event>
<event>
 7    1  0.6078244E-006  0.6866755E+02  0.7818608E-02  0.1373635E+00
          2   -1    0    0  502    0  0.00000000000E+00  0.00000000000E+00  0.66307034581E+03  0.66307034581E+03  0.00000000000E+00 0. -1.
          1   -1    0    0  501    0 -0.00000000000E+00 -0.00000000000E+00 -0.10951501156E+04  0.10951501156E+04  0.00000000000E+00 0. -1.
         25    2    1    2    0    0  0.22378225167E+02 -0.54951169081E+02  0.16530836522E+03  0.21557370067E+03  0.12499899545E+03 0.  0.
          2    1    1    2  501    0  0.41378813970E+02  0.55077890833E+02 -0.10667511418E+04  0.10689732358E+04  0.00000000000E+00 0. -1.
          1    1    1    2  502    0 -0.63757039137E+02 -0.12672175167E+00  0.46936300678E+03  0.47367352495E+03  0.00000000000E+00 0. -1.
         22    1    3    3    0    0  0.32121549108E+02 -0.14384768944E+02 -0.90116338471E+01  0.36330772622E+02  0.00000000000E+00 0. -1.
         22    1    3    3    0    0 -0.97433239414E+01 -0.40566400138E+02  0.17431999906E+03  0.17924292805E+03  0.00000000000E+00 0. -1.
</event>
<event>
 7    1  0.6078244E-006  0.1469132E+03  0.7818608E-02  0.1394885E+00
          2   -1    0    0  502    0  0.00000000000E+00  0.00000000000E+00  0.89353218329E+03  0.89353218329E+03  0.00000000000E+00 0. -1.
          1   -1    0    0  501    0 -0.00000000000E+00 -0.00000000000E+00 -0.14117563301E+03  0.14117563301E+03  0.00000000000E+00 0. -1.
         25    2    1    2    0    0  0.50428096989E+02 -0.15151167717E+03  0.18067277260E+03  0.27160339793E+03  0.12500789465E+03 0.  0.
          2    1    1    2  501    0 -0.27444407275E+02  0.14145925518E+03 -0.41071496852E+02  0.14983585759E+03  0.00000000000E+00 0. -1.
          1    1    1    2  502    0 -0.22983689714E+02  0.10052421995E+02  0.61275527453E+03  0.61326856078E+03  0.00000000000E+00 0. -1.
         22    1    3    3    0    0  0.53077469164E+02 -0.15570618940E+03  0.19577120012E+03  0.25571077010E+03  0.00000000000E+00 0. -1.
         22    1    3    3    0    0 -0.26493721751E+01  0.41945122255E+01 -0.15098427522E+02  0.15892627831E+02  0.00000000000E+00 0. -1.
</event>
<event>
 7    1  0.6078244E-006  0.1305128E+03  0.7818608E-02  0.1312594E+00
          2   -1    0    0  502    0  0.00000000000E+00  0.00000000000E+00  0.21310256456E+04  0.21310256456E+04  0.00000000000E+00 0. -1.
          1   -1    0    0  501    0 -0.00000000000E+00 -0.00000000000E+00 -0.88981204992E+02  0.88981204992E+02  0.00000000000E+00 0. -1.
         25    2    1    2    0    0  0.15248892464E+03 -0.59215085144E+02  0.44467168476E+03  0.49001993574E+03  0.12500932665E+03 0.  0.
          2    1    1    2  501    0 -0.99316847926E+02  0.79172330287E+02 -0.45152610967E+01  0.12709241420E+03  0.00000000000E+00 0. -1.
          1    1    1    2  502    0 -0.53172076716E+02 -0.19957245144E+02  0.16018880169E+04  0.16028945006E+04  0.00000000000E+00 0. -1.
         22    1    3    3    0    0  0.25407771166E+02  0.34162967946E+02  0.54319323264E+02  0.69016317595E+02  0.00000000000E+00 0. -1.
         22    1    3    3    0    0  0.12708115348E+03 -0.93378053090E+02  0.39035236150E+03  0.42100361815E+03  0.00000000000E+00 0. -1.
</event>
<event>
 7    1  0.6078244E-006  0.9386929E+02  0.7818608E-02  0.1351016E+00
          2   -1    0    0  502    0  0.00000000000E+00  0.00000000000E+00  0.83975602032E+02  0.83975602032E+02  0.00000000000E+00 0. -1.
          1   -1    0    0  501    0 -0.00000000000E+00 -0.00000000000E+00 -0.23136205468E+04  0.23136205468E+04  0.00000000000E+00 0. -1.
         25    2    1    2    0    0  0.84046868465E+02  0.92227103493E+01 -0.11716487170E+04  0.11813274019E+04  0.12499911964E+03 0.  0.
          2    1    1    2  501    0 -0.21446714425E+01 -0.56326080025E+02 -0.11079579980E+04  0.11093908924E+04  0.00000000000E+00 0. -1.
          1    1    1    2  502    0 -0.81902197022E+02  0.47103369675E+02  0.49961770189E+02  0.10687785455E+03  0.00000000000E+00 0. -1.
         22    1    3    3    0    0  0.66633257670E+01  0.57937497215E+02 -0.38722875479E+03  0.39159578909E+03  0.00000000000E+00 0.  1.
         22    1    3    3    0    0  0.77383542698E+02 -0.48714786866E+02 -0.78441996223E+03  0.78973161282E+03  0.00000000000E+00 0.  1.
</event>
<event>
 7    1  0.6078244E-006  0.6809222E+02  0.7818608E-02  0.1448824E+00
          2   -1    0    0  502    0  0.00000000000E+00  0.00000000000E+00  0.17122724381E+04  0.17122724381E+04  0.00000000000E+00 0. -1.
          1   -1    0    0  501    0 -0.00000000000E+00 -0.00000000000E+00 -0.67061948681E+02  0.67061948681E+02  0.00000000000E+00 0. -1.
         25    2    1    2    0    0 -0.99841817446E+02 -0.16920331805E+02  0.33653981401E+03  0.37301203375E+03  0.12499697905E+03 0.  0.
          2    1    1    2  501    0  0.65726974770E+02  0.61279580921E+01 -0.26164109937E+02  0.71008082157E+02  0.00000000000E+00 0. -1.
          1    1    1    2  502    0  0.34114842676E+02  0.10792373713E+02  0.13348347853E+04  0.13353142708E+04  0.00000000000E+00 0. -1.
         22    1    3    3    0    0 -0.25180896009E+02  0.17410622228E+01 -0.24843220275E+01  0.25362978481E+02  0.00000000000E+00 0.  1.
         22    1    3    3    0    0 -0.74660921437E+02 -0.18661394028E+02  0.33902413604E+03  0.34764905527E+03  0.00000000000E+00 0.  1.
</event>
<event>
 7    1  0.6078244E-006  0.6468964E+02  0.7818608E-02  0.1506588E+00
          2   -1    0    0  502    0  0.00000000000E+00  0.00000000000E+00  0.94393803450E+03  0.94393803450E+03  0.00000000000E+00 0. -1.
          1   -1    0    0  501    0 -0.00000000000E+00 -0.00000000000E+00 -0.68697324577E+03  0.68697324577E+03  0.00000000000E+00 0. -1.
         25    2    1    2    0    0 -0.70556849512E+02  0.19023506138E+01 -0.17658359241E+03  0.22757065547E+03  0.12499900068E+03 0.  0.
          2    1    1    2  501    0  0.60967104035E+02  0.21194096360E+02 -0.48257675631E+03  0.48687421705E+03  0.00000000000E+00 0. -1.
          1    1    1    2  502    0  0.95897454769E+01 -0.23096446974E+02  0.91612513745E+03  0.91646640776E+03  0.00000000000E+00 0. -1.
         22    1    3    3    0    0  0.23045740189E+02  0.35617538653E+02 -0.37867417129E+02  0.56865248444E+02  0.00000000000E+00 0. -1.
         22    1    3    3    0    0 -0.93602589701E+02 -0.33715188039E+02 -0.13871617528E+03  0.17070540702E+03  0.00000000000E+00 0. -1.
</event>
<event>
 7    1  0.6078244E-006  0.1735970E+03  0.7818608E-02  0.1227678E+00
          2   -1    0    0  502    0  0.00000000000E+00  0.00000000000E+00  0.19863409982E+04  0.19863409982E+04  0.00000000000E+00 0. -1.
          1   -1    0    0  501    0 -0.00000000000E+00 -0.00000000000E+00 -0.21668571717E+03  0.21668571717E+03  0.00000000000E+00 0. -1.
         25    2    1    2    0    0  0.79455870379E-01  0.14675332463E+03  0.19728465712E+03  0.27582993115E+03  0.12499748150E+03 0.  0.
          2    1    1    2  501    0 -0.96846588400E+02 -0.15511413709E+03 -0.12853556886E+03  0.22351968520E+03  0.00000000000E+00 0. -1.
          1    1    1    2  502    0  0.96767132529E+02  0.83608124595E+01  0.17009061928E+04  0.17036770991E+04  0.00000000000E+00 0. -1.
         22    1    3    3    0    0  0.10386206457E+02  0.16811439512E+03  0.17975348044E+03  0.24633643024E+03  0.00000000000E+00 0. -1.
         22    1    3    3    0    0 -0.10306750587E+02 -0.21361070495E+02  0.17531176677E+02  0.29493500912E+02  0.00000000000E+00 0. -1.
</event>
<event>
 7    1  0.6078244E-006  0.7073589E+02  0.7818608E-02  0.1453985E+00
          2   -1    0    0  502    0  0.00000000000E+00  0.00000000000E+00  0.29069165114E+03  0.29069165114E+03  0.00000000000E+00 0. -1.
          1   -1    0    0  501    0 -0.00000000000E+00 -0.00000000000E+00 -0.47809207955E+03  0.47809207955E+03  0.00000000000E+00 0. -1.
         25    2    1    2    0    0  0.60891618374E+02 -0.19292869859E+02 -0.68638300275E+02  0.15625799436E+03  0.12500136208E+03 0.  0.
          2    1    1    2  501    0  0.93780833819E+01  0.31807514586E+02 -0.35970649124E+03  0.36123181792E+03  0.00000000000E+00 0. -1.
          1    1    1    2  502    0 -0.70269701755E+02 -0.12514644727E+02  0.24094436311E+03  0.25129391841E+03  0.00000000000E+00 0. -1.
         22    1    3    3    0    0  0.22010865175E+02 -0.71699859100E+02 -0.39901748370E+02  0.84955856206E+02  0.00000000000E+00 0. -1.
         22    1    3    3    0    0  0.38880753199E+02  0.52406989241E+02 -0.28736551904E+02  0.71302138158E+02  0.00000000000E+00 0. -1.
</event>
<event>
 7    1  0.6078244E-006  0.7681326E+02  0.7818608E-02  0.1351832E+00
          2   -1    0    0  502    0  0.00000000000E+00  0.00000000000E+00  0.78290371928E+03  0.78290371928E+03  0.00000000000E+00 0. -1.
          1   -1    0    0  501    0 -0.00000000000E+00 -0.00000000000E+00 -0.36035446740E+02  0.36035446740E+02  0.00000000000E+00 0. -1.
         25    2    1    2    0    0 -0.16340677634E+02  0.44084928287E+02  0.29900004435E+03  0.32747049002E+03  0.12500158666E+03 0.  0.
          2    1    1    2  501    0  0.84404291997E+02 -0.37252224521E+02  0.96512204615E+02  0.13351561099E+03  0.00000000000E+00 0. -1.
          1    1    1    2  502    0 -0.68063614363E+02 -0.68327037666E+01  0.35135602358E+03  0.35795306501E+03  0.00000000000E+00 0. -1.
         22    1    3    3    0    0 -0.40212160342E+02  0.28614470151E+02  0.31691981388E+02  0.58653110963E+02  0.00000000000E+00 0.  1.
         22    1    3    3    0    0  0.23871482707E+02  0.15470458137E+02  0.26730806296E+03  0.26881737906E+03  0.00000000000E+00 0.  1.
</event>
<event>
 7    1  0.6078244E-006  0.9098586E+02  0.7818608E-02  0.1365065E+00
          2   -1    0    0  502    0  0.00000000000E+00  0.00000000000E+00  0.11494044814E+04  0.11494044814E+04  0.00000000000E+00 0. -1.
          1   -1    0    0  501    0 -0.00000000000E+00 -0.00000000000E+00 -0.22958403146E+03  0.22958403146E+03  0.00000000000E+00 0. -1.
         25    2    1    2    0    0 -0.10531682256E+03 -0.43163545887E+02  0.11042768609E+03  0.20191721142E+03  0.12498624566E+03 0.  0.
          2    1    1    2  501    0  0.15075669531E+02  0.49410350451E+02 -0.17810173229E+03  0.18544240505E+03  0.00000000000E+00 0. -1.
          1    1    1    2  502    0  0.90241153024E+02 -0.62468045641E+01  0.98749449618E+03  0.99162889644E+03  0.00000000000E+00 0. -1.
         22    1    3    3    0    0 -0.51914294818E+02 -0.99391019395E+01 -0.20478826144E+02  0.56685642574E+02  0.00000000000E+00 0.  1.
         22    1    3    3    0    0 -0.53402527737E+02 -0.33224443947E+02  0.13090651223E+03  0.14523156884E+03  0.00000000000E+00 0.  1.
</event>
<event>
 7    1  0.6078244E-006  0.6793502E+02  0.7818608E-02  0.1404020E+00
          2   -1    0    0  502    0  0.00000000000E+00  0.00000000000E+00  0.10992896868E+03  0.10992896868E+03  0.00000000000E+00 0. -1.
          1   -1    0    0  501    0 -0.00000000000E+00 -0.00000000000E+00 -0.61204730724E+03  0.61204730724E+03  0.00000000000E+00 0. -1.
         25    2    1    2    0    0 -0.16049813745E+02  0.19672703043E+02 -0.75385076822E+02  0.14815711317E+03  0.12499203418E+03 0.  0.
          2    1    1    2  501    0 -0.23115309682E+02  0.44855534279E+02 -0.47922728080E+03  0.48187666800E+03  0.00000000000E+00 0. -1.
          1    1    1    2  502    0  0.39165123427E+02 -0.64528237322E+02  0.52494019055E+02  0.91942494754E+02  0.00000000000E+00 0. -1.
         22    1    3    3    0    0 -0.20336242396E+02  0.71536216766E+02 -0.34530680546E+02  0.81996103340E+02  0.00000000000E+00 0. -1.
         22    1    3    3    0    0  0.42864286513E+01 -0.51863513723E+02 -0.40854396275E+02  0.66161009827E+02  0.00000000000E+00 0. -1.
</event>
<event>
 7    1  0.6078244E-006  0.6786822E+02  0.7818608E-02  0.1402202E+00
          2   -1    0    0  502    0  0.00000000000E+00  0.00000000000E+00  0.42141428845E+04  0.42141428845E+04  0.00000000000E+00 0. -1.
          1   -1    0    0  501    0 -0.00000000000E+00 -0.00000000000E+00 -0.37823632695E+03  0.37823632695E+03  0.00000000000E+00 0. -1.
         25    2    1    2    0    0  0.78440997780E+02 -0.45519608818E+02 -0.21369427742E+02  0.15590542728E+03  0.12499929958E+03 0.  0.
          2    1    1    2  501    0 -0.10750647098E+02  0.50099305441E+02 -0.28705256555E+03  0.29158993845E+03  0.00000000000E+00 0. -1.
          1    1    1    2  502    0 -0.67690350682E+02 -0.45796966231E+01  0.41443285509E+04  0.41448838458E+04  0.00000000000E+00 0. -1.
         22    1    3    3    0    0  0.27069938940E+02  0.20713163163E+02 -0.55721003508E+02  0.65319575583E+02  0.00000000000E+00 0.  1.
         22    1    3    3    0    0  0.51371058840E+02 -0.66232771981E+02  0.34351575766E+02  0.90585851700E+02  0.00000000000E+00 0.  1.
</event>
<event>
 7    1  0.7541789E-006  0.8849229E+02  0.7818608E-02  0.1417194E+00
          2   -1    0    0  502    0  0.00000000000E+00  0.00000000000E+00  0.10191415774E+04  0.10191415774E+04  0.00000000000E+00 0. -1.
          1   -1    0    0  501    0 -0.00000000000E+00 -0.00000000000E+00 -0.18036385926E+04  0.18036385926E+04  0.00000000000E+00 0. -1.
         25    2    1    2    0    0 -0.85392390588E+02 -0.79535799133E+02 -0.66649119006E+03  0.68807888155E+03  0.12499694834E+03 0.  0.
          2    1    1    2  501    0  0.53384478611E+02  0.65481500823E+02 -0.11244654187E+04  0.11276347846E+04  0.00000000000E+00 0. -1.
          1    1    1    2  502    0  0.32007911977E+02  0.14054298311E+02  0.10064595936E+04  0.10070665039E+04  0.00000000000E+00 0. -1.
         22    1    3    3    0    0  0.66408820211E+01 -0.55584026647E+02 -0.42278898685E+03  0.42647885380E+03  0.00000000000E+00 0. -1.
         22    1    3    3    0    0 -0.92033272609E+02 -0.23951772486E+02 -0.24370220321E+03  0.26160002775E+03  0.00000000000E+00 0. -1.
</event>
<event>
 7    1  0.6078244E-006  0.3161170E+03  0.7818608E-02  0.1268418E+00
          2   -1    0    0  502    0  0.00000000000E+00  0.00000000000E+00  0.44810011965E+03  0.44810011965E+03  0.00000000000E+00 0. -1.
          1   -1    0    0  501    0 -0.00000000000E+00 -0.00000000000E+00 -0.23767297291E+04  0.23767297291E+04  0.00000000000E+00 0. -1.
         25    2    1    2    0    0 -0.94746200807E+02  0.29271850030E+03 -0.15430362117E+04  0.15783678741E+04  0.12499372936E+03 0.  0.
          2    1    1    2  501    0  0.30956485390E+02  0.17285750903E+02 -0.75737621275E+03  0.75820566393E+03  0.00000000000E+00 0. -1.
          1    1    1    2  502    0  0.63789715417E+02 -0.31000425120E+03  0.37178281494E+03  0.48825631080E+03  0.00000000000E+00 0. -1.
         22    1    3    3    0    0 -0.68510679012E+02  0.11390244578E+03 -0.92323568300E+03  0.93275484810E+03  0.00000000000E+00 0.  1.
         22    1    3    3    0    0 -0.26235521795E+02  0.17881605451E+03 -0.61980052868E+03  0.64561302597E+03  0.00000000000E+00 0.  1.
</event>
<event>
 7    1  0.6078244E-006  0.1076161E+03  0.7818608E-02  0.1395547E+00
          2   -1    0    0  502    0  0.00000000000E+00  0.00000000000E+00  0.50690255484E+03  0.50690255484E+03  0.00000000000E+00 0. -1.
          1   -1    0    0  501    0 -0.00000000000E+00 -0.00000000000E+00 -0.39899914740E+03  0.39899914740E+03  0.00000000000E+00 0. -1.
         25    2    1    2    0    0 -0.90986812328E+02  0.57712958553E+02 -0.56859377541E+02  0.17457670540E+03  0.12503860065E+03 0.  0.
          2    1    1    2  501    0  0.68921776511E+02 -0.83667284995E+02 -0.27222393572E+03  0.29301245202E+03  0.00000000000E+00 0. -1.
          1    1    1    2  502    0  0.22065035816E+02  0.25954326442E+02  0.43698672070E+03  0.43831254481E+03  0.00000000000E+00 0. -1.
         22    1    3    3    0    0 -0.11693173829E+03  0.58110173117E+02 -0.66946921417E+02  0.14673688673E+03  0.00000000000E+00 0.  1.
         22    1    3    3    0    0  0.25944925961E+02 -0.39721456440E+00  0.10087543876E+02  0.27839818677E+02  0.00000000000E+00 0.  1.
</event>
<event>
 7    1  0.6078244E-006  0.1226059E+03  0.7818608E-02  0.1299289E+00
          2   -1    0    0  502    0  0.00000000000E+00  0.00000000000E+00  0.11997291112E+04  0.11997291112E+04  0.00000000000E+00 0. -1.
          1   -1    0    0  501    0 -0.00000000000E+00 -0.00000000000E+00 -0.19738551704E+04  0.19738551704E+04  0.00000000000E+00 0. -1.
         25    2    1    2    0    0 -0.16122705229E+03  0.61905355289E+02 -0.16551872585E+03  0.26990735036E+03  0.12500837478E+03 0.  0.
          2    1    1    2  501    0  0.39397926500E+02 -0.55751314358E+02 -0.17522338050E+04  0.17535631478E+04  0.00000000000E+00 0. -1.
          1    1    1    2  502    0  0.12182912579E+03 -0.61540409308E+01  0.11436264717E+04  0.11501137835E+04  0.00000000000E+00 0. -1.
         22    1    3    3    0    0 -0.13225946847E+03  0.94663928660E+02 -0.99333462488E+02  0.19058059492E+03  0.00000000000E+00 0. -1.
         22    1    3    3    0    0 -0.28967583823E+02 -0.32758573372E+02 -0.66185263367E+02  0.79326755441E+02  0.00000000000E+00 0. -1.
</event>
<event>
 7    1  0.6078244E-006  0.5515821E+02  0.7818608E-02  0.1433605E+00
          2   -1    0    0  502    0  0.00000000000E+00  0.00000000000E+00  0.86574179682E+02  0.86574179682E+02  0.00000000000E+00 0. -1.
          1   -1    0    0  501    0 -0.00000000000E+00 -0.00000000000E+00 -0.38478403933E+03  0.38478403933E+03  0.00000000000E+00 0. -1.
         25    2    1    2    0    0 -0.29361697372E+02  0.37161816060E+01 -0.74501662730E+02  0.14849941400E+03  0.12500263570E+03 0.  0.
          2    1    1    2  501    0  0.25033611507E+02 -0.53008561440E+02 -0.25675097890E+03  0.26335841444E+03  0.00000000000E+00 0. -1.
          1    1    1    2  502    0  0.43280858653E+01  0.49292379834E+02  0.33042781981E+02  0.59500390570E+02  0.00000000000E+00 0. -1.
         22    1    3    3    0    0  0.81595281666E+01 -0.48225691154E+02  0.16965960320E+01  0.48940511085E+02  0.00000000000E+00 0.  1.
         22    1    3    3    0    0 -0.37521225539E+02  0.51941872760E+02 -0.76198258762E+02  0.99558902917E+02  0.00000000000E+00 0.  1.
</event>
<event>
 7    1  0.6078244E-006  0.7951499E+02  0.7818608E-02  0.1369766E+00
          2   -1    0    0  502    0  0.00000000000E+00  0.00000000000E+00  0.11475009598E+04  0.11475009598E+04  0.00000000000E+00 0. -1.
          1   -1    0    0  501    0 -0.00000000000E+00 -0.00000000000E+00 -0.46027807809E+03  0.46027807809E+03  0.00000000000E+00 0. -1.
         25    2    1    2    0    0  0.34052039575E+02 -0.95041888163E+01  0.26550826746E+03  0.29558767088E+03  0.12501023990E+03 0.  0.
          2    1    1    2  501    0 -0.47216753231E+02  0.64805577993E+02 -0.44068502970E+03  0.44792017160E+03  0.00000000000E+00 0. -1.
          1    1    1    2  502    0  0.13164713656E+02 -0.55301389177E+02  0.86239964395E+03  0.86427119541E+03  0.00000000000E+00 0. -1.
         22    1    3    3    0    0  0.65767599099E+01  0.56641783662E+02  0.13842589029E+03  0.14971062931E+03  0.00000000000E+00 0.  1.
         22    1    3    3    0    0  0.27475279665E+02 -0.66145972479E+02  0.12708237718E+03  0.14587704157E+03  0.00000000000E+00 0.  1.
</event>
<event>
 7    1  0.6078244E-006  0.1072364E+03  0.7818608E-02  0.1405554E+00
          2   -1    0    0  502    0  0.00000000000E+00  0.00000000000E+00  0.10348377302E+04  0.10348377302E+04  0.00000000000E+00 0. -1.
          1   -1    0    0  501    0 -0.00000000000E+00 -0.00000000000E+00 -0.19304910370E+03  0.19304910370E+03  0.00000000000E+00 0. -1.
         25    2    1    2    0    0 -0.13206586366E+03 -0.77126653009E+01  0.23541875858E+02  0.18352188139E+03  0.12500073391E+03 0.  0.
          2    1    1    2  501    0  0.28068947826E+02 -0.14480990878E+02 -0.10774933467E+03  0.11228305327E+03  0.00000000000E+00 0. -1.
          1    1    1    2  502    0  0.10399691583E+03  0.22193656178E+02  0.92599608528E+03  0.93208189920E+03  0.00000000000E+00 0. -1.
         22    1    3    3    0    0 -0.13028779391E+03 -0.49853726441E+02  0.13408335044E+02  0.14014309377E+03  0.00000000000E+00 0. -1.
         22    1    3    3    0    0 -0.17780697499E+01  0.42141061140E+02  0.10133540814E+02  0.43378787621E+02  0.00000000000E+00 0. -1.
</event>
<event>
 7    1  0.6078244E-006  0.5729966E+02  0.7818608E-02  0.1518442E+00
          2   -1    0    0  502    0  0.00000000000E+00  0.00000000000E+00  0.26443507934E+03  0.26443507934E+03  0.00000000000E+00 0. -1.
          1   -1    0    0  501    0 -0.00000000000E+00 -0.00000000000E+00 -0.59924411304E+03  0.59924411304E+03  0.00000000000E+00 0. -1.
         25    2    1    2    0    0 -0.66892943021E+02  0.30049792140E+02  0.43431756489E+02  0.15129289113E+03  0.12500226239E+03 0.  0.
          2    1    1    2  501    0  0.11103516114E+02 -0.23577217760E+02 -0.54027053241E+03  0.54089871645E+03  0.00000000000E+00 0. -1.
          1    1    1    2  502    0  0.55789426907E+02 -0.64725743801E+01  0.16202974222E+03  0.17148758480E+03  0.00000000000E+00 0. -1.
         22    1    3    3    0    0 -0.98361866631E+02  0.40518561780E+02  0.49901655068E+02  0.11750313117E+03  0.00000000000E+00 0.  1.
         22    1    3    3    0    0  0.31468923610E+02 -0.10468769640E+02 -0.64698985792E+01  0.33789759966E+02  0.00000000000E+00 0.  1.
</event>
<event>
 7    1  0.6078244E-006  0.1307469E+03  0.7818608E-02  0.1337604E+00
          2   -1    0    0  502    0  0.00000000000E+00  0.00000000000E+00  0.63980900875E+03  0.63980900875E+03  0.00000000000E+00 0. -1.
          1   -1    0    0  501    0 -0.00000000000E+00 -0.00000000000E+00 -0.87822662593E+02  0.87822662593E+02  0.00000000000E+00 0. -1.
         25    2    1    2    0    0  0.51747420273E+02  0.12943855255E+03  0.23474105456E+03  0.30026881196E+03  0.12500344936E+03 0.  0.
          2    1    1    2  501    0 -0.45419511148E+02  0.39209126039E-01 -0.31520076758E+02  0.55285158670E+02  0.00000000000E+00 0. -1.
          1    1    1    2  502    0 -0.63279091252E+01 -0.12947776167E+03  0.34876536836E+03  0.37207770071E+03  0.00000000000E+00 0. -1.
         22    1    3    3    0    0  0.35382478703E+02 -0.16363465276E+02  0.34689399119E+02  0.52182729004E+02  0.00000000000E+00 0. -1.
         22    1    3    3    0    0  0.16364941570E+02  0.14580201782E+03  0.20005165544E+03  0.24808608296E+03  0.00000000000E+00 0. -1.
</event>
<event>
 7    1  0.6078244E-006  0.1185929E+03  0.7818608E-02  0.1421347E+00
          2   -1    0    0  502    0  0.00000000000E+00  0.00000000000E+00  0.67825977215E+03  0.67825977215E+03  0.00000000000E+00 0. -1.
          1   -1    0    0  501    0 -0.00000000000E+00 -0.00000000000E+00 -0.73424485960E+02  0.73424485960E+02  0.00000000000E+00 0. -1.
         25    2    1    2    0    0 -0.58691317170E+02  0.80514981098E+02  0.22408844162E+03  0.27525952667E+03  0.12499937785E+03 0.  0.
          2    1    1    2  501    0  0.71955997409E+02 -0.10201655092E+03  0.34859129500E+02  0.12961558986E+03  0.00000000000E+00 0. -1.
          1    1    1    2  502    0 -0.13264680239E+02  0.21501569825E+02  0.34588771507E+03  0.34680914158E+03  0.00000000000E+00 0. -1.
         22    1    3    3    0    0  0.13476049029E+02 -0.15887654223E+02  0.10075272758E+03  0.10288407831E+03  0.00000000000E+00 0. -1.
         22    1    3    3    0    0 -0.72167366199E+02  0.96402635322E+02  0.12333571404E+03  0.17237544836E+03  0.00000000000E+00 0. -1.
</event>
<event>
 7    1  0.6078244E-006  0.7142748E+02  0.7818608E-02  0.1395968E+00
          2   -1    0    0  502    0  0.00000000000E+00  0.00000000000E+00  0.13737380147E+04  0.13737380147E+04  0.00000000000E+00 0. -1.
          1   -1    0    0  501    0 -0.00000000000E+00 -0.00000000000E+00 -0.23225470129E+04  0.23225470129E+04  0.00000000000E+00 0. -1.
         25    2    1    2    0    0  0.45348970163E+02  0.11170804066E+03  0.48317508598E+03  0.51343751498E+03  0.12499881056E+03 0.  0.
          2    1    1    2  501    0 -0.16555130100E+02 -0.69428071498E+02 -0.23061159416E+04  0.23072202031E+04  0.00000000000E+00 0. -1.
          1    1    1    2  502    0 -0.28793840063E+02 -0.42279969160E+02  0.87413185746E+03  0.87562730956E+03  0.00000000000E+00 0. -1.
         22    1    3    3    0    0  0.76089292423E+02  0.11686930183E+03  0.42697245231E+03  0.44916977766E+03  0.00000000000E+00 0.  1.
         22    1    3    3    0    0 -0.30740322260E+02 -0.51612611734E+01  0.56202633670E+02  0.64267737326E+02  0.00000000000E+00 0.  1.
</event>
<event>
 7    1  0.6078244E-006  0.3823211E+03  0.7818608E-02  0.1197235E+00
          2   -1    0    0  502    0  0.00000000000E+00  0.00000000000E+00  0.91900160027E+03  0.91900160027E+03  0.00000000000E+00 0. -1.
          1   -1    0    0  501    0 -0.00000000000E+00 -0.00000000000E+00 -0.36235811431E+03  0.36235811431E+03  0.00000000000E+00 0. -1.
         25    2    1    2    0    0 -0.83804499237E+02  0.34143347481E+03  0.11325753201E+03  0.38993750360E+03  0.12499590530E+03 0.  0.
          2    1    1    2  501    0  0.32717412309E+02  0.51438314405E+02 -0.15908247368E+03  0.17036303205E+03  0.00000000000E+00 0. -1.
          1    1    1    2  502    0  0.51087086928E+02 -0.39287178922E+03  0.60246842764E+03  0.72105917893E+03  0.00000000000E+00 0. -1.
         22    1    3    3    0    0 -0.64114197787E+01  0.25290964847E+03  0.55827535178E+02  0.25907742140E+03  0.00000000000E+00 0.  1.
         22    1    3    3    0    0 -0.77393079458E+02  0.88523826340E+02  0.57429996830E+02  0.13086008220E+03  0.00000000000E+00 0.  1.
</event>
<event>
 7    1  0.6078244E-006  0.5886101E+02  0.7818608E-02  0.1438511E+00
          2   -1    0    0  502    0  0.00000000000E+00  0.00000000000E+00  0.11250255680E+03  0.11250255680E+03  0.00000000000E+00 0. -1.
          1   -1    0    0  501    0 -0.00000000000E+00 -0.00000000000E+00 -0.49826702570E+03  0.49826702570E+03  0.00000000000E+00 0. -1.
         25    2    1    2    0    0  0.64389486907E+02  0.41640576070E+02 -0.24948772135E+03  0.28939091554E+03  0.12499214092E+03 0.  0.
          2    1    1    2  501    0 -0.21328231081E+02 -0.53599399408E+02 -0.21947896160E+03  0.22693347845E+03  0.00000000000E+00 0. -1.
          1    1    1    2  502    0 -0.43061255826E+02  0.11958823338E+02  0.83202214048E+02  0.94445188503E+02  0.00000000000E+00 0. -1.
         22    1    3    3    0    0  0.40951296674E+02  0.65568348692E+02 -0.62453940950E+02  0.99381647148E+02  0.00000000000E+00 0. -1.
         22    1    3    3    0    0  0.23438190233E+02 -0.23927772622E+02 -0.18703378040E+03  0.19000926840E+03  0.00000000000E+00 0. -1.
</event>
<event>
 7    1  0.6078244E-006  0.7137681E+02  0.7818608E-02  0.1435640E+00
          2   -1    0    0  502    0  0.00000000000E+00  0.00000000000E+00  0.11794197136E+04  0.11794197136E+04  0.00000000000E+00 0. -1.
          1   -1    0    0  501    0 -0.00000000000E+00 -0.00000000000E+00 -0.20329809421E+04  0.20329809421E+04  0.00000000000E+00 0. -1.
         25    2    1    2    0    0  0.47759757652E+02  0.94450083586E+02  0.30217388180E+03  0.34370760983E+03  0.12499621382E+03 0.  0.
          2    1    1    2  501    0 -0.42669003129E+02 -0.57138641738E+02 -0.20111678961E+04  0.20124318062E+04  0.00000000000E+00 0. -1.
          1    1    1    2  502    0 -0.50907545228E+01 -0.37311441849E+02  0.85543278582E+03  0.85626123966E+03  0.00000000000E+00 0. -1.
         22    1    3    3    0    0  0.88245498579E+02  0.42773595110E+02  0.17593888145E+03  0.20142328183E+03  0.00000000000E+00 0. -1.
         22    1    3    3    0    0 -0.40485740927E+02  0.51676488476E+02  0.12623500036E+03  0.14228432800E+03  0.00000000000E+00 0. -1.
</event>
<event>
 7    1  0.6078244E-006  0.1151602E+03  0.7818608E-02  0.1404749E+00
          2   -1    0    0  502    0  0.00000000000E+00  0.00000000000E+00  0.11178197047E+04  0.11178197047E+04  0.00000000000E+00 0. -1.
          1   -1    0    0  501    0 -0.00000000000E+00 -0.00000000000E+00 -0.42076492455E+03  0.42076492455E+03  0.00000000000E+00 0. -1.
         25    2    1    2    0    0 -0.22312651525E+02 -0.13638344010E+03  0.16190459195E+03  0.24684753417E+03  0.12498924385E+03 0.  0.
          2    1    1    2  501    0  0.33827469588E+02  0.10911737836E+03 -0.36942103260E+03  0.38668178039E+03  0.00000000000E+00 0. -1.
          1    1    1    2  502    0 -0.11514818063E+02  0.27266061737E+02  0.90457122077E+03  0.90505531467E+03  0.00000000000E+00 0. -1.
         22    1    3    3    0    0 -0.10847712171E+01 -0.13753274367E+02 -0.21294930069E+02  0.25373279864E+02  0.00000000000E+00 0.  1.
         22    1    3    3    0    0 -0.21227880308E+02 -0.12263016573E+03  0.18319952202E+03  0.22147425430E+03  0.00000000000E+00 0.  1.
</event>
<event>
 7    1  0.6078244E-006  0.6972944E+02  0.7818608E-02  0.1388754E+00
          2   -1    0    0  502    0  0.00000000000E+00  0.00000000000E+00  0.23530744610E+04  0.23530744610E+04  0.00000000000E+00 0. -1.
          1   -1    0    0  501    0 -0.00000000000E+00 -0.00000000000E+00 -0.88908785502E+03  0.88908785502E+03  0.00000000000E+00 0. -1.
         25    2    1    2    0    0 -0.53077059613E+02  0.74741377601E+02  0.20263442926E+03  0.25512656086E+03  0.12500160939E+03 0.  0.
          2    1    1    2  501    0  0.55277817296E+02 -0.51286734524E+01 -0.86137709972E+03  0.86316420703E+03  0.00000000000E+00 0. -1.
          1    1    1    2  502    0 -0.22007576834E+01 -0.69612704149E+02  0.21227292764E+04  0.21238715481E+04  0.00000000000E+00 0. -1.
         22    1    3    3    0    0  0.27430738800E+02 -0.13732853780E+02  0.70522191814E+02  0.76905241969E+02  0.00000000000E+00 0. -1.
         22    1    3    3    0    0 -0.80507798413E+02  0.88474231381E+02  0.13211223744E+03  0.17822131889E+03  0.00000000000E+00 0. -1.
</event>
<event>
 7    1  0.6078244E-006  0.6258389E+02  0.7818608E-02  0.1468153E+00
          2   -1    0    0  502    0  0.00000000000E+00  0.00000000000E+00  0.22959610609E+04  0.22959610609E+04  0.00000000000E+00 0. -1.
          1   -1    0    0  501    0 -0.00000000000E+00 -0.00000000000E+00 -0.80580659725E+01  0.80580659725E+01  0.00000000000E+00 0. -1.
         25    2    1    2    0    0 -0.57463580577E+02 -0.35539001447E+02  0.10793141683E+04  0.10886338879E+04  0.12505832349E+03 0.  0.
          2    1    1    2  501    0 -0.55613029667E+01  0.33360219567E+02  0.11225389723E+03  0.11723809015E+03  0.00000000000E+00 0. -1.
          1    1    1    2  502    0  0.63024883544E+02  0.21787818800E+01  0.10963349294E+04  0.10981471489E+04  0.00000000000E+00 0. -1.
         22    1    3    3    0    0 -0.56069810486E+02 -0.62099126548E+02  0.39313040515E+03  0.40193487112E+03  0.00000000000E+00 0. -1.
         22    1    3    3    0    0 -0.13937700912E+01  0.26560125101E+02  0.68618376310E+03  0.68669901673E+03  0.00000000000E+00 0. -1.
</event>
<event>
 7    1  0.6078244E-006  0.5424497E+02  0.7818608E-02  0.1470574E+00
          2   -1    0    0  502    0  0.00000000000E+00  0.00000000000E+00  0.22816430071E+03  0.22816430071E+03  0.00000000000E+00 0. -1.
          1   -1    0    0  501    0 -0.00000000000E+00 -0.00000000000E+00 -0.45751113634E+03  0.45751113634E+03  0.00000000000E+00 0. -1.
         25    2    1    2    0    0 -0.85192859182E+02 -0.27588479604E+02  0.11264597458E+02  0.15417341946E+03  0.12499441847E+03 0.  0.
          2    1    1    2  501    0  0.34271347641E+02  0.17206559796E+02 -0.38041949868E+03  0.38234746755E+03  0.00000000000E+00 0. -1.
          1    1    1    2  502    0  0.50921511541E+02  0.10381919808E+02  0.13980806558E+03  0.14915455004E+03  0.00000000000E+00 0. -1.
         22    1    3    3    0    0  0.25945909519E+01 -0.39250307743E+02 -0.36407513892E+02  0.53598746515E+02  0.00000000000E+00 0. -1.
         22    1    3    3    0    0 -0.87787450134E+02  0.11661828139E+02  0.47672111351E+02  0.10057467294E+03  0.00000000000E+00 0. -1.
</event>
<event>
 7    1  0.6078244E-006  0.9769840E+02  0.7818608E-02  0.1374566E+00
          2   -1    0    0  502    0  0.00000000000E+00  0.00000000000E+00  0.53201580837E+03  0.53201580837E+03  0.00000000000E+00 0. -1.
          1   -1    0    0  501    0 -0.00000000000E+00 -0.00000000000E+00 -0.95136136113E+03  0.95136136113E+03  0.00000000000E+00 0. -1.
         25    2    1    2    0    0 -0.13004771830E+01  0.55968653189E+02  0.33274929299E+02  0.14091997195E+03  0.12496814072E+03 0.  0.
          2    1    1    2  501    0 -0.12537686287E+02 -0.98230809015E+02 -0.89368586032E+03  0.89915566081E+03  0.00000000000E+00 0. -1.
          1    1    1    2  502    0  0.13838163469E+02  0.42262155826E+02  0.44106537826E+03  0.44330153675E+03  0.00000000000E+00 0. -1.
         22    1    3    3    0    0  0.11294371270E+02 -0.11683554682E+02  0.63655841624E+02  0.65697294048E+02  0.00000000000E+00 0.  1.
         22    1    3    3    0    0 -0.12594848453E+02  0.67652207872E+02 -0.30380912325E+02  0.75222677905E+02  0.00000000000E+00 0.  1.
</event>
<event>
 7    1  0.6078244E-006  0.8308532E+02  0.7818608E-02  0.1408668E+00
          2   -1    0    0  502    0  0.00000000000E+00  0.00000000000E+00  0.85408117328E+02  0.85408117328E+02  0.00000000000E+00 0. -1.
          1   -1    0    0  501    0 -0.00000000000E+00 -0.00000000000E+00 -0.13042091260E+04  0.13042091260E+04  0.00000000000E+00 0. -1.
         25    2    1    2    0    0  0.99074311521E+02 -0.55135648939E+02 -0.15061604974E+03  0.22619763187E+03  0.12499806093E+03 0.  0.
          2    1    1    2  501    0 -0.39531532895E+02  0.44616213158E+01 -0.10830935961E+04  0.10838239645E+04  0.00000000000E+00 0. -1.
          1    1    1    2  502    0 -0.59542778626E+02  0.50674027623E+02  0.14908637101E+02  0.79595647006E+02  0.00000000000E+00 0. -1.
         22    1    3    3    0    0 -0.16718958268E+02  0.12915423914E+02  0.38833687119E+01  0.21480509608E+02  0.00000000000E+00 0. -1.
         22    1    3    3    0    0  0.11579326979E+03 -0.68051072853E+02 -0.15449941846E+03  0.20471712226E+03  0.00000000000E+00 0. -1.
</event>
<event>
 7    1  0.6078244E-006  0.8251916E+02  0.7818608E-02  0.1368623E+00
          2   -1    0    0  502    0  0.00000000000E+00  0.00000000000E+00  0.64346825817E+03  0.64346825817E+03  0.00000000000E+00 0. -1.
          1   -1    0    0  501    0 -0.00000000000E+00 -0.00000000000E+00 -0.29326341283E+03  0.29326341283E+03  0.00000000000E+00 0. -1.
         25    2    1    2    0    0  0.72292242577E+02  0.34856163589E+02  0.11953492540E+03  0.19066809520E+03  0.12499841464E+03 0.  0.
          2    1    1    2  501    0 -0.81016613193E+02  0.19749771110E+02 -0.24932151507E+03  0.26289724789E+03  0.00000000000E+00 0. -1.
          1    1    1    2  502    0  0.87243706156E+01 -0.54605934699E+02  0.47999143501E+03  0.48316632791E+03  0.00000000000E+00 0. -1.
         22    1    3    3    0    0  0.77764497051E+02  0.50769997603E+02  0.13758150315E+03  0.16599270968E+03  0.00000000000E+00 0.  1.
         22    1    3    3    0    0 -0.54722544736E+01 -0.15913834014E+02 -0.18046577753E+02  0.24675385521E+02  0.00000000000E+00 0.  1.
</event>
<event>
 7    1  0.6078244E-006  0.7102482E+02  0.7818608E-02  0.1389301E+00
          2   -1    0    0  502    0  0.00000000000E+00  0.00000000000E+00  0.31092355654E+04  0.31092355654E+04  0.00000000000E+00 0. -1.
          1   -1    0    0  501    0 -0.00000000000E+00 -0.00000000000E+00 -0.35598587105E+03  0.35598587105E+03  0.00000000000E+00 0. -1.
         25    2    1    2    0    0  0.45734759661E+02 -0.56239793477E+02 -0.15987374274E+03  0.21550179481E+03  0.12500730913E+03 0.  0.
          2    1    1    2  501    0  0.51474965614E+01  0.75094035800E+02 -0.15963052579E+03  0.17648658787E+03  0.00000000000E+00 0. -1.
          1    1    1    2  502    0 -0.50882256222E+02 -0.18854242323E+02  0.30727539629E+04  0.30732330538E+04  0.00000000000E+00 0. -1.
         22    1    3    3    0    0  0.78016834964E+02 -0.27263250774E+02 -0.14961993723E+03  0.17092699318E+03  0.00000000000E+00 0. -1.
         22    1    3    3    0    0 -0.32282075303E+02 -0.28976542703E+02 -0.10253805508E+02  0.44574801629E+02  0.00000000000E+00 0. -1.
</event>
<event>
 7    1  0.6078244E-006  0.4821787E+02  0.7818608E-02  0.1460009E+00
          2   -1    0    0  502    0  0.00000000000E+00  0.00000000000E+00  0.27402209249E+04  0.27402209249E+04  0.00000000000E+00 0. -1.
          1   -1    0    0  501    0 -0.00000000000E+00 -0.00000000000E+00 -0.34042985085E+02  0.34042985085E+02  0.00000000000E+00 0. -1.
         25    2    1    2    0    0 -0.46028778860E+02  0.21976014725E+02  0.14577930261E+04  0.14640308298E+04  0.12499667899E+03 0.  0.
          2    1    1    2  501    0  0.44123809384E+01 -0.48015555036E+02 -0.11355120813E+02  0.49536869094E+02  0.00000000000E+00 0. -1.
          1    1    1    2  502    0  0.41616397922E+02  0.26039540311E+02  0.12597400345E+04  0.12606962111E+04  0.00000000000E+00 0. -1.
         22    1    3    3    0    0  0.36330024623E+02  0.15424074267E+02  0.22215673257E+03  0.22563551711E+03  0.00000000000E+00 0. -1.
         22    1    3    3    0    0 -0.82358803483E+02  0.65519404586E+01  0.12356362936E+04  0.12383953127E+04  0.00000000000E+00 0. -1.
</event>
<event>
 7    1  0.6078244E-006  0.4364080E+02  0.7818608E-02  0.1521752E+00
          2   -1    0    0  502    0  0.00000000000E+00  0.00000000000E+00  0.22752045899E+03  0.22752045899E+03  0.00000000000E+00 0. -1.
          1   -1    0    0  501    0 -0.00000000000E+00 -0.00000000000E+00 -0.22291541257E+03  0.22291541257E+03  0.00000000000E+00 0. -1.
         25    2    1    2    0    0  0.70441836621E+02 -0.18031928829E+02 -0.12293465186E+03  0.18981027055E+03  0.12501122900E+03 0.  0.
          2    1    1    2  501    0 -0.33232305633E+02 -0.39696088191E+01 -0.59710455891E+02  0.68450584180E+02  0.00000000000E+00 0. -1.
          1    1    1    2  502    0 -0.37209530989E+02  0.22001537649E+02  0.18725015417E+03  0.19217501682E+03  0.00000000000E+00 0. -1.
         22    1    3    3    0    0  0.49827078456E+02  0.12103620225E+02 -0.14030197440E+03  0.14937830964E+03  0.00000000000E+00 0. -1.
         22    1    3    3    0    0  0.20614758165E+02 -0.30135549055E+02  0.17367322544E+02  0.40431960915E+02  0.00000000000E+00 0. -1.
</event>
<event>
 7    1  0.6078244E-006  0.8631390E+02  0.7818608E-02  0.1318396E+00
          2   -1    0    0  502    0  0.00000000000E+00  0.00000000000E+00  0.95400094717E+03  0.95400094717E+03  0.00000000000E+00 0. -1.
          1   -1    0    0  501    0 -0.00000000000E+00 -0.00000000000E+00 -0.91388152609E+02  0.91388152609E+02  0.00000000000E+00 0. -1.
         25    2    1    2    0    0 -0.47315700265E+02 -0.12723133455E+02  0.38699028399E+01  0.13431243314E+03  0.12499679968E+03 0.  0.
          2    1    1    2  501    0 -0.94076573212E+01  0.80964057214E+02  0.46178055820E+02  0.93680816693E+02  0.00000000000E+00 0. -1.
          1    1    1    2  502    0  0.56723357586E+02 -0.68240923759E+02  0.81256483590E+03  0.81739584995E+03  0.00000000000E+00 0. -1.
         22    1    3    3    0    0 -0.72241523392E+02 -0.49524629106E+02  0.14066532057E+02  0.88709604408E+02  0.00000000000E+00 0.  1.
         22    1    3    3    0    0  0.24925823127E+02  0.36801495651E+02 -0.10196629217E+02  0.45602828729E+02  0.00000000000E+00 0.  1.
</event>
<event>
 7    1  0.6078244E-006  0.1002556E+03  0.7818608E-02  0.1321974E+00
          2   -1    0    0  502    0  0.00000000000E+00  0.00000000000E+00  0.73196008627E+03  0.73196008627E+03  0.00000000000E+00 0. -1.
          1   -1    0    0  501    0 -0.00000000000E+00 -0.00000000000E+00 -0.54084095554E+02  0.54084095554E+02  0.00000000000E+00 0. -1.
         25    2    1    2    0    0  0.32880446218E+02  0.73708485636E+02  0.33728867201E+03  0.36864870731E+03  0.12499662608E+03 0.  0.
          2    1    1    2  501    0 -0.51417717618E+02  0.44448663981E+02  0.13725247835E+02  0.69338646099E+02  0.00000000000E+00 0. -1.
          1    1    1    2  502    0  0.18537271401E+02 -0.11815714962E+03  0.32686207087E+03  0.34805682842E+03  0.00000000000E+00 0. -1.
         22    1    3    3    0    0  0.53057189993E+02  0.26613404867E+02  0.29861158762E+03  0.30445396858E+03  0.00000000000E+00 0.  1.
         22    1    3    3    0    0 -0.20176743775E+02  0.47095080770E+02  0.38677084398E+02  0.64194738722E+02  0.00000000000E+00 0.  1.
</event>
<event>
 7    1  0.6078244E-006  0.5240162E+02  0.7818608E-02  0.1512611E+00
          2   -1    0    0  502    0  0.00000000000E+00  0.00000000000E+00  0.32732894974E+03  0.32732894974E+03  0.00000000000E+00 0. -1.
          1   -1    0    0  501    0 -0.00000000000E+00 -0.00000000000E+00 -0.68560841399E+03  0.68560841399E+03  0.00000000000E+00 0. -1.
         25    2    1    2    0    0 -0.33274220158E+02 -0.39930537458E+02 -0.39228797982E+03  0.41499020710E+03  0.12500156532E+03 0.  0.
          2    1    1    2  501    0  0.69682065723E+01  0.53581119944E+02 -0.27867369196E+03  0.28386355685E+03  0.00000000000E+00 0. -1.
          1    1    1    2  502    0  0.26306013586E+02 -0.13650582486E+02  0.31268220752E+03  0.31408359979E+03  0.00000000000E+00 0. -1.
         22    1    3    3    0    0 -0.15077411677E+02  0.44946349090E+02 -0.11357778547E+03  0.12307483899E+03  0.00000000000E+00 0.  1.
         22    1    3    3    0    0 -0.18196808481E+02 -0.84876886548E+02 -0.27871019435E+03  0.29191536812E+03  0.00000000000E+00 0.  1.
</event>
<event>
 7    1  0.6078244E-006  0.5524389E+02  0.7818608E-02  0.1479956E+00
          2   -1    0    0  502    0  0.00000000000E+00  0.00000000000E+00  0.31667781748E+04  0.31667781748E+04  0.00000000000E+00 0. -1.
          1   -1    0    0  501    0 -0.00000000000E+00 -0.00000000000E+00 -0.26391604769E+03  0.26391604769E+03  0.00000000000E+00 0. -1.
         25    2    1    2    0    0  0.41058172100E+02  0.83824058706E+01  0.52455826417E+02  0.14189010899E+03  0.12500060432E+03 0.  0.
          2    1    1    2  501    0 -0.62353490962E+01  0.34668633323E+02 -0.21753232244E+03  0.22036584359E+03  0.00000000000E+00 0. -1.
          1    1    1    2  502    0 -0.34822823004E+02 -0.43051039193E+02  0.30679386232E+04  0.30684382700E+04  0.00000000000E+00 0. -1.
         22    1    3    3    0    0  0.38078514478E+02  0.64004468981E+02  0.18804615100E+02  0.76812491585E+02  0.00000000000E+00 0.  1.
         22    1    3    3    0    0  0.29796576221E+01 -0.55622063111E+02  0.33651211317E+02  0.65077617407E+02  0.00000000000E+00 0.  1.
</event>
<event>
 7    1  0.6078244E-006  0.6731656E+02  0.7818608E-02  0.1414403E+00
          2   -1    0    0  502    0  0.00000000000E+00  0.00000000000E+00  0.66251414031E+03  0.66251414031E+03  0.00000000000E+00 0. -1.
          1   -1    0    0  501    0 -0.00000000000E+00 -0.00000000000E+00 -0.74224438195E+03  0.74224438195E+03  0.00000000000E+00 0. -1.
         25    2    1    2    0    0 -0.26707670887E+02 -0.75571781251E+02  0.38363948930E+03  0.41137137822E+03  0.12499103672E+03 0.  0.
          2    1    1    2  501    0  0.45545898463E+02  0.11426025347E+02 -0.72338863495E+03  0.72491109806E+03  0.00000000000E+00 0. -1.
          1    1    1    2  502    0 -0.18838227577E+02  0.64145755904E+02  0.26001890401E+03  0.26847604597E+03  0.00000000000E+00 0. -1.
         22    1    3    3    0    0  0.30175027939E+02 -0.11278459222E+02  0.25305591837E+03  0.25509808657E+03  0.00000000000E+00 0. -1.
         22    1    3    3    0    0 -0.56882698826E+02 -0.64293322029E+02  0.13058357094E+03  0.15627329165E+03  0.00000000000E+00 0. -1.
</event>
<event>
 7    1  0.6078244E-006  0.2872884E+02  0.7818608E-02  0.1619388E+00
          2   -1    0    0  502    0  0.00000000000E+00  0.00000000000E+00  0.83033940406E+01  0.83033940406E+01  0.00000000000E+00 0. -1.
          1   -1    0    0  501    0 -0.00000000000E+00 -0.00000000000E+00 -0.20068648394E+04  0.20068648394E+04  0.00000000000E+00 0. -1.
         25    2    1    2    0    0  0.63619960666E+01 -0.11669368590E+02 -0.13612805007E+04  0.13670719161E+04  0.12499749257E+03 0.  0.
          2    1    1    2  501    0 -0.30354185678E+02 -0.41331992362E+01 -0.60117671379E+03  0.60195672696E+03  0.00000000000E+00 0. -1.
          1    1    1    2  502    0  0.23992189612E+02  0.15802567826E+02 -0.36104230944E+02  0.46139590422E+02  0.00000000000E+00 0. -1.
         22    1    3    3    0    0  0.64975735512E+02 -0.10392982677E+02 -0.81595926211E+03  0.81860819548E+03  0.00000000000E+00 0.  1.
         22    1    3    3    0    0 -0.58613739445E+02 -0.12763859129E+01 -0.54532123856E+03  0.54846372062E+03  0.00000000000E+00 0.  1.
</event>
<event>
 7    1  0.6078244E-006  0.1513364E+03  0.7818608E-02  0.1239484E+00
          2   -1    0    0  502    0  0.00000000000E+00  0.00000000000E+00  0.21546879645E+04  0.21546879645E+04  0.00000000000E+00 0. -1.
          1   -1    0    0  501    0 -0.00000000000E+00 -0.00000000000E+00 -0.71304700659E+02  0.71304700659E+02  0.00000000000E+00 0. -1.
         25    2    1    2    0    0 -0.25154753956E+02  0.10489881753E+03  0.12119929372E+04  0.12231879594E+04  0.12500152255E+03 0.  0.
          2    1    1    2  501    0 -0.66362091810E+02 -0.14186407433E+03  0.34833370382E+02  0.16044533807E+03  0.00000000000E+00 0. -1.
          1    1    1    2  502    0  0.91516845765E+02  0.36965256795E+02  0.83655695626E+03  0.84235936769E+03  0.00000000000E+00 0. -1.
         22    1    3    3    0    0  0.43085159405E+02  0.82544893853E+02  0.65493272517E+03  0.66151860515E+03  0.00000000000E+00 0. -1.
         22    1    3    3    0    0 -0.68239913361E+02  0.22353923681E+02  0.55706021203E+03  0.56166935425E+03  0.00000000000E+00 0. -1.
</event>
<event>
 7    1  0.6078244E-006  0.6972651E+02  0.7818608E-02  0.1362827E+00
          2   -1    0    0  502    0  0.00000000000E+00  0.00000000000E+00  0.11042469444E+04  0.11042469444E+04  0.00000000000E+00 0. -1.
          1   -1    0    0  501    0 -0.00000000000E+00 -0.00000000000E+00 -0.63593343679E+03  0.63593343679E+03  0.00000000000E+00 0. -1.
         25    2    1    2    0    0  0.89258109650E+02 -0.70805748333E+02  0.13774377493E+03  0.21812560515E+03  0.12499987182E+03 0.  0.
          2    1    1    2  501    0 -0.69255991161E+02  0.51009328005E+01 -0.59243857191E+03  0.59649465489E+03  0.00000000000E+00 0. -1.
          1    1    1    2  502    0 -0.20002118490E+02  0.65704815532E+02  0.92300830460E+03  0.92556012116E+03  0.00000000000E+00 0. -1.
         22    1    3    3    0    0  0.53728213763E+02 -0.10279892271E+03  0.70909163057E+02  0.13595017054E+03  0.00000000000E+00 0. -1.
         22    1    3    3    0    0  0.35529895888E+02  0.31993174380E+02  0.66834611876E+02  0.82175434610E+02  0.00000000000E+00 0. -1.
</event>
<event>
 7    1  0.6078244E-006  0.1038295E+03  0.7818608E-02  0.1340989E+00
          2   -1    0    0  502    0  0.00000000000E+00  0.00000000000E+00  0.29353658852E+03  0.29353658852E+03  0.00000000000E+00 0. -1.
          1   -1    0    0  501    0 -0.00000000000E+00 -0.00000000000E+00 -0.18982445550E+04  0.18982445550E+04  0.00000000000E+00 0. -1.
         25    2    1    2    0    0 -0.41850874033E+02  0.90665389408E+02 -0.84004864542E+03  0.85514890416E+03  0.12500485241E+03 0.  0.
          2    1    1    2  501    0 -0.10678780717E+02 -0.10870092981E+03 -0.10450760882E+04  0.10507682706E+04  0.00000000000E+00 0. -1.
          1    1    1    2  502    0  0.52529654751E+02  0.18035540398E+02  0.28041676710E+03  0.28586396873E+03  0.00000000000E+00 0. -1.
         22    1    3    3    0    0  0.74398933940E+01 -0.19875108664E+02 -0.34110167522E+02  0.40173069170E+02  0.00000000000E+00 0. -1.
         22    1    3    3    0    0 -0.49290767427E+02  0.11054049807E+03 -0.80593847790E+03  0.81497583499E+03  0.00000000000E+00 0. -1.
</event>
<event>
 7    1  0.6078244E-006  0.1100381E+03  0.7818608E-02  0.1340411E+00
          2   -1    0    0  502    0  0.00000000000E+00  0.00000000000E+00  0.56023140530E+03  0.56023140530E+03  0.00000000000E+00 0. -1.
          1   -1    0    0  501    0 -0.00000000000E+00 -0.00000000000E+00 -0.12363336827E+03  0.12363336827E+03  0.00000000000E+00 0. -1.
         25    2    1    2    0    0  0.99776973820E+02  0.49426716039E+02  0.19913628322E+03  0.26014467999E+03  0.12498620112E+03 0.  0.
          2    1    1    2  501    0 -0.32832534403E+02  0.41182685864E+02 -0.74956551359E+02  0.91610444393E+02  0.00000000000E+00 0. -1.
          1    1    1    2  502    0 -0.66944439418E+02 -0.90609401903E+02  0.31241830516E+03  0.33210964918E+03  0.00000000000E+00 0. -1.
         22    1    3    3    0    0 -0.28843813075E+02  0.16475195608E+02  0.27350608474E+02  0.43028518530E+02  0.00000000000E+00 0. -1.
         22    1    3    3    0    0  0.12862078690E+03  0.32951520430E+02  0.17178567475E+03  0.21711616146E+03  0.00000000000E+00 0. -1.
</event>
<event>
 7    1  0.6078244E-006  0.3604678E+02  0.7818608E-02  0.1628119E+00
          2   -1    0    0  502    0  0.00000000000E+00  0.00000000000E+00  0.20288399447E+03  0.20288399447E+03  0.00000000000E+00 0. -1.
          1   -1    0    0  501    0 -0.00000000000E+00 -0.00000000000E+00 -0.48748020361E+03  0.48748020361E+03  0.00000000000E+00 0. -1.
         25    2    1    2    0    0  0.42889309200E+01 -0.38325460798E+02 -0.26710436036E+03  0.29741733214E+03  0.12500037704E+03 0.  0.
          2    1    1    2  501    0 -0.22686853807E+02  0.28402939062E+02 -0.20301804659E+03  0.20624681216E+03  0.00000000000E+00 0. -1.
          1    1    1    2  502    0  0.18397922887E+02  0.99225217355E+01  0.18552619782E+03  0.18670005378E+03  0.00000000000E+00 0. -1.
         22    1    3    3    0    0  0.63393796288E+02 -0.32093897840E+02 -0.13492489616E+03  0.15249104659E+03  0.00000000000E+00 0.  1.
         22    1    3    3    0    0 -0.59104865368E+02 -0.62315629582E+01 -0.13217946420E+03  0.14492628555E+03  0.00000000000E+00 0.  1.
</event>
<event>
 7    1  0.6078244E-006  0.5798624E+02  0.7818608E-02  0.1423156E+00
          2   -1    0    0  502    0  0.00000000000E+00  0.00000000000E+00  0.48216355952E+03  0.48216355952E+03  0.00000000000E+00 0. -1.
          1   -1    0    0  501    0 -0.00000000000E+00 -0.00000000000E+00 -0.75981150216E+03  0.75981150216E+03  0.00000000000E+00 0. -1.
         25    2    1    2    0    0 -0.61357471310E+02  0.43450621445E+02 -0.12575561059E+03  0.19259386474E+03  0.12500090940E+03 0.  0.
          2    1    1    2  501    0  0.38124598490E+01 -0.50815169288E+02 -0.59767296681E+03  0.59984138865E+03  0.00000000000E+00 0. -1.
          1    1    1    2  502    0  0.57545011461E+02  0.73645478430E+01  0.44578063476E+03  0.44953980829E+03  0.00000000000E+00 0. -1.
         22    1    3    3    0    0 -0.74862142651E+02  0.22999547603E+01 -0.18827521681E+02  0.77227623082E+02  0.00000000000E+00 0. -1.
         22    1    3    3    0    0  0.13504671341E+02  0.41150666685E+02 -0.10692808891E+03  0.11536624166E+03  0.00000000000E+00 0. -1.
</event>
<event>
 7    1  0.6078244E-006  0.1131855E+03  0.7818608E-02  0.1375709E+00
          2   -1    0    0  502    0  0.00000000000E+00  0.00000000000E+00  0.92138293246E+03  0.92138293246E+03  0.00000000000E+00 0. -1.
          1   -1    0    0  501    0 -0.00000000000E+00 -0.00000000000E+00 -0.19389061742E+03  0.19389061742E+03  0.00000000000E+00 0. -1.
         25    2    1    2    0    0  0.11864021127E+02 -0.12009837418E+03 -0.90061476811E+02  0.19570903887E+03  0.12500633509E+03 0.  0.
          2    1    1    2  501    0 -0.36761645708E+02  0.97257891075E+01 -0.39643072656E+02  0.54932529329E+02  0.00000000000E+00 0. -1.
          1    1    1    2  502    0  0.24897624581E+02  0.11037258507E+03  0.85719686450E+03  0.86463198168E+03  0.00000000000E+00 0. -1.
         22    1    3    3    0    0  0.53075076709E+02 -0.11895285520E+03 -0.81347045676E+02  0.15357111502E+03  0.00000000000E+00 0.  1.
         22    1    3    3    0    0 -0.41211055582E+02 -0.11455189728E+01 -0.87144311344E+01  0.42137923845E+02  0.00000000000E+00 0.  1.
</event>
<event>
 7    1  0.6078244E-006  0.1588247E+03  0.7818608E-02  0.1290325E+00
          2   -1    0    0  502    0  0.00000000000E+00  0.00000000000E+00  0.10351677214E+04  0.10351677214E+04  0.00000000000E+00 0. -1.
          1   -1    0    0  501    0 -0.00000000000E+00 -0.00000000000E+00 -0.87576344057E+03  0.87576344057E+03  0.00000000000E+00 0. -1.
         25    2    1    2    0    0  0.49086577985E+02  0.20533303423E+03  0.18958891603E+02  0.24608127703E+03  0.12500163299E+03 0.  0.
          2    1    1    2  501    0 -0.25275694851E+02 -0.51399056438E+02 -0.75438865533E+03  0.75655995602E+03  0.00000000000E+00 0. -1.
          1    1    1    2  502    0 -0.23810883134E+02 -0.15393397779E+03  0.89483404461E+03  0.90828992896E+03  0.00000000000E+00 0. -1.
         22    1    3    3    0    0  0.62836668911E+02  0.20305493622E+03 -0.11207726322E+02  0.21285057484E+03  0.00000000000E+00 0.  1.
         22    1    3    3    0    0 -0.13750090926E+02  0.22780980137E+01  0.30166617925E+02  0.33230702191E+02  0.00000000000E+00 0.  1.
</event>
<event>
 7    1  0.6078244E-006  0.8234039E+02  0.7818608E-02  0.1358137E+00
          2   -1    0    0  502    0  0.00000000000E+00  0.00000000000E+00  0.20225362450E+04  0.20225362450E+04  0.00000000000E+00 0. -1.
          1   -1    0    0  501    0 -0.00000000000E+00 -0.00000000000E+00 -0.30899380079E+02  0.30899380079E+02  0.00000000000E+00 0. -1.
         25    2    1    2    0    0 -0.40410254887E+02 -0.15052892153E+02  0.89626719811E+03  0.90596882359E+03  0.12500016260E+03 0.  0.
          2    1    1    2  501    0 -0.46444349283E+02 -0.38765472908E+02  0.15069372847E+02  0.62345212070E+02  0.00000000000E+00 0. -1.
          1    1    1    2  502    0  0.86854604170E+02  0.53818365061E+02  0.10803002940E+04  0.10851215895E+04  0.00000000000E+00 0. -1.
         22    1    3    3    0    0  0.37996932337E+02 -0.34159215940E+02  0.31239566172E+03  0.31654647110E+03  0.00000000000E+00 0.  1.
         22    1    3    3    0    0 -0.78407187224E+02  0.19106323786E+02  0.58387153639E+03  0.58942235250E+03  0.00000000000E+00 0.  1.
</event>
