<event>
 7    1  0.9036454E-005  0.1339010E+03  0.7818608E-02  0.1347899E+00
          2   -1    0    0  502    0  0.00000000000E+00  0.00000000000E+00  0.11092659443E+03  0.11092659443E+03  0.00000000000E+00 0. -1.
          1   -1    0    0  501    0 -0.00000000000E+00 -0.00000000000E+00 -0.98810890044E+03  0.98810890044E+03  0.00000000000E+00 0. -1.
         25    2    1    2    0    0  0.99872758419E+02 -0.11316007073E+03 -0.72550769228E+02  0.20896962315E+03  0.12499967922E+03 0.  0.
          2    1    1    2  501    0  0.91221838611E+00  0.40570610377E+02 -0.75535324969E+03  0.75644255458E+03  0.00000000000E+00 0. -1.
          1    1    1    2  502    0 -0.10078497680E+03  0.72589460349E+02 -0.49278287089E+02  0.13362331713E+03  0.00000000000E+00 0. -1.
         22    1    3    3    0    0  0.11114793111E+03 -0.46624473841E+02 -0.17327033247E+02  0.12176998905E+03  0.00000000000E+00 0.  1.
         22    1    3    3    0    0 -0.11275172695E+02 -0.66535596885E+02 -0.55223735981E+02  0.87199634104E+02  0.00000000000E+00 0.  1.
</event>
<event>
 7    1  0.9036454E-005  0.1841218E+03  0.7818608E-02  0.1200894E+00
          2   -1    0    0  502    0  0.00000000000E+00  0.00000000000E+00  0.98918102311E+03  0.98918102311E+03  0.00000000000E+00 0. -1.
          1   -1    0    0  501    0 -0.00000000000E+00 -0.00000000000E+00 -0.35685081836E+04  0.35685081836E+04  0.00000000000E+00 0. -1.
         25    2    1    2    0    0 -0.23404763195E+03 -0.39936491262E+02  0.27226096290E+03  0.38226177884E+03  0.12499927313E+03 0.  0.
          2    1    1    2  501    0  0.96955877527E+02 -0.73464274926E+02 -0.35004768315E+04  0.35025898261E+04  0.00000000000E+00 0. -1.
          1    1    1    2  502    0  0.13709175442E+03  0.11340076619E+03  0.64888870810E+03  0.67283760181E+03  0.00000000000E+00 0. -1.
         22    1    3    3    0    0  0.25263334008E+01  0.34214845760E+01 -0.10332669010E+02  0.11173762394E+02  0.00000000000E+00 0.  1.
         22    1    3    3    0    0 -0.23657396535E+03 -0.43357975838E+02  0.28259363191E+03  0.37108801644E+03  0.00000000000E+00 0.  1.
</event>
<event>
 7    1  0.9036454E-005  0.1934949E+03  0.7818608E-02  0.1201703E+00
          2   -1    0    0  502    0  0.00000000000E+00  0.00000000000E+00  0.93016333895E+03  0.93016333895E+03  0.00000000000E+00 0. -1.
          1   -1    0    0  501    0 -0.00000000000E+00 -0.00000000000E+00 -0.40804786842E+03  0.40804786842E+03  0.00000000000E+00 0. -1.
         25    2    1    2    0    0  0.29060410512E+03 -0.25965164380E+02  0.53165354469E+03  0.61919789869E+03  0.12500244195E+03 0.  0.
          2    1    1    2  501    0 -0.18039727780E+03  0.57906185259E+02 -0.32895347891E+03  0.37961387674E+03  0.00000000000E+00 0. -1.
          1    1    1    2  502    0 -0.11020682732E+03 -0.31941020878E+02  0.31941540475E+03  0.33939943193E+03  0.00000000000E+00 0. -1.
         22    1    3    3    0    0  0.21174298232E+02  0.14587089157E+02  0.13846283447E+03  0.14083000606E+03  0.00000000000E+00 0. -1.
         22    1    3    3    0    0  0.26942980689E+03 -0.40552253538E+02  0.39319071021E+03  0.47836789264E+03  0.00000000000E+00 0. -1.
</event>
<event>
 7    1  0.9036454E-005  0.1524650E+03  0.7818608E-02  0.1210170E+00
          2   -1    0    0  502    0  0.00000000000E+00  0.00000000000E+00  0.91169047756E+03  0.91169047756E+03  0.00000000000E+00 0. -1.
          1   -1    0    0  501    0 -0.00000000000E+00 -0.00000000000E+00 -0.14449677282E+03  0.14449677282E+03  0.00000000000E+00 0. -1.
         25    2    1    2    0    0  0.40845822841E+02  0.27026951487E+02 -0.45536050671E+02  0.14176457280E+03  0.12499929936E+03 0.  0.
          2    1    1    2  501    0  0.11970406644E+03 -0.57850068594E+02  0.63082816182E+02  0.14715684033E+03  0.00000000000E+00 0. -1.
          1    1    1    2  502    0 -0.16054988928E+03  0.30823117107E+02  0.74964693924E+03  0.76726583724E+03  0.00000000000E+00 0. -1.
         22    1    3    3    0    0  0.72191129598E+02  0.37551383688E+02 -0.64331026517E+02  0.10373112639E+03  0.00000000000E+00 0.  1.
         22    1    3    3    0    0 -0.31345306757E+02 -0.10524432200E+02  0.18794975846E+02  0.38033446411E+02  0.00000000000E+00 0.  1.
</event>
<event>
 7    1  0.9036454E-005  0.9716521E+02  0.7818608E-02  0.1428804E+00
          2   -1    0    0  502    0  0.00000000000E+00  0.00000000000E+00  0.24680027017E+04  0.24680027017E+04  0.00000000000E+00 0. -1.
          1   -1    0    0  501    0 -0.00000000000E+00 -0.00000000000E+00 -0.86504180210E+01  0.86504180210E+01  0.00000000000E+00 0. -1.
         25    2    1    2    0    0 -0.31319528197E+02 -0.97560760507E+02  0.13580505567E+04  0.13676348321E+04  0.12499881849E+03 0.  0.
          2    1    1    2  501    0  0.22971781279E+01  0.95070034779E+02  0.96288797197E+03  0.96757265107E+03  0.00000000000E+00 0. -1.
          1    1    1    2  502    0  0.29022350069E+02  0.24907257289E+01  0.13841375495E+03  0.14144563647E+03  0.00000000000E+00 0. -1.
         22    1    3    3    0    0 -0.68480060270E+02 -0.72824028849E+02  0.59994949831E+03  0.60822056719E+03  0.00000000000E+00 0.  1.
         22    1    3    3    0    0  0.37160532072E+02 -0.24736731658E+02  0.75810105841E+03  0.75941426494E+03  0.00000000000E+00 0.  1.
</event>
<event>
 7    1  0.9036454E-005  0.4427908E+03  0.7818608E-02  0.1048737E+00
          2   -1    0    0  502    0  0.00000000000E+00  0.00000000000E+00  0.91585039127E+03  0.91585039127E+03  0.00000000000E+00 0. -1.
          1   -1    0    0  501    0 -0.00000000000E+00 -0.00000000000E+00 -0.21347414776E+04  0.21347414776E+04  0.00000000000E+00 0. -1.
         25    2    1    2    0    0  0.25537750716E+03  0.60078436627E+03 -0.69630487089E+03  0.96261344190E+03  0.12499855750E+03 0.  0.
          2    1    1    2  501    0 -0.30176765139E+03 -0.26749972418E+03 -0.12354969382E+04  0.12996432211E+04  0.00000000000E+00 0. -1.
          1    1    1    2  502    0  0.46390144232E+02 -0.33328464209E+03  0.71291072278E+03  0.78833520585E+03  0.00000000000E+00 0. -1.
         22    1    3    3    0    0  0.20387200412E+03  0.36749444429E+03 -0.50182041041E+03  0.65455304212E+03  0.00000000000E+00 0.  1.
         22    1    3    3    0    0  0.51505503043E+02  0.23328992199E+03 -0.19448446048E+03  0.30806039978E+03  0.00000000000E+00 0.  1.
</event>
<event>
 7    1  0.9036454E-005  0.1815753E+03  0.7818608E-02  0.1345993E+00
          2   -1    0    0  502    0  0.00000000000E+00  0.00000000000E+00  0.33877051330E+03  0.33877051330E+03  0.00000000000E+00 0. -1.
          1   -1    0    0  501    0 -0.00000000000E+00 -0.00000000000E+00 -0.17938243209E+03  0.17938243209E+03  0.00000000000E+00 0. -1.
         25    2    1    2    0    0 -0.11045606406E+03  0.14655080021E+03 -0.43965055338E+02  0.22635226659E+03  0.12499897348E+03 0.  0.
          2    1    1    2  501    0  0.12977004383E+03 -0.12305024353E+03  0.17235751782E+03  0.24837218173E+03  0.00000000000E+00 0. -1.
          1    1    1    2  502    0 -0.19313979765E+02 -0.23500556675E+02  0.30995618723E+02  0.43428497078E+02  0.00000000000E+00 0. -1.
         22    1    3    3    0    0 -0.74744338746E+02  0.90582962694E+01  0.65682065754E+01  0.75577180707E+02  0.00000000000E+00 0. -1.
         22    1    3    3    0    0 -0.35711725314E+02  0.13749250394E+03 -0.50533261913E+02  0.15077508588E+03  0.00000000000E+00 0. -1.
</event>
<event>
 7    1  0.9036454E-005  0.2477603E+03  0.7818608E-02  0.1136905E+00
          2   -1    0    0  502    0  0.00000000000E+00  0.00000000000E+00  0.43658364896E+04  0.43658364896E+04  0.00000000000E+00 0. -1.
          1   -1    0    0  501    0 -0.00000000000E+00 -0.00000000000E+00 -0.11810423620E+03  0.11810423620E+03  0.00000000000E+00 0. -1.
         25    2    1    2    0    0  0.22073172569E+03  0.17772214073E+03  0.16343706366E+04  0.16634607477E+04  0.12500650863E+03 0.  0.
          2    1    1    2  501    0 -0.17446431267E+03  0.70846621510E+02 -0.65326340026E+01  0.18841368178E+03  0.00000000000E+00 0. -1.
          1    1    1    2  502    0 -0.46267413019E+02 -0.24856876224E+03  0.26198942508E+04  0.26320662964E+04  0.00000000000E+00 0. -1.
         22    1    3    3    0    0  0.16030879992E+03  0.11149536877E+03  0.76688064253E+03  0.79135077462E+03  0.00000000000E+00 0. -1.
         22    1    3    3    0    0  0.60422925763E+02  0.66226771958E+02  0.86748999406E+03  0.87210997304E+03  0.00000000000E+00 0. -1.
</event>
<event>
 7    1  0.9036454E-005  0.1331360E+03  0.7818608E-02  0.1295183E+00
          2   -1    0    0  502    0  0.00000000000E+00  0.00000000000E+00  0.14936253752E+04  0.14936253752E+04  0.00000000000E+00 0. -1.
          1   -1    0    0  501    0 -0.00000000000E+00 -0.00000000000E+00 -0.44855435403E+02  0.44855435403E+02  0.00000000000E+00 0. -1.
         25    2    1    2    0    0 -0.45401980874E+02 -0.15540566421E+03  0.74145103774E+03  0.76914696223E+03  0.12500059125E+03 0.  0.
          2    1    1    2  501    0 -0.14235968287E+02  0.12880026764E+03  0.11448252441E+03  0.17291159630E+03  0.00000000000E+00 0. -1.
          1    1    1    2  502    0  0.59637949161E+02  0.26605396568E+02  0.59283637763E+03  0.59642225206E+03  0.00000000000E+00 0. -1.
         22    1    3    3    0    0 -0.46852286500E+02 -0.23362220532E+01  0.11360271641E+03  0.12290716765E+03  0.00000000000E+00 0.  1.
         22    1    3    3    0    0  0.14503056266E+01 -0.15306944216E+03  0.62784832133E+03  0.64623979459E+03  0.00000000000E+00 0.  1.
</event>
<event>
 7    1  0.9036454E-005  0.7163838E+03  0.7818608E-02  0.1036995E+00
          2   -1    0    0  502    0  0.00000000000E+00  0.00000000000E+00  0.78761035983E+03  0.78761035983E+03  0.00000000000E+00 0. -1.
          1   -1    0    0  501    0 -0.00000000000E+00 -0.00000000000E+00 -0.13427183535E+04  0.13427183535E+04  0.00000000000E+00 0. -1.
         25    2    1    2    0    0  0.52864956533E+03  0.24799308141E+03  0.13250002544E+03  0.61167963836E+03  0.12499916755E+03 0.  0.
          2    1    1    2  501    0 -0.60180275663E+03 -0.48338187806E+03 -0.90536046348E+03  0.11897487830E+04  0.00000000000E+00 0. -1.
          1    1    1    2  502    0  0.73153191300E+02  0.23538879665E+03  0.21775244438E+03  0.32890029191E+03  0.00000000000E+00 0. -1.
         22    1    3    3    0    0  0.39289144821E+03  0.20286310504E+03  0.46145332937E+02  0.44457453955E+03  0.00000000000E+00 0.  1.
         22    1    3    3    0    0  0.13575811712E+03  0.45129976369E+02  0.86354692499E+02  0.16710509881E+03  0.00000000000E+00 0.  1.
</event>
<event>
 7    1  0.9036454E-005  0.1952078E+03  0.7818608E-02  0.1290716E+00
          2   -1    0    0  502    0  0.00000000000E+00  0.00000000000E+00  0.10739610653E+04  0.10739610653E+04  0.00000000000E+00 0. -1.
          1   -1    0    0  501    0 -0.00000000000E+00 -0.00000000000E+00 -0.12352251876E+03  0.12352251876E+03  0.00000000000E+00 0. -1.
         25    2    1    2    0    0 -0.17855548400E+03  0.75710854905E+02  0.91720766337E+03  0.94578433245E+03  0.12499564526E+03 0.  0.
          2    1    1    2  501    0  0.19329267785E+03 -0.31679760136E+02  0.22573914477E+01  0.19588456379E+03  0.00000000000E+00 0. -1.
          1    1    1    2  502    0 -0.14737193852E+02 -0.44031094769E+02  0.30973491763E+02  0.55814687862E+02  0.00000000000E+00 0. -1.
         22    1    3    3    0    0 -0.14509309868E+03  0.86448040871E+02  0.87361009909E+03  0.88978642172E+03  0.00000000000E+00 0. -1.
         22    1    3    3    0    0 -0.33462385319E+02 -0.10737185967E+02  0.43597564283E+02  0.55997910721E+02  0.00000000000E+00 0. -1.
</event>
<event>
 7    1  0.9036454E-005  0.1817619E+03  0.7818608E-02  0.1194498E+00
          2   -1    0    0  502    0  0.00000000000E+00  0.00000000000E+00  0.69461473676E+03  0.69461473676E+03  0.00000000000E+00 0. -1.
          1   -1    0    0  501    0 -0.00000000000E+00 -0.00000000000E+00 -0.35692119019E+03  0.35692119019E+03  0.00000000000E+00 0. -1.
         25    2    1    2    0    0 -0.35014938558E+02 -0.80628974854E+01  0.10491838471E+03  0.16709939736E+03  0.12499313945E+03 0.  0.
          2    1    1    2  501    0 -0.31815437570E+02 -0.17895572549E+03 -0.28040795279E+03  0.33416462072E+03  0.00000000000E+00 0. -1.
          1    1    1    2  502    0  0.66830376127E+02  0.18701862298E+03  0.51318311466E+03  0.55027190886E+03  0.00000000000E+00 0. -1.
         22    1    3    3    0    0  0.11870021557E+02  0.29930329053E+02  0.10169111102E+03  0.10666678991E+03  0.00000000000E+00 0.  1.
         22    1    3    3    0    0 -0.46884960114E+02 -0.37993226538E+02  0.32272736852E+01  0.60432607449E+02  0.00000000000E+00 0.  1.
</event>
<event>
 7    1  0.9036454E-005  0.3093323E+03  0.7818608E-02  0.1098150E+00
          2   -1    0    0  502    0  0.00000000000E+00  0.00000000000E+00  0.16777217395E+03  0.16777217395E+03  0.00000000000E+00 0. -1.
          1   -1    0    0  501    0 -0.00000000000E+00 -0.00000000000E+00 -0.36328774714E+04  0.36328774714E+04  0.00000000000E+00 0. -1.
         25    2    1    2    0    0  0.33367560001E+03 -0.57837506505E+02 -0.42551603229E+03  0.55801079399E+03  0.12501027668E+03 0.  0.
          2    1    1    2  501    0 -0.13748653981E+03 -0.20331701759E+03 -0.28587814454E+04  0.28692981216E+04  0.00000000000E+00 0. -1.
          1    1    1    2  502    0 -0.19618906020E+03  0.26115452410E+03 -0.18080781983E+03  0.37334072978E+03  0.00000000000E+00 0. -1.
         22    1    3    3    0    0  0.27664847806E+03 -0.90063481876E+02 -0.30948042128E+03  0.42476339571E+03  0.00000000000E+00 0. -1.
         22    1    3    3    0    0  0.57027121951E+02  0.32225975371E+02 -0.11603561101E+03  0.13324739828E+03  0.00000000000E+00 0. -1.
</event>
<event>
 7    1  0.9036454E-005  0.5338236E+03  0.7818608E-02  0.1086211E+00
          2   -1    0    0  502    0  0.00000000000E+00  0.00000000000E+00  0.96116167668E+03  0.96116167668E+03  0.00000000000E+00 0. -1.
          1   -1    0    0  501    0 -0.00000000000E+00 -0.00000000000E+00 -0.69246484171E+03  0.69246484171E+03  0.00000000000E+00 0. -1.
         25    2    1    2    0    0  0.54789296992E+03 -0.21654357120E+03  0.10692985074E+03  0.61166751116E+03  0.12500130602E+03 0.  0.
          2    1    1    2  501    0 -0.13706256079E+03 -0.94404385716E+02 -0.30453423108E+03  0.34704384668E+03  0.00000000000E+00 0. -1.
          1    1    1    2  502    0 -0.41083040913E+03  0.31094795692E+03  0.46630121532E+03  0.69491516056E+03  0.00000000000E+00 0. -1.
         22    1    3    3    0    0  0.17509659578E+03 -0.40100735983E+02 -0.18484026958E+02  0.18057836563E+03  0.00000000000E+00 0. -1.
         22    1    3    3    0    0  0.37279637414E+03 -0.17644283522E+03  0.12541387770E+03  0.43108914553E+03  0.00000000000E+00 0. -1.
</event>
<event>
 7    1  0.9036454E-005  0.1032166E+03  0.7818608E-02  0.1443287E+00
          2   -1    0    0  502    0  0.00000000000E+00  0.00000000000E+00  0.19122205245E+04  0.19122205245E+04  0.00000000000E+00 0. -1.
          1   -1    0    0  501    0 -0.00000000000E+00 -0.00000000000E+00 -0.22285511121E+02  0.22285511121E+02  0.00000000000E+00 0. -1.
         25    2    1    2    0    0 -0.50100988417E+02 -0.89829681476E+02  0.72202283626E+03  0.73994613777E+03  0.12499531991E+03 0.  0.
          2    1    1    2  501    0  0.22332988835E+02 -0.10299103577E+02  0.27194404845E+01  0.24743267394E+02  0.00000000000E+00 0. -1.
          1    1    1    2  502    0  0.27767999582E+02  0.10012878505E+03  0.11651927367E+04  0.11698166305E+04  0.00000000000E+00 0. -1.
         22    1    3    3    0    0 -0.40219750396E+02 -0.11416301424E+03  0.42899728729E+03  0.44574599790E+03  0.00000000000E+00 0. -1.
         22    1    3    3    0    0 -0.98812380208E+01  0.24333332761E+02  0.29302554897E+03  0.29420013987E+03  0.00000000000E+00 0. -1.
</event>
<event>
 7    1  0.9036454E-005  0.1453816E+03  0.7818608E-02  0.1335854E+00
          2   -1    0    0  502    0  0.00000000000E+00  0.00000000000E+00  0.30872160681E+02  0.30872160681E+02  0.00000000000E+00 0. -1.
          1   -1    0    0  501    0 -0.00000000000E+00 -0.00000000000E+00 -0.27566478188E+04  0.27566478188E+04  0.00000000000E+00 0. -1.
         25    2    1    2    0    0  0.11284463395E+03 -0.10115517426E+03 -0.32486245165E+03  0.37965148485E+03  0.12503342260E+03 0.  0.
          2    1    1    2  501    0 -0.20755005330E+01  0.41422336166E+02 -0.11249063764E+04  0.11256706772E+04  0.00000000000E+00 0. -1.
          1    1    1    2  502    0 -0.11076913342E+03  0.59732838098E+02 -0.12760068300E+04  0.12821978174E+04  0.00000000000E+00 0. -1.
         22    1    3    3    0    0 -0.16742089439E+02 -0.53666997615E+02 -0.69609714474E+02  0.89476010980E+02  0.00000000000E+00 0.  1.
         22    1    3    3    0    0  0.12958672339E+03 -0.47488176648E+02 -0.25525273718E+03  0.29017547387E+03  0.00000000000E+00 0.  1.
</event>
<event>
 7    1  0.9036454E-005  0.2248605E+03  0.7818608E-02  0.1253794E+00
          2   -1    0    0  502    0  0.00000000000E+00  0.00000000000E+00  0.28804667559E+04  0.28804667559E+04  0.00000000000E+00 0. -1.
          1   -1    0    0  501    0 -0.00000000000E+00 -0.00000000000E+00 -0.11985688638E+04  0.11985688638E+04  0.00000000000E+00 0. -1.
         25    2    1    2    0    0  0.33722100529E+01 -0.26511372572E+03  0.17123058424E+04  0.17372145620E+04  0.12500590845E+03 0.  0.
          2    1    1    2  501    0  0.34661962939E+02  0.22194442937E+03 -0.11747495806E+04  0.11960340123E+04  0.00000000000E+00 0. -1.
          1    1    1    2  502    0 -0.38034172992E+02  0.43169296348E+02  0.11443416303E+04  0.11457870454E+04  0.00000000000E+00 0. -1.
         22    1    3    3    0    0  0.58633532636E+02 -0.15346866467E+03  0.11167444469E+04  0.11287642278E+04  0.00000000000E+00 0. -1.
         22    1    3    3    0    0 -0.55261322583E+02 -0.11164506105E+03  0.59556139548E+03  0.60845033422E+03  0.00000000000E+00 0. -1.
</event>
<event>
 7    1  0.9036454E-005  0.1568369E+03  0.7818608E-02  0.1230271E+00
          2   -1    0    0  502    0  0.00000000000E+00  0.00000000000E+00  0.10374519453E+04  0.10374519453E+04  0.00000000000E+00 0. -1.
          1   -1    0    0  501    0 -0.00000000000E+00 -0.00000000000E+00 -0.56884072215E+02  0.56884072215E+02  0.00000000000E+00 0. -1.
         25    2    1    2    0    0 -0.18186281611E+03 -0.18559011072E+02  0.45319586394E+03  0.50441085600E+03  0.12500119911E+03 0.  0.
          2    1    1    2  501    0  0.13016949551E+03 -0.72446360373E+02  0.38810670329E+03  0.41571551069E+03  0.00000000000E+00 0. -1.
          1    1    1    2  502    0  0.51693320596E+02  0.91005371444E+02  0.13926530585E+03  0.17420965082E+03  0.00000000000E+00 0. -1.
         22    1    3    3    0    0 -0.28045429138E+02  0.15746054508E+02  0.22378042473E+03  0.22607999208E+03  0.00000000000E+00 0.  1.
         22    1    3    3    0    0 -0.15381738697E+03 -0.34305065580E+02  0.22941543922E+03  0.27833086392E+03  0.00000000000E+00 0.  1.
</event>
<event>
 7    1  0.9036454E-005  0.5242877E+03  0.7818608E-02  0.1078895E+00
          2   -1    0    0  502    0  0.00000000000E+00  0.00000000000E+00  0.19230023798E+04  0.19230023798E+04  0.00000000000E+00 0. -1.
          1   -1    0    0  501    0 -0.00000000000E+00 -0.00000000000E+00 -0.80748242519E+03  0.80748242519E+03  0.00000000000E+00 0. -1.
         25    2    1    2    0    0 -0.49169210969E+02  0.62751499472E+03  0.39582319777E+03  0.75398163588E+03  0.12497849194E+03 0.  0.
          2    1    1    2  501    0  0.13048213616E+03 -0.13383554156E+03 -0.56643558579E+03  0.59647867765E+03  0.00000000000E+00 0. -1.
          1    1    1    2  502    0 -0.81312925187E+02 -0.49367945317E+03  0.12861323426E+04  0.13800244915E+04  0.00000000000E+00 0. -1.
         22    1    3    3    0    0 -0.25119570661E+02  0.45621385812E+03  0.21921528460E+03  0.50677156409E+03  0.00000000000E+00 0.  1.
         22    1    3    3    0    0 -0.24049640308E+02  0.17130113660E+03  0.17660791317E+03  0.24721007179E+03  0.00000000000E+00 0.  1.
</event>
<event>
 7    1  0.9036454E-005  0.6364415E+02  0.7818608E-02  0.1443064E+00
          2   -1    0    0  502    0  0.00000000000E+00  0.00000000000E+00  0.40107998014E+03  0.40107998014E+03  0.00000000000E+00 0. -1.
          1   -1    0    0  501    0 -0.00000000000E+00 -0.00000000000E+00 -0.18763939895E+04  0.18763939895E+04  0.00000000000E+00 0. -1.
         25    2    1    2    0    0 -0.44071468500E+02 -0.59982978834E+01  0.20937193222E+03  0.24786790498E+03  0.12499447350E+03 0.  0.
          2    1    1    2  501    0 -0.15040838174E+02 -0.37011814597E+02 -0.18491736222E+04  0.18496051434E+04  0.00000000000E+00 0. -1.
          1    1    1    2  502    0  0.59112306674E+02  0.43010112480E+02  0.16448768065E+03  0.18000092128E+03  0.00000000000E+00 0. -1.
         22    1    3    3    0    0 -0.11835617328E+02 -0.62079826802E+02  0.13654653554E+03  0.15046243086E+03  0.00000000000E+00 0.  1.
         22    1    3    3    0    0 -0.32235851173E+02  0.56081528919E+02  0.72825396685E+02  0.97405474122E+02  0.00000000000E+00 0.  1.
</event>
<event>
 7    1  0.9036454E-005  0.2200673E+03  0.7818608E-02  0.1205457E+00
          2   -1    0    0  502    0  0.00000000000E+00  0.00000000000E+00  0.28195729357E+04  0.28195729357E+04  0.00000000000E+00 0. -1.
          1   -1    0    0  501    0 -0.00000000000E+00 -0.00000000000E+00 -0.32976688235E+03  0.32976688235E+03  0.00000000000E+00 0. -1.
         25    2    1    2    0    0 -0.20905364571E+03  0.17423685121E+03  0.10165825569E+04  0.10597772961E+04  0.12500366048E+03 0.  0.
          2    1    1    2  501    0  0.96877248785E+02  0.90834159364E+00 -0.29430387886E+03  0.30983995793E+03  0.00000000000E+00 0. -1.
          1    1    1    2  502    0  0.11217639693E+03 -0.17514519280E+03  0.17675273753E+04  0.17797225641E+04  0.00000000000E+00 0. -1.
         22    1    3    3    0    0 -0.95376932875E+02  0.32164072949E+02  0.54683811459E+03  0.55602446932E+03  0.00000000000E+00 0.  1.
         22    1    3    3    0    0 -0.11367671284E+03  0.14207277826E+03  0.46974444234E+03  0.50375282676E+03  0.00000000000E+00 0.  1.
</event>
<event>
 7    1  0.9036454E-005  0.9373224E+02  0.7818608E-02  0.1326342E+00
          2   -1    0    0  502    0  0.00000000000E+00  0.00000000000E+00  0.57305548653E+03  0.57305548653E+03  0.00000000000E+00 0. -1.
          1   -1    0    0  501    0 -0.00000000000E+00 -0.00000000000E+00 -0.11747818616E+03  0.11747818616E+03  0.00000000000E+00 0. -1.
         25    2    1    2    0    0  0.86859736509E+02 -0.31523132179E+02  0.38228658599E+02  0.16007793347E+03  0.12500077102E+03 0.  0.
          2    1    1    2  501    0  0.94387094862E+00  0.69926168062E+02 -0.27690385930E+02  0.75215140398E+02  0.00000000000E+00 0. -1.
          1    1    1    2  502    0 -0.87803607458E+02 -0.38403035882E+02  0.44503902770E+03  0.45524059883E+03  0.00000000000E+00 0. -1.
         22    1    3    3    0    0  0.47356665970E+02  0.47454032975E+02  0.19333647970E+02  0.69773411850E+02  0.00000000000E+00 0.  1.
         22    1    3    3    0    0  0.39503070540E+02 -0.78977165154E+02  0.18895010628E+02  0.90304521617E+02  0.00000000000E+00 0.  1.
</event>
<event>
 7    1  0.9036454E-005  0.1075338E+04  0.7818608E-02  0.1094474E+00
          2   -1    0    0  502    0  0.00000000000E+00  0.00000000000E+00  0.16018159760E+04  0.16018159760E+04  0.00000000000E+00 0. -1.
          1   -1    0    0  501    0 -0.00000000000E+00 -0.00000000000E+00 -0.10260910263E+04  0.10260910263E+04  0.00000000000E+00 0. -1.
         25    2    1    2    0    0  0.50833199576E+03  0.99687607294E+03  0.26929941754E+03  0.11577190388E+04  0.12501149506E+03 0.  0.
          2    1    1    2  501    0 -0.35612277920E+02 -0.64953819377E+02 -0.26779333652E+03  0.27784978689E+03  0.00000000000E+00 0. -1.
          1    1    1    2  502    0 -0.47271971784E+03 -0.93192225357E+03  0.57421886865E+03  0.11923381766E+04  0.00000000000E+00 0. -1.
         22    1    3    3    0    0  0.11852258143E+03  0.15362172295E+03  0.15319374031E+02  0.19463278062E+03  0.00000000000E+00 0. -1.
         22    1    3    3    0    0  0.38980941433E+03  0.84325434999E+03  0.25398004351E+03  0.96308625823E+03  0.00000000000E+00 0. -1.
</event>
<event>
 7    1  0.9036454E-005  0.1037529E+03  0.7818608E-02  0.1453030E+00
          2   -1    0    0  502    0  0.00000000000E+00  0.00000000000E+00  0.73683240956E+03  0.73683240956E+03  0.00000000000E+00 0. -1.
          1   -1    0    0  501    0 -0.00000000000E+00 -0.00000000000E+00 -0.38043661268E+02  0.38043661268E+02  0.00000000000E+00 0. -1.
         25    2    1    2    0    0  0.36284527762E+02  0.86489464184E+02  0.36706473837E+03  0.39894764325E+03  0.12500282209E+03 0.  0.
          2    1    1    2  501    0 -0.10630049583E+02  0.20133349077E+02 -0.36694472495E+01  0.23061104534E+02  0.00000000000E+00 0. -1.
          1    1    1    2  502    0 -0.25654478178E+02 -0.10662281326E+03  0.33539345717E+03  0.35286732304E+03  0.00000000000E+00 0. -1.
         22    1    3    3    0    0  0.44007677149E+02  0.72151403523E+01  0.26871538081E+03  0.27239069327E+03  0.00000000000E+00 0. -1.
         22    1    3    3    0    0 -0.77231493874E+01  0.79274323832E+02  0.98349357565E+02  0.12655694998E+03  0.00000000000E+00 0. -1.
</event>
<event>
 7    1  0.9036454E-005  0.1530838E+03  0.7818608E-02  0.1298968E+00
          2   -1    0    0  502    0  0.00000000000E+00  0.00000000000E+00  0.24454797984E+03  0.24454797984E+03  0.00000000000E+00 0. -1.
          1   -1    0    0  501    0 -0.00000000000E+00 -0.00000000000E+00 -0.73976027945E+03  0.73976027945E+03  0.00000000000E+00 0. -1.
         25    2    1    2    0    0 -0.17632542499E+03  0.37608325428E+02  0.57801871538E+02  0.22687102432E+03  0.12499745470E+03 0.  0.
          2    1    1    2  501    0  0.13363056897E+03 -0.72022644250E+02 -0.63826665529E+03  0.65607066197E+03  0.00000000000E+00 0. -1.
          1    1    1    2  502    0  0.42694856026E+02  0.34414318823E+02  0.85252484136E+02  0.10136657300E+03  0.00000000000E+00 0. -1.
         22    1    3    3    0    0 -0.83678726280E+02 -0.14211030702E+02 -0.29054144416E+02  0.89711905192E+02  0.00000000000E+00 0. -1.
         22    1    3    3    0    0 -0.92646698715E+02  0.51819356130E+02  0.86856015954E+02  0.13715911913E+03  0.00000000000E+00 0. -1.
</event>
<event>
 7    1  0.9036454E-005  0.5767381E+02  0.7818608E-02  0.1450593E+00
          2   -1    0    0  502    0  0.00000000000E+00  0.00000000000E+00  0.12097814386E+04  0.12097814386E+04  0.00000000000E+00 0. -1.
          1   -1    0    0  501    0 -0.00000000000E+00 -0.00000000000E+00 -0.14848667324E+02  0.14848667324E+02  0.00000000000E+00 0. -1.
         25    2    1    2    0    0 -0.62592854587E+01  0.46814260740E+02  0.84313481967E+03  0.85365833884E+03  0.12500192664E+03 0.  0.
          2    1    1    2  501    0  0.47097034273E+02 -0.38390519891E+02  0.11055891608E+03  0.12615560463E+03  0.00000000000E+00 0. -1.
          1    1    1    2  502    0 -0.40837748815E+02 -0.84237408493E+01  0.24123903552E+03  0.24481616245E+03  0.00000000000E+00 0. -1.
         22    1    3    3    0    0 -0.19220193270E+02 -0.26954099125E+02  0.76272018607E+02  0.83146618159E+02  0.00000000000E+00 0.  1.
         22    1    3    3    0    0  0.12960907811E+02  0.73768359865E+02  0.76686280107E+03  0.77051172068E+03  0.00000000000E+00 0.  1.
</event>
<event>
 7    1  0.1303985E-004  0.6759287E+02  0.7818608E-02  0.1372117E+00
          2   -1    0    0  502    0  0.00000000000E+00  0.00000000000E+00  0.26845828047E+04  0.26845828047E+04  0.00000000000E+00 0. -1.
          1   -1    0    0  501    0 -0.00000000000E+00 -0.00000000000E+00 -0.15198046682E+04  0.15198046682E+04  0.00000000000E+00 0. -1.
         25    2    1    2    0    0  0.75141125406E+02  0.96553767248E+02  0.54844170782E+02  0.18330752503E+03  0.12499978787E+03 0.  0.
          2    1    1    2  501    0 -0.57449504928E+02 -0.31640688333E+02 -0.14543927162E+04  0.14558707882E+04  0.00000000000E+00 0. -1.
          1    1    1    2  502    0 -0.17691620478E+02 -0.64913078915E+02  0.25643266820E+04  0.25652091597E+04  0.00000000000E+00 0. -1.
         22    1    3    3    0    0  0.44960756745E+02  0.30219514787E+02 -0.37340680136E+02  0.65795251455E+02  0.00000000000E+00 0.  1.
         22    1    3    3    0    0  0.30180368661E+02  0.66334252462E+02  0.92184850918E+02  0.11751227358E+03  0.00000000000E+00 0.  1.
</event>
<event>
 7    1  0.9036454E-005  0.6620339E+03  0.7818608E-02  0.1054430E+00
          2   -1    0    0  502    0  0.00000000000E+00  0.00000000000E+00  0.40225806374E+03  0.40225806374E+03  0.00000000000E+00 0. -1.
          1   -1    0    0  501    0 -0.00000000000E+00 -0.00000000000E+00 -0.19101304563E+04  0.19101304563E+04  0.00000000000E+00 0. -1.
         25    2    1    2    0    0  0.59982929065E+02  0.54499563386E+03 -0.21994739420E+03  0.60383782341E+03  0.12500027224E+03 0.  0.
          2    1    1    2  501    0 -0.20974635133E+03 -0.68870066771E+03 -0.13150586117E+04  0.14992268987E+04  0.00000000000E+00 0. -1.
          1    1    1    2  502    0  0.14976342226E+03  0.14370503385E+03  0.27133613347E+02  0.20932379792E+03  0.00000000000E+00 0. -1.
         22    1    3    3    0    0 -0.42739644374E+01  0.18233720051E+03 -0.13209449798E+03  0.22519786380E+03  0.00000000000E+00 0. -1.
         22    1    3    3    0    0  0.64256893503E+02  0.36265843335E+03 -0.87852896221E+02  0.37863995961E+03  0.00000000000E+00 0. -1.
</event>
<event>
 7    1  0.9036454E-005  0.1134132E+03  0.7818608E-02  0.1356754E+00
          2   -1    0    0  502    0  0.00000000000E+00  0.00000000000E+00  0.20958526361E+04  0.20958526361E+04  0.00000000000E+00 0. -1.
          1   -1    0    0  501    0 -0.00000000000E+00 -0.00000000000E+00 -0.30758027049E+02  0.30758027049E+02  0.00000000000E+00 0. -1.
         25    2    1    2    0    0  0.13410006873E+03  0.65914433807E+00  0.30913241401E+03  0.35940424607E+03  0.12500119919E+03 0.  0.
          2    1    1    2  501    0 -0.89734230455E+02  0.18579206986E+01  0.37731054681E+03  0.38783879733E+03  0.00000000000E+00 0. -1.
          1    1    1    2  502    0 -0.44365838272E+02 -0.25170650367E+01  0.13786516482E+04  0.13793676198E+04  0.00000000000E+00 0. -1.
         22    1    3    3    0    0  0.28580142165E+02 -0.42753584434E+02  0.17943985027E+03  0.18666374414E+03  0.00000000000E+00 0.  1.
         22    1    3    3    0    0  0.10551992656E+03  0.43412728772E+02  0.12969256373E+03  0.17274050193E+03  0.00000000000E+00 0.  1.
</event>
<event>
 7    1  0.9036454E-005  0.2732510E+03  0.7818608E-02  0.1149255E+00
          2   -1    0    0  502    0  0.00000000000E+00  0.00000000000E+00  0.14628185825E+04  0.14628185825E+04  0.00000000000E+00 0. -1.
          1   -1    0    0  501    0 -0.00000000000E+00 -0.00000000000E+00 -0.24732519376E+03  0.24732519376E+03  0.00000000000E+00 0. -1.
         25    2    1    2    0    0  0.57971061067E+02  0.26470977400E+03  0.36160544676E+03  0.46884438543E+03  0.12499860099E+03 0.  0.
          2    1    1    2  501    0 -0.14712252725E+03  0.55653594944E+01 -0.14260102257E+03  0.20496600422E+03  0.00000000000E+00 0. -1.
          1    1    1    2  502    0  0.89151466179E+02 -0.27027513350E+03  0.99648896456E+03  0.10363333866E+04  0.00000000000E+00 0. -1.
         22    1    3    3    0    0 -0.27845197309E+02  0.16089056432E+03  0.18534861967E+03  0.24701263028E+03  0.00000000000E+00 0.  1.
         22    1    3    3    0    0  0.85816258376E+02  0.10381920968E+03  0.17625682708E+03  0.22183175515E+03  0.00000000000E+00 0.  1.
</event>
<event>
 7    1  0.9036454E-005  0.8238856E+03  0.7818608E-02  0.1122349E+00
          2   -1    0    0  502    0  0.00000000000E+00  0.00000000000E+00  0.10212100443E+04  0.10212100443E+04  0.00000000000E+00 0. -1.
          1   -1    0    0  501    0 -0.00000000000E+00 -0.00000000000E+00 -0.24968072564E+04  0.24968072564E+04  0.00000000000E+00 0. -1.
         25    2    1    2    0    0 -0.86380577816E+03 -0.98529066456E+02 -0.39499250317E+03  0.96307414684E+03  0.12499734165E+03 0.  0.
          2    1    1    2  501    0  0.80031513881E+03  0.12208009268E+03 -0.17257750984E+04  0.19062286223E+04  0.00000000000E+00 0. -1.
          1    1    1    2  502    0  0.63490639355E+02 -0.23551026227E+02  0.64517038943E+03  0.64871453161E+03  0.00000000000E+00 0. -1.
         22    1    3    3    0    0 -0.41652606401E+03  0.12064281368E+02 -0.20932458186E+03  0.46632208767E+03  0.00000000000E+00 0. -1.
         22    1    3    3    0    0 -0.44727971416E+03 -0.11059334782E+03 -0.18566792131E+03  0.49675205916E+03  0.00000000000E+00 0. -1.
</event>
<event>
 7    1  0.9036454E-005  0.4574135E+03  0.7818608E-02  0.1138213E+00
          2   -1    0    0  502    0  0.00000000000E+00  0.00000000000E+00  0.41263986325E+03  0.41263986325E+03  0.00000000000E+00 0. -1.
          1   -1    0    0  501    0 -0.00000000000E+00 -0.00000000000E+00 -0.69699426416E+03  0.69699426416E+03  0.00000000000E+00 0. -1.
         25    2    1    2    0    0  0.41320216815E+03  0.27940589004E+03  0.12079799451E+02  0.51436864469E+03  0.12500199171E+03 0.  0.
          2    1    1    2  501    0 -0.97417694277E+02 -0.24252918995E+02 -0.10873310537E+03  0.14799087621E+03  0.00000000000E+00 0. -1.
          1    1    1    2  502    0 -0.31578447387E+03 -0.25515297104E+03 -0.18770109498E+03  0.44727460651E+03  0.00000000000E+00 0. -1.
         22    1    3    3    0    0  0.32260089330E+03  0.15252581894E+03 -0.95450814518E+01  0.35696858459E+03  0.00000000000E+00 0. -1.
         22    1    3    3    0    0  0.90601274847E+02  0.12688007109E+03  0.21624880903E+02  0.15740006010E+03  0.00000000000E+00 0. -1.
</event>
<event>
 7    1  0.9036454E-005  0.4571487E+03  0.7818608E-02  0.1056261E+00
          2   -1    0    0  502    0  0.00000000000E+00  0.00000000000E+00  0.27716530033E+04  0.27716530033E+04  0.00000000000E+00 0. -1.
          1   -1    0    0  501    0 -0.00000000000E+00 -0.00000000000E+00 -0.50377029608E+03  0.50377029608E+03  0.00000000000E+00 0. -1.
         25    2    1    2    0    0 -0.68610814312E+03  0.15112456454E+03  0.26482476662E+03  0.76114705324E+03  0.12501864490E+03 0.  0.
          2    1    1    2  501    0  0.29085473743E+03  0.34646526828E+02 -0.14178387704E+03  0.32542207653E+03  0.00000000000E+00 0. -1.
          1    1    1    2  502    0  0.39525340569E+03 -0.18577109137E+03  0.21448418176E+04  0.21888541696E+04  0.00000000000E+00 0. -1.
         22    1    3    3    0    0 -0.27953037077E+03  0.41983171694E+02  0.16924960582E+03  0.32946205238E+03  0.00000000000E+00 0.  1.
         22    1    3    3    0    0 -0.40657777236E+03  0.10914139285E+03  0.95575160797E+02  0.43168500086E+03  0.00000000000E+00 0.  1.
</event>
<event>
 7    1  0.9036454E-005  0.1300671E+03  0.7818608E-02  0.1239024E+00
          2   -1    0    0  502    0  0.00000000000E+00  0.00000000000E+00  0.27808082974E+04  0.27808082974E+04  0.00000000000E+00 0. -1.
          1   -1    0    0  501    0 -0.00000000000E+00 -0.00000000000E+00 -0.23728949658E+03  0.23728949658E+03  0.00000000000E+00 0. -1.
         25    2    1    2    0    0 -0.91001496392E+02 -0.12645760815E+03  0.52874441381E+03  0.56521576174E+03  0.12500161269E+03 0.  0.
          2    1    1    2  501    0  0.12961706464E+03  0.17732474699E+02 -0.19788288024E+03  0.23721858780E+03  0.00000000000E+00 0. -1.
          1    1    1    2  502    0 -0.38615568249E+02  0.10872513345E+03  0.22126572672E+04  0.22156634444E+04  0.00000000000E+00 0. -1.
         22    1    3    3    0    0  0.23343688905E+02 -0.66817850040E+02  0.18887134885E+03  0.20169764329E+03  0.00000000000E+00 0.  1.
         22    1    3    3    0    0 -0.11434518530E+03 -0.59639758112E+02  0.33987306497E+03  0.36351811845E+03  0.00000000000E+00 0.  1.
</event>
<event>
 7    1  0.9036454E-005  0.1514726E+03  0.7818608E-02  0.1256949E+00
          2   -1    0    0  502    0  0.00000000000E+00  0.00000000000E+00  0.17581599861E+03  0.17581599861E+03  0.00000000000E+00 0. -1.
          1   -1    0    0  501    0 -0.00000000000E+00 -0.00000000000E+00 -0.20636117025E+04  0.20636117025E+04  0.00000000000E+00 0. -1.
         25    2    1    2    0    0 -0.18319170760E+03 -0.67043137697E+02 -0.35036891318E+03  0.42004345687E+03  0.12499658511E+03 0.  0.
          2    1    1    2  501    0  0.75139392082E+02 -0.34740204881E+02 -0.16379930782E+04  0.16400835754E+04  0.00000000000E+00 0. -1.
          1    1    1    2  502    0  0.10805231552E+03  0.10178334258E+03  0.10056628740E+03  0.17930066892E+03  0.00000000000E+00 0. -1.
         22    1    3    3    0    0 -0.76657551790E+02 -0.73444564974E+02 -0.25765862579E+03  0.27867266068E+03  0.00000000000E+00 0.  1.
         22    1    3    3    0    0 -0.10653415581E+03  0.64014272766E+01 -0.92710287398E+02  0.14137079619E+03  0.00000000000E+00 0.  1.
</event>
<event>
 7    1  0.9036454E-005  0.8518942E+02  0.7818608E-02  0.1330579E+00
          2   -1    0    0  502    0  0.00000000000E+00  0.00000000000E+00  0.22893953282E+04  0.22893953282E+04  0.00000000000E+00 0. -1.
          1   -1    0    0  501    0 -0.00000000000E+00 -0.00000000000E+00 -0.57596139961E+03  0.57596139961E+03  0.00000000000E+00 0. -1.
         25    2    1    2    0    0 -0.10088605323E+03  0.52572440966E+02  0.25856950388E+03  0.30890829703E+03  0.12499716136E+03 0.  0.
          2    1    1    2  501    0  0.31660089997E+02 -0.79069153510E+02 -0.54680925357E+03  0.55340279374E+03  0.00000000000E+00 0. -1.
          1    1    1    2  502    0  0.69225963237E+02  0.26496712544E+02  0.20016736783E+04  0.20030456371E+04  0.00000000000E+00 0. -1.
         22    1    3    3    0    0 -0.98516914575E+02  0.87075084435E+01  0.86730221052E+02  0.13154289948E+03  0.00000000000E+00 0. -1.
         22    1    3    3    0    0 -0.23691386590E+01  0.43864932523E+02  0.17183928283E+03  0.17736539754E+03  0.00000000000E+00 0. -1.
</event>
<event>
 7    1  0.9036454E-005  0.6945397E+03  0.7818608E-02  0.9966879E-01
          2   -1    0    0  502    0  0.00000000000E+00  0.00000000000E+00  0.13281389098E+04  0.13281389098E+04  0.00000000000E+00 0. -1.
          1   -1    0    0  501    0 -0.00000000000E+00 -0.00000000000E+00 -0.12954391958E+04  0.12954391958E+04  0.00000000000E+00 0. -1.
         25    2    1    2    0    0 -0.28733276802E+03  0.79048151784E+03 -0.70420223405E+03  0.11040592942E+04  0.12499995634E+03 0.  0.
          2    1    1    2  501    0 -0.27140171313E+03 -0.38356521068E+03 -0.49561543464E+02  0.47248016606E+03  0.00000000000E+00 0. -1.
          1    1    1    2  502    0  0.55873448115E+03 -0.40691630716E+03  0.78646349147E+03  0.10470386454E+04  0.00000000000E+00 0. -1.
         22    1    3    3    0    0 -0.20970115781E+03  0.59310499812E+03 -0.59326644396E+03  0.86470410425E+03  0.00000000000E+00 0. -1.
         22    1    3    3    0    0 -0.77631610215E+02  0.19737651972E+03 -0.11093579009E+03  0.23935518997E+03  0.00000000000E+00 0. -1.
</event>
<event>
 7    1  0.9036454E-005  0.6340260E+03  0.7818608E-02  0.1058234E+00
          2   -1    0    0  502    0  0.00000000000E+00  0.00000000000E+00  0.21660565794E+04  0.21660565794E+04  0.00000000000E+00 0. -1.
          1   -1    0    0  501    0 -0.00000000000E+00 -0.00000000000E+00 -0.12327346701E+04  0.12327346701E+04  0.00000000000E+00 0. -1.
         25    2    1    2    0    0  0.57077104362E+03 -0.23977380350E+03 -0.98412427374E+03  0.11693568335E+04  0.12499502708E+03 0.  0.
          2    1    1    2  501    0 -0.75301589133E+03  0.33454546577E+03  0.10326432407E+04  0.13211001718E+04  0.00000000000E+00 0. -1.
          1    1    1    2  502    0  0.18224484771E+03 -0.94771662267E+02  0.88480294230E+03  0.90833424420E+03  0.00000000000E+00 0. -1.
         22    1    3    3    0    0  0.17087112342E+03 -0.11857053000E+03 -0.40418561494E+03  0.45455684213E+03  0.00000000000E+00 0. -1.
         22    1    3    3    0    0  0.39989992020E+03 -0.12120327350E+03 -0.57993865880E+03  0.71479999136E+03  0.00000000000E+00 0. -1.
</event>
<event>
 7    1  0.9036454E-005  0.1302969E+04  0.7818608E-02  0.1105620E+00
          2   -1    0    0  502    0  0.00000000000E+00  0.00000000000E+00  0.31470023237E+04  0.31470023237E+04  0.00000000000E+00 0. -1.
          1   -1    0    0  501    0 -0.00000000000E+00 -0.00000000000E+00 -0.16212496386E+04  0.16212496386E+04  0.00000000000E+00 0. -1.
         25    2    1    2    0    0  0.65890353925E+03 -0.10900671892E+04  0.71724880399E+03  0.14671303954E+04  0.12500159676E+03 0.  0.
          2    1    1    2  501    0  0.59690869590E+00 -0.52901528666E+02 -0.10337040785E+04  0.10350570274E+04  0.00000000000E+00 0. -1.
          1    1    1    2  502    0 -0.65950044794E+03  0.11429687179E+04  0.18422079597E+04  0.22660645396E+04  0.00000000000E+00 0. -1.
         22    1    3    3    0    0  0.47338831681E+03 -0.88206455065E+03  0.56753665066E+03  0.11507528926E+04  0.00000000000E+00 0.  1.
         22    1    3    3    0    0  0.18551522243E+03 -0.20800263855E+03  0.14971215333E+03  0.31637750276E+03  0.00000000000E+00 0.  1.
</event>
<event>
 7    1  0.9036454E-005  0.2386440E+03  0.7818608E-02  0.1234858E+00
          2   -1    0    0  502    0  0.00000000000E+00  0.00000000000E+00  0.15086524732E+04  0.15086524732E+04  0.00000000000E+00 0. -1.
          1   -1    0    0  501    0 -0.00000000000E+00 -0.00000000000E+00 -0.58722001876E+02  0.58722001876E+02  0.00000000000E+00 0. -1.
         25    2    1    2    0    0 -0.10086816448E+03  0.21846265979E+03  0.78722969051E+03  0.83261985989E+03  0.12499970051E+03 0.  0.
          2    1    1    2  501    0  0.38145204646E+02 -0.23773092235E+03  0.42823187954E+03  0.49127750888E+03  0.00000000000E+00 0. -1.
          1    1    1    2  502    0  0.62722959834E+02  0.19268262557E+02  0.23446890128E+03  0.24347710632E+03  0.00000000000E+00 0. -1.
         22    1    3    3    0    0  0.21366190659E+02  0.70336887723E+00  0.57610581571E+02  0.61449067853E+02  0.00000000000E+00 0.  1.
         22    1    3    3    0    0 -0.12223435514E+03  0.21775929091E+03  0.72961910894E+03  0.77117079204E+03  0.00000000000E+00 0.  1.
</event>
<event>
 7    1  0.9036454E-005  0.2702497E+03  0.7818608E-02  0.1182708E+00
          2   -1    0    0  502    0  0.00000000000E+00  0.00000000000E+00  0.11426164566E+04  0.11426164566E+04  0.00000000000E+00 0. -1.
          1   -1    0    0  501    0 -0.00000000000E+00 -0.00000000000E+00 -0.11095801163E+04  0.11095801163E+04  0.00000000000E+00 0. -1.
         25    2    1    2    0    0 -0.13804558961E+03 -0.11792493028E+03  0.72397338189E+03  0.75678573593E+03  0.12499727367E+03 0.  0.
          2    1    1    2  501    0  0.23834016920E+03  0.13184787569E+03 -0.10694485731E+04  0.11035896652E+04  0.00000000000E+00 0. -1.
          1    1    1    2  502    0 -0.10029457959E+03 -0.13922945407E+02  0.37851153156E+03  0.39182117175E+03  0.00000000000E+00 0. -1.
         22    1    3    3    0    0 -0.76505354033E+02 -0.47426293472E+02  0.56648844458E+03  0.57359522344E+03  0.00000000000E+00 0.  1.
         22    1    3    3    0    0 -0.61540235575E+02 -0.70498636806E+02  0.15748493731E+03  0.18319051249E+03  0.00000000000E+00 0.  1.
</event>
<event>
 7    1  0.9036454E-005  0.4316604E+03  0.7818608E-02  0.1039803E+00
          2   -1    0    0  502    0  0.00000000000E+00  0.00000000000E+00  0.73572552072E+03  0.73572552072E+03  0.00000000000E+00 0. -1.
          1   -1    0    0  501    0 -0.00000000000E+00 -0.00000000000E+00 -0.10040554414E+04  0.10040554414E+04  0.00000000000E+00 0. -1.
         25    2    1    2    0    0 -0.18085157247E+03 -0.84310043190E+01  0.30116542474E+03  0.37295924762E+03  0.12497845505E+03 0.  0.
          2    1    1    2  501    0  0.36225318903E+03 -0.33981065031E+03 -0.77739815937E+03  0.92252184213E+03  0.00000000000E+00 0. -1.
          1    1    1    2  502    0 -0.18140161656E+03  0.34824165463E+03  0.20790281397E+03  0.44429987234E+03  0.00000000000E+00 0. -1.
         22    1    3    3    0    0 -0.48781643044E+02 -0.42214675796E+02  0.17765909519E+03  0.18900921050E+03  0.00000000000E+00 0. -1.
         22    1    3    3    0    0 -0.13206992943E+03  0.33783671477E+02  0.12350632955E+03  0.18395003712E+03  0.00000000000E+00 0. -1.
</event>
<event>
 7    1  0.1497585E-004  0.5585986E+02  0.7818608E-02  0.1434997E+00
          2   -1    0    0  502    0  0.00000000000E+00  0.00000000000E+00  0.26364941806E+04  0.26364941806E+04  0.00000000000E+00 0. -1.
          1   -1    0    0  501    0 -0.00000000000E+00 -0.00000000000E+00 -0.63732463628E+03  0.63732463628E+03  0.00000000000E+00 0. -1.
         25    2    1    2    0    0  0.32906948992E+02 -0.93753440148E+02 -0.20665208536E+03  0.26115549891E+03  0.12499814158E+03 0.  0.
          2    1    1    2  501    0 -0.45553333649E+00  0.48348702798E+02 -0.40167243901E+03  0.40457206136E+03  0.00000000000E+00 0. -1.
          1    1    1    2  502    0 -0.32451415656E+02  0.45404737351E+02  0.26074940687E+04  0.26080912566E+04  0.00000000000E+00 0. -1.
         22    1    3    3    0    0 -0.52455229330E+01 -0.65447382646E+02 -0.20122822101E+02  0.68671707241E+02  0.00000000000E+00 0.  1.
         22    1    3    3    0    0  0.38152471925E+02 -0.28306057502E+02 -0.18652926326E+03  0.19248379167E+03  0.00000000000E+00 0.  1.
</event>
<event>
 7    1  0.9036454E-005  0.2330156E+03  0.7818608E-02  0.1150182E+00
          2   -1    0    0  502    0  0.00000000000E+00  0.00000000000E+00  0.17435707248E+04  0.17435707248E+04  0.00000000000E+00 0. -1.
          1   -1    0    0  501    0 -0.00000000000E+00 -0.00000000000E+00 -0.27906290236E+03  0.27906290236E+03  0.00000000000E+00 0. -1.
         25    2    1    2    0    0 -0.18968298490E+03 -0.27758048561E+03  0.67642365665E+03  0.76563981083E+03  0.12499918361E+03 0.  0.
          2    1    1    2  501    0  0.20074836794E+03  0.10717667690E+03 -0.16984627090E+03  0.28396215072E+03  0.00000000000E+00 0. -1.
          1    1    1    2  502    0 -0.11065383045E+02  0.17040380871E+03  0.95793043665E+03  0.97303166556E+03  0.00000000000E+00 0. -1.
         22    1    3    3    0    0 -0.44686568637E+02 -0.11281553972E+03  0.36503412016E+03  0.38467407542E+03  0.00000000000E+00 0. -1.
         22    1    3    3    0    0 -0.14499641626E+03 -0.16476494589E+03  0.31138953649E+03  0.38096573541E+03  0.00000000000E+00 0. -1.
</event>
<event>
 7    1  0.9036454E-005  0.1848993E+03  0.7818608E-02  0.1382063E+00
          2   -1    0    0  502    0  0.00000000000E+00  0.00000000000E+00  0.35907915798E+04  0.35907915798E+04  0.00000000000E+00 0. -1.
          1   -1    0    0  501    0 -0.00000000000E+00 -0.00000000000E+00 -0.16549665534E+03  0.16549665534E+03  0.00000000000E+00 0. -1.
         25    2    1    2    0    0 -0.32989539370E+02  0.19393986999E+03  0.15684923414E+03  0.28094035206E+03  0.12499926515E+03 0.  0.
          2    1    1    2  501    0 -0.15323556446E+02 -0.15925468031E+02 -0.99717771561E+02  0.10213748518E+03  0.00000000000E+00 0. -1.
          1    1    1    2  502    0  0.48313095816E+02 -0.17801440196E+03  0.33681634619E+04  0.33732103979E+04  0.00000000000E+00 0. -1.
         22    1    3    3    0    0 -0.38681759958E+01  0.45051200397E+02  0.11499112484E+03  0.12356185591E+03  0.00000000000E+00 0.  1.
         22    1    3    3    0    0 -0.29121363374E+02  0.14888866959E+03  0.41858109298E+02  0.15737849615E+03  0.00000000000E+00 0.  1.
</event>
<event>
 7    1  0.9036454E-005  0.4003741E+03  0.7818608E-02  0.1167501E+00
          2   -1    0    0  502    0  0.00000000000E+00  0.00000000000E+00  0.30421131883E+04  0.30421131883E+04  0.00000000000E+00 0. -1.
          1   -1    0    0  501    0 -0.00000000000E+00 -0.00000000000E+00 -0.23637544304E+03  0.23637544304E+03  0.00000000000E+00 0. -1.
         25    2    1    2    0    0  0.12558288184E+03 -0.38741741342E+03  0.13442178838E+04  0.14101101085E+04  0.12500194679E+03 0.  0.
          2    1    1    2  501    0 -0.45052394716E+02  0.39786756650E+03 -0.41788279210E+01  0.40043199341E+03  0.00000000000E+00 0. -1.
          1    1    1    2  502    0 -0.80530487128E+02 -0.10450153076E+02  0.14656986895E+04  0.14679465295E+04  0.00000000000E+00 0. -1.
         22    1    3    3    0    0  0.11025925569E+03 -0.23383134088E+03  0.66288578138E+03  0.71151370936E+03  0.00000000000E+00 0. -1.
         22    1    3    3    0    0  0.15323626153E+02 -0.15358607254E+03  0.68133210237E+03  0.69859639915E+03  0.00000000000E+00 0. -1.
</event>
<event>
 7    1  0.9036454E-005  0.8717167E+03  0.7818608E-02  0.9846668E-01
          2   -1    0    0  502    0  0.00000000000E+00  0.00000000000E+00  0.18400903793E+04  0.18400903793E+04  0.00000000000E+00 0. -1.
          1   -1    0    0  501    0 -0.00000000000E+00 -0.00000000000E+00 -0.39972774048E+04  0.39972774048E+04  0.00000000000E+00 0. -1.
         25    2    1    2    0    0  0.22520086602E+03  0.49021623733E+03  0.75876632036E+03  0.93934546185E+03  0.12496470856E+03 0.  0.
          2    1    1    2  501    0 -0.66665188418E+03 -0.59669346082E+03 -0.38001393307E+04  0.39040397991E+04  0.00000000000E+00 0. -1.
          1    1    1    2  502    0  0.44145101816E+03  0.10647722348E+03  0.88418598475E+03  0.99398252308E+03  0.00000000000E+00 0. -1.
         22    1    3    3    0    0  0.13843184283E+03  0.32049640696E+03  0.38458271660E+03  0.51940849809E+03  0.00000000000E+00 0. -1.
         22    1    3    3    0    0  0.86769023188E+02  0.16971983037E+03  0.37418360376E+03  0.41993696376E+03  0.00000000000E+00 0. -1.
</event>
<event>
 7    1  0.9036454E-005  0.1180769E+04  0.7818608E-02  0.1044524E+00
          2   -1    0    0  502    0  0.00000000000E+00  0.00000000000E+00  0.19194257570E+04  0.19194257570E+04  0.00000000000E+00 0. -1.
          1   -1    0    0  501    0 -0.00000000000E+00 -0.00000000000E+00 -0.30938150688E+04  0.30938150688E+04  0.00000000000E+00 0. -1.
         25    2    1    2    0    0  0.92316213128E+03 -0.90291234550E+03 -0.12375555913E+04  0.17929438626E+04  0.12499931454E+03 0.  0.
          2    1    1    2  501    0 -0.12157848371E+03  0.56480216145E+02 -0.13679313028E+04  0.13744844094E+04  0.00000000000E+00 0. -1.
          1    1    1    2  502    0 -0.80158364757E+03  0.84643212936E+03  0.14310975822E+04  0.18458125537E+04  0.00000000000E+00 0. -1.
         22    1    3    3    0    0  0.29558924948E+03 -0.32393220926E+03 -0.49567736649E+03  0.66181653972E+03  0.00000000000E+00 0.  1.
         22    1    3    3    0    0  0.62757288181E+03 -0.57898013625E+03 -0.74187822480E+03  0.11311273229E+04  0.00000000000E+00 0.  1.
</event>
<event>
 7    1  0.9036454E-005  0.6718091E+02  0.7818608E-02  0.1393665E+00
          2   -1    0    0  502    0  0.00000000000E+00  0.00000000000E+00  0.10641480216E+04  0.10641480216E+04  0.00000000000E+00 0. -1.
          1   -1    0    0  501    0 -0.00000000000E+00 -0.00000000000E+00 -0.31413377247E+02  0.31413377247E+02  0.00000000000E+00 0. -1.
         25    2    1    2    0    0 -0.59793006225E+02 -0.85360876966E+02  0.89448822399E+03  0.90917078973E+03  0.12498263527E+03 0.  0.
          2    1    1    2  501    0  0.57945327410E+02  0.29996303456E+02  0.50023272716E+02  0.82217802226E+02  0.00000000000E+00 0. -1.
          1    1    1    2  502    0  0.18476788157E+01  0.55364573510E+02  0.88223147671E+02  0.10417280692E+03  0.00000000000E+00 0. -1.
         22    1    3    3    0    0  0.36320698705E+02 -0.22525214633E+02  0.15354251551E+03  0.15937968038E+03  0.00000000000E+00 0. -1.
         22    1    3    3    0    0 -0.96113704930E+02 -0.62835662334E+02  0.74094570848E+03  0.74979110935E+03  0.00000000000E+00 0. -1.
</event>
<event>
 7    1  0.9036454E-005  0.2343611E+03  0.7818608E-02  0.1140558E+00
          2   -1    0    0  502    0  0.00000000000E+00  0.00000000000E+00  0.16251936714E+03  0.16251936714E+03  0.00000000000E+00 0. -1.
          1   -1    0    0  501    0 -0.00000000000E+00 -0.00000000000E+00 -0.21528987395E+04  0.21528987395E+04  0.00000000000E+00 0. -1.
         25    2    1    2    0    0 -0.12286388048E+03 -0.20777168692E+03 -0.71037518885E+02  0.28095593386E+03  0.12500120267E+03 0.  0.
          2    1    1    2  501    0  0.23337204922E+03  0.52639382650E+02 -0.17860156978E+04  0.18019671170E+04  0.00000000000E+00 0. -1.
          1    1    1    2  502    0 -0.11050816874E+03  0.15513230427E+03 -0.13332615571E+03  0.23249505582E+03  0.00000000000E+00 0. -1.
         22    1    3    3    0    0 -0.73906495719E+02 -0.20553196522E+03 -0.37604259461E+02  0.22162950878E+03  0.00000000000E+00 0. -1.
         22    1    3    3    0    0 -0.48957384761E+02 -0.22397216997E+01 -0.33433259424E+02  0.59326425071E+02  0.00000000000E+00 0. -1.
</event>
<event>
 7    1  0.9036454E-005  0.1915085E+03  0.7818608E-02  0.1250442E+00
          2   -1    0    0  502    0  0.00000000000E+00  0.00000000000E+00  0.21596331486E+04  0.21596331486E+04  0.00000000000E+00 0. -1.
          1   -1    0    0  501    0 -0.00000000000E+00 -0.00000000000E+00 -0.58278037671E+03  0.58278037671E+03  0.00000000000E+00 0. -1.
         25    2    1    2    0    0  0.23099946363E+02 -0.14015621061E+03  0.18580843121E+03  0.26519490389E+03  0.12500477209E+03 0.  0.
          2    1    1    2  501    0  0.55992908807E+02 -0.41752694131E+02 -0.53572838126E+03  0.54026233608E+03  0.00000000000E+00 0. -1.
          1    1    1    2  502    0 -0.79092855170E+02  0.18190890474E+03  0.19267727220E+04  0.19369562854E+04  0.00000000000E+00 0. -1.
         22    1    3    3    0    0 -0.27059590972E+02 -0.22723989262E+02  0.11257297745E+03  0.11798845877E+03  0.00000000000E+00 0. -1.
         22    1    3    3    0    0  0.50159537335E+02 -0.11743222135E+03  0.73235453764E+02  0.14720644512E+03  0.00000000000E+00 0. -1.
</event>
<event>
 7    1  0.9036454E-005  0.3262636E+03  0.7818608E-02  0.1139034E+00
          2   -1    0    0  502    0  0.00000000000E+00  0.00000000000E+00  0.34257817916E+03  0.34257817916E+03  0.00000000000E+00 0. -1.
          1   -1    0    0  501    0 -0.00000000000E+00 -0.00000000000E+00 -0.57287111107E+03  0.57287111107E+03  0.00000000000E+00 0. -1.
         25    2    1    2    0    0  0.16578004212E+03 -0.24792281301E+03 -0.21516219197E+03  0.38841779759E+03  0.12499949225E+03 0.  0.
          2    1    1    2  501    0  0.13093759356E+03  0.47700329931E+02  0.74510691874E+02  0.15802473884E+03  0.00000000000E+00 0. -1.
          1    1    1    2  502    0 -0.29671763568E+03  0.20022248308E+03 -0.89641431813E+02  0.36900675380E+03  0.00000000000E+00 0. -1.
         22    1    3    3    0    0  0.75552768799E+02 -0.21159235712E+02 -0.40452411594E+02  0.88274184974E+02  0.00000000000E+00 0.  1.
         22    1    3    3    0    0  0.90227273320E+02 -0.22676357730E+03 -0.17470978037E+03  0.30014361262E+03  0.00000000000E+00 0.  1.
</event>
<event>
 7    1  0.9036454E-005  0.1848284E+03  0.7818608E-02  0.1208256E+00
          2   -1    0    0  502    0  0.00000000000E+00  0.00000000000E+00  0.29866835447E+03  0.29866835447E+03  0.00000000000E+00 0. -1.
          1   -1    0    0  501    0 -0.00000000000E+00 -0.00000000000E+00 -0.54611712170E+03  0.54611712170E+03  0.00000000000E+00 0. -1.
         25    2    1    2    0    0  0.40504026093E+02  0.26392096838E+03  0.16091718981E+02  0.29525957042E+03  0.12499766727E+03 0.  0.
          2    1    1    2  501    0  0.23027101531E+01 -0.11191422694E+03 -0.35140917210E+03  0.36880686395E+03  0.00000000000E+00 0. -1.
          1    1    1    2  502    0 -0.42806736246E+02 -0.15200674144E+03  0.87868685883E+02  0.18071904180E+03  0.00000000000E+00 0. -1.
         22    1    3    3    0    0  0.50938824915E+02  0.16494485664E+03 -0.45103691490E+02  0.17842621052E+03  0.00000000000E+00 0. -1.
         22    1    3    3    0    0 -0.10434798822E+02  0.98976111743E+02  0.61195410470E+02  0.11683335990E+03  0.00000000000E+00 0. -1.
</event>
<event>
 7    1  0.9036454E-005  0.1081970E+04  0.7818608E-02  0.9924336E-01
          2   -1    0    0  502    0  0.00000000000E+00  0.00000000000E+00  0.16862196057E+04  0.16862196057E+04  0.00000000000E+00 0. -1.
          1   -1    0    0  501    0 -0.00000000000E+00 -0.00000000000E+00 -0.35889679224E+04  0.35889679224E+04  0.00000000000E+00 0. -1.
         25    2    1    2    0    0  0.83297434457E+02  0.10703740666E+04  0.11043124999E+04  0.15452413053E+04  0.12500195603E+03 0.  0.
          2    1    1    2  501    0 -0.31711260777E+03  0.60212308079E+02 -0.24074891781E+04  0.24290306854E+04  0.00000000000E+00 0. -1.
          1    1    1    2  502    0  0.23381517332E+03 -0.11305863747E+04 -0.59957163856E+03  0.13009155375E+04  0.00000000000E+00 0. -1.
         22    1    3    3    0    0  0.51299385326E+02  0.99191640757E+03  0.10456088866E+04  0.14421607852E+04  0.00000000000E+00 0. -1.
         22    1    3    3    0    0  0.31998049131E+02  0.78457659034E+02  0.58703613326E+02  0.10308052011E+03  0.00000000000E+00 0. -1.
</event>
<event>
 7    1  0.9036454E-005  0.3173917E+03  0.7818608E-02  0.1190501E+00
          2   -1    0    0  502    0  0.00000000000E+00  0.00000000000E+00  0.92522052557E+03  0.92522052557E+03  0.00000000000E+00 0. -1.
          1   -1    0    0  501    0 -0.00000000000E+00 -0.00000000000E+00 -0.23057473014E+04  0.23057473014E+04  0.00000000000E+00 0. -1.
         25    2    1    2    0    0  0.21639640518E+02 -0.35524186947E+03 -0.14263169816E+04  0.14753545399E+04  0.12500330616E+03 0.  0.
          2    1    1    2  501    0  0.66086648070E+01  0.28139578843E+03 -0.82991390885E+03  0.87634716881E+03  0.00000000000E+00 0. -1.
          1    1    1    2  502    0 -0.28248305325E+02  0.73846081043E+02  0.87570411459E+03  0.87926611828E+03  0.00000000000E+00 0. -1.
         22    1    3    3    0    0  0.14693991796E+02 -0.43852059602E+02 -0.40412648724E+03  0.40676422435E+03  0.00000000000E+00 0.  1.
         22    1    3    3    0    0  0.69456487224E+01 -0.31138980987E+03 -0.10221904943E+04  0.10685903155E+04  0.00000000000E+00 0.  1.
</event>
<event>
 7    1  0.9036454E-005  0.4658215E+03  0.7818608E-02  0.1122291E+00
          2   -1    0    0  502    0  0.00000000000E+00  0.00000000000E+00  0.71899991526E+03  0.71899991526E+03  0.00000000000E+00 0. -1.
          1   -1    0    0  501    0 -0.00000000000E+00 -0.00000000000E+00 -0.28678904400E+04  0.28678904400E+04  0.00000000000E+00 0. -1.
         25    2    1    2    0    0  0.15664280176E+03  0.36132653620E+03 -0.20988419223E+04  0.21391247019E+04  0.12499296872E+03 0.  0.
          2    1    1    2  501    0 -0.67578800759E+02  0.98988397664E+02 -0.66429984485E+03  0.67502583732E+03  0.00000000000E+00 0. -1.
          1    1    1    2  502    0 -0.89064001004E+02 -0.46031493386E+03  0.61425124238E+03  0.77273981609E+03  0.00000000000E+00 0. -1.
         22    1    3    3    0    0  0.12077163628E+03  0.12623086740E+03 -0.82951964491E+03  0.84771626226E+03  0.00000000000E+00 0.  1.
         22    1    3    3    0    0  0.35871165481E+02  0.23509566880E+03 -0.12693222774E+04  0.12914084396E+04  0.00000000000E+00 0.  1.
</event>
<event>
 7    1  0.9036454E-005  0.1600104E+03  0.7818608E-02  0.1336937E+00
          2   -1    0    0  502    0  0.00000000000E+00  0.00000000000E+00  0.83297807982E+02  0.83297807982E+02  0.00000000000E+00 0. -1.
          1   -1    0    0  501    0 -0.00000000000E+00 -0.00000000000E+00 -0.92472001752E+03  0.92472001752E+03  0.00000000000E+00 0. -1.
         25    2    1    2    0    0 -0.35244828389E+01  0.13140889911E+03 -0.71955609120E+03  0.74207001843E+03  0.12500489243E+03 0.  0.
          2    1    1    2  501    0 -0.21262773287E+02  0.30681396773E+02 -0.91987680539E+02  0.99273294529E+02  0.00000000000E+00 0. -1.
          1    1    1    2  502    0  0.24787256126E+02 -0.16209029588E+03 -0.29878437800E+02  0.16667451254E+03  0.00000000000E+00 0. -1.
         22    1    3    3    0    0  0.29289921907E+02  0.69466971582E+02 -0.14666635491E+03  0.16490779038E+03  0.00000000000E+00 0.  1.
         22    1    3    3    0    0 -0.32814404746E+02  0.61941927525E+02 -0.57288973629E+03  0.57716222805E+03  0.00000000000E+00 0.  1.
</event>
<event>
 7    1  0.9036454E-005  0.9523295E+02  0.7818608E-02  0.1401095E+00
          2   -1    0    0  502    0  0.00000000000E+00  0.00000000000E+00  0.34274403092E+04  0.34274403092E+04  0.00000000000E+00 0. -1.
          1   -1    0    0  501    0 -0.00000000000E+00 -0.00000000000E+00 -0.30204915658E+02  0.30204915658E+02  0.00000000000E+00 0. -1.
         25    2    1    2    0    0  0.63405545774E+02  0.33768290145E+01  0.13849228056E+04  0.13920013578E+04  0.12499974561E+03 0.  0.
          2    1    1    2  501    0 -0.94592269530E+02 -0.22981974241E+02  0.62931605811E+02  0.11591486361E+03  0.00000000000E+00 0. -1.
          1    1    1    2  502    0  0.31186723756E+02  0.19605145226E+02  0.19493809821E+04  0.19497290035E+04  0.00000000000E+00 0. -1.
         22    1    3    3    0    0 -0.27054550527E+02  0.34508983538E+02  0.50162145949E+03  0.50353441517E+03  0.00000000000E+00 0. -1.
         22    1    3    3    0    0  0.90460096300E+02 -0.31132154523E+02  0.88330134614E+03  0.88846694264E+03  0.00000000000E+00 0. -1.
</event>
<event>
 7    1  0.9036454E-005  0.1553869E+03  0.7818608E-02  0.1202983E+00
          2   -1    0    0  502    0  0.00000000000E+00  0.00000000000E+00  0.39305935579E+03  0.39305935579E+03  0.00000000000E+00 0. -1.
          1   -1    0    0  501    0 -0.00000000000E+00 -0.00000000000E+00 -0.23499003526E+04  0.23499003526E+04  0.00000000000E+00 0. -1.
         25    2    1    2    0    0  0.11056717216E+02 -0.18369373443E+03 -0.16780756511E+01  0.22247397357E+03  0.12500485556E+03 0.  0.
          2    1    1    2  501    0  0.11344952749E+03  0.83588695601E+02 -0.22128290156E+04  0.22173114616E+04  0.00000000000E+00 0. -1.
          1    1    1    2  502    0 -0.12450624471E+03  0.10010503883E+03  0.25766609441E+03  0.30317427328E+03  0.00000000000E+00 0. -1.
         22    1    3    3    0    0 -0.21941913850E+02 -0.14379580414E+03 -0.47822052757E+02  0.15311965779E+03  0.00000000000E+00 0.  1.
         22    1    3    3    0    0  0.32998631066E+02 -0.39897930286E+02  0.46143977106E+02  0.69354315774E+02  0.00000000000E+00 0.  1.
</event>
<event>
 7    1  0.9036454E-005  0.6606061E+03  0.7818608E-02  0.1102123E+00
          2   -1    0    0  502    0  0.00000000000E+00  0.00000000000E+00  0.47558870938E+03  0.47558870938E+03  0.00000000000E+00 0. -1.
          1   -1    0    0  501    0 -0.00000000000E+00 -0.00000000000E+00 -0.14564342878E+04  0.14564342878E+04  0.00000000000E+00 0. -1.
         25    2    1    2    0    0  0.13129395094E+02 -0.71077472398E+03 -0.88587706093E+03  0.11427052846E+04  0.12499644394E+03 0.  0.
          2    1    1    2  501    0 -0.84740805161E+02  0.68805036259E+02 -0.92939955088E+02  0.14336307867E+03  0.00000000000E+00 0. -1.
          1    1    1    2  502    0  0.71611410067E+02  0.64196968773E+03 -0.20285623674E+01  0.64595463391E+03  0.00000000000E+00 0. -1.
         22    1    3    3    0    0  0.29763332491E+02 -0.29109170265E+03 -0.27634606284E+03  0.40247656051E+03  0.00000000000E+00 0.  1.
         22    1    3    3    0    0 -0.16633937397E+02 -0.41968302134E+03 -0.60953099809E+03  0.74022872405E+03  0.00000000000E+00 0.  1.
</event>
<event>
 7    1  0.9036454E-005  0.7115059E+02  0.7818608E-02  0.1379139E+00
          2   -1    0    0  502    0  0.00000000000E+00  0.00000000000E+00  0.18878147339E+02  0.18878147339E+02  0.00000000000E+00 0. -1.
          1   -1    0    0  501    0 -0.00000000000E+00 -0.00000000000E+00 -0.16492033064E+04  0.16492033064E+04  0.00000000000E+00 0. -1.
         25    2    1    2    0    0  0.26623099020E+02  0.16850494799E+02 -0.10758460011E+04  0.10835416356E+04  0.12500051754E+03 0.  0.
          2    1    1    2  501    0 -0.87569698986E+02 -0.53564500752E+02 -0.42040370824E+03  0.43275499515E+03  0.00000000000E+00 0. -1.
          1    1    1    2  502    0  0.60946599965E+02  0.36714005953E+02 -0.13407544979E+03  0.15178482308E+03  0.00000000000E+00 0. -1.
         22    1    3    3    0    0 -0.36663413662E+02 -0.60583007582E+01 -0.74461448933E+03  0.74554117701E+03  0.00000000000E+00 0.  1.
         22    1    3    3    0    0  0.63286512683E+02  0.22908795557E+02 -0.33123151174E+03  0.33800045854E+03  0.00000000000E+00 0.  1.
</event>
<event>
 7    1  0.9036454E-005  0.9611389E+02  0.7818608E-02  0.1300174E+00
          2   -1    0    0  502    0  0.00000000000E+00  0.00000000000E+00  0.71084793559E+03  0.71084793559E+03  0.00000000000E+00 0. -1.
          1   -1    0    0  501    0 -0.00000000000E+00 -0.00000000000E+00 -0.43812533048E+03  0.43812533048E+03  0.00000000000E+00 0. -1.
         25    2    1    2    0    0  0.10504837408E+02 -0.65023944587E+02  0.25709385376E+03  0.29336140671E+03  0.12500080131E+03 0.  0.
          2    1    1    2  501    0  0.75787172821E+02  0.61216052340E+02 -0.40994443443E+03  0.42136153117E+03  0.00000000000E+00 0. -1.
          1    1    1    2  502    0 -0.86292010228E+02  0.38078922470E+01  0.42557318578E+03  0.43425032818E+03  0.00000000000E+00 0. -1.
         22    1    3    3    0    0  0.40169868954E+02 -0.90760011727E+02  0.15588842304E+03  0.18480313455E+03  0.00000000000E+00 0. -1.
         22    1    3    3    0    0 -0.29665031547E+02  0.25736067139E+02  0.10120543072E+03  0.10855827217E+03  0.00000000000E+00 0. -1.
</event>
<event>
 7    1  0.9036454E-005  0.3906984E+03  0.7818608E-02  0.1127651E+00
          2   -1    0    0  502    0  0.00000000000E+00  0.00000000000E+00  0.10090231927E+04  0.10090231927E+04  0.00000000000E+00 0. -1.
          1   -1    0    0  501    0 -0.00000000000E+00 -0.00000000000E+00 -0.99628494944E+03  0.99628494944E+03  0.00000000000E+00 0. -1.
         25    2    1    2    0    0 -0.28297816873E+02  0.39939999679E+03 -0.45336919555E+03  0.61764872780E+03  0.12500079845E+03 0.  0.
          2    1    1    2  501    0 -0.12754657733E+03 -0.40159268343E+02 -0.40826445357E+03  0.42960535410E+03  0.00000000000E+00 0. -1.
          1    1    1    2  502    0  0.15584439420E+03 -0.35924072845E+03  0.87437189236E+03  0.95805406023E+03  0.00000000000E+00 0. -1.
         22    1    3    3    0    0 -0.64684494164E+02  0.18254845202E+03 -0.26426038529E+03  0.32763023724E+03  0.00000000000E+00 0. -1.
         22    1    3    3    0    0  0.36386677290E+02  0.21685154477E+03 -0.18910881026E+03  0.29001849057E+03  0.00000000000E+00 0. -1.
</event>
<event>
 7    1  0.9036454E-005  0.4913359E+03  0.7818608E-02  0.1060907E+00
          2   -1    0    0  502    0  0.00000000000E+00  0.00000000000E+00  0.27714672395E+03  0.27714672395E+03  0.00000000000E+00 0. -1.
          1   -1    0    0  501    0 -0.00000000000E+00 -0.00000000000E+00 -0.16708279241E+04  0.16708279241E+04  0.00000000000E+00 0. -1.
         25    2    1    2    0    0 -0.50197066154E+03  0.24783404658E+03 -0.10944028006E+04  0.12356131665E+04  0.12500458957E+03 0.  0.
          2    1    1    2  501    0  0.36559650295E+03 -0.31972441166E+02 -0.79580053902E+02  0.37552100466E+03  0.00000000000E+00 0. -1.
          1    1    1    2  502    0  0.13637415859E+03 -0.21586160541E+03 -0.21969834558E+03  0.33684047690E+03  0.00000000000E+00 0. -1.
         22    1    3    3    0    0 -0.19315638710E+03  0.15652063107E+03 -0.41534856348E+03  0.48406872138E+03  0.00000000000E+00 0.  1.
         22    1    3    3    0    0 -0.30881427444E+03  0.91313415512E+02 -0.67905423716E+03  0.75154444509E+03  0.00000000000E+00 0.  1.
</event>
<event>
 7    1  0.9036454E-005  0.1693025E+03  0.7818608E-02  0.1184775E+00
          2   -1    0    0  502    0  0.00000000000E+00  0.00000000000E+00  0.25623607390E+04  0.25623607390E+04  0.00000000000E+00 0. -1.
          1   -1    0    0  501    0 -0.00000000000E+00 -0.00000000000E+00 -0.10828155883E+03  0.10828155883E+03  0.00000000000E+00 0. -1.
         25    2    1    2    0    0  0.20455981733E+03  0.11348789486E+03  0.36755842030E+03  0.45326422282E+03  0.12500016882E+03 0.  0.
          2    1    1    2  501    0 -0.15985466848E+03  0.37995940028E+02  0.45824307783E+02  0.17057864368E+03  0.00000000000E+00 0. -1.
          1    1    1    2  502    0 -0.44705148846E+02 -0.15148383489E+03  0.20406964521E+04  0.20467994314E+04  0.00000000000E+00 0. -1.
         22    1    3    3    0    0  0.14821077518E+03  0.13806457985E+03  0.29935760613E+03  0.36144603807E+03  0.00000000000E+00 0.  1.
         22    1    3    3    0    0  0.56349042147E+02 -0.24576684991E+02  0.68200814178E+02  0.91818184749E+02  0.00000000000E+00 0.  1.
</event>
<event>
 7    1  0.9036454E-005  0.1006434E+03  0.7818608E-02  0.1331547E+00
          2   -1    0    0  502    0  0.00000000000E+00  0.00000000000E+00  0.65141189589E+03  0.65141189589E+03  0.00000000000E+00 0. -1.
          1   -1    0    0  501    0 -0.00000000000E+00 -0.00000000000E+00 -0.38783964189E+03  0.38783964189E+03  0.00000000000E+00 0. -1.
         25    2    1    2    0    0  0.40873498112E+02 -0.15337170494E+03 -0.27142360904E+03  0.33835823359E+03  0.12498798331E+03 0.  0.
          2    1    1    2  501    0 -0.30918731552E+02  0.53983143025E+02 -0.66556845372E+02  0.91104123713E+02  0.00000000000E+00 0. -1.
          1    1    1    2  502    0 -0.99547665603E+01  0.99388561915E+02  0.60155270842E+03  0.60978918047E+03  0.00000000000E+00 0. -1.
         22    1    3    3    0    0  0.54109988974E+02 -0.10919307938E+02 -0.10704859286E+03  0.12044302980E+03  0.00000000000E+00 0. -1.
         22    1    3    3    0    0 -0.13236490862E+02 -0.14245239700E+03 -0.16437501618E+03  0.21791520379E+03  0.00000000000E+00 0. -1.
</event>
<event>
 7    1  0.9036454E-005  0.8020790E+03  0.7818608E-02  0.1226562E+00
          2   -1    0    0  502    0  0.00000000000E+00  0.00000000000E+00  0.15182677834E+04  0.15182677834E+04  0.00000000000E+00 0. -1.
          1   -1    0    0  501    0 -0.00000000000E+00 -0.00000000000E+00 -0.11826227616E+04  0.11826227616E+04  0.00000000000E+00 0. -1.
         25    2    1    2    0    0  0.78156853058E+03 -0.16631746552E+03  0.12261471057E+04  0.14688677925E+04  0.12499999916E+03 0.  0.
          2    1    1    2  501    0 -0.78022482657E+03  0.18754142591E+03 -0.90246045207E+03  0.12076247074E+04  0.00000000000E+00 0. -1.
          1    1    1    2  502    0 -0.13437040113E+01 -0.21223960388E+02  0.11958368120E+02  0.24398045067E+02  0.00000000000E+00 0. -1.
         22    1    3    3    0    0  0.27949714006E+03 -0.48338798556E+01  0.37841234996E+03  0.47046564625E+03  0.00000000000E+00 0.  1.
         22    1    3    3    0    0  0.50207139052E+03 -0.16148358567E+03  0.84773475573E+03  0.99840214628E+03  0.00000000000E+00 0.  1.
</event>
<event>
 7    1  0.9036454E-005  0.1663960E+03  0.7818608E-02  0.1339217E+00
          2   -1    0    0  502    0  0.00000000000E+00  0.00000000000E+00  0.99812636897E+03  0.99812636897E+03  0.00000000000E+00 0. -1.
          1   -1    0    0  501    0 -0.00000000000E+00 -0.00000000000E+00 -0.80309466018E+02  0.80309466018E+02  0.00000000000E+00 0. -1.
         25    2    1    2    0    0  0.18910535159E+03 -0.45019927152E+02  0.63288894613E+03  0.67376642108E+03  0.12500057685E+03 0.  0.
          2    1    1    2  501    0 -0.15412424475E+03  0.48869664201E+02  0.53095780279E+02  0.17018134087E+03  0.00000000000E+00 0. -1.
          1    1    1    2  502    0 -0.34981106838E+02 -0.38497370487E+01  0.23183217655E+03  0.23448807303E+03  0.00000000000E+00 0. -1.
         22    1    3    3    0    0 -0.42889683437E+01  0.35635839563E+01 -0.36905108016E+01  0.66868714690E+01  0.00000000000E+00 0. -1.
         22    1    3    3    0    0  0.19339431993E+03 -0.48583511108E+02  0.63657945693E+03  0.66707954961E+03  0.00000000000E+00 0. -1.
</event>
<event>
 7    1  0.9036454E-005  0.3341160E+03  0.7818608E-02  0.1145423E+00
          2   -1    0    0  502    0  0.00000000000E+00  0.00000000000E+00  0.20446033257E+04  0.20446033257E+04  0.00000000000E+00 0. -1.
          1   -1    0    0  501    0 -0.00000000000E+00 -0.00000000000E+00 -0.11114144193E+04  0.11114144193E+04  0.00000000000E+00 0. -1.
         25    2    1    2    0    0 -0.35326100304E+03 -0.25449240636E+02 -0.66385641959E+03  0.76274010835E+03  0.12500450766E+03 0.  0.
          2    1    1    2  501    0  0.30683540214E+03 -0.91715246825E+02 -0.33132167346E+03  0.46079681185E+03  0.00000000000E+00 0. -1.
          1    1    1    2  502    0  0.46425600895E+02  0.11716448746E+03  0.19283669995E+04  0.19324808248E+04  0.00000000000E+00 0. -1.
         22    1    3    3    0    0 -0.35996757042E+03 -0.33268585518E+02 -0.65832022875E+03  0.75104525438E+03  0.00000000000E+00 0. -1.
         22    1    3    3    0    0  0.67065673818E+01  0.78193448821E+01 -0.55361908393E+01  0.11694853973E+02  0.00000000000E+00 0. -1.
</event>
<event>
 7    1  0.9036454E-005  0.3492926E+03  0.7818608E-02  0.1215856E+00
          2   -1    0    0  502    0  0.00000000000E+00  0.00000000000E+00  0.10232750088E+04  0.10232750088E+04  0.00000000000E+00 0. -1.
          1   -1    0    0  501    0 -0.00000000000E+00 -0.00000000000E+00 -0.15640223606E+03  0.15640223606E+03  0.00000000000E+00 0. -1.
         25    2    1    2    0    0 -0.36085190610E+03 -0.24755865582E+02  0.54799799887E+03  0.66839596351E+03  0.12499762498E+03 0.  0.
          2    1    1    2  501    0  0.34213300607E+03 -0.26568228970E+02  0.29107416772E+03  0.44998337275E+03  0.00000000000E+00 0. -1.
          1    1    1    2  502    0  0.18718900022E+02  0.51324094553E+02  0.27800606190E+02  0.61297908645E+02  0.00000000000E+00 0. -1.
         22    1    3    3    0    0 -0.29443871324E+03  0.10530987721E+02  0.49619976981E+03  0.57707821750E+03  0.00000000000E+00 0. -1.
         22    1    3    3    0    0 -0.66413192858E+02 -0.35286853303E+02  0.51798229062E+02  0.91317746006E+02  0.00000000000E+00 0. -1.
</event>
<event>
 7    1  0.9036454E-005  0.8778127E+02  0.7818608E-02  0.1480142E+00
          2   -1    0    0  502    0  0.00000000000E+00  0.00000000000E+00  0.16801651306E+03  0.16801651306E+03  0.00000000000E+00 0. -1.
          1   -1    0    0  501    0 -0.00000000000E+00 -0.00000000000E+00 -0.11471363984E+03  0.11471363984E+03  0.00000000000E+00 0. -1.
         25    2    1    2    0    0 -0.70149020247E+02 -0.36202491331E+02  0.24791529811E+02  0.14993086151E+03  0.12503254721E+03 0.  0.
          2    1    1    2  501    0 -0.20717603205E+02  0.78054911218E+01  0.30367177684E+02  0.37580716527E+02  0.00000000000E+00 0. -1.
          1    1    1    2  502    0  0.90866623452E+02  0.28397000209E+02 -0.18558342742E+01  0.95218574865E+02  0.00000000000E+00 0. -1.
         22    1    3    3    0    0 -0.61676092345E+02  0.11497530262E+01  0.68254573105E+02  0.91999723091E+02  0.00000000000E+00 0.  1.
         22    1    3    3    0    0 -0.84729279015E+01 -0.37352244357E+02 -0.43463043295E+02  0.57931138416E+02  0.00000000000E+00 0.  1.
</event>
<event>
 7    1  0.9036454E-005  0.2706303E+03  0.7818608E-02  0.1127119E+00
          2   -1    0    0  502    0  0.00000000000E+00  0.00000000000E+00  0.43940649195E+04  0.43940649195E+04  0.00000000000E+00 0. -1.
          1   -1    0    0  501    0 -0.00000000000E+00 -0.00000000000E+00 -0.10025210251E+03  0.10025210251E+03  0.00000000000E+00 0. -1.
         25    2    1    2    0    0 -0.73826392280E+02  0.14833366166E+03  0.26878621035E+04  0.26958632896E+04  0.12499190967E+03 0.  0.
          2    1    1    2  501    0 -0.13952418049E+03  0.23189169599E+03  0.23027446198E+03  0.35534079902E+03  0.00000000000E+00 0. -1.
          1    1    1    2  502    0  0.21335057277E+03 -0.38022535764E+03  0.13756762516E+04  0.14431129335E+04  0.00000000000E+00 0. -1.
         22    1    3    3    0    0 -0.44410270302E+02  0.13388022096E+03  0.25594717887E+04  0.25633556177E+04  0.00000000000E+00 0.  1.
         22    1    3    3    0    0 -0.29416121979E+02  0.14453440696E+02  0.12839031479E+03  0.13250767190E+03  0.00000000000E+00 0.  1.
</event>
<event>
 7    1  0.9036454E-005  0.1428200E+04  0.7818608E-02  0.1008024E+00
          2   -1    0    0  502    0  0.00000000000E+00  0.00000000000E+00  0.18173008162E+04  0.18173008162E+04  0.00000000000E+00 0. -1.
          1   -1    0    0  501    0 -0.00000000000E+00 -0.00000000000E+00 -0.23302911870E+04  0.23302911870E+04  0.00000000000E+00 0. -1.
         25    2    1    2    0    0 -0.99684077823E+03 -0.10090125348E+04  0.10383668246E+03  0.14276571761E+04  0.12500049338E+03 0.  0.
          2    1    1    2  501    0  0.12893857386E+03 -0.14129513361E+03 -0.11632097335E+04  0.11788326237E+04  0.00000000000E+00 0. -1.
          1    1    1    2  502    0  0.86790220436E+03  0.11503076684E+04  0.54638268027E+03  0.15411022035E+04  0.00000000000E+00 0. -1.
         22    1    3    3    0    0 -0.63267919762E+03 -0.72304165497E+03  0.62816968449E+02  0.96281782984E+03  0.00000000000E+00 0.  1.
         22    1    3    3    0    0 -0.36416158060E+03 -0.28597087978E+03  0.41019714012E+02  0.46483934624E+03  0.00000000000E+00 0.  1.
</event>
<event>
 7    1  0.9036454E-005  0.2400433E+03  0.7818608E-02  0.1130298E+00
          2   -1    0    0  502    0  0.00000000000E+00  0.00000000000E+00  0.59518135721E+03  0.59518135721E+03  0.00000000000E+00 0. -1.
          1   -1    0    0  501    0 -0.00000000000E+00 -0.00000000000E+00 -0.21115442356E+04  0.21115442356E+04  0.00000000000E+00 0. -1.
         25    2    1    2    0    0 -0.23888152855E+02  0.28593838251E+03 -0.43844814007E+03  0.53869698012E+03  0.12500504957E+03 0.  0.
          2    1    1    2  501    0 -0.16354802631E+03 -0.13279186792E+03 -0.15887997825E+04  0.16027059575E+04  0.00000000000E+00 0. -1.
          1    1    1    2  502    0  0.18743617917E+03 -0.15314651459E+03  0.51088504418E+03  0.56532265527E+03  0.00000000000E+00 0. -1.
         22    1    3    3    0    0 -0.19496909757E+02 -0.37429166927E+01 -0.52362276565E+02  0.55999526092E+02  0.00000000000E+00 0. -1.
         22    1    3    3    0    0 -0.43912430979E+01  0.28968129921E+03 -0.38608586350E+03  0.48269745402E+03  0.00000000000E+00 0. -1.
</event>
<event>
 7    1  0.9036454E-005  0.4215898E+03  0.7818608E-02  0.1173271E+00
          2   -1    0    0  502    0  0.00000000000E+00  0.00000000000E+00  0.16119302862E+04  0.16119302862E+04  0.00000000000E+00 0. -1.
          1   -1    0    0  501    0 -0.00000000000E+00 -0.00000000000E+00 -0.57781391763E+03  0.57781391763E+03  0.00000000000E+00 0. -1.
         25    2    1    2    0    0  0.12325697206E+03 -0.38407814547E+03  0.29925379187E+03  0.51757708771E+03  0.12499962713E+03 0.  0.
          2    1    1    2  501    0  0.72176339714E+02  0.17344195176E+01 -0.42722645050E+03  0.43328382410E+03  0.00000000000E+00 0. -1.
          1    1    1    2  502    0 -0.19543331178E+03  0.38234372595E+03  0.11620890272E+04  0.12388832920E+04  0.00000000000E+00 0. -1.
         22    1    3    3    0    0  0.21649864874E+01 -0.15964943649E+03  0.16412319365E+03  0.22897391212E+03  0.00000000000E+00 0.  1.
         22    1    3    3    0    0  0.12109198557E+03 -0.22442870897E+03  0.13513059823E+03  0.28860317559E+03  0.00000000000E+00 0.  1.
</event>
<event>
 7    1  0.9036454E-005  0.2400739E+03  0.7818608E-02  0.1227290E+00
          2   -1    0    0  502    0  0.00000000000E+00  0.00000000000E+00  0.69210300872E+03  0.69210300872E+03  0.00000000000E+00 0. -1.
          1   -1    0    0  501    0 -0.00000000000E+00 -0.00000000000E+00 -0.56236116037E+03  0.56236116037E+03  0.00000000000E+00 0. -1.
         25    2    1    2    0    0  0.13155058215E+03 -0.17114756043E+03 -0.75448985416E+02  0.26060022560E+03  0.12499154002E+03 0.  0.
          2    1    1    2  501    0  0.65563568019E+02  0.25959324990E+02 -0.36583635450E+03  0.37257040446E+03  0.00000000000E+00 0. -1.
          1    1    1    2  502    0 -0.19711415017E+03  0.14518823544E+03  0.57102718826E+03  0.62129353903E+03  0.00000000000E+00 0. -1.
         22    1    3    3    0    0  0.10457943828E+03 -0.16059597164E+03 -0.13385892107E+02  0.19211222535E+03  0.00000000000E+00 0.  1.
         22    1    3    3    0    0  0.26971143868E+02 -0.10551588782E+02 -0.62063093309E+02  0.68488000252E+02  0.00000000000E+00 0.  1.
</event>
<event>
 7    1  0.9036454E-005  0.9864480E+02  0.7818608E-02  0.1340054E+00
          2   -1    0    0  502    0  0.00000000000E+00  0.00000000000E+00  0.42873779900E+03  0.42873779900E+03  0.00000000000E+00 0. -1.
          1   -1    0    0  501    0 -0.00000000000E+00 -0.00000000000E+00 -0.15049255393E+03  0.15049255393E+03  0.00000000000E+00 0. -1.
         25    2    1    2    0    0 -0.94835934265E+02 -0.26617756653E+02  0.30607412494E+03  0.34497631436E+03  0.12499971246E+03 0.  0.
          2    1    1    2  501    0  0.21942039294E+02 -0.54697131439E+02 -0.90759234724E+02  0.10821491563E+03  0.00000000000E+00 0. -1.
          1    1    1    2  502    0  0.72893894970E+02  0.81314888092E+02  0.62930354860E+02  0.12603912294E+03  0.00000000000E+00 0. -1.
         22    1    3    3    0    0 -0.66854735971E+02 -0.51440159038E+02  0.81450505746E+02  0.11725967154E+03  0.00000000000E+00 0.  1.
         22    1    3    3    0    0 -0.27981198293E+02  0.24822402385E+02  0.22462361919E+03  0.22771664282E+03  0.00000000000E+00 0.  1.
</event>
<event>
 7    1  0.9036454E-005  0.8724914E+02  0.7818608E-02  0.1481840E+00
          2   -1    0    0  502    0  0.00000000000E+00  0.00000000000E+00  0.10773433016E+02  0.10773433016E+02  0.00000000000E+00 0. -1.
          1   -1    0    0  501    0 -0.00000000000E+00 -0.00000000000E+00 -0.32135215650E+04  0.32135215650E+04  0.00000000000E+00 0. -1.
         25    2    1    2    0    0 -0.69367048021E+01 -0.77427203201E+02 -0.58927411665E+03  0.60739021244E+03  0.12504317635E+03 0.  0.
          2    1    1    2  501    0  0.28042387560E+02  0.83667768900E+02 -0.24844862975E+04  0.24860528622E+04  0.00000000000E+00 0. -1.
          1    1    1    2  502    0 -0.21105682758E+02 -0.62405656996E+01 -0.12898771782E+03  0.13085192339E+03  0.00000000000E+00 0. -1.
         22    1    3    3    0    0 -0.59112593415E+02 -0.70708125199E+02 -0.42580372177E+03  0.43566357105E+03  0.00000000000E+00 0.  1.
         22    1    3    3    0    0  0.52175888613E+02 -0.67190780019E+01 -0.16347039488E+03  0.17172664139E+03  0.00000000000E+00 0.  1.
</event>
<event>
 7    1  0.9036454E-005  0.6712797E+02  0.7818608E-02  0.1385735E+00
          2   -1    0    0  502    0  0.00000000000E+00  0.00000000000E+00  0.92753379094E+03  0.92753379094E+03  0.00000000000E+00 0. -1.
          1   -1    0    0  501    0 -0.00000000000E+00 -0.00000000000E+00 -0.11312404567E+04  0.11312404567E+04  0.00000000000E+00 0. -1.
         25    2    1    2    0    0 -0.56367019922E+02 -0.58068680662E+02  0.63217828731E+03  0.64947959880E+03  0.12500059881E+03 0.  0.
          2    1    1    2  501    0  0.67144849382E+02 -0.28386417477E-01 -0.11185278610E+04  0.11205413904E+04  0.00000000000E+00 0. -1.
          1    1    1    2  502    0 -0.10777829460E+02  0.58097067079E+02  0.28264290801E+03  0.28875325844E+03  0.00000000000E+00 0. -1.
         22    1    3    3    0    0 -0.50378319058E+02 -0.80136560124E+02  0.26163417465E+03  0.27823063211E+03  0.00000000000E+00 0.  1.
         22    1    3    3    0    0 -0.59887008637E+01  0.22067879462E+02  0.37054411265E+03  0.37124896669E+03  0.00000000000E+00 0.  1.
</event>
<event>
 7    1  0.9036454E-005  0.1972377E+03  0.7818608E-02  0.1205550E+00
          2   -1    0    0  502    0  0.00000000000E+00  0.00000000000E+00  0.17010680988E+04  0.17010680988E+04  0.00000000000E+00 0. -1.
          1   -1    0    0  501    0 -0.00000000000E+00 -0.00000000000E+00 -0.38619653433E+03  0.38619653433E+03  0.00000000000E+00 0. -1.
         25    2    1    2    0    0 -0.18912401945E+02  0.21636957734E+03 -0.16417900074E+03  0.29958959182E+03  0.12500282516E+03 0.  0.
          2    1    1    2  501    0 -0.93488992309E+02 -0.54045122403E+02 -0.12861130922E+03  0.16793431989E+03  0.00000000000E+00 0. -1.
          1    1    1    2  502    0  0.11240139425E+03 -0.16232445493E+03  0.16076618744E+04  0.16197407214E+04  0.00000000000E+00 0. -1.
         22    1    3    3    0    0 -0.20384658957E+02  0.12207054095E+03 -0.16377541936E+03  0.20527819971E+03  0.00000000000E+00 0.  1.
         22    1    3    3    0    0  0.14722570117E+01  0.94299036385E+02 -0.40358137851E+00  0.94311392110E+02  0.00000000000E+00 0.  1.
</event>
<event>
 7    1  0.9036454E-005  0.5870409E+03  0.7818608E-02  0.1130180E+00
          2   -1    0    0  502    0  0.00000000000E+00  0.00000000000E+00  0.71125685906E+03  0.71125685906E+03  0.00000000000E+00 0. -1.
          1   -1    0    0  501    0 -0.00000000000E+00 -0.00000000000E+00 -0.12058726478E+04  0.12058726478E+04  0.00000000000E+00 0. -1.
         25    2    1    2    0    0 -0.63029494482E+03  0.93041418215E+01  0.10407326139E+03  0.65101166582E+03  0.12500664295E+03 0.  0.
          2    1    1    2  501    0  0.79654678063E+02 -0.33125799165E+02 -0.70036878098E+03  0.70566182813E+03  0.00000000000E+00 0. -1.
          1    1    1    2  502    0  0.55064026676E+03  0.23821657344E+02  0.10167973085E+03  0.56045601290E+03  0.00000000000E+00 0. -1.
         22    1    3    3    0    0 -0.23987376962E+03 -0.37627410227E+02  0.85220558226E+02  0.25732817742E+03  0.00000000000E+00 0.  1.
         22    1    3    3    0    0 -0.39042117520E+03  0.46931552048E+02  0.18852703160E+02  0.39368348840E+03  0.00000000000E+00 0.  1.
</event>
<event>
 7    1  0.9036454E-005  0.4115280E+03  0.7818608E-02  0.1044640E+00
          2   -1    0    0  502    0  0.00000000000E+00  0.00000000000E+00  0.12219431644E+04  0.12219431644E+04  0.00000000000E+00 0. -1.
          1   -1    0    0  501    0 -0.00000000000E+00 -0.00000000000E+00 -0.17267888196E+04  0.17267888196E+04  0.00000000000E+00 0. -1.
         25    2    1    2    0    0 -0.46497027229E+02 -0.15197562469E+03  0.24042473673E+03  0.31414602595E+03  0.12500043020E+03 0.  0.
          2    1    1    2  501    0 -0.28697429329E+03  0.34237565633E+03 -0.16193681734E+04  0.16798597013E+04  0.00000000000E+00 0. -1.
          1    1    1    2  502    0  0.33347132052E+03 -0.19040003164E+03  0.87409778145E+03  0.95472625668E+03  0.00000000000E+00 0. -1.
         22    1    3    3    0    0  0.48551392016E+01 -0.13286446362E+03  0.10957854498E+03  0.17229043963E+03  0.00000000000E+00 0. -1.
         22    1    3    3    0    0 -0.51352166431E+02 -0.19111161067E+02  0.13084619175E+03  0.14185558632E+03  0.00000000000E+00 0. -1.
</event>
<event>
 7    1  0.9036454E-005  0.3858761E+03  0.7818608E-02  0.1195197E+00
          2   -1    0    0  502    0  0.00000000000E+00  0.00000000000E+00  0.20226547800E+04  0.20226547800E+04  0.00000000000E+00 0. -1.
          1   -1    0    0  501    0 -0.00000000000E+00 -0.00000000000E+00 -0.10124473416E+03  0.10124473416E+03  0.00000000000E+00 0. -1.
         25    2    1    2    0    0 -0.29149010694E+03  0.19998298782E+03  0.80169061517E+03  0.88503696192E+03  0.12499161431E+03 0.  0.
          2    1    1    2  501    0  0.33680634507E+03 -0.24194459895E+03  0.69229693608E+03  0.80700108473E+03  0.00000000000E+00 0. -1.
          1    1    1    2  502    0 -0.45316238130E+02  0.41961611133E+02  0.42742249459E+03  0.43186146752E+03  0.00000000000E+00 0. -1.
         22    1    3    3    0    0 -0.23725249770E+03  0.14413095598E+03  0.72245765791E+03  0.77395577885E+03  0.00000000000E+00 0. -1.
         22    1    3    3    0    0 -0.54237609233E+02  0.55852031840E+02  0.79232957260E+02  0.11108118307E+03  0.00000000000E+00 0. -1.
</event>
<event>
 7    1  0.9036454E-005  0.1544909E+03  0.7818608E-02  0.1393234E+00
          2   -1    0    0  502    0  0.00000000000E+00  0.00000000000E+00  0.24907635441E+04  0.24907635441E+04  0.00000000000E+00 0. -1.
          1   -1    0    0  501    0 -0.00000000000E+00 -0.00000000000E+00 -0.55330741324E+02  0.55330741324E+02  0.00000000000E+00 0. -1.
         25    2    1    2    0    0 -0.92675096004E+02  0.15039479612E+03  0.20407966480E+04  0.20522395709E+04  0.12501611866E+03 0.  0.
          2    1    1    2  501    0  0.75678054078E+02 -0.13320801570E+03  0.70204159594E+02  0.16852349195E+03  0.00000000000E+00 0. -1.
          1    1    1    2  502    0  0.16997041926E+02 -0.17186780416E+02  0.32443199525E+03  0.32533122259E+03  0.00000000000E+00 0. -1.
         22    1    3    3    0    0 -0.31087702806E+02  0.12855770726E+03  0.91058335274E+03  0.92013888715E+03  0.00000000000E+00 0. -1.
         22    1    3    3    0    0 -0.61587393198E+02  0.21837088854E+02  0.11302132952E+04  0.11321006838E+04  0.00000000000E+00 0. -1.
</event>
<event>
 7    1  0.9036454E-005  0.1823369E+03  0.7818608E-02  0.1285095E+00
          2   -1    0    0  502    0  0.00000000000E+00  0.00000000000E+00  0.92259006625E+03  0.92259006625E+03  0.00000000000E+00 0. -1.
          1   -1    0    0  501    0 -0.00000000000E+00 -0.00000000000E+00 -0.12066273399E+04  0.12066273399E+04  0.00000000000E+00 0. -1.
         25    2    1    2    0    0 -0.18268824604E+03 -0.44864881604E+02 -0.51864221594E+03  0.56568858985E+03  0.12500391867E+03 0.  0.
          2    1    1    2  501    0  0.18167863728E+03 -0.75310488464E+01 -0.65123294468E+03  0.67614213904E+03  0.00000000000E+00 0. -1.
          1    1    1    2  502    0  0.10096087602E+01  0.52395930451E+02  0.88583788701E+03  0.88738667722E+03  0.00000000000E+00 0. -1.
         22    1    3    3    0    0 -0.10989993388E+03 -0.74574065197E+02 -0.22099261053E+03  0.25783138012E+03  0.00000000000E+00 0. -1.
         22    1    3    3    0    0 -0.72788312163E+02  0.29709183593E+02 -0.29764960541E+03  0.30785720973E+03  0.00000000000E+00 0. -1.
</event>
<event>
 7    1  0.9036454E-005  0.3249866E+03  0.7818608E-02  0.1073579E+00
          2   -1    0    0  502    0  0.00000000000E+00  0.00000000000E+00  0.72910849308E+03  0.72910849308E+03  0.00000000000E+00 0. -1.
          1   -1    0    0  501    0 -0.00000000000E+00 -0.00000000000E+00 -0.64075356947E+03  0.64075356947E+03  0.00000000000E+00 0. -1.
         25    2    1    2    0    0 -0.16908018796E+03 -0.31647442302E+03  0.45184424488E+03  0.59036608483E+03  0.12499888840E+03 0.  0.
          2    1    1    2  501    0  0.32445619292E+03  0.18559824324E+02 -0.28997904974E+03  0.43555038456E+03  0.00000000000E+00 0. -1.
          1    1    1    2  502    0 -0.15537600496E+03  0.29791459869E+03 -0.73510271524E+02  0.34394559316E+03  0.00000000000E+00 0. -1.
         22    1    3    3    0    0 -0.18094276098E+03 -0.27251185586E+03  0.35143361196E+03  0.48011308871E+03  0.00000000000E+00 0.  1.
         22    1    3    3    0    0  0.11862573022E+02 -0.43962567155E+02  0.10041063292E+03  0.11025299611E+03  0.00000000000E+00 0.  1.
</event>
<event>
 7    1  0.9036454E-005  0.1763802E+03  0.7818608E-02  0.1208461E+00
          2   -1    0    0  502    0  0.00000000000E+00  0.00000000000E+00  0.49923111749E+03  0.49923111749E+03  0.00000000000E+00 0. -1.
          1   -1    0    0  501    0 -0.00000000000E+00 -0.00000000000E+00 -0.25549262836E+03  0.25549262836E+03  0.00000000000E+00 0. -1.
         25    2    1    2    0    0 -0.11330034225E+03  0.13614059886E+03 -0.11773860866E+03  0.24669933217E+03  0.12500780099E+03 0.  0.
          2    1    1    2  501    0  0.15337181671E+02 -0.20018937305E+03  0.10606097443E+03  0.22706814951E+03  0.00000000000E+00 0. -1.
          1    1    1    2  502    0  0.97963160583E+02  0.64048774184E+02  0.25541612336E+03  0.28095626417E+03  0.00000000000E+00 0. -1.
         22    1    3    3    0    0 -0.83805440959E+02  0.15844404418E+03 -0.10414372742E+03  0.20730118918E+03  0.00000000000E+00 0. -1.
         22    1    3    3    0    0 -0.29494901294E+02 -0.22303445319E+02 -0.13594881238E+02  0.39398142994E+02  0.00000000000E+00 0. -1.
</event>
<event>
 7    1  0.9036454E-005  0.1053784E+03  0.7818608E-02  0.1416644E+00
          2   -1    0    0  502    0  0.00000000000E+00  0.00000000000E+00  0.16243204317E+04  0.16243204317E+04  0.00000000000E+00 0. -1.
          1   -1    0    0  501    0 -0.00000000000E+00 -0.00000000000E+00 -0.32976600391E+03  0.32976600391E+03  0.00000000000E+00 0. -1.
         25    2    1    2    0    0  0.40272315824E+02 -0.66617271608E+02  0.30252904445E+03  0.33646567716E+03  0.12500243548E+03 0.  0.
          2    1    1    2  501    0 -0.46521313354E+02  0.95428182759E+02 -0.30361714203E+03  0.32164287587E+03  0.00000000000E+00 0. -1.
          1    1    1    2  502    0  0.62489975300E+01 -0.28810911151E+02  0.12956425254E+04  0.12959778826E+04  0.00000000000E+00 0. -1.
         22    1    3    3    0    0  0.23415873534E+02 -0.79835801478E+02  0.88876316301E+02  0.12174176740E+03  0.00000000000E+00 0. -1.
         22    1    3    3    0    0  0.16856442290E+02  0.13218529869E+02  0.21365272815E+03  0.21472390976E+03  0.00000000000E+00 0. -1.
</event>
<event>
 7    1  0.9036454E-005  0.7191085E+02  0.7818608E-02  0.1425694E+00
          2   -1    0    0  502    0  0.00000000000E+00  0.00000000000E+00  0.21571929940E+04  0.21571929940E+04  0.00000000000E+00 0. -1.
          1   -1    0    0  501    0 -0.00000000000E+00 -0.00000000000E+00 -0.89094783815E+01  0.89094783815E+01  0.00000000000E+00 0. -1.
         25    2    1    2    0    0  0.49480182546E+02 -0.75703685022E+02  0.82720969790E+03  0.84147478874E+03  0.12499839754E+03 0.  0.
          2    1    1    2  501    0 -0.33145714651E+02  0.38860767894E+02  0.94992897431E+03  0.95130113734E+03  0.00000000000E+00 0. -1.
          1    1    1    2  502    0 -0.16334467895E+02  0.36842917127E+02  0.37114484338E+03  0.37332654627E+03  0.00000000000E+00 0. -1.
         22    1    3    3    0    0  0.91945213554E+02 -0.51824656088E+02  0.57251839040E+03  0.58216580509E+03  0.00000000000E+00 0.  1.
         22    1    3    3    0    0 -0.42465031008E+02 -0.23879028934E+02  0.25469130751E+03  0.25930898365E+03  0.00000000000E+00 0.  1.
</event>
<event>
 7    1  0.9036454E-005  0.9232709E+03  0.7818608E-02  0.9730294E-01
          2   -1    0    0  502    0  0.00000000000E+00  0.00000000000E+00  0.10413612760E+04  0.10413612760E+04  0.00000000000E+00 0. -1.
          1   -1    0    0  501    0 -0.00000000000E+00 -0.00000000000E+00 -0.19828284429E+04  0.19828284429E+04  0.00000000000E+00 0. -1.
         25    2    1    2    0    0 -0.66517661804E+03  0.12586784816E+03  0.13584178277E+03  0.70169830300E+03  0.12499948039E+03 0.  0.
          2    1    1    2  501    0  0.85312480594E+03 -0.60994295737E+03 -0.13708371829E+04  0.17259915781E+04  0.00000000000E+00 0. -1.
          1    1    1    2  502    0 -0.18794818791E+03  0.48407510921E+03  0.29352823333E+03  0.59649983776E+03  0.00000000000E+00 0. -1.
         22    1    3    3    0    0 -0.50311283131E+03  0.12587507500E+03  0.57826235256E+02  0.52183419687E+03  0.00000000000E+00 0.  1.
         22    1    3    3    0    0 -0.16206378673E+03 -0.72268344019E-02  0.78015547515E+02  0.17986410613E+03  0.00000000000E+00 0.  1.
</event>
<event>
 7    1  0.9036454E-005  0.5268956E+03  0.7818608E-02  0.1050754E+00
          2   -1    0    0  502    0  0.00000000000E+00  0.00000000000E+00  0.91705595964E+03  0.91705595964E+03  0.00000000000E+00 0. -1.
          1   -1    0    0  501    0 -0.00000000000E+00 -0.00000000000E+00 -0.18531272794E+04  0.18531272794E+04  0.00000000000E+00 0. -1.
         25    2    1    2    0    0  0.28579313500E+03 -0.24039511069E+03  0.27569648399E+03  0.48073039406E+03  0.12500254088E+03 0.  0.
          2    1    1    2  501    0 -0.53487550019E+03  0.12441921567E+03 -0.16684427969E+04  0.17564946081E+04  0.00000000000E+00 0. -1.
          1    1    1    2  502    0  0.24908236519E+03  0.11597589501E+03  0.45667499314E+03  0.53295823685E+03  0.00000000000E+00 0. -1.
         22    1    3    3    0    0  0.35930962288E+02  0.97185694936E+00 -0.19684518122E+01  0.35997963268E+02  0.00000000000E+00 0. -1.
         22    1    3    3    0    0  0.24986217271E+03 -0.24136696764E+03  0.27766493581E+03  0.44473243079E+03  0.00000000000E+00 0. -1.
</event>
<event>
 7    1  0.9036454E-005  0.3509436E+03  0.7818608E-02  0.1218240E+00
          2   -1    0    0  502    0  0.00000000000E+00  0.00000000000E+00  0.17435540622E+04  0.17435540622E+04  0.00000000000E+00 0. -1.
          1   -1    0    0  501    0 -0.00000000000E+00 -0.00000000000E+00 -0.64802874826E+03  0.64802874826E+03  0.00000000000E+00 0. -1.
         25    2    1    2    0    0  0.29598425861E+03  0.24432401566E+03 -0.26259352359E+03  0.48154038693E+03  0.12499951856E+03 0.  0.
          2    1    1    2  501    0 -0.52635498177E+02  0.64021356944E+01 -0.25452078667E+03  0.25998521854E+03  0.00000000000E+00 0. -1.
          1    1    1    2  502    0 -0.24334876043E+03 -0.25072615135E+03  0.16126396242E+04  0.16500572050E+04  0.00000000000E+00 0. -1.
         22    1    3    3    0    0  0.22239523540E+03  0.18664342648E+03 -0.12715045233E+03  0.31695843088E+03  0.00000000000E+00 0.  1.
         22    1    3    3    0    0  0.73589023206E+02  0.57680589182E+02 -0.13544307126E+03  0.16458195605E+03  0.00000000000E+00 0.  1.
</event>
<event>
 7    1  0.9036454E-005  0.3015564E+03  0.7818608E-02  0.1206478E+00
          2   -1    0    0  502    0  0.00000000000E+00  0.00000000000E+00  0.13094427430E+04  0.13094427430E+04  0.00000000000E+00 0. -1.
          1   -1    0    0  501    0 -0.00000000000E+00 -0.00000000000E+00 -0.11513706701E+04  0.11513706701E+04  0.00000000000E+00 0. -1.
         25    2    1    2    0    0  0.29297588996E+03  0.33792920100E+02  0.49354250407E+03  0.58837538423E+03  0.12499822359E+03 0.  0.
          2    1    1    2  501    0 -0.29997901562E+03  0.35785185287E+02 -0.10816202681E+04  0.11230184298E+04  0.00000000000E+00 0. -1.
          1    1    1    2  502    0  0.70031256602E+01 -0.69578105387E+02  0.74614983690E+03  0.74941959917E+03  0.00000000000E+00 0. -1.
         22    1    3    3    0    0  0.10503840648E+03  0.73245388094E+02  0.18668529406E+03  0.22638319887E+03  0.00000000000E+00 0.  1.
         22    1    3    3    0    0  0.18793748348E+03 -0.39452467994E+02  0.30685721001E+03  0.36199218536E+03  0.00000000000E+00 0.  1.
</event>
<event>
 7    1  0.9036454E-005  0.1889949E+03  0.7818608E-02  0.1209187E+00
          2   -1    0    0  502    0  0.00000000000E+00  0.00000000000E+00  0.88916672921E+02  0.88916672921E+02  0.00000000000E+00 0. -1.
          1   -1    0    0  501    0 -0.00000000000E+00 -0.00000000000E+00 -0.15365643801E+04  0.15365643801E+04  0.00000000000E+00 0. -1.
         25    2    1    2    0    0 -0.88884425777E+02  0.25313325045E+03 -0.42786105033E+03  0.52025614763E+03  0.12499798848E+03 0.  0.
          2    1    1    2  501    0  0.21720014722E+02 -0.10618688236E+03 -0.89378557809E+03  0.90033331196E+03  0.00000000000E+00 0. -1.
          1    1    1    2  502    0  0.67164411055E+02 -0.14694636809E+03 -0.12600107873E+03  0.20489159340E+03  0.00000000000E+00 0. -1.
         22    1    3    3    0    0  0.11775360390E+02  0.49275760884E+02 -0.16555056141E+03  0.17312928148E+03  0.00000000000E+00 0. -1.
         22    1    3    3    0    0 -0.10065978617E+03  0.20385748956E+03 -0.26231048892E+03  0.34712686615E+03  0.00000000000E+00 0. -1.
</event>
<event>
 7    1  0.9036454E-005  0.3085575E+03  0.7818608E-02  0.1185976E+00
          2   -1    0    0  502    0  0.00000000000E+00  0.00000000000E+00  0.25429660415E+04  0.25429660415E+04  0.00000000000E+00 0. -1.
          1   -1    0    0  501    0 -0.00000000000E+00 -0.00000000000E+00 -0.28160540528E+03  0.28160540528E+03  0.00000000000E+00 0. -1.
         25    2    1    2    0    0 -0.12840322191E+03  0.26191301078E+03 -0.35634979590E+02  0.31934467248E+03  0.12500142183E+03 0.  0.
          2    1    1    2  501    0  0.87168498170E+02 -0.33682434592E+03  0.18985292706E+03  0.39634974579E+03  0.00000000000E+00 0. -1.
          1    1    1    2  502    0  0.41234723739E+02  0.74911335141E+02  0.21071426887E+04  0.21088770285E+04  0.00000000000E+00 0. -1.
         22    1    3    3    0    0 -0.35081414264E+02  0.20392317091E+03 -0.32282471456E+02  0.20942187857E+03  0.00000000000E+00 0. -1.
         22    1    3    3    0    0 -0.93321807645E+02  0.57989839864E+02 -0.33525081337E+01  0.10992279391E+03  0.00000000000E+00 0. -1.
</event>
<event>
 7    1  0.9036454E-005  0.1138515E+03  0.7818608E-02  0.1324050E+00
          2   -1    0    0  502    0  0.00000000000E+00  0.00000000000E+00  0.13739646963E+04  0.13739646963E+04  0.00000000000E+00 0. -1.
          1   -1    0    0  501    0 -0.00000000000E+00 -0.00000000000E+00 -0.19807234017E+03  0.19807234017E+03  0.00000000000E+00 0. -1.
         25    2    1    2    0    0  0.13855541750E+03  0.26880356631E+02  0.92692379545E+03  0.94590348340E+03  0.12500208019E+03 0.  0.
          2    1    1    2  501    0 -0.53061835135E+02  0.25232282373E+02 -0.17807066166E+03  0.18751369808E+03  0.00000000000E+00 0. -1.
          1    1    1    2  502    0 -0.85493582367E+02 -0.52112639004E+02  0.42703922238E+03  0.43861985502E+03  0.00000000000E+00 0. -1.
         22    1    3    3    0    0  0.12457136750E+03  0.33655975609E+02  0.43502472199E+03  0.45375903191E+03  0.00000000000E+00 0.  1.
         22    1    3    3    0    0  0.13984050001E+02 -0.67756189782E+01  0.49189907345E+03  0.49214445149E+03  0.00000000000E+00 0.  1.
</event>
<event>
 7    1  0.9036454E-005  0.8412585E+02  0.7818608E-02  0.1347625E+00
          2   -1    0    0  502    0  0.00000000000E+00  0.00000000000E+00  0.21640778759E+03  0.21640778759E+03  0.00000000000E+00 0. -1.
          1   -1    0    0  501    0 -0.00000000000E+00 -0.00000000000E+00 -0.75505040030E+03  0.75505040030E+03  0.00000000000E+00 0. -1.
         25    2    1    2    0    0 -0.56190411079E+02 -0.12872037105E+03 -0.21310358559E+03  0.28419307258E+03  0.12500507226E+03 0.  0.
          2    1    1    2  501    0  0.45794440354E+02  0.64817417145E+02 -0.49735949524E+03  0.50365156193E+03  0.00000000000E+00 0. -1.
          1    1    1    2  502    0  0.10395970725E+02  0.63902953903E+02  0.17182046811E+03  0.18361355339E+03  0.00000000000E+00 0. -1.
         22    1    3    3    0    0  0.13008906062E+02  0.19596608548E+02 -0.36406529534E+02  0.43343904949E+02  0.00000000000E+00 0. -1.
         22    1    3    3    0    0 -0.69199317141E+02 -0.14831697960E+03 -0.17669705605E+03  0.24084916763E+03  0.00000000000E+00 0. -1.
</event>
<event>
 7    1  0.9036454E-005  0.9599453E+02  0.7818608E-02  0.1396191E+00
          2   -1    0    0  502    0  0.00000000000E+00  0.00000000000E+00  0.66728332991E+02  0.66728332991E+02  0.00000000000E+00 0. -1.
          1   -1    0    0  501    0 -0.00000000000E+00 -0.00000000000E+00 -0.67226357279E+03  0.67226357279E+03  0.00000000000E+00 0. -1.
         25    2    1    2    0    0  0.58884235474E+01 -0.72347349233E+02 -0.13864560262E+03  0.20029254998E+03  0.12500275988E+03 0.  0.
          2    1    1    2  501    0  0.22234961531E+02  0.97894776229E+02 -0.48593666534E+03  0.49619776647E+03  0.00000000000E+00 0. -1.
          1    1    1    2  502    0 -0.28123385079E+02 -0.25547426996E+02  0.19047028159E+02  0.42501589336E+02  0.00000000000E+00 0. -1.
         22    1    3    3    0    0  0.57866641803E+02 -0.22480396517E+02 -0.27617910350E+02  0.67946047958E+02  0.00000000000E+00 0. -1.
         22    1    3    3    0    0 -0.51978218255E+02 -0.49866952716E+02 -0.11102769227E+03  0.13234650202E+03  0.00000000000E+00 0. -1.
</event>
<event>
 7    1  0.9036454E-005  0.5516098E+02  0.7818608E-02  0.1442242E+00
          2   -1    0    0  502    0  0.00000000000E+00  0.00000000000E+00  0.18343487914E+04  0.18343487914E+04  0.00000000000E+00 0. -1.
          1   -1    0    0  501    0 -0.00000000000E+00 -0.00000000000E+00 -0.58250674636E+02  0.58250674636E+02  0.00000000000E+00 0. -1.
         25    2    1    2    0    0  0.24274759299E+02  0.51866391593E+02  0.89383725933E+03  0.90435033790E+03  0.12500040394E+03 0.  0.
          2    1    1    2  501    0 -0.53195064388E+02 -0.15609927157E+02 -0.37749734921E+02  0.67070315250E+02  0.00000000000E+00 0. -1.
          1    1    1    2  502    0  0.28920305088E+02 -0.36256464436E+02  0.92001059241E+03  0.92117881293E+03  0.00000000000E+00 0. -1.
         22    1    3    3    0    0  0.36114302479E+02  0.55305178716E+02  0.88843979184E+03  0.89089178319E+03  0.00000000000E+00 0.  1.
         22    1    3    3    0    0 -0.11839543179E+02 -0.34387871231E+01  0.53974674883E+01  0.13458554709E+02  0.00000000000E+00 0.  1.
</event>
<event>
 7    1  0.9036454E-005  0.3843351E+03  0.7818608E-02  0.1130648E+00
          2   -1    0    0  502    0  0.00000000000E+00  0.00000000000E+00  0.10926508983E+04  0.10926508983E+04  0.00000000000E+00 0. -1.
          1   -1    0    0  501    0 -0.00000000000E+00 -0.00000000000E+00 -0.56583918211E+03  0.56583918211E+03  0.00000000000E+00 0. -1.
         25    2    1    2    0    0 -0.93163691225E+02  0.43172508674E+03  0.24499715793E+03  0.52030225392E+03  0.12499921664E+03 0.  0.
          2    1    1    2  501    0 -0.77552472355E+02 -0.10559383270E+03 -0.36840045944E+03  0.39100299486E+03  0.00000000000E+00 0. -1.
          1    1    1    2  502    0  0.17071616358E+03 -0.32613125404E+03  0.65021501771E+03  0.74718483164E+03  0.00000000000E+00 0. -1.
         22    1    3    3    0    0 -0.49231232384E+02  0.42037266812E+02  0.18028493553E+02  0.67200242730E+02  0.00000000000E+00 0. -1.
         22    1    3    3    0    0 -0.43932458841E+02  0.38968781993E+03  0.22696866438E+03  0.45310201119E+03  0.00000000000E+00 0. -1.
</event>
<event>
 7    1  0.9036454E-005  0.2403536E+03  0.7818608E-02  0.1197473E+00
          2   -1    0    0  502    0  0.00000000000E+00  0.00000000000E+00  0.20017412037E+04  0.20017412037E+04  0.00000000000E+00 0. -1.
          1   -1    0    0  501    0 -0.00000000000E+00 -0.00000000000E+00 -0.21920892416E+04  0.21920892416E+04  0.00000000000E+00 0. -1.
         25    2    1    2    0    0 -0.18854167918E+03 -0.14841385160E+03  0.78219853970E+03  0.82766761099E+03  0.12499793053E+03 0.  0.
          2    1    1    2  501    0  0.23233997719E+03  0.62181305573E+02 -0.21607171455E+04  0.21740623180E+04  0.00000000000E+00 0. -1.
          1    1    1    2  502    0 -0.43798298015E+02  0.86232546029E+02  0.11881705678E+04  0.11921005163E+04  0.00000000000E+00 0. -1.
         22    1    3    3    0    0  0.18272424139E+02 -0.59664146999E+01  0.47785503406E+02  0.51506639611E+02  0.00000000000E+00 0.  1.
         22    1    3    3    0    0 -0.20681410332E+03 -0.14244743690E+03  0.73441303629E+03  0.77616097138E+03  0.00000000000E+00 0.  1.
</event>
<event>
 7    1  0.9036454E-005  0.5144690E+03  0.7818608E-02  0.1229876E+00
          2   -1    0    0  502    0  0.00000000000E+00  0.00000000000E+00  0.16787703826E+04  0.16787703826E+04  0.00000000000E+00 0. -1.
          1   -1    0    0  501    0 -0.00000000000E+00 -0.00000000000E+00 -0.11800179871E+04  0.11800179871E+04  0.00000000000E+00 0. -1.
         25    2    1    2    0    0  0.50584319228E+03  0.18748876616E+03  0.16852383606E+03  0.57883957283E+03  0.12500238053E+03 0.  0.
          2    1    1    2  501    0 -0.48236367472E+03 -0.16569254433E+03 -0.90792948983E+03  0.10413763452E+04  0.00000000000E+00 0. -1.
          1    1    1    2  502    0 -0.23479517562E+02 -0.21796221828E+02  0.12381580493E+04  0.12385724517E+04  0.00000000000E+00 0. -1.
         22    1    3    3    0    0  0.40833474545E+03  0.19747260076E+03  0.15776928590E+03  0.48023311003E+03  0.00000000000E+00 0. -1.
         22    1    3    3    0    0  0.97508446833E+02 -0.99838345998E+01  0.10754550158E+02  0.98606462801E+02  0.00000000000E+00 0. -1.
</event>
<event>
 7    1  0.9036454E-005  0.5003730E+03  0.7818608E-02  0.1277650E+00
          2   -1    0    0  502    0  0.00000000000E+00  0.00000000000E+00  0.29919906621E+04  0.29919906621E+04  0.00000000000E+00 0. -1.
          1   -1    0    0  501    0 -0.00000000000E+00 -0.00000000000E+00 -0.19285856242E+03  0.19285856242E+03  0.00000000000E+00 0. -1.
         25    2    1    2    0    0  0.33021327522E+03  0.35663278010E+03  0.48301242201E+03  0.69652971330E+03  0.12499957890E+03 0.  0.
          2    1    1    2  501    0  0.46596346824E+01  0.19958788220E+02 -0.57890175481E+02  0.61411219169E+02  0.00000000000E+00 0. -1.
          1    1    1    2  502    0 -0.33487290990E+03 -0.37659156832E+03  0.23740098531E+04  0.24269082920E+04  0.00000000000E+00 0. -1.
         22    1    3    3    0    0  0.28153787681E+03  0.35284480279E+03  0.45133509909E+03  0.63833095069E+03  0.00000000000E+00 0. -1.
         22    1    3    3    0    0  0.48675398411E+02  0.37879773047E+01  0.31677322923E+02  0.58198762616E+02  0.00000000000E+00 0. -1.
</event>
<event>
 7    1  0.9036454E-005  0.4648536E+03  0.7818608E-02  0.1256959E+00
          2   -1    0    0  502    0  0.00000000000E+00  0.00000000000E+00  0.19770450134E+04  0.19770450134E+04  0.00000000000E+00 0. -1.
          1   -1    0    0  501    0 -0.00000000000E+00 -0.00000000000E+00 -0.12740958240E+04  0.12740958240E+04  0.00000000000E+00 0. -1.
         25    2    1    2    0    0 -0.36066760260E+03 -0.29058709105E+03  0.18121111329E+03  0.51281965447E+03  0.12499821352E+03 0.  0.
          2    1    1    2  501    0  0.15828352824E+02 -0.21838949054E+02 -0.10749103185E+04  0.10752486546E+04  0.00000000000E+00 0. -1.
          1    1    1    2  502    0  0.34483924978E+03  0.31242604010E+03  0.15966483945E+04  0.16630725283E+04  0.00000000000E+00 0. -1.
         22    1    3    3    0    0 -0.19294309208E+03 -0.19719493050E+03  0.50232902976E+02  0.28042150762E+03  0.00000000000E+00 0.  1.
         22    1    3    3    0    0 -0.16772451052E+03 -0.93392160551E+02  0.13097821032E+03  0.23239814685E+03  0.00000000000E+00 0.  1.
</event>
<event>
 7    1  0.9036454E-005  0.4566993E+03  0.7818608E-02  0.1220373E+00
          2   -1    0    0  502    0  0.00000000000E+00  0.00000000000E+00  0.72431162057E+03  0.72431162057E+03  0.00000000000E+00 0. -1.
          1   -1    0    0  501    0 -0.00000000000E+00 -0.00000000000E+00 -0.68116550493E+03  0.68116550493E+03  0.00000000000E+00 0. -1.
         25    2    1    2    0    0 -0.83922677201E+02  0.42326413650E+03  0.42996883605E+02  0.45129196624E+03  0.12498064568E+03 0.  0.
          2    1    1    2  501    0 -0.12306540866E+02  0.37893563497E+02 -0.35937528349E+03  0.36157705609E+03  0.00000000000E+00 0. -1.
          1    1    1    2  502    0  0.96229218067E+02 -0.46115770000E+03  0.35952451553E+03  0.59260810317E+03  0.00000000000E+00 0. -1.
         22    1    3    3    0    0  0.31340623196E+02  0.59213187014E+02  0.13070932562E+02  0.68258958802E+02  0.00000000000E+00 0. -1.
         22    1    3    3    0    0 -0.11526330040E+03  0.36405094949E+03  0.29925951043E+02  0.38303300744E+03  0.00000000000E+00 0. -1.
</event>
<event>
 7    1  0.9036454E-005  0.1436165E+03  0.7818608E-02  0.1325549E+00
          2   -1    0    0  502    0  0.00000000000E+00  0.00000000000E+00  0.20704620594E+04  0.20704620594E+04  0.00000000000E+00 0. -1.
          1   -1    0    0  501    0 -0.00000000000E+00 -0.00000000000E+00 -0.80273253754E+02  0.80273253754E+02  0.00000000000E+00 0. -1.
         25    2    1    2    0    0 -0.17576754844E+03 -0.31239154168E+02  0.19262834223E+04  0.19385724334E+04  0.12500056254E+03 0.  0.
          2    1    1    2  501    0  0.13350840770E+03  0.49316400341E+02  0.11998223521E+02  0.14283052768E+03  0.00000000000E+00 0. -1.
          1    1    1    2  502    0  0.42259140743E+02 -0.18077246173E+02  0.51907159855E+02  0.69332352114E+02  0.00000000000E+00 0. -1.
         22    1    3    3    0    0 -0.38317113996E+02  0.21539015872E+02  0.97238253404E+03  0.97337553027E+03  0.00000000000E+00 0.  1.
         22    1    3    3    0    0 -0.13745043445E+03 -0.52778170040E+02  0.95390088823E+03  0.96519690309E+03  0.00000000000E+00 0.  1.
</event>
<event>
 7    1  0.9036454E-005  0.3411802E+02  0.7818608E-02  0.1573781E+00
          2   -1    0    0  502    0  0.00000000000E+00  0.00000000000E+00  0.16103208005E+04  0.16103208005E+04  0.00000000000E+00 0. -1.
          1   -1    0    0  501    0 -0.00000000000E+00 -0.00000000000E+00 -0.20978803490E+02  0.20978803490E+02  0.00000000000E+00 0. -1.
         25    2    1    2    0    0  0.13331597711E+02  0.28442451264E+02  0.88268034897E+03  0.89203990392E+03  0.12499554873E+03 0.  0.
          2    1    1    2  501    0 -0.30499245470E+02  0.26653981879E+01 -0.10724642119E+01  0.30634270046E+02  0.00000000000E+00 0. -1.
          1    1    1    2  502    0  0.17167647759E+02 -0.31107849452E+02  0.70773411226E+03  0.70862543002E+03  0.00000000000E+00 0. -1.
         22    1    3    3    0    0  0.41778050150E+02  0.53098788261E+02  0.77555963545E+03  0.77849703592E+03  0.00000000000E+00 0. -1.
         22    1    3    3    0    0 -0.28446452438E+02 -0.24656336997E+02  0.10712071352E+03  0.11354286800E+03  0.00000000000E+00 0. -1.
</event>
<event>
 7    1  0.9036454E-005  0.2371519E+03  0.7818608E-02  0.1251142E+00
          2   -1    0    0  502    0  0.00000000000E+00  0.00000000000E+00  0.11578333150E+03  0.11578333150E+03  0.00000000000E+00 0. -1.
          1   -1    0    0  501    0 -0.00000000000E+00 -0.00000000000E+00 -0.74893320820E+03  0.74893320820E+03  0.00000000000E+00 0. -1.
         25    2    1    2    0    0  0.22418029564E+03 -0.15189504427E+03 -0.23630170984E+03  0.38051538746E+03  0.12499821037E+03 0.  0.
          2    1    1    2  501    0 -0.19468210640E+03  0.10428180450E+03 -0.30374622249E+03  0.37554971040E+03  0.00000000000E+00 0. -1.
          1    1    1    2  502    0 -0.29498189243E+02  0.47613239765E+02 -0.93101944374E+02  0.10865144185E+03  0.00000000000E+00 0. -1.
         22    1    3    3    0    0  0.27509928167E+02  0.11064049036E+02  0.38905368873E+01  0.29905611616E+02  0.00000000000E+00 0. -1.
         22    1    3    3    0    0  0.19667036747E+03 -0.16295909330E+03 -0.24019224672E+03  0.35060977585E+03  0.00000000000E+00 0. -1.
</event>
<event>
 7    1  0.9036454E-005  0.3845014E+03  0.7818608E-02  0.1168774E+00
          2   -1    0    0  502    0  0.00000000000E+00  0.00000000000E+00  0.90244703425E+03  0.90244703425E+03  0.00000000000E+00 0. -1.
          1   -1    0    0  501    0 -0.00000000000E+00 -0.00000000000E+00 -0.98998220604E+03  0.98998220604E+03  0.00000000000E+00 0. -1.
         25    2    1    2    0    0 -0.27484590339E+03  0.32589055633E+03 -0.53701912461E+03  0.69696447885E+03  0.12500007707E+03 0.  0.
          2    1    1    2  501    0  0.21964587189E+03 -0.26346320487E+03 -0.29129645472E+03  0.45001199305E+03  0.00000000000E+00 0. -1.
          1    1    1    2  502    0  0.55200031498E+02 -0.62427351464E+02  0.74078040755E+03  0.74545276839E+03  0.00000000000E+00 0. -1.
         22    1    3    3    0    0 -0.15989135648E+03  0.16432644368E+03 -0.19212184245E+03  0.29913078797E+03  0.00000000000E+00 0. -1.
         22    1    3    3    0    0 -0.11495454691E+03  0.16156411265E+03 -0.34489728216E+03  0.39783369088E+03  0.00000000000E+00 0. -1.
</event>
<event>
 7    1  0.9036454E-005  0.1265954E+03  0.7818608E-02  0.1251886E+00
          2   -1    0    0  502    0  0.00000000000E+00  0.00000000000E+00  0.32360613521E+04  0.32360613521E+04  0.00000000000E+00 0. -1.
          1   -1    0    0  501    0 -0.00000000000E+00 -0.00000000000E+00 -0.24582981648E+03  0.24582981648E+03  0.00000000000E+00 0. -1.
         25    2    1    2    0    0  0.14399393900E+03 -0.17610418202E+03  0.36246110632E+03  0.44581253356E+03  0.12499529627E+03 0.  0.
          2    1    1    2  501    0 -0.65947527945E+02  0.80611025983E+02 -0.18943350689E+03  0.21617647302E+03  0.00000000000E+00 0. -1.
          1    1    1    2  502    0 -0.78046411058E+02  0.95493156041E+02  0.28172039362E+04  0.28199021620E+04  0.00000000000E+00 0. -1.
         22    1    3    3    0    0  0.14836099160E+03 -0.19221067362E+03  0.34147414338E+03  0.41899942420E+03  0.00000000000E+00 0. -1.
         22    1    3    3    0    0 -0.43670526004E+01  0.16106491599E+02  0.20986962943E+02  0.26813109362E+02  0.00000000000E+00 0. -1.
</event>
<event>
 7    1  0.9036454E-005  0.1890444E+03  0.7818608E-02  0.1181629E+00
          2   -1    0    0  502    0  0.00000000000E+00  0.00000000000E+00  0.26404926622E+04  0.26404926622E+04  0.00000000000E+00 0. -1.
          1   -1    0    0  501    0 -0.00000000000E+00 -0.00000000000E+00 -0.15332384265E+04  0.15332384265E+04  0.00000000000E+00 0. -1.
         25    2    1    2    0    0  0.59038652638E+01 -0.18378323300E+03  0.18468973154E+03  0.28904447849E+03  0.12500112499E+03 0.  0.
          2    1    1    2  501    0 -0.14133348801E+03  0.12788712413E+03 -0.14726809550E+04  0.14849644665E+04  0.00000000000E+00 0. -1.
          1    1    1    2  502    0  0.13542962275E+03  0.55896108874E+02  0.23952454592E+04  0.23997221438E+04  0.00000000000E+00 0. -1.
         22    1    3    3    0    0  0.44672584121E+01 -0.20036153059E+03  0.18449566875E+03  0.27240292056E+03  0.00000000000E+00 0.  1.
         22    1    3    3    0    0  0.14366068516E+01  0.16578297586E+02  0.19406278965E+00  0.16641557934E+02  0.00000000000E+00 0.  1.
</event>
<event>
 7    1  0.9036454E-005  0.2960707E+03  0.7818608E-02  0.1168191E+00
          2   -1    0    0  502    0  0.00000000000E+00  0.00000000000E+00  0.15378257207E+04  0.15378257207E+04  0.00000000000E+00 0. -1.
          1   -1    0    0  501    0 -0.00000000000E+00 -0.00000000000E+00 -0.22647300589E+03  0.22647300589E+03  0.00000000000E+00 0. -1.
         25    2    1    2    0    0 -0.14361261594E+03  0.21436499867E+03  0.16255286433E+03  0.32958340577E+03  0.12499940619E+03 0.  0.
          2    1    1    2  501    0  0.10199231352E+03 -0.31504922623E+03  0.55217265257E+02  0.33571921802E+03  0.00000000000E+00 0. -1.
          1    1    1    2  502    0  0.41620302424E+02  0.10068422756E+03  0.10935825852E+04  0.10989961028E+04  0.00000000000E+00 0. -1.
         22    1    3    3    0    0 -0.92350017758E+02  0.87764916905E+02  0.14314082181E+03  0.19162594106E+03  0.00000000000E+00 0. -1.
         22    1    3    3    0    0 -0.51262598181E+02  0.12660008176E+03  0.19412042520E+02  0.13795746471E+03  0.00000000000E+00 0. -1.
</event>
<event>
 7    1  0.9036454E-005  0.3479129E+03  0.7818608E-02  0.1186421E+00
          2   -1    0    0  502    0  0.00000000000E+00  0.00000000000E+00  0.43529314203E+03  0.43529314203E+03  0.00000000000E+00 0. -1.
          1   -1    0    0  501    0 -0.00000000000E+00 -0.00000000000E+00 -0.72458382530E+03  0.72458382530E+03  0.00000000000E+00 0. -1.
         25    2    1    2    0    0  0.37102373384E+03  0.50908230989E+02  0.17152989253E+03  0.43046225856E+03  0.12499997182E+03 0.  0.
          2    1    1    2  501    0 -0.69952856943E+02  0.28306672184E+02 -0.40643629937E+03  0.41338255325E+03  0.00000000000E+00 0. -1.
          1    1    1    2  502    0 -0.30107087690E+03 -0.79214903173E+02 -0.54384276424E+02  0.31603215552E+03  0.00000000000E+00 0. -1.
         22    1    3    3    0    0  0.93909721252E+01  0.12014691616E+02  0.41477896852E+02  0.44192296833E+02  0.00000000000E+00 0. -1.
         22    1    3    3    0    0  0.36163276172E+03  0.38893539373E+02  0.13005199568E+03  0.38626996173E+03  0.00000000000E+00 0. -1.
</event>
<event>
 7    1  0.9036454E-005  0.5034016E+03  0.7818608E-02  0.1032344E+00
          2   -1    0    0  502    0  0.00000000000E+00  0.00000000000E+00  0.11629416167E+04  0.11629416167E+04  0.00000000000E+00 0. -1.
          1   -1    0    0  501    0 -0.00000000000E+00 -0.00000000000E+00 -0.33690336841E+04  0.33690336841E+04  0.00000000000E+00 0. -1.
         25    2    1    2    0    0  0.34763296395E+03 -0.13858167041E+03  0.24842308169E+03  0.46625733944E+03  0.12501328759E+03 0.  0.
          2    1    1    2  501    0 -0.47000070836E+03 -0.21653173335E+03 -0.31943520813E+04  0.32359962727E+04  0.00000000000E+00 0. -1.
          1    1    1    2  502    0  0.12236774441E+03  0.35511340376E+03  0.73983693221E+03  0.82972168868E+03  0.00000000000E+00 0. -1.
         22    1    3    3    0    0  0.90112513181E+02 -0.58023313270E+02  0.13794924142E+03  0.17469105050E+03  0.00000000000E+00 0. -1.
         22    1    3    3    0    0  0.25752045077E+03 -0.80558357136E+02  0.11047384026E+03  0.29156628895E+03  0.00000000000E+00 0. -1.
</event>
<event>
 7    1  0.9036454E-005  0.5248288E+03  0.7818608E-02  0.1217032E+00
          2   -1    0    0  502    0  0.00000000000E+00  0.00000000000E+00  0.89725985807E+03  0.89725985807E+03  0.00000000000E+00 0. -1.
          1   -1    0    0  501    0 -0.00000000000E+00 -0.00000000000E+00 -0.76742896765E+03  0.76742896765E+03  0.00000000000E+00 0. -1.
         25    2    1    2    0    0 -0.14856681580E+03 -0.50608734752E+03  0.47554427248E+03  0.72108519041E+03  0.12499997864E+03 0.  0.
          2    1    1    2  501    0 -0.31403257804E+02  0.17417549486E+02 -0.41651138057E+03  0.41805653418E+03  0.00000000000E+00 0. -1.
          1    1    1    2  502    0  0.17997007361E+03  0.48866979804E+03  0.70797998499E+02  0.52554710112E+03  0.00000000000E+00 0. -1.
         22    1    3    3    0    0  0.59368016201E+01 -0.60257623660E+01  0.37907067424E+02  0.38839428243E+02  0.00000000000E+00 0.  1.
         22    1    3    3    0    0 -0.15450361742E+03 -0.50006158516E+03  0.43763720506E+03  0.68224576217E+03  0.00000000000E+00 0.  1.
</event>
<event>
 7    1  0.9036454E-005  0.1654063E+03  0.7818608E-02  0.1234686E+00
          2   -1    0    0  502    0  0.00000000000E+00  0.00000000000E+00  0.23117608329E+04  0.23117608329E+04  0.00000000000E+00 0. -1.
          1   -1    0    0  501    0 -0.00000000000E+00 -0.00000000000E+00 -0.12284869268E+03  0.12284869268E+03  0.00000000000E+00 0. -1.
         25    2    1    2    0    0 -0.12828994921E+03 -0.62588490730E+02  0.11530738975E+04  0.11685806906E+04  0.12500314850E+03 0.  0.
          2    1    1    2  501    0  0.41316076791E+01 -0.94745914872E+02 -0.85035684098E+02  0.12737710209E+03  0.00000000000E+00 0. -1.
          1    1    1    2  502    0  0.12415834153E+03  0.15733440560E+03  0.11208739269E+04  0.11386517330E+04  0.00000000000E+00 0. -1.
         22    1    3    3    0    0 -0.13515703640E+03 -0.68190843348E+02  0.73575248742E+03  0.75116518713E+03  0.00000000000E+00 0. -1.
         22    1    3    3    0    0  0.68670871833E+01  0.56023526179E+01  0.41732141003E+03  0.41741550344E+03  0.00000000000E+00 0. -1.
</event>
<event>
 7    1  0.9036454E-005  0.9116327E+02  0.7818608E-02  0.1441102E+00
          2   -1    0    0  502    0  0.00000000000E+00  0.00000000000E+00  0.76773548618E+03  0.76773548618E+03  0.00000000000E+00 0. -1.
          1   -1    0    0  501    0 -0.00000000000E+00 -0.00000000000E+00 -0.97819819842E+03  0.97819819842E+03  0.00000000000E+00 0. -1.
         25    2    1    2    0    0 -0.10993554984E+03 -0.14377370011E+02  0.21551910545E+03  0.27270208044E+03  0.12500162389E+03 0.  0.
          2    1    1    2  501    0  0.25356856371E+02 -0.12571053484E+02 -0.94563134611E+03  0.94605477870E+03  0.00000000000E+00 0. -1.
          1    1    1    2  502    0  0.84578693472E+02  0.26948423495E+02  0.51964952842E+03  0.52717682546E+03  0.00000000000E+00 0. -1.
         22    1    3    3    0    0 -0.47686815326E+02 -0.40284330749E+02  0.19102501076E+03  0.20096620212E+03  0.00000000000E+00 0. -1.
         22    1    3    3    0    0 -0.62248734517E+02  0.25906960739E+02  0.24494094692E+02  0.71735878321E+02  0.00000000000E+00 0. -1.
</event>
<event>
 7    1  0.9036454E-005  0.1941740E+03  0.7818608E-02  0.1202023E+00
          2   -1    0    0  502    0  0.00000000000E+00  0.00000000000E+00  0.43506477395E+03  0.43506477395E+03  0.00000000000E+00 0. -1.
          1   -1    0    0  501    0 -0.00000000000E+00 -0.00000000000E+00 -0.29138228721E+03  0.29138228721E+03  0.00000000000E+00 0. -1.
         25    2    1    2    0    0  0.21852781930E+03 -0.70510432521E+02 -0.18360834167E+02  0.26208647020E+03  0.12500427484E+03 0.  0.
          2    1    1    2  501    0 -0.89262622637E+02 -0.70822003016E+02 -0.91828979105E+02  0.14634252053E+03  0.00000000000E+00 0. -1.
          1    1    1    2  502    0 -0.12926519666E+03  0.14133243554E+03  0.25387230002E+03  0.31801807043E+03  0.00000000000E+00 0. -1.
         22    1    3    3    0    0 -0.11328241806E+02 -0.14587391051E+02  0.14196902632E+02  0.23295344695E+02  0.00000000000E+00 0.  1.
         22    1    3    3    0    0  0.22985606111E+03 -0.55923041469E+02 -0.32557736799E+02  0.23879112550E+03  0.00000000000E+00 0.  1.
</event>
<event>
 7    1  0.9036454E-005  0.2249628E+03  0.7818608E-02  0.1286428E+00
          2   -1    0    0  502    0  0.00000000000E+00  0.00000000000E+00  0.32135678080E+04  0.32135678080E+04  0.00000000000E+00 0. -1.
          1   -1    0    0  501    0 -0.00000000000E+00 -0.00000000000E+00 -0.33533301712E+02  0.33533301712E+02  0.00000000000E+00 0. -1.
         25    2    1    2    0    0 -0.12420540191E+03  0.19975837854E+03  0.15719982242E+04  0.15944069506E+04  0.12499886178E+03 0.  0.
          2    1    1    2  501    0  0.82765406438E+02 -0.20625126587E+03  0.54146314990E+03  0.58529654012E+03  0.00000000000E+00 0. -1.
          1    1    1    2  502    0  0.41439995467E+02  0.64928873317E+01  0.10665731321E+04  0.10673976189E+04  0.00000000000E+00 0. -1.
         22    1    3    3    0    0 -0.78246812074E+02  0.20391125304E+03  0.12198801072E+04  0.12392779505E+04  0.00000000000E+00 0. -1.
         22    1    3    3    0    0 -0.45958589832E+02 -0.41528744984E+01  0.35211811706E+03  0.35512900009E+03  0.00000000000E+00 0. -1.
</event>
<event>
 7    1  0.9036454E-005  0.9149037E+02  0.7818608E-02  0.1348395E+00
          2   -1    0    0  502    0  0.00000000000E+00  0.00000000000E+00  0.24066793451E+02  0.24066793451E+02  0.00000000000E+00 0. -1.
          1   -1    0    0  501    0 -0.00000000000E+00 -0.00000000000E+00 -0.12154151045E+04  0.12154151045E+04  0.00000000000E+00 0. -1.
         25    2    1    2    0    0  0.36333796499E+02 -0.64903019318E+02 -0.66097342208E+03  0.67678605953E+03  0.12498383492E+03 0.  0.
          2    1    1    2  501    0 -0.17051034018E+00  0.11169880384E+03 -0.44522375770E+03  0.45902161853E+03  0.00000000000E+00 0. -1.
          1    1    1    2  502    0 -0.36163286158E+02 -0.46795784517E+02 -0.85151131248E+02  0.10367421988E+03  0.00000000000E+00 0. -1.
         22    1    3    3    0    0  0.54259624180E+02 -0.83401758548E+02 -0.62302972157E+03  0.63092471350E+03  0.00000000000E+00 0. -1.
         22    1    3    3    0    0 -0.17925827681E+02  0.18498739230E+02 -0.37943700504E+02  0.45861346024E+02  0.00000000000E+00 0. -1.
</event>
<event>
 7    1  0.9036454E-005  0.5251032E+03  0.7818608E-02  0.1065819E+00
          2   -1    0    0  502    0  0.00000000000E+00  0.00000000000E+00  0.28220926189E+04  0.28220926189E+04  0.00000000000E+00 0. -1.
          1   -1    0    0  501    0 -0.00000000000E+00 -0.00000000000E+00 -0.59714880707E+03  0.59714880707E+03  0.00000000000E+00 0. -1.
         25    2    1    2    0    0 -0.47518590391E+03 -0.22137567577E+03  0.71226328820E+03  0.89316978689E+03  0.12499777356E+03 0.  0.
          2    1    1    2  501    0  0.53229081852E+03  0.56659989730E+01 -0.35840222601E+03  0.64173029742E+03  0.00000000000E+00 0. -1.
          1    1    1    2  502    0 -0.57104914609E+02  0.21570967679E+03  0.18710827497E+04  0.18843413417E+04  0.00000000000E+00 0. -1.
         22    1    3    3    0    0 -0.22085318379E+03 -0.51484507957E+02  0.37176396209E+03  0.43547126985E+03  0.00000000000E+00 0.  1.
         22    1    3    3    0    0 -0.25433272012E+03 -0.16989116781E+03  0.34049932611E+03  0.45769851704E+03  0.00000000000E+00 0.  1.
</event>
<event>
 7    1  0.9036454E-005  0.1219176E+03  0.7818608E-02  0.1272091E+00
          2   -1    0    0  502    0  0.00000000000E+00  0.00000000000E+00  0.17623118148E+02  0.17623118148E+02  0.00000000000E+00 0. -1.
          1   -1    0    0  501    0 -0.00000000000E+00 -0.00000000000E+00 -0.22668285111E+04  0.22668285111E+04  0.00000000000E+00 0. -1.
         25    2    1    2    0    0  0.75117772632E+02  0.26287338418E+02 -0.74134450898E+03  0.75601040917E+03  0.12500541528E+03 0.  0.
          2    1    1    2  501    0 -0.15868447979E+03  0.35243050909E+01 -0.10669776532E+04  0.10787189148E+04  0.00000000000E+00 0. -1.
          1    1    1    2  502    0  0.83566707162E+02 -0.29811643509E+02 -0.44088323081E+03  0.44972230526E+03  0.00000000000E+00 0. -1.
         22    1    3    3    0    0 -0.28979865672E+02 -0.10466687333E+02 -0.84264146173E+02  0.89720847568E+02  0.00000000000E+00 0. -1.
         22    1    3    3    0    0  0.10409763830E+03  0.36754025751E+02 -0.65708036281E+03  0.66628956160E+03  0.00000000000E+00 0. -1.
</event>
<event>
 7    1  0.9036454E-005  0.3087394E+03  0.7818608E-02  0.1209328E+00
          2   -1    0    0  502    0  0.00000000000E+00  0.00000000000E+00  0.11971299517E+04  0.11971299517E+04  0.00000000000E+00 0. -1.
          1   -1    0    0  501    0 -0.00000000000E+00 -0.00000000000E+00 -0.11840822508E+04  0.11840822508E+04  0.00000000000E+00 0. -1.
         25    2    1    2    0    0 -0.23271368746E+03 -0.24980117449E+03  0.30325717755E+03  0.47344139119E+03  0.12500219219E+03 0.  0.
          2    1    1    2  501    0  0.24541810133E+03  0.18478287946E+03 -0.10761007228E+04  0.11190922762E+04  0.00000000000E+00 0. -1.
          1    1    1    2  502    0 -0.12704413867E+02  0.65018295033E+02  0.78589124625E+03  0.78867853511E+03  0.00000000000E+00 0. -1.
         22    1    3    3    0    0 -0.18629240214E+03 -0.14607190555E+03  0.26056141716E+03  0.35204277127E+03  0.00000000000E+00 0. -1.
         22    1    3    3    0    0 -0.46421285319E+02 -0.10372926894E+03  0.42695760387E+02  0.12139861993E+03  0.00000000000E+00 0. -1.
</event>
<event>
 7    1  0.9036454E-005  0.1102881E+03  0.7818608E-02  0.1315566E+00
          2   -1    0    0  502    0  0.00000000000E+00  0.00000000000E+00  0.20413224772E+04  0.20413224772E+04  0.00000000000E+00 0. -1.
          1   -1    0    0  501    0 -0.00000000000E+00 -0.00000000000E+00 -0.21781038275E+03  0.21781038275E+03  0.00000000000E+00 0. -1.
         25    2    1    2    0    0  0.94575722047E+02  0.24789433288E+02  0.34536639551E+02  0.16241153346E+03  0.12500257407E+03 0.  0.
          2    1    1    2  501    0 -0.23934400222E+02  0.60897135787E+02 -0.14525160039E+03  0.15930895793E+03  0.00000000000E+00 0. -1.
          1    1    1    2  502    0 -0.70641321824E+02 -0.85686569075E+02  0.19342270553E+04  0.19374123685E+04  0.00000000000E+00 0. -1.
         22    1    3    3    0    0  0.30270644484E+02  0.72412054968E+02  0.21108752506E+02  0.81273593833E+02  0.00000000000E+00 0.  1.
         22    1    3    3    0    0  0.64305077563E+02 -0.47622621679E+02  0.13427887044E+02  0.81137939624E+02  0.00000000000E+00 0.  1.
</event>
<event>
 7    1  0.9036454E-005  0.1131240E+04  0.7818608E-02  0.1049255E+00
          2   -1    0    0  502    0  0.00000000000E+00  0.00000000000E+00  0.16274732872E+04  0.16274732872E+04  0.00000000000E+00 0. -1.
          1   -1    0    0  501    0 -0.00000000000E+00 -0.00000000000E+00 -0.13472471907E+04  0.13472471907E+04  0.00000000000E+00 0. -1.
         25    2    1    2    0    0 -0.93790754394E+03 -0.73644844593E+03  0.27888141101E+03  0.12310267585E+04  0.12500065716E+03 0.  0.
          2    1    1    2  501    0  0.13057460181E+03  0.66099278226E+01 -0.52054015877E+03  0.53670799759E+03  0.00000000000E+00 0. -1.
          1    1    1    2  502    0  0.80733294213E+03  0.72983851811E+03  0.52188484432E+03  0.12069857218E+04  0.00000000000E+00 0. -1.
         22    1    3    3    0    0 -0.26742274304E+03 -0.14422975297E+03  0.53772627271E+02  0.30855897423E+03  0.00000000000E+00 0.  1.
         22    1    3    3    0    0 -0.67048480091E+03 -0.59221869296E+03  0.22510878374E+03  0.92246778429E+03  0.00000000000E+00 0.  1.
</event>
<event>
 7    1  0.9036454E-005  0.1312051E+03  0.7818608E-02  0.1242936E+00
          2   -1    0    0  502    0  0.00000000000E+00  0.00000000000E+00  0.52297239955E+03  0.52297239955E+03  0.00000000000E+00 0. -1.
          1   -1    0    0  501    0 -0.00000000000E+00 -0.00000000000E+00 -0.70496601959E+03  0.70496601959E+03  0.00000000000E+00 0. -1.
         25    2    1    2    0    0 -0.28484540228E+02 -0.14585145792E+03 -0.50810402658E+03  0.54394710009E+03  0.12499891625E+03 0.  0.
          2    1    1    2  501    0  0.10332437200E+03  0.37535380323E+02 -0.15228077302E+03  0.18781444155E+03  0.00000000000E+00 0. -1.
          1    1    1    2  502    0 -0.74839831768E+02  0.10831607760E+03  0.47839117955E+03  0.49617687749E+03  0.00000000000E+00 0. -1.
         22    1    3    3    0    0 -0.51677313145E+01 -0.34457990517E+02 -0.33484471956E+03  0.33665270647E+03  0.00000000000E+00 0.  1.
         22    1    3    3    0    0 -0.23316808914E+02 -0.11139346740E+03 -0.17325930701E+03  0.20729439362E+03  0.00000000000E+00 0.  1.
</event>
<event>
 7    1  0.9036454E-005  0.1980491E+03  0.7818608E-02  0.1222588E+00
          2   -1    0    0  502    0  0.00000000000E+00  0.00000000000E+00  0.55841219110E+03  0.55841219110E+03  0.00000000000E+00 0. -1.
          1   -1    0    0  501    0 -0.00000000000E+00 -0.00000000000E+00 -0.24541357814E+04  0.24541357814E+04  0.00000000000E+00 0. -1.
         25    2    1    2    0    0  0.25205166915E+02 -0.19008975985E+03  0.62761796450E+02  0.23734746201E+03  0.12500142954E+03 0.  0.
          2    1    1    2  501    0  0.87590788723E+02  0.19649652368E+02 -0.23403548286E+04  0.23420757842E+04  0.00000000000E+00 0. -1.
          1    1    1    2  502    0 -0.11279595564E+03  0.17044010749E+03  0.38186944189E+03  0.43312472626E+03  0.00000000000E+00 0. -1.
         22    1    3    3    0    0  0.75251087943E+02 -0.95286276503E+02  0.27476256062E+02  0.12448753100E+03  0.00000000000E+00 0.  1.
         22    1    3    3    0    0 -0.50045921029E+02 -0.94803483351E+02  0.35285540387E+02  0.11285993101E+03  0.00000000000E+00 0.  1.
</event>
<event>
 7    1  0.9036454E-005  0.2017908E+03  0.7818608E-02  0.1253540E+00
          2   -1    0    0  502    0  0.00000000000E+00  0.00000000000E+00  0.83517520223E+03  0.83517520223E+03  0.00000000000E+00 0. -1.
          1   -1    0    0  501    0 -0.00000000000E+00 -0.00000000000E+00 -0.27604691351E+03  0.27604691351E+03  0.00000000000E+00 0. -1.
         25    2    1    2    0    0  0.20727990887E+03  0.38657593675E+02  0.51374268131E+03  0.56922567596E+03  0.12500782933E+03 0.  0.
          2    1    1    2  501    0 -0.34494059224E+02  0.54233091042E+02 -0.21019859533E+03  0.21980563633E+03  0.00000000000E+00 0. -1.
          1    1    1    2  502    0 -0.17278584965E+03 -0.92890684717E+02  0.25558420273E+03  0.32219080346E+03  0.00000000000E+00 0. -1.
         22    1    3    3    0    0  0.14738210606E+03 -0.31013303876E+02  0.27733838155E+03  0.31559449946E+03  0.00000000000E+00 0. -1.
         22    1    3    3    0    0  0.59897802806E+02  0.69670897551E+02  0.23640429976E+03  0.25363117650E+03  0.00000000000E+00 0. -1.
</event>
<event>
 7    1  0.9036454E-005  0.7123639E+02  0.7818608E-02  0.1383516E+00
          2   -1    0    0  502    0  0.00000000000E+00  0.00000000000E+00  0.78879975510E+03  0.78879975510E+03  0.00000000000E+00 0. -1.
          1   -1    0    0  501    0 -0.00000000000E+00 -0.00000000000E+00 -0.66619369418E+02  0.66619369418E+02  0.00000000000E+00 0. -1.
         25    2    1    2    0    0 -0.21468682900E+02  0.97227155295E+02  0.32428976202E+03  0.36152873641E+03  0.12500061370E+03 0.  0.
          2    1    1    2  501    0 -0.28156872251E+02 -0.49203636048E+02 -0.27445505097E+02  0.62984625151E+02  0.00000000000E+00 0. -1.
          1    1    1    2  502    0  0.49625555150E+02 -0.48023519247E+02  0.42533612875E+03  0.43090576296E+03  0.00000000000E+00 0. -1.
         22    1    3    3    0    0 -0.60160404607E+02  0.98913692864E+02  0.27819972964E+03  0.30132753358E+03  0.00000000000E+00 0.  1.
         22    1    3    3    0    0  0.38691721707E+02 -0.16865375682E+01  0.46090032380E+02  0.60201202832E+02  0.00000000000E+00 0.  1.
</event>
<event>
 7    1  0.9036454E-005  0.1992445E+03  0.7818608E-02  0.1319013E+00
          2   -1    0    0  502    0  0.00000000000E+00  0.00000000000E+00  0.24965280436E+03  0.24965280436E+03  0.00000000000E+00 0. -1.
          1   -1    0    0  501    0 -0.00000000000E+00 -0.00000000000E+00 -0.23474084002E+03  0.23474084002E+03  0.00000000000E+00 0. -1.
         25    2    1    2    0    0 -0.15464640344E+03  0.10881027270E+03 -0.23205206740E+01  0.22668434502E+03  0.12500088766E+03 0.  0.
          2    1    1    2  501    0 -0.31146020537E+02 -0.16218032535E+02 -0.28404556452E+02  0.45165451418E+02  0.00000000000E+00 0. -1.
          1    1    1    2  502    0  0.18579242398E+03 -0.92592240165E+02  0.45637041465E+02  0.21254384795E+03  0.00000000000E+00 0. -1.
         22    1    3    3    0    0 -0.50000037403E+02  0.10132052307E+03  0.30006617231E+02  0.11690273399E+03  0.00000000000E+00 0. -1.
         22    1    3    3    0    0 -0.10464636604E+03  0.74897496251E+01 -0.32327137905E+02  0.10978161103E+03  0.00000000000E+00 0. -1.
</event>
<event>
 7    1  0.9036454E-005  0.7524858E+02  0.7818608E-02  0.1371042E+00
          2   -1    0    0  502    0  0.00000000000E+00  0.00000000000E+00  0.17213847221E+04  0.17213847221E+04  0.00000000000E+00 0. -1.
          1   -1    0    0  501    0 -0.00000000000E+00 -0.00000000000E+00 -0.17251986468E+04  0.17251986468E+04  0.00000000000E+00 0. -1.
         25    2    1    2    0    0  0.71306616759E+02  0.32764668510E+02  0.41298753515E+03  0.43856789520E+03  0.12499974966E+03 0.  0.
          2    1    1    2  501    0 -0.70406511500E+02  0.26667643252E+02 -0.17108984479E+04  0.17125541565E+04  0.00000000000E+00 0. -1.
          1    1    1    2  502    0 -0.90010525894E+00 -0.59432311762E+02  0.12940969880E+04  0.12954613172E+04  0.00000000000E+00 0. -1.
         22    1    3    3    0    0  0.88131432546E+02  0.36476522010E+01  0.38452179602E+03  0.39450914614E+03  0.00000000000E+00 0. -1.
         22    1    3    3    0    0 -0.16824815786E+02  0.29117016309E+02  0.28465739127E+02  0.44058749064E+02  0.00000000000E+00 0. -1.
</event>
<event>
 7    1  0.9036454E-005  0.4208485E+03  0.7818608E-02  0.1210458E+00
          2   -1    0    0  502    0  0.00000000000E+00  0.00000000000E+00  0.20523071380E+04  0.20523071380E+04  0.00000000000E+00 0. -1.
          1   -1    0    0  501    0 -0.00000000000E+00 -0.00000000000E+00 -0.34977908229E+03  0.34977908229E+03  0.00000000000E+00 0. -1.
         25    2    1    2    0    0  0.30447107465E+03 -0.31743371036E+03  0.15638794981E+04  0.16293589117E+04  0.12499833128E+03 0.  0.
          2    1    1    2  501    0 -0.25824404005E+03  0.33042410503E+03 -0.17573284760E+03  0.45470001884E+03  0.00000000000E+00 0. -1.
          1    1    1    2  502    0 -0.46227034598E+02 -0.12990394671E+02  0.31438140527E+03  0.31802728980E+03  0.00000000000E+00 0. -1.
         22    1    3    3    0    0  0.22861591633E+03 -0.30093771474E+03  0.13466253232E+04  0.13986523894E+04  0.00000000000E+00 0.  1.
         22    1    3    3    0    0  0.75855158322E+02 -0.16495995620E+02  0.21725417491E+03  0.23070652230E+03  0.00000000000E+00 0.  1.
</event>
<event>
 7    1  0.9036454E-005  0.4242511E+02  0.7818608E-02  0.1507921E+00
          2   -1    0    0  502    0  0.00000000000E+00  0.00000000000E+00  0.99641086623E+02  0.99641086623E+02  0.00000000000E+00 0. -1.
          1   -1    0    0  501    0 -0.00000000000E+00 -0.00000000000E+00 -0.43089587087E+03  0.43089587087E+03  0.00000000000E+00 0. -1.
         25    2    1    2    0    0  0.56909386137E+02 -0.42538757761E+02 -0.19930422846E+03  0.24575619745E+03  0.12500283581E+03 0.  0.
          2    1    1    2  501    0 -0.19840016500E+02  0.35203543104E+02 -0.20156272026E+03  0.20557345621E+03  0.00000000000E+00 0. -1.
          1    1    1    2  502    0 -0.37069369638E+02  0.73352146576E+01  0.69612164466E+02  0.79207303837E+02  0.00000000000E+00 0. -1.
         22    1    3    3    0    0  0.29354927930E+02 -0.55794017806E+02 -0.20515586451E+03  0.21462435313E+03  0.00000000000E+00 0.  1.
         22    1    3    3    0    0  0.27554458207E+02  0.13255260045E+02  0.58516360469E+01  0.31131844314E+02  0.00000000000E+00 0.  1.
</event>
<event>
 7    1  0.9036454E-005  0.7481600E+03  0.7818608E-02  0.1108248E+00
          2   -1    0    0  502    0  0.00000000000E+00  0.00000000000E+00  0.69502325706E+03  0.69502325706E+03  0.00000000000E+00 0. -1.
          1   -1    0    0  501    0 -0.00000000000E+00 -0.00000000000E+00 -0.12860752642E+04  0.12860752642E+04  0.00000000000E+00 0. -1.
         25    2    1    2    0    0 -0.72391073756E+03 -0.67827946003E+01  0.18109184708E+03  0.75664917598E+03  0.12502382243E+03 0.  0.
          2    1    1    2  501    0 -0.87935896125E+02  0.14274292113E+02 -0.23407002513E+03  0.25045010263E+03  0.00000000000E+00 0. -1.
          1    1    1    2  502    0  0.81184663368E+03 -0.74914975124E+01 -0.53807382909E+03  0.97399924266E+03  0.00000000000E+00 0. -1.
         22    1    3    3    0    0 -0.42049828047E+03 -0.60224303993E+02  0.13093041844E+03  0.44450933077E+03  0.00000000000E+00 0. -1.
         22    1    3    3    0    0 -0.30341245708E+03  0.53441509392E+02  0.50161428637E+02  0.31213984520E+03  0.00000000000E+00 0. -1.
</event>
<event>
 7    1  0.9036454E-005  0.5307843E+03  0.7818608E-02  0.1251466E+00
          2   -1    0    0  502    0  0.00000000000E+00  0.00000000000E+00  0.76704645196E+03  0.76704645196E+03  0.00000000000E+00 0. -1.
          1   -1    0    0  501    0 -0.00000000000E+00 -0.00000000000E+00 -0.65218315206E+03  0.65218315206E+03  0.00000000000E+00 0. -1.
         25    2    1    2    0    0  0.53903166553E+03 -0.85396435351E+02 -0.78809387116E+02  0.56540515973E+03  0.12499755014E+03 0.  0.
          2    1    1    2  501    0 -0.18884881561E+02  0.16297120766E+02 -0.19767350992E+03  0.19924118907E+03  0.00000000000E+00 0. -1.
          1    1    1    2  502    0 -0.52014678397E+03  0.69099314585E+02  0.39134619694E+03  0.65458325522E+03  0.00000000000E+00 0. -1.
         22    1    3    3    0    0  0.47704077192E+03 -0.98044234827E+02 -0.10279654498E+03  0.49774260388E+03  0.00000000000E+00 0. -1.
         22    1    3    3    0    0  0.61990893612E+02  0.12647799475E+02  0.23987157868E+02  0.67662555856E+02  0.00000000000E+00 0. -1.
</event>
<event>
 7    1  0.9036454E-005  0.1428288E+03  0.7818608E-02  0.1210803E+00
          2   -1    0    0  502    0  0.00000000000E+00  0.00000000000E+00  0.56454588027E+03  0.56454588027E+03  0.00000000000E+00 0. -1.
          1   -1    0    0  501    0 -0.00000000000E+00 -0.00000000000E+00 -0.15809866046E+03  0.15809866046E+03  0.00000000000E+00 0. -1.
         25    2    1    2    0    0 -0.64593852245E+02 -0.14013126465E+03  0.21492034414E+02  0.19974033131E+03  0.12500062130E+03 0.  0.
          2    1    1    2  501    0 -0.76253508476E+02  0.14588505272E+03  0.72005155929E+02  0.17967133506E+03  0.00000000000E+00 0. -1.
          1    1    1    2  502    0  0.14084736072E+03 -0.57537880649E+01  0.31295002947E+03  0.34323287437E+03  0.00000000000E+00 0. -1.
         22    1    3    3    0    0 -0.62001455029E+02 -0.81812663466E+02  0.69660629098E+02  0.12405682398E+03  0.00000000000E+00 0.  1.
         22    1    3    3    0    0 -0.25923972157E+01 -0.58318601186E+02 -0.48168594683E+02  0.75683507328E+02  0.00000000000E+00 0.  1.
</event>
<event>
 7    1  0.9036454E-005  0.2526969E+03  0.7818608E-02  0.1247185E+00
          2   -1    0    0  502    0  0.00000000000E+00  0.00000000000E+00  0.21553058769E+04  0.21553058769E+04  0.00000000000E+00 0. -1.
          1   -1    0    0  501    0 -0.00000000000E+00 -0.00000000000E+00 -0.22240254762E+03  0.22240254762E+03  0.00000000000E+00 0. -1.
         25    2    1    2    0    0 -0.27585080426E+03  0.51716346985E+02  0.82619979038E+03  0.88147584809E+03  0.12500132153E+03 0.  0.
          2    1    1    2  501    0  0.23458437644E+03 -0.87602049394E+02 -0.11341125300E+03  0.27489281736E+03  0.00000000000E+00 0. -1.
          1    1    1    2  502    0  0.41266427822E+02  0.35885702409E+02  0.12201147919E+04  0.12213397591E+04  0.00000000000E+00 0. -1.
         22    1    3    3    0    0 -0.81978693277E+02 -0.70824134331E+01  0.41498570733E+03  0.42306477521E+03  0.00000000000E+00 0.  1.
         22    1    3    3    0    0 -0.19387211098E+03  0.58798760418E+02  0.41121408304E+03  0.45841107288E+03  0.00000000000E+00 0.  1.
</event>
<event>
 7    1  0.9036454E-005  0.6659843E+03  0.7818608E-02  0.1239663E+00
          2   -1    0    0  502    0  0.00000000000E+00  0.00000000000E+00  0.32302220185E+04  0.32302220185E+04  0.00000000000E+00 0. -1.
          1   -1    0    0  501    0 -0.00000000000E+00 -0.00000000000E+00 -0.21207968955E+04  0.21207968955E+04  0.00000000000E+00 0. -1.
         25    2    1    2    0    0 -0.21227935443E+03 -0.65099444144E+03  0.22016015447E+04  0.23090107106E+04  0.12499925150E+03 0.  0.
          2    1    1    2  501    0  0.19549229845E+03  0.63618230313E+03 -0.20133817465E+04  0.21205308814E+04  0.00000000000E+00 0. -1.
          1    1    1    2  502    0  0.16787055982E+02  0.14812138312E+02  0.92120532475E+03  0.92147732205E+03  0.00000000000E+00 0. -1.
         22    1    3    3    0    0 -0.22446448892E+03 -0.54627491566E+03  0.18607367915E+04  0.19522146392E+04  0.00000000000E+00 0. -1.
         22    1    3    3    0    0  0.12185134496E+02 -0.10471952578E+03  0.34086475319E+03  0.35679607137E+03  0.00000000000E+00 0. -1.
</event>
<event>
 7    1  0.9036454E-005  0.1308415E+04  0.7818608E-02  0.1084892E+00
          2   -1    0    0  502    0  0.00000000000E+00  0.00000000000E+00  0.23695756025E+04  0.23695756025E+04  0.00000000000E+00 0. -1.
          1   -1    0    0  501    0 -0.00000000000E+00 -0.00000000000E+00 -0.24069690213E+04  0.24069690213E+04  0.00000000000E+00 0. -1.
         25    2    1    2    0    0  0.12650826265E+04 -0.17335029781E+03 -0.89045313087E+03  0.15617352757E+04  0.12500366223E+03 0.  0.
          2    1    1    2  501    0 -0.13298095801E+04  0.19755974237E+03 -0.79727223329E+03  0.15630311529E+04  0.00000000000E+00 0. -1.
          1    1    1    2  502    0  0.64726953589E+02 -0.24209444560E+02  0.16503319454E+04  0.16517781951E+04  0.00000000000E+00 0. -1.
         22    1    3    3    0    0  0.61881155074E+03 -0.14738171485E+03 -0.45104246668E+03  0.77980023849E+03  0.00000000000E+00 0.  1.
         22    1    3    3    0    0  0.64627107575E+03 -0.25968582964E+02 -0.43941066419E+03  0.78193503723E+03  0.00000000000E+00 0.  1.
</event>
<event>
 7    1  0.9036454E-005  0.4553483E+03  0.7818608E-02  0.1152881E+00
          2   -1    0    0  502    0  0.00000000000E+00  0.00000000000E+00  0.28341614747E+03  0.28341614747E+03  0.00000000000E+00 0. -1.
          1   -1    0    0  501    0 -0.00000000000E+00 -0.00000000000E+00 -0.16864683897E+04  0.16864683897E+04  0.00000000000E+00 0. -1.
         25    2    1    2    0    0  0.29425706983E+03 -0.30243139934E+03 -0.18681664484E+03  0.47809762258E+03  0.12499961390E+03 0.  0.
          2    1    1    2  501    0  0.75999383873E+02 -0.37261429337E+02 -0.88706045516E+03  0.89108954184E+03  0.00000000000E+00 0. -1.
          1    1    1    2  502    0 -0.37025645371E+03  0.33969282868E+03 -0.32917514222E+03  0.60069737274E+03  0.00000000000E+00 0. -1.
         22    1    3    3    0    0 -0.98885978245E+01  0.45505071254E+00  0.16930967095E+00  0.99005102823E+01  0.00000000000E+00 0.  1.
         22    1    3    3    0    0  0.30414566766E+03 -0.30288645005E+03 -0.18698595451E+03  0.46819711230E+03  0.00000000000E+00 0.  1.
</event>
<event>
 7    1  0.9036454E-005  0.1505560E+03  0.7818608E-02  0.1288991E+00
          2   -1    0    0  502    0  0.00000000000E+00  0.00000000000E+00  0.14576872876E+04  0.14576872876E+04  0.00000000000E+00 0. -1.
          1   -1    0    0  501    0 -0.00000000000E+00 -0.00000000000E+00 -0.57875225200E+02  0.57875225200E+02  0.00000000000E+00 0. -1.
         25    2    1    2    0    0  0.13314882512E+03 -0.89838625520E+02  0.99865644238E+03  0.10191859199E+04  0.12500264442E+03 0.  0.
          2    1    1    2  501    0 -0.83394391030E+02  0.12544613458E+03  0.82198008088E+02  0.17160381601E+03  0.00000000000E+00 0. -1.
          1    1    1    2  502    0 -0.49754434088E+02 -0.35607509057E+02  0.31895761196E+03  0.32477277694E+03  0.00000000000E+00 0. -1.
         22    1    3    3    0    0  0.27436479916E+02 -0.93132579240E+02  0.43658387407E+03  0.44724927819E+03  0.00000000000E+00 0.  1.
         22    1    3    3    0    0  0.10571234520E+03  0.32939537205E+01  0.56207256831E+03  0.57193664169E+03  0.00000000000E+00 0.  1.
</event>
<event>
 7    1  0.9036454E-005  0.3498847E+03  0.7818608E-02  0.1077883E+00
          2   -1    0    0  502    0  0.00000000000E+00  0.00000000000E+00  0.13424306554E+03  0.13424306554E+03  0.00000000000E+00 0. -1.
          1   -1    0    0  501    0 -0.00000000000E+00 -0.00000000000E+00 -0.25388734710E+04  0.25388734710E+04  0.00000000000E+00 0. -1.
         25    2    1    2    0    0  0.38900965577E+02  0.10404960261E+03 -0.21776527004E+03  0.27456626255E+03  0.12500125908E+03 0.  0.
          2    1    1    2  501    0 -0.62765565007E+01 -0.45240998887E+03 -0.18783448153E+04  0.19320697291E+04  0.00000000000E+00 0. -1.
          1    1    1    2  502    0 -0.32624409076E+02  0.34836038626E+03 -0.30852032016E+03  0.46648054486E+03  0.00000000000E+00 0. -1.
         22    1    3    3    0    0 -0.45428165095E+02  0.43637558065E+02 -0.72143826936E+02  0.95774142767E+02  0.00000000000E+00 0. -1.
         22    1    3    3    0    0  0.84329130672E+02  0.60412044548E+02 -0.14562144310E+03  0.17879211979E+03  0.00000000000E+00 0. -1.
</event>
<event>
 7    1  0.9036454E-005  0.2832004E+03  0.7818608E-02  0.1161698E+00
          2   -1    0    0  502    0  0.00000000000E+00  0.00000000000E+00  0.17768229708E+04  0.17768229708E+04  0.00000000000E+00 0. -1.
          1   -1    0    0  501    0 -0.00000000000E+00 -0.00000000000E+00 -0.99272651814E+02  0.99272651814E+02  0.00000000000E+00 0. -1.
         25    2    1    2    0    0  0.27632961209E+03  0.19083218763E+03  0.35603740876E+03  0.50513655797E+03  0.12500130961E+03 0.  0.
          2    1    1    2  501    0 -0.17224866203E+03 -0.12573951565E+03  0.55287291178E+03  0.59257782945E+03  0.00000000000E+00 0. -1.
          1    1    1    2  502    0 -0.10408095006E+03 -0.65092671981E+02  0.76863999845E+03  0.77838123521E+03  0.00000000000E+00 0. -1.
         22    1    3    3    0    0  0.93436563310E+02  0.18040366579E+01  0.71618686214E+02  0.11774074115E+03  0.00000000000E+00 0. -1.
         22    1    3    3    0    0  0.18289304878E+03  0.18902815097E+03  0.28441872255E+03  0.38739581682E+03  0.00000000000E+00 0. -1.
</event>
<event>
 7    1  0.9036454E-005  0.6028386E+03  0.7818608E-02  0.1132400E+00
          2   -1    0    0  502    0  0.00000000000E+00  0.00000000000E+00  0.88156650673E+03  0.88156650673E+03  0.00000000000E+00 0. -1.
          1   -1    0    0  501    0 -0.00000000000E+00 -0.00000000000E+00 -0.15616587842E+04  0.15616587842E+04  0.00000000000E+00 0. -1.
         25    2    1    2    0    0 -0.37872980374E+03  0.39985319401E+03 -0.80384039409E+03  0.98239624318E+03  0.12499663372E+03 0.  0.
          2    1    1    2  501    0 -0.81753584512E+02  0.24682854472E+00 -0.54763375784E+03  0.55370248530E+03  0.00000000000E+00 0. -1.
          1    1    1    2  502    0  0.46048338826E+03 -0.40010002255E+03  0.67138187447E+03  0.90712656243E+03  0.00000000000E+00 0. -1.
         22    1    3    3    0    0 -0.33819376405E+03  0.35202272674E+03 -0.76847869971E+03  0.91041448478E+03  0.00000000000E+00 0. -1.
         22    1    3    3    0    0 -0.40536039699E+02  0.47830467269E+02 -0.35361694380E+02  0.71981758405E+02  0.00000000000E+00 0. -1.
</event>
<event>
 7    1  0.9036454E-005  0.2821984E+03  0.7818608E-02  0.1149214E+00
          2   -1    0    0  502    0  0.00000000000E+00  0.00000000000E+00  0.67291707757E+03  0.67291707757E+03  0.00000000000E+00 0. -1.
          1   -1    0    0  501    0 -0.00000000000E+00 -0.00000000000E+00 -0.50222483931E+03  0.50222483931E+03  0.00000000000E+00 0. -1.
         25    2    1    2    0    0  0.73497774704E+02 -0.35854600963E+03  0.48854957301E+02  0.38983191060E+03  0.12499979105E+03 0.  0.
          2    1    1    2  501    0  0.60637443272E+02  0.12909856230E+03 -0.27378050991E+03  0.30870553270E+03  0.00000000000E+00 0. -1.
          1    1    1    2  502    0 -0.13413521798E+03  0.22944744733E+03  0.39561779086E+03  0.47660447357E+03  0.00000000000E+00 0. -1.
         22    1    3    3    0    0  0.48315632076E+02 -0.13272675184E+03 -0.38498660321E+02  0.14639992419E+03  0.00000000000E+00 0. -1.
         22    1    3    3    0    0  0.25182142627E+02 -0.22581925779E+03  0.87353617622E+02  0.24343198641E+03  0.00000000000E+00 0. -1.
</event>
<event>
 7    1  0.9036454E-005  0.3613730E+03  0.7818608E-02  0.1108905E+00
          2   -1    0    0  502    0  0.00000000000E+00  0.00000000000E+00  0.21466337860E+04  0.21466337860E+04  0.00000000000E+00 0. -1.
          1   -1    0    0  501    0 -0.00000000000E+00 -0.00000000000E+00 -0.84143980743E+03  0.84143980743E+03  0.00000000000E+00 0. -1.
         25    2    1    2    0    0 -0.71684756230E+02 -0.52094093532E+03 -0.14740892088E+03  0.56024230660E+03  0.12499555905E+03 0.  0.
          2    1    1    2  501    0  0.74764978628E+02  0.16691869354E+03 -0.45357091902E+03  0.48905851477E+03  0.00000000000E+00 0. -1.
          1    1    1    2  502    0 -0.30802223986E+01  0.35402224178E+03  0.19061738184E+04  0.19387727720E+04  0.00000000000E+00 0. -1.
         22    1    3    3    0    0 -0.98445284103E+02 -0.48696535399E+03 -0.12938491022E+03  0.51338794779E+03  0.00000000000E+00 0. -1.
         22    1    3    3    0    0  0.26760527874E+02 -0.33975581331E+02 -0.18024010668E+02  0.46854358809E+02  0.00000000000E+00 0. -1.
</event>
<event>
 7    1  0.9036454E-005  0.6862176E+03  0.7818608E-02  0.1019036E+00
          2   -1    0    0  502    0  0.00000000000E+00  0.00000000000E+00  0.52837392937E+03  0.52837392937E+03  0.00000000000E+00 0. -1.
          1   -1    0    0  501    0 -0.00000000000E+00 -0.00000000000E+00 -0.18214841730E+04  0.18214841730E+04  0.00000000000E+00 0. -1.
         25    2    1    2    0    0  0.54835711685E+03  0.74291141404E+03 -0.58878562115E+03  0.11022280307E+04  0.12500090944E+03 0.  0.
          2    1    1    2  501    0 -0.34382063954E+03 -0.47601418341E+03 -0.69688397178E+03  0.91128996762E+03  0.00000000000E+00 0. -1.
          1    1    1    2  502    0 -0.20453647731E+03 -0.26689723063E+03 -0.74406506908E+01  0.33634010399E+03  0.00000000000E+00 0. -1.
         22    1    3    3    0    0  0.26589024479E+03  0.27551639640E+03 -0.20108392730E+03  0.43248312427E+03  0.00000000000E+00 0.  1.
         22    1    3    3    0    0  0.28246687206E+03  0.46739501764E+03 -0.38770169385E+03  0.66974490647E+03  0.00000000000E+00 0.  1.
</event>
<event>
 7    1  0.9036454E-005  0.6895663E+02  0.7818608E-02  0.1480875E+00
          2   -1    0    0  502    0  0.00000000000E+00  0.00000000000E+00  0.18925214555E+04  0.18925214555E+04  0.00000000000E+00 0. -1.
          1   -1    0    0  501    0 -0.00000000000E+00 -0.00000000000E+00 -0.14789660118E+02  0.14789660118E+02  0.00000000000E+00 0. -1.
         25    2    1    2    0    0 -0.24033737840E+02  0.71969249274E+02  0.15369613371E+04  0.15439015612E+04  0.12499874222E+03 0.  0.
          2    1    1    2  501    0 -0.38135156274E+01 -0.68707584046E+02  0.10226358490E+03  0.12326035779E+03  0.00000000000E+00 0. -1.
          1    1    1    2  502    0  0.27847253467E+02 -0.32616652282E+01  0.23850687339E+03  0.24014919663E+03  0.00000000000E+00 0. -1.
         22    1    3    3    0    0 -0.33278573470E+02  0.75683234132E+01  0.12125659123E+04  0.12130460975E+04  0.00000000000E+00 0. -1.
         22    1    3    3    0    0  0.92448356304E+01  0.64400925861E+02  0.32439542484E+03  0.33085546375E+03  0.00000000000E+00 0. -1.
</event>
<event>
 7    1  0.9036454E-005  0.1526315E+03  0.7818608E-02  0.1308886E+00
          2   -1    0    0  502    0  0.00000000000E+00  0.00000000000E+00  0.94694587076E+02  0.94694587076E+02  0.00000000000E+00 0. -1.
          1   -1    0    0  501    0 -0.00000000000E+00 -0.00000000000E+00 -0.58215026410E+03  0.58215026410E+03  0.00000000000E+00 0. -1.
         25    2    1    2    0    0  0.12403260248E+03 -0.11543757663E+03 -0.24954486933E+03  0.32650851132E+03  0.12500098231E+03 0.  0.
          2    1    1    2  501    0 -0.50171939595E+02 -0.22764565736E+01  0.22602447655E+02  0.55075188763E+02  0.00000000000E+00 0. -1.
          1    1    1    2  502    0 -0.73860662884E+02  0.11771403320E+03 -0.26051325535E+03  0.29526115110E+03  0.00000000000E+00 0. -1.
         22    1    3    3    0    0  0.53537876501E+01 -0.73452021557E+02 -0.14594278702E+03  0.16347219824E+03  0.00000000000E+00 0.  1.
         22    1    3    3    0    0  0.11867881483E+03 -0.41985555071E+02 -0.10360208231E+03  0.16303631308E+03  0.00000000000E+00 0.  1.
</event>
<event>
 7    1  0.9036454E-005  0.8350562E+03  0.7818608E-02  0.1130905E+00
          2   -1    0    0  502    0  0.00000000000E+00  0.00000000000E+00  0.17565303636E+04  0.17565303636E+04  0.00000000000E+00 0. -1.
          1   -1    0    0  501    0 -0.00000000000E+00 -0.00000000000E+00 -0.15596587909E+04  0.15596587909E+04  0.00000000000E+00 0. -1.
         25    2    1    2    0    0 -0.33959980244E+03  0.81141699499E+03  0.58738649261E+03  0.10650699365E+04  0.12500204931E+03 0.  0.
          2    1    1    2  501    0  0.29175238655E+03 -0.77503301020E+03 -0.11897723050E+04  0.14496046909E+04  0.00000000000E+00 0. -1.
          1    1    1    2  502    0  0.47847415893E+02 -0.36383984787E+02  0.79925738509E+03  0.80151452711E+03  0.00000000000E+00 0. -1.
         22    1    3    3    0    0 -0.20058523816E+03  0.42220972322E+03  0.24146773847E+03  0.52611990731E+03  0.00000000000E+00 0.  1.
         22    1    3    3    0    0 -0.13901456428E+03  0.38920727177E+03  0.34591875414E+03  0.53895002918E+03  0.00000000000E+00 0.  1.
</event>
<event>
 7    1  0.9036454E-005  0.4524946E+03  0.7818608E-02  0.1098157E+00
          2   -1    0    0  502    0  0.00000000000E+00  0.00000000000E+00  0.35129380147E+03  0.35129380147E+03  0.00000000000E+00 0. -1.
          1   -1    0    0  501    0 -0.00000000000E+00 -0.00000000000E+00 -0.25034771504E+04  0.25034771504E+04  0.00000000000E+00 0. -1.
         25    2    1    2    0    0  0.46776026906E+03  0.54973897133E+02 -0.11315937712E+04  0.12320514718E+04  0.12499827010E+03 0.  0.
          2    1    1    2  501    0 -0.65318692283E+02  0.15453250854E+03 -0.11410286912E+04  0.11532967103E+04  0.00000000000E+00 0. -1.
          1    1    1    2  502    0 -0.40244157678E+03 -0.20950640567E+03  0.12043911348E+03  0.46942276978E+03  0.00000000000E+00 0. -1.
         22    1    3    3    0    0  0.14993702295E+03  0.71701595058E+02 -0.45315279243E+03  0.48266933077E+03  0.00000000000E+00 0. -1.
         22    1    3    3    0    0  0.31782324611E+03 -0.16727697925E+02 -0.67844097873E+03  0.74938214102E+03  0.00000000000E+00 0. -1.
</event>
<event>
 7    1  0.9036454E-005  0.5749531E+02  0.7818608E-02  0.1414181E+00
          2   -1    0    0  502    0  0.00000000000E+00  0.00000000000E+00  0.11646739286E+04  0.11646739286E+04  0.00000000000E+00 0. -1.
          1   -1    0    0  501    0 -0.00000000000E+00 -0.00000000000E+00 -0.14322641957E+02  0.14322641957E+02  0.00000000000E+00 0. -1.
         25    2    1    2    0    0 -0.29564864490E+02 -0.66929662636E+02  0.63161393276E+03  0.64800860045E+03  0.12500130098E+03 0.  0.
          2    1    1    2  501    0  0.53283618663E+02  0.13925451889E+02  0.23461916831E+03  0.24099629948E+03  0.00000000000E+00 0. -1.
          1    1    1    2  502    0 -0.23718754173E+02  0.53004210747E+02  0.28411818559E+03  0.28999167064E+03  0.00000000000E+00 0. -1.
         22    1    3    3    0    0  0.25376136219E+02 -0.66094112986E+02  0.18597915608E+03  0.19899906170E+03  0.00000000000E+00 0.  1.
         22    1    3    3    0    0 -0.54941000710E+02 -0.83554964953E+00  0.44563477669E+03  0.44900953876E+03  0.00000000000E+00 0.  1.
</event>
<event>
 7    1  0.9036454E-005  0.8511878E+02  0.7818608E-02  0.1364634E+00
          2   -1    0    0  502    0  0.00000000000E+00  0.00000000000E+00  0.64890666732E+02  0.64890666732E+02  0.00000000000E+00 0. -1.
          1   -1    0    0  501    0 -0.00000000000E+00 -0.00000000000E+00 -0.92271435188E+03  0.92271435188E+03  0.00000000000E+00 0. -1.
         25    2    1    2    0    0  0.30213727741E+02  0.59701764422E+02 -0.83032707849E+03  0.84234495762E+03  0.12499920135E+03 0.  0.
          2    1    1    2  501    0  0.49637471797E+02 -0.24644636200E+02 -0.99708232018E+01  0.56308560763E+02  0.00000000000E+00 0. -1.
          1    1    1    2  502    0 -0.79851199538E+02 -0.35057128222E+02 -0.17525783456E+02  0.88951500227E+02  0.00000000000E+00 0. -1.
         22    1    3    3    0    0  0.78500241619E+02  0.25825608510E+02 -0.50392391894E+03  0.51065503627E+03  0.00000000000E+00 0. -1.
         22    1    3    3    0    0 -0.48286513878E+02  0.33876155912E+02 -0.32640315955E+03  0.33168992135E+03  0.00000000000E+00 0. -1.
</event>
<event>
 7    1  0.9036454E-005  0.3912487E+03  0.7818608E-02  0.1154378E+00
          2   -1    0    0  502    0  0.00000000000E+00  0.00000000000E+00  0.87084831837E+03  0.87084831837E+03  0.00000000000E+00 0. -1.
          1   -1    0    0  501    0 -0.00000000000E+00 -0.00000000000E+00 -0.10871989643E+04  0.10871989643E+04  0.00000000000E+00 0. -1.
         25    2    1    2    0    0 -0.17953204927E+03 -0.29967494052E+03 -0.87232053966E+03  0.94794679981E+03  0.12499273844E+03 0.  0.
          2    1    1    2  501    0  0.53578244193E+02 -0.80607149477E+02  0.59746340882E+03  0.60525256354E+03  0.00000000000E+00 0. -1.
          1    1    1    2  502    0  0.12595380508E+03  0.38028209000E+03  0.58506484923E+02  0.40484791931E+03  0.00000000000E+00 0. -1.
         22    1    3    3    0    0  0.10653538948E+02  0.50581741964E+01 -0.29539734795E+02  0.31806900982E+02  0.00000000000E+00 0.  1.
         22    1    3    3    0    0 -0.19018558822E+03 -0.30473311472E+03 -0.84278080487E+03  0.91613989883E+03  0.00000000000E+00 0.  1.
</event>
<event>
 7    1  0.9036454E-005  0.5898536E+03  0.7818608E-02  0.1106153E+00
          2   -1    0    0  502    0  0.00000000000E+00  0.00000000000E+00  0.56894009240E+03  0.56894009240E+03  0.00000000000E+00 0. -1.
          1   -1    0    0  501    0 -0.00000000000E+00 -0.00000000000E+00 -0.17258900938E+04  0.17258900938E+04  0.00000000000E+00 0. -1.
         25    2    1    2    0    0 -0.19243113022E+03  0.46660285547E+03 -0.11926061353E+03  0.53347480460E+03  0.12499723434E+03 0.  0.
          2    1    1    2  501    0  0.21090621149E+03 -0.58119133420E+03 -0.13191765597E+04  0.14568773430E+04  0.00000000000E+00 0. -1.
          1    1    1    2  502    0 -0.18475081275E+02  0.11458847873E+03  0.28148717181E+03  0.30447803858E+03  0.00000000000E+00 0. -1.
         22    1    3    3    0    0 -0.31370473619E+01  0.12968889453E+03 -0.58385254463E+02  0.14225993241E+03  0.00000000000E+00 0.  1.
         22    1    3    3    0    0 -0.18929408286E+03  0.33691396093E+03 -0.60875359062E+02  0.39121487218E+03  0.00000000000E+00 0.  1.
</event>
<event>
 7    1  0.9036454E-005  0.1286064E+03  0.7818608E-02  0.1435465E+00
          2   -1    0    0  502    0  0.00000000000E+00  0.00000000000E+00  0.13118168572E+04  0.13118168572E+04  0.00000000000E+00 0. -1.
          1   -1    0    0  501    0 -0.00000000000E+00 -0.00000000000E+00 -0.14559490483E+04  0.14559490483E+04  0.00000000000E+00 0. -1.
         25    2    1    2    0    0 -0.15462364863E+02  0.14276249959E+03 -0.78095154441E+03  0.80382211821E+03  0.12499786798E+03 0.  0.
          2    1    1    2  501    0  0.15360461345E+02 -0.14212947887E+02 -0.66021906613E+03  0.66055065433E+03  0.00000000000E+00 0. -1.
          1    1    1    2  502    0  0.10190351849E+00 -0.12854955170E+03  0.12970384194E+04  0.13033931329E+04  0.00000000000E+00 0. -1.
         22    1    3    3    0    0 -0.65565161407E+02  0.73546708562E+02 -0.31327508788E+03  0.32840400335E+03  0.00000000000E+00 0.  1.
         22    1    3    3    0    0  0.50102796544E+02  0.69215791025E+02 -0.46767645653E+03  0.47541811486E+03  0.00000000000E+00 0.  1.
</event>
<event>
 7    1  0.9036454E-005  0.2275853E+03  0.7818608E-02  0.1206269E+00
          2   -1    0    0  502    0  0.00000000000E+00  0.00000000000E+00  0.10368620014E+04  0.10368620014E+04  0.00000000000E+00 0. -1.
          1   -1    0    0  501    0 -0.00000000000E+00 -0.00000000000E+00 -0.84647285249E+03  0.84647285249E+03  0.00000000000E+00 0. -1.
         25    2    1    2    0    0  0.23644981849E+03 -0.11637924483E+03 -0.45205888049E+03  0.53799139534E+03  0.12499945897E+03 0.  0.
          2    1    1    2  501    0 -0.14796556665E+03  0.14456994911E+03 -0.31857289085E+03  0.37984597653E+03  0.00000000000E+00 0. -1.
          1    1    1    2  502    0 -0.88484251838E+02 -0.28190704285E+02  0.96102092028E+03  0.96549748205E+03  0.00000000000E+00 0. -1.
         22    1    3    3    0    0  0.99253061700E+01 -0.55322546519E+02 -0.71805828544E+02  0.91187569706E+02  0.00000000000E+00 0. -1.
         22    1    3    3    0    0  0.22652451232E+03 -0.61056698308E+02 -0.38025305194E+03  0.44680382563E+03  0.00000000000E+00 0. -1.
</event>
<event>
 7    1  0.9036454E-005  0.1113187E+03  0.7818608E-02  0.1455790E+00
          2   -1    0    0  502    0  0.00000000000E+00  0.00000000000E+00  0.24533025314E+03  0.24533025314E+03  0.00000000000E+00 0. -1.
          1   -1    0    0  501    0 -0.00000000000E+00 -0.00000000000E+00 -0.16347966629E+03  0.16347966629E+03  0.00000000000E+00 0. -1.
         25    2    1    2    0    0  0.13824652555E+02  0.10137827480E+03 -0.76796234814E+02  0.17886452755E+03  0.12500472757E+03 0.  0.
          2    1    1    2  501    0 -0.17498730994E+02  0.11235790981E+02 -0.13070707572E+02  0.24562002805E+02  0.00000000000E+00 0. -1.
          1    1    1    2  502    0  0.36740784385E+01 -0.11261406578E+03  0.17171752923E+03  0.20538338908E+03  0.00000000000E+00 0. -1.
         22    1    3    3    0    0  0.61284669719E+02  0.68145184912E+02 -0.78834117135E+02  0.12089001197E+03  0.00000000000E+00 0.  1.
         22    1    3    3    0    0 -0.47460017163E+02  0.33233089888E+02  0.20378823210E+01  0.57974515583E+02  0.00000000000E+00 0.  1.
</event>
<event>
 7    1  0.9036454E-005  0.1315198E+04  0.7818608E-02  0.1009106E+00
          2   -1    0    0  502    0  0.00000000000E+00  0.00000000000E+00  0.21054315053E+04  0.21054315053E+04  0.00000000000E+00 0. -1.
          1   -1    0    0  501    0 -0.00000000000E+00 -0.00000000000E+00 -0.13195239570E+04  0.13195239570E+04  0.00000000000E+00 0. -1.
         25    2    1    2    0    0 -0.14247491947E+04 -0.30037658932E+03  0.81895395273E+03  0.16752453703E+04  0.12500044349E+03 0.  0.
          2    1    1    2  501    0  0.12479331501E+04  0.19810135738E+03 -0.40371365191E+03  0.13264863391E+04  0.00000000000E+00 0. -1.
          1    1    1    2  502    0  0.17681604453E+03  0.10227523194E+03  0.37066724755E+03  0.42322375297E+03  0.00000000000E+00 0. -1.
         22    1    3    3    0    0 -0.13205713416E+04 -0.29868569631E+03  0.78803286751E+03  0.15665623555E+04  0.00000000000E+00 0. -1.
         22    1    3    3    0    0 -0.10417785309E+03 -0.16908930069E+01  0.30921085212E+02  0.10868301480E+03  0.00000000000E+00 0. -1.
</event>
<event>
 7    1  0.9036454E-005  0.7172628E+02  0.7818608E-02  0.1429364E+00
          2   -1    0    0  502    0  0.00000000000E+00  0.00000000000E+00  0.94141463329E+03  0.94141463329E+03  0.00000000000E+00 0. -1.
          1   -1    0    0  501    0 -0.00000000000E+00 -0.00000000000E+00 -0.53443657621E+03  0.53443657621E+03  0.00000000000E+00 0. -1.
         25    2    1    2    0    0  0.95349537347E+02 -0.49522348788E+02  0.30962890301E+03  0.35076705085E+03  0.12499387616E+03 0.  0.
          2    1    1    2  501    0 -0.36383095826E+02  0.14838904038E+02 -0.51119698969E+03  0.51270487125E+03  0.00000000000E+00 0. -1.
          1    1    1    2  502    0 -0.58966441521E+02  0.34683444749E+02  0.60854614375E+03  0.61237928740E+03  0.00000000000E+00 0. -1.
         22    1    3    3    0    0  0.29680888693E+02 -0.84544562430E+02  0.15183478425E+03  0.17630241036E+03  0.00000000000E+00 0. -1.
         22    1    3    3    0    0  0.65668648654E+02  0.35022213643E+02  0.15779411876E+03  0.17446464048E+03  0.00000000000E+00 0. -1.
</event>
<event>
 7    1  0.9036454E-005  0.2322823E+03  0.7818608E-02  0.1279453E+00
          2   -1    0    0  502    0  0.00000000000E+00  0.00000000000E+00  0.30909862326E+03  0.30909862326E+03  0.00000000000E+00 0. -1.
          1   -1    0    0  501    0 -0.00000000000E+00 -0.00000000000E+00 -0.12344364302E+04  0.12344364302E+04  0.00000000000E+00 0. -1.
         25    2    1    2    0    0  0.20562731373E+03 -0.92436375483E+01 -0.21589512107E+03  0.32342566806E+03  0.12500168986E+03 0.  0.
          2    1    1    2  501    0 -0.23669271258E+03  0.39547128841E+02 -0.94786446642E+03  0.97777014798E+03  0.00000000000E+00 0. -1.
          1    1    1    2  502    0  0.31065398843E+02 -0.30303491292E+02  0.23842178051E+03  0.24233923745E+03  0.00000000000E+00 0. -1.
         22    1    3    3    0    0  0.25474793481E+02  0.47139013257E+01  0.15229192039E+02  0.30051859489E+02  0.00000000000E+00 0.  1.
         22    1    3    3    0    0  0.18015252025E+03 -0.13957538874E+02 -0.23112431311E+03  0.29337380857E+03  0.00000000000E+00 0.  1.
</event>
<event>
 7    1  0.9036454E-005  0.3036955E+03  0.7818608E-02  0.1178688E+00
          2   -1    0    0  502    0  0.00000000000E+00  0.00000000000E+00  0.76099177612E+03  0.76099177612E+03  0.00000000000E+00 0. -1.
          1   -1    0    0  501    0 -0.00000000000E+00 -0.00000000000E+00 -0.25353086157E+04  0.25353086157E+04  0.00000000000E+00 0. -1.
         25    2    1    2    0    0 -0.14147308889E+03  0.31575043660E+03 -0.16426373366E+03  0.40288976089E+03  0.12499844857E+03 0.  0.
          2    1    1    2  501    0  0.49098452784E+02 -0.29697066123E+03 -0.22381398211E+04  0.22582896383E+04  0.00000000000E+00 0. -1.
          1    1    1    2  502    0  0.92374636103E+02 -0.18779775367E+02  0.62808671523E+03  0.63512099257E+03  0.00000000000E+00 0. -1.
         22    1    3    3    0    0 -0.48355783399E+02  0.19641294005E+03 -0.38093711684E+02  0.20583356305E+03  0.00000000000E+00 0.  1.
         22    1    3    3    0    0 -0.93117305489E+02  0.11933749655E+03 -0.12617002197E+03  0.19705619784E+03  0.00000000000E+00 0.  1.
</event>
<event>
 7    1  0.9036454E-005  0.1903994E+03  0.7818608E-02  0.1272065E+00
          2   -1    0    0  502    0  0.00000000000E+00  0.00000000000E+00  0.14746071616E+04  0.14746071616E+04  0.00000000000E+00 0. -1.
          1   -1    0    0  501    0 -0.00000000000E+00 -0.00000000000E+00 -0.66103055815E+03  0.66103055815E+03  0.00000000000E+00 0. -1.
         25    2    1    2    0    0  0.13502259191E+03 -0.10583679815E+03  0.28170906538E+03  0.35272943446E+03  0.12500211299E+03 0.  0.
          2    1    1    2  501    0  0.46774697058E+02  0.32272057102E+02 -0.61589497462E+03  0.61851109749E+03  0.00000000000E+00 0. -1.
          1    1    1    2  502    0 -0.18179728897E+03  0.73564741051E+02  0.11477625127E+04  0.11643971878E+04  0.00000000000E+00 0. -1.
         22    1    3    3    0    0 -0.60085091315E+01  0.21403250111E+02  0.32782811313E+02  0.39609519246E+02  0.00000000000E+00 0.  1.
         22    1    3    3    0    0  0.14103110104E+03 -0.12724004826E+03  0.24892625406E+03  0.31311991522E+03  0.00000000000E+00 0.  1.
</event>
<event>
 7    1  0.9036454E-005  0.7618609E+02  0.7818608E-02  0.1467438E+00
          2   -1    0    0  502    0  0.00000000000E+00  0.00000000000E+00  0.17377532222E+04  0.17377532222E+04  0.00000000000E+00 0. -1.
          1   -1    0    0  501    0 -0.00000000000E+00 -0.00000000000E+00 -0.21417208583E+03  0.21417208583E+03  0.00000000000E+00 0. -1.
         25    2    1    2    0    0  0.75060260863E+02  0.65536241450E+02  0.83747665790E+03  0.85260079221E+03  0.12502766351E+03 0.  0.
          2    1    1    2  501    0 -0.64923650645E+02 -0.39515699750E+02 -0.19939275144E+03  0.21338706677E+03  0.00000000000E+00 0. -1.
          1    1    1    2  502    0 -0.10136610218E+02 -0.26020541700E+02  0.88549722995E+03  0.88593744910E+03  0.00000000000E+00 0. -1.
         22    1    3    3    0    0  0.51826404160E+02  0.95544319659E+02  0.74097156618E+03  0.74890156568E+03  0.00000000000E+00 0. -1.
         22    1    3    3    0    0  0.23233856703E+02 -0.30008078208E+02  0.96505091718E+02  0.10369922653E+03  0.00000000000E+00 0. -1.
</event>
<event>
 7    1  0.9036454E-005  0.3938400E+02  0.7818608E-02  0.1540071E+00
          2   -1    0    0  502    0  0.00000000000E+00  0.00000000000E+00  0.89654693410E+03  0.89654693410E+03  0.00000000000E+00 0. -1.
          1   -1    0    0  501    0 -0.00000000000E+00 -0.00000000000E+00 -0.23629433156E+02  0.23629433156E+02  0.00000000000E+00 0. -1.
         25    2    1    2    0    0  0.23243022773E+02  0.52596970753E+02  0.46011075900E+03  0.48024232908E+03  0.12499641855E+03 0.  0.
          2    1    1    2  501    0 -0.32571361266E+02 -0.21079275808E+02  0.16324698896E+02  0.42091866641E+02  0.00000000000E+00 0. -1.
          1    1    1    2  502    0  0.93283384924E+01 -0.31517694945E+02  0.39648204304E+03  0.39784217153E+03  0.00000000000E+00 0. -1.
         22    1    3    3    0    0  0.30404255378E+02 -0.15423963801E+02  0.34247464387E+03  0.34416739982E+03  0.00000000000E+00 0.  1.
         22    1    3    3    0    0 -0.71612326043E+01  0.68020934553E+02  0.11763611513E+03  0.13607492926E+03  0.00000000000E+00 0.  1.
</event>
<event>
 7    1  0.9036454E-005  0.3184302E+03  0.7818608E-02  0.1088464E+00
          2   -1    0    0  502    0  0.00000000000E+00  0.00000000000E+00  0.16313721944E+04  0.16313721944E+04  0.00000000000E+00 0. -1.
          1   -1    0    0  501    0 -0.00000000000E+00 -0.00000000000E+00 -0.13298126232E+04  0.13298126232E+04  0.00000000000E+00 0. -1.
         25    2    1    2    0    0 -0.16329710468E+03  0.28860486489E+03  0.44272385268E+03  0.56708685031E+03  0.12499749446E+03 0.  0.
          2    1    1    2  501    0 -0.10703834188E+03 -0.30411434281E+03 -0.12302818695E+04  0.12718239731E+04  0.00000000000E+00 0. -1.
          1    1    1    2  502    0  0.27033544656E+03  0.15509477915E+02  0.10891175880E+04  0.11222739942E+04  0.00000000000E+00 0. -1.
         22    1    3    3    0    0 -0.14526980396E+03  0.29690371844E+03  0.39283171239E+03  0.51339252841E+03  0.00000000000E+00 0.  1.
         22    1    3    3    0    0 -0.18027300718E+02 -0.82988535471E+01  0.49892140289E+02  0.53694321897E+02  0.00000000000E+00 0.  1.
</event>
<event>
 7    1  0.9036454E-005  0.1177240E+03  0.7818608E-02  0.1298652E+00
          2   -1    0    0  502    0  0.00000000000E+00  0.00000000000E+00  0.13272713256E+04  0.13272713256E+04  0.00000000000E+00 0. -1.
          1   -1    0    0  501    0 -0.00000000000E+00 -0.00000000000E+00 -0.94225512483E+02  0.94225512483E+02  0.00000000000E+00 0. -1.
         25    2    1    2    0    0  0.12712422534E+03 -0.26959625712E+02  0.33464824438E+02  0.18339348352E+03  0.12500354089E+03 0.  0.
          2    1    1    2  501    0 -0.77759898145E+02  0.78708274013E+02  0.15157937296E+03  0.18766432923E+03  0.00000000000E+00 0. -1.
          1    1    1    2  502    0 -0.49364327196E+02 -0.51748648301E+02  0.10480016157E+04  0.10504390253E+04  0.00000000000E+00 0. -1.
         22    1    3    3    0    0 -0.20109019063E+02  0.59276499862E+01 -0.14037367899E+02  0.25230088774E+02  0.00000000000E+00 0.  1.
         22    1    3    3    0    0  0.14723324440E+03 -0.32887275698E+02  0.47502192338E+02  0.15816339475E+03  0.00000000000E+00 0.  1.
</event>
<event>
 7    1  0.9036454E-005  0.1395732E+03  0.7818608E-02  0.1252715E+00
          2   -1    0    0  502    0  0.00000000000E+00  0.00000000000E+00  0.38312131272E+04  0.38312131272E+04  0.00000000000E+00 0. -1.
          1   -1    0    0  501    0 -0.00000000000E+00 -0.00000000000E+00 -0.33837230746E+03  0.33837230746E+03  0.00000000000E+00 0. -1.
         25    2    1    2    0    0 -0.61481638520E+02 -0.22146097227E+03  0.48152606493E+03  0.54800721174E+03  0.12497839332E+03 0.  0.
          2    1    1    2  501    0  0.45288395682E+02  0.12918093512E+03 -0.28908043675E+03  0.31985348473E+03  0.00000000000E+00 0. -1.
          1    1    1    2  502    0  0.16193242838E+02  0.92280037153E+02  0.33003951915E+04  0.33017247382E+04  0.00000000000E+00 0. -1.
         22    1    3    3    0    0 -0.42714686284E+02 -0.15183316662E+02  0.40608798908E+02  0.60861745603E+02  0.00000000000E+00 0.  1.
         22    1    3    3    0    0 -0.18766952236E+02 -0.20627765561E+03  0.44091726602E+03  0.48714546614E+03  0.00000000000E+00 0.  1.
</event>
<event>
 7    1  0.9036454E-005  0.2812178E+03  0.7818608E-02  0.1308378E+00
          2   -1    0    0  502    0  0.00000000000E+00  0.00000000000E+00  0.38422239039E+03  0.38422239039E+03  0.00000000000E+00 0. -1.
          1   -1    0    0  501    0 -0.00000000000E+00 -0.00000000000E+00 -0.85785213928E+03  0.85785213928E+03  0.00000000000E+00 0. -1.
         25    2    1    2    0    0  0.22638390402E+03 -0.19621312467E+03 -0.53090516869E+03  0.62228150639E+03  0.12499885106E+03 0.  0.
          2    1    1    2  501    0 -0.27384942860E+02  0.44978206994E-01 -0.22261429222E+03  0.22429235435E+03  0.00000000000E+00 0. -1.
          1    1    1    2  502    0 -0.19899896116E+03  0.19616814646E+03  0.27988971202E+03  0.39550066893E+03  0.00000000000E+00 0. -1.
         22    1    3    3    0    0 -0.12309482393E+02  0.21744768950E+01 -0.35955148784E+02  0.38066053521E+02  0.00000000000E+00 0. -1.
         22    1    3    3    0    0  0.23869338641E+03 -0.19838760156E+03 -0.49495001991E+03  0.58421545287E+03  0.00000000000E+00 0. -1.
</event>
<event>
 7    1  0.9036454E-005  0.3197166E+03  0.7818608E-02  0.1220906E+00
          2   -1    0    0  502    0  0.00000000000E+00  0.00000000000E+00  0.30639703979E+03  0.30639703979E+03  0.00000000000E+00 0. -1.
          1   -1    0    0  501    0 -0.00000000000E+00 -0.00000000000E+00 -0.78593141675E+03  0.78593141675E+03  0.00000000000E+00 0. -1.
         25    2    1    2    0    0  0.96535485693E+02  0.31596181332E+03 -0.30505394599E+03  0.46672676978E+03  0.12500000076E+03 0.  0.
          2    1    1    2  501    0 -0.14045648439E+03 -0.28026946900E+03 -0.33296006450E+03  0.45731980474E+03  0.00000000000E+00 0. -1.
          1    1    1    2  502    0  0.43920998702E+02 -0.35692344318E+02  0.15847963353E+03  0.16828188201E+03  0.00000000000E+00 0. -1.
         22    1    3    3    0    0  0.89799294948E+02  0.24705414181E+03 -0.29763031609E+03  0.39709377660E+03  0.00000000000E+00 0. -1.
         22    1    3    3    0    0  0.67361907450E+01  0.68907671501E+02 -0.74236299005E+01  0.69632993174E+02  0.00000000000E+00 0. -1.
</event>
<event>
 7    1  0.9036454E-005  0.1391216E+03  0.7818608E-02  0.1224482E+00
          2   -1    0    0  502    0  0.00000000000E+00  0.00000000000E+00  0.42746310028E+03  0.42746310028E+03  0.00000000000E+00 0. -1.
          1   -1    0    0  501    0 -0.00000000000E+00 -0.00000000000E+00 -0.53071535872E+03  0.53071535872E+03  0.00000000000E+00 0. -1.
         25    2    1    2    0    0  0.19151439864E+02 -0.15667133009E+03 -0.30852540579E+03  0.36841052289E+03  0.12500281613E+03 0.  0.
          2    1    1    2  501    0  0.97281774863E+02  0.11040374047E+03 -0.15176256134E+03  0.21138733324E+03  0.00000000000E+00 0. -1.
          1    1    1    2  502    0 -0.11643321473E+03  0.46267589622E+02  0.35703570869E+03  0.37838060286E+03  0.00000000000E+00 0. -1.
         22    1    3    3    0    0 -0.11506195783E+02 -0.34106537094E+02 -0.10723756822E+01  0.36011087231E+02  0.00000000000E+00 0.  1.
         22    1    3    3    0    0  0.30657635647E+02 -0.12256479299E+03 -0.30745303011E+03  0.33239943566E+03  0.00000000000E+00 0.  1.
</event>
<event>
 7    1  0.9036454E-005  0.4014195E+03  0.7818608E-02  0.1227584E+00
          2   -1    0    0  502    0  0.00000000000E+00  0.00000000000E+00  0.71580374074E+03  0.71580374074E+03  0.00000000000E+00 0. -1.
          1   -1    0    0  501    0 -0.00000000000E+00 -0.00000000000E+00 -0.81039749410E+03  0.81039749410E+03  0.00000000000E+00 0. -1.
         25    2    1    2    0    0 -0.32623511314E+03 -0.24539425283E+03  0.68918668069E+02  0.43246029767E+03  0.12499775152E+03 0.  0.
          2    1    1    2  501    0  0.34261046366E+03  0.20666961971E+03 -0.56374552761E+03  0.69130549067E+03  0.00000000000E+00 0. -1.
          1    1    1    2  502    0 -0.16375350520E+02  0.38724633118E+02  0.40023310619E+03  0.40243544651E+03  0.00000000000E+00 0. -1.
         22    1    3    3    0    0 -0.26741051619E+03 -0.25106489451E+03  0.48796270965E+02  0.37003113583E+03  0.00000000000E+00 0.  1.
         22    1    3    3    0    0 -0.58824596946E+02  0.56706416750E+01  0.20122397104E+02  0.62429161840E+02  0.00000000000E+00 0.  1.
</event>
<event>
 7    1  0.9036454E-005  0.2004979E+03  0.7818608E-02  0.1279469E+00
          2   -1    0    0  502    0  0.00000000000E+00  0.00000000000E+00  0.24607522264E+04  0.24607522264E+04  0.00000000000E+00 0. -1.
          1   -1    0    0  501    0 -0.00000000000E+00 -0.00000000000E+00 -0.15200825058E+03  0.15200825058E+03  0.00000000000E+00 0. -1.
         25    2    1    2    0    0 -0.70055584216E+02 -0.20202351622E+03  0.92616819382E+03  0.95871339880E+03  0.12499028680E+03 0.  0.
          2    1    1    2  501    0  0.49882161224E+02  0.62323809743E+01 -0.12445137403E+03  0.13422077738E+03  0.00000000000E+00 0. -1.
          1    1    1    2  502    0  0.20173422992E+02  0.19579113525E+03  0.15070271560E+04  0.15198263008E+04  0.00000000000E+00 0. -1.
         22    1    3    3    0    0  0.10694453140E+02 -0.14651818195E+03  0.48328924675E+03  0.50512418770E+03  0.00000000000E+00 0.  1.
         22    1    3    3    0    0 -0.80750037356E+02 -0.55505334267E+02  0.44287894707E+03  0.45358921110E+03  0.00000000000E+00 0.  1.
</event>
<event>
 7    1  0.9036454E-005  0.3087677E+03  0.7818608E-02  0.1144270E+00
          2   -1    0    0  502    0  0.00000000000E+00  0.00000000000E+00  0.24988427128E+04  0.24988427128E+04  0.00000000000E+00 0. -1.
          1   -1    0    0  501    0 -0.00000000000E+00 -0.00000000000E+00 -0.50685703091E+03  0.50685703091E+03  0.00000000000E+00 0. -1.
         25    2    1    2    0    0 -0.39320495542E+02 -0.28278952372E+03  0.98314741487E+03  0.10313670920E+04  0.12499289194E+03 0.  0.
          2    1    1    2  501    0 -0.98368683701E+02  0.29541220210E+03 -0.42887849732E+03  0.52998257759E+03  0.00000000000E+00 0. -1.
          1    1    1    2  502    0  0.13768917924E+03 -0.12622678388E+02  0.14377167643E+04  0.14443500741E+04  0.00000000000E+00 0. -1.
         22    1    3    3    0    0 -0.35817344141E+02 -0.62445624818E+02  0.11489404259E+03  0.13558384573E+03  0.00000000000E+00 0.  1.
         22    1    3    3    0    0 -0.35031514010E+01 -0.22034389890E+03  0.86825337228E+03  0.89578324629E+03  0.00000000000E+00 0.  1.
</event>
<event>
 7    1  0.9036454E-005  0.2565942E+03  0.7818608E-02  0.1222013E+00
          2   -1    0    0  502    0  0.00000000000E+00  0.00000000000E+00  0.18475881122E+03  0.18475881122E+03  0.00000000000E+00 0. -1.
          1   -1    0    0  501    0 -0.00000000000E+00 -0.00000000000E+00 -0.10601266178E+04  0.10601266178E+04  0.00000000000E+00 0. -1.
         25    2    1    2    0    0  0.12767251788E+03  0.23617871984E+03 -0.12289651547E+03  0.32063875453E+03  0.12499999146E+03 0.  0.
          2    1    1    2  501    0 -0.69296034311E+02  0.75354800843E+01 -0.64962827812E+03  0.65335719447E+03  0.00000000000E+00 0. -1.
          1    1    1    2  502    0 -0.58376483569E+02 -0.24371419992E+03 -0.10284301303E+03  0.27088948006E+03  0.00000000000E+00 0. -1.
         22    1    3    3    0    0  0.54062021734E+02  0.18515425722E+03 -0.12706384089E+03  0.23097623433E+03  0.00000000000E+00 0. -1.
         22    1    3    3    0    0  0.73610496147E+02  0.51024462617E+02  0.41673254203E+01  0.89662520205E+02  0.00000000000E+00 0. -1.
</event>
<event>
 7    1  0.9036454E-005  0.7391783E+03  0.7818608E-02  0.9713183E-01
          2   -1    0    0  502    0  0.00000000000E+00  0.00000000000E+00  0.20016977321E+04  0.20016977321E+04  0.00000000000E+00 0. -1.
          1   -1    0    0  501    0 -0.00000000000E+00 -0.00000000000E+00 -0.23986309501E+04  0.23986309501E+04  0.00000000000E+00 0. -1.
         25    2    1    2    0    0 -0.50796522761E+03  0.70636603817E+03  0.35313325778E+03  0.94726423862E+03  0.12499915071E+03 0.  0.
          2    1    1    2  501    0  0.74838092324E+03 -0.83772408231E+02 -0.19442742877E+04  0.20850166254E+04  0.00000000000E+00 0. -1.
          1    1    1    2  502    0 -0.24041569563E+03 -0.62259362994E+03  0.11942078119E+04  0.13680478181E+04  0.00000000000E+00 0. -1.
         22    1    3    3    0    0 -0.40435201027E+03  0.61745103747E+03  0.33122021545E+03  0.80898279525E+03  0.00000000000E+00 0. -1.
         22    1    3    3    0    0 -0.10361321734E+03  0.88915000696E+02  0.21913042329E+02  0.13828144337E+03  0.00000000000E+00 0. -1.
</event>
<event>
 7    1  0.9036454E-005  0.4043111E+02  0.7818608E-02  0.1553158E+00
          2   -1    0    0  502    0  0.00000000000E+00  0.00000000000E+00  0.49900625120E+02  0.49900625120E+02  0.00000000000E+00 0. -1.
          1   -1    0    0  501    0 -0.00000000000E+00 -0.00000000000E+00 -0.54984001117E+03  0.54984001117E+03  0.00000000000E+00 0. -1.
         25    2    1    2    0    0 -0.13872706961E+01 -0.13333119756E+02 -0.19345520683E+03  0.23071537961E+03  0.12499989094E+03 0.  0.
          2    1    1    2  501    0 -0.42582485523E+01  0.42211825780E+02 -0.32915586931E+03  0.33187882912E+03  0.00000000000E+00 0. -1.
          1    1    1    2  502    0  0.56455192484E+01 -0.28878706024E+02  0.22671690091E+02  0.37146427564E+02  0.00000000000E+00 0. -1.
         22    1    3    3    0    0  0.43771234158E+01  0.55682396447E+02 -0.75211692944E+02  0.93682907935E+02  0.00000000000E+00 0. -1.
         22    1    3    3    0    0 -0.57643941119E+01 -0.69015516203E+02 -0.11824351389E+03  0.13703247167E+03  0.00000000000E+00 0. -1.
</event>
<event>
 7    1  0.9036454E-005  0.4792548E+03  0.7818608E-02  0.1098683E+00
          2   -1    0    0  502    0  0.00000000000E+00  0.00000000000E+00  0.24501462857E+03  0.24501462857E+03  0.00000000000E+00 0. -1.
          1   -1    0    0  501    0 -0.00000000000E+00 -0.00000000000E+00 -0.18980174797E+04  0.18980174797E+04  0.00000000000E+00 0. -1.
         25    2    1    2    0    0 -0.25891788979E+02  0.50470465756E+03 -0.43960626612E+03  0.68137773251E+03  0.12499907618E+03 0.  0.
          2    1    1    2  501    0 -0.12149249013E+03 -0.44967153133E+03 -0.34635141393E+03  0.58045173199E+03  0.00000000000E+00 0. -1.
          1    1    1    2  502    0  0.14738427910E+03 -0.55033126234E+02 -0.86704517108E+03  0.88120264378E+03  0.00000000000E+00 0. -1.
         22    1    3    3    0    0  0.45393147731E+02  0.30876843338E+03 -0.26150297567E+03  0.40716371351E+03  0.00000000000E+00 0. -1.
         22    1    3    3    0    0 -0.71284936710E+02  0.19593622418E+03 -0.17810329045E+03  0.27421401900E+03  0.00000000000E+00 0. -1.
</event>
<event>
 7    1  0.9036454E-005  0.1290609E+03  0.7818608E-02  0.1316507E+00
          2   -1    0    0  502    0  0.00000000000E+00  0.00000000000E+00  0.28210430760E+03  0.28210430760E+03  0.00000000000E+00 0. -1.
          1   -1    0    0  501    0 -0.00000000000E+00 -0.00000000000E+00 -0.27085334493E+03  0.27085334493E+03  0.00000000000E+00 0. -1.
         25    2    1    2    0    0 -0.14031569712E+03  0.11267059644E+03  0.18490295416E+03  0.28670129225E+03  0.12500148144E+03 0.  0.
          2    1    1    2  501    0  0.95049636210E+02 -0.80656333655E+02 -0.16984510805E+03  0.21068279054E+03  0.00000000000E+00 0. -1.
          1    1    1    2  502    0  0.45266060909E+02 -0.32014262783E+02 -0.38068834367E+01  0.55573569737E+02  0.00000000000E+00 0. -1.
         22    1    3    3    0    0 -0.11043289595E+03  0.11338797071E+03  0.19848639706E+03  0.25386828519E+03  0.00000000000E+00 0. -1.
         22    1    3    3    0    0 -0.29882801168E+02 -0.71737426902E+00 -0.13583442900E+02  0.32833007059E+02  0.00000000000E+00 0. -1.
</event>
<event>
 7    1  0.9036454E-005  0.1459336E+03  0.7818608E-02  0.1313492E+00
          2   -1    0    0  502    0  0.00000000000E+00  0.00000000000E+00  0.69750176282E+03  0.69750176282E+03  0.00000000000E+00 0. -1.
          1   -1    0    0  501    0 -0.00000000000E+00 -0.00000000000E+00 -0.10968104723E+04  0.10968104723E+04  0.00000000000E+00 0. -1.
         25    2    1    2    0    0  0.12001007843E+01  0.10748758409E+03  0.12908601795E+03  0.20938728030E+03  0.12499924858E+03 0.  0.
          2    1    1    2  501    0 -0.94298946463E+01  0.49491720837E+02 -0.10443450444E+04  0.10455596229E+04  0.00000000000E+00 0. -1.
          1    1    1    2  502    0  0.82297938620E+01 -0.15697930493E+03  0.51595031696E+03  0.53936533189E+03  0.00000000000E+00 0. -1.
         22    1    3    3    0    0 -0.29665607565E+02  0.12513693553E+03  0.92847077949E+02  0.15861866470E+03  0.00000000000E+00 0. -1.
         22    1    3    3    0    0  0.30865708349E+02 -0.17649351438E+02  0.36238940001E+02  0.50768615605E+02  0.00000000000E+00 0. -1.
</event>
<event>
 7    1  0.9036454E-005  0.1007159E+03  0.7818608E-02  0.1353740E+00
          2   -1    0    0  502    0  0.00000000000E+00  0.00000000000E+00  0.40472457995E+02  0.40472457995E+02  0.00000000000E+00 0. -1.
          1   -1    0    0  501    0 -0.00000000000E+00 -0.00000000000E+00 -0.14151882817E+04  0.14151882817E+04  0.00000000000E+00 0. -1.
         25    2    1    2    0    0 -0.42734344171E+02 -0.11939833301E+03 -0.73467500174E+03  0.75594656402E+03  0.12500265349E+03 0.  0.
          2    1    1    2  501    0  0.61255916922E+02  0.71523781303E+02 -0.64148618852E+03  0.64836137201E+03  0.00000000000E+00 0. -1.
          1    1    1    2  502    0 -0.18521572751E+02  0.47874551711E+02  0.14453665653E+01  0.51352803654E+02  0.00000000000E+00 0. -1.
         22    1    3    3    0    0 -0.36607887841E+02 -0.11308826367E+03 -0.32299653792E+03  0.34417416571E+03  0.00000000000E+00 0.  1.
         22    1    3    3    0    0 -0.61264563303E+01 -0.63100693452E+01 -0.41167846381E+03  0.41177239831E+03  0.00000000000E+00 0.  1.
</event>
<event>
 7    1  0.9036454E-005  0.8634927E+03  0.7818608E-02  0.1073289E+00
          2   -1    0    0  502    0  0.00000000000E+00  0.00000000000E+00  0.22839867001E+04  0.22839867001E+04  0.00000000000E+00 0. -1.
          1   -1    0    0  501    0 -0.00000000000E+00 -0.00000000000E+00 -0.52367395338E+03  0.52367395338E+03  0.00000000000E+00 0. -1.
         25    2    1    2    0    0  0.81411596221E+03 -0.40259511531E+03  0.12265385150E+04  0.15313024613E+04  0.12499148935E+03 0.  0.
          2    1    1    2  501    0 -0.70957069535E+03  0.46636652459E+03  0.13571498820E+03  0.85988770486E+03  0.00000000000E+00 0. -1.
          1    1    1    2  502    0 -0.10454526686E+03 -0.63771409275E+02  0.39805924351E+03  0.41647048732E+03  0.00000000000E+00 0. -1.
         22    1    3    3    0    0  0.58551830661E+03 -0.26104247535E+03  0.77511362870E+03  0.10058707664E+04  0.00000000000E+00 0.  1.
         22    1    3    3    0    0  0.22859765560E+03 -0.14155263997E+03  0.45142488635E+03  0.52543169494E+03  0.00000000000E+00 0.  1.
</event>
<event>
 7    1  0.9036454E-005  0.3013382E+03  0.7818608E-02  0.1164741E+00
          2   -1    0    0  502    0  0.00000000000E+00  0.00000000000E+00  0.91678473884E+03  0.91678473884E+03  0.00000000000E+00 0. -1.
          1   -1    0    0  501    0 -0.00000000000E+00 -0.00000000000E+00 -0.33975939985E+03  0.33975939985E+03  0.00000000000E+00 0. -1.
         25    2    1    2    0    0  0.25462249271E+03  0.54811774998E+02  0.21950125646E+03  0.36282720888E+03  0.12500334973E+03 0.  0.
          2    1    1    2  501    0 -0.27278116286E+03 -0.16469994706E+03 -0.16543242140E+03  0.35903136551E+03  0.00000000000E+00 0. -1.
          1    1    1    2  502    0  0.18158670149E+02  0.10988817206E+03  0.52295650394E+03  0.53468556430E+03  0.00000000000E+00 0. -1.
         22    1    3    3    0    0 -0.11163079856E+02 -0.75209306053E+01  0.22327119574E+02  0.26070654336E+02  0.00000000000E+00 0. -1.
         22    1    3    3    0    0  0.26578557257E+03  0.62332705604E+02  0.19717413688E+03  0.33675655454E+03  0.00000000000E+00 0. -1.
</event>
<event>
 7    1  0.9036454E-005  0.1283449E+03  0.7818608E-02  0.1319322E+00
          2   -1    0    0  502    0  0.00000000000E+00  0.00000000000E+00  0.38772858872E+02  0.38772858872E+02  0.00000000000E+00 0. -1.
          1   -1    0    0  501    0 -0.00000000000E+00 -0.00000000000E+00 -0.15750826781E+04  0.15750826781E+04  0.00000000000E+00 0. -1.
         25    2    1    2    0    0 -0.23035918195E+02  0.11923412535E+03 -0.49597747345E+03  0.52570363784E+03  0.12499292174E+03 0.  0.
          2    1    1    2  501    0 -0.53555993003E+02 -0.93338418172E+01 -0.86885439971E+03  0.87055346354E+03  0.00000000000E+00 0. -1.
          1    1    1    2  502    0  0.76591911198E+02 -0.10990028354E+03 -0.17147794602E+03  0.21759843555E+03  0.00000000000E+00 0. -1.
         22    1    3    3    0    0 -0.38696723549E+02  0.65706476711E+02 -0.99687741337E+02  0.12550865814E+03  0.00000000000E+00 0.  1.
         22    1    3    3    0    0  0.15660805354E+02  0.53527648641E+02 -0.39628973212E+03  0.40019497970E+03  0.00000000000E+00 0.  1.
</event>
<event>
 7    1  0.9036454E-005  0.2943723E+03  0.7818608E-02  0.1253325E+00
          2   -1    0    0  502    0  0.00000000000E+00  0.00000000000E+00  0.11968871956E+04  0.11968871956E+04  0.00000000000E+00 0. -1.
          1   -1    0    0  501    0 -0.00000000000E+00 -0.00000000000E+00 -0.12774578173E+03  0.12774578173E+03  0.00000000000E+00 0. -1.
         25    2    1    2    0    0 -0.75496612736E+02  0.27935553788E+03  0.20950079438E+03  0.37849035696E+03  0.12500044953E+03 0.  0.
          2    1    1    2  501    0 -0.43481795802E+02 -0.76718323993E+01  0.87104120341E+01  0.45004387079E+02  0.00000000000E+00 0. -1.
          1    1    1    2  502    0  0.11897840854E+03 -0.27168370548E+03  0.85093020742E+03  0.90113823325E+03  0.00000000000E+00 0. -1.
         22    1    3    3    0    0 -0.19258751011E+02  0.84610102774E+02 -0.28371374590E+00  0.86774705274E+02  0.00000000000E+00 0.  1.
         22    1    3    3    0    0 -0.56237861726E+02  0.19474543511E+03  0.20978450813E+03  0.29171565168E+03  0.00000000000E+00 0.  1.
</event>
<event>
 7    1  0.1346489E-004  0.1415255E+03  0.7818608E-02  0.1275194E+00
          2   -1    0    0  502    0  0.00000000000E+00  0.00000000000E+00  0.73687214450E+03  0.73687214450E+03  0.00000000000E+00 0. -1.
          1   -1    0    0  501    0 -0.00000000000E+00 -0.00000000000E+00 -0.20934770434E+04  0.20934770434E+04  0.00000000000E+00 0. -1.
         25    2    1    2    0    0 -0.13431094001E+03 -0.51129202874E+02 -0.61750321839E+03  0.64621138373E+03  0.12500121501E+03 0.  0.
          2    1    1    2  501    0  0.14306255668E+03 -0.22539529205E+02 -0.14561135688E+04  0.14632982098E+04  0.00000000000E+00 0. -1.
          1    1    1    2  502    0 -0.87516166675E+01  0.73668732080E+02  0.71701188830E+03  0.72083959439E+03  0.00000000000E+00 0. -1.
         22    1    3    3    0    0 -0.43309004353E+02  0.37052795744E+02 -0.27911443522E+03  0.28487444161E+03  0.00000000000E+00 0. -1.
         22    1    3    3    0    0 -0.91001935657E+02 -0.88181998618E+02 -0.33838878317E+03  0.36133694213E+03  0.00000000000E+00 0. -1.
</event>
<event>
 7    1  0.9036454E-005  0.1413853E+03  0.7818608E-02  0.1245561E+00
          2   -1    0    0  502    0  0.00000000000E+00  0.00000000000E+00  0.16668073155E+03  0.16668073155E+03  0.00000000000E+00 0. -1.
          1   -1    0    0  501    0 -0.00000000000E+00 -0.00000000000E+00 -0.61786306169E+03  0.61786306169E+03  0.00000000000E+00 0. -1.
         25    2    1    2    0    0  0.11901385349E+03 -0.40508991136E+02 -0.12299866069E+02  0.17771229307E+03  0.12500038687E+03 0.  0.
          2    1    1    2  501    0  0.43986722693E+02  0.89082240445E+02 -0.42469047780E+03  0.43615648484E+03  0.00000000000E+00 0. -1.
          1    1    1    2  502    0 -0.16300057618E+03 -0.48573249309E+02 -0.14191986275E+02  0.17067501533E+03  0.00000000000E+00 0. -1.
         22    1    3    3    0    0  0.10854871406E+03 -0.41446909137E+02  0.41131422430E+02  0.12325771177E+03  0.00000000000E+00 0.  1.
         22    1    3    3    0    0  0.10465139427E+02  0.93791800050E+00 -0.53431288499E+02  0.54454581295E+02  0.00000000000E+00 0.  1.
</event>
<event>
 7    1  0.9036454E-005  0.4018297E+03  0.7818608E-02  0.1230286E+00
          2   -1    0    0  502    0  0.00000000000E+00  0.00000000000E+00  0.12922303413E+03  0.12922303413E+03  0.00000000000E+00 0. -1.
          1   -1    0    0  501    0 -0.00000000000E+00 -0.00000000000E+00 -0.25962387661E+04  0.25962387661E+04  0.00000000000E+00 0. -1.
         25    2    1    2    0    0  0.29935906721E+03  0.21848383243E+03 -0.30936176974E+03  0.49867939504E+03  0.12500159322E+03 0.  0.
          2    1    1    2  501    0 -0.33930950466E+03 -0.22698184303E+03 -0.21457514323E+04  0.21842392053E+04  0.00000000000E+00 0. -1.
          1    1    1    2  502    0  0.39950437447E+02  0.84980106021E+01 -0.11902529985E+02  0.42543199885E+02  0.00000000000E+00 0. -1.
         22    1    3    3    0    0  0.55814988128E+02  0.34801737952E+02 -0.12768467706E+03  0.14363095286E+03  0.00000000000E+00 0. -1.
         22    1    3    3    0    0  0.24354407908E+03  0.18368209448E+03 -0.18167709268E+03  0.35504844217E+03  0.00000000000E+00 0. -1.
</event>
<event>
 7    1  0.9036454E-005  0.4339438E+03  0.7818608E-02  0.1137097E+00
          2   -1    0    0  502    0  0.00000000000E+00  0.00000000000E+00  0.46290800277E+03  0.46290800277E+03  0.00000000000E+00 0. -1.
          1   -1    0    0  501    0 -0.00000000000E+00 -0.00000000000E+00 -0.83409463312E+03  0.83409463312E+03  0.00000000000E+00 0. -1.
         25    2    1    2    0    0  0.25900179839E+03 -0.36883064489E+03 -0.40019501013E+03  0.61554886923E+03  0.12500555223E+03 0.  0.
          2    1    1    2  501    0 -0.31435354213E+03  0.27695581574E+03 -0.17257875380E+03  0.45310716126E+03  0.00000000000E+00 0. -1.
          1    1    1    2  502    0  0.55351743741E+02  0.91874829153E+02  0.20158713359E+03  0.22834660540E+03  0.00000000000E+00 0. -1.
         22    1    3    3    0    0 -0.59515699548E+01 -0.50002633294E+02 -0.66296822742E+02  0.83252346675E+02  0.00000000000E+00 0.  1.
         22    1    3    3    0    0  0.26495336834E+03 -0.31882801160E+03 -0.33389818739E+03  0.53229652255E+03  0.00000000000E+00 0.  1.
</event>
<event>
 7    1  0.9036454E-005  0.1126856E+03  0.7818608E-02  0.1370869E+00
          2   -1    0    0  502    0  0.00000000000E+00  0.00000000000E+00  0.99179461746E+03  0.99179461746E+03  0.00000000000E+00 0. -1.
          1   -1    0    0  501    0 -0.00000000000E+00 -0.00000000000E+00 -0.12025885992E+03  0.12025885992E+03  0.00000000000E+00 0. -1.
         25    2    1    2    0    0 -0.33191896316E+02 -0.74738119408E+02  0.93175864172E+03  0.94365640994E+03  0.12500306045E+03 0.  0.
          2    1    1    2  501    0  0.19817444773E+02  0.11216921190E+03 -0.59792375051E+02  0.12864599228E+03  0.00000000000E+00 0. -1.
          1    1    1    2  502    0  0.13374451544E+02 -0.37431092489E+02 -0.43050912644E+00  0.39751075169E+02  0.00000000000E+00 0. -1.
         22    1    3    3    0    0  0.43171758776E+01  0.14711619510E+02  0.53478210230E+03  0.53500183803E+03  0.00000000000E+00 0. -1.
         22    1    3    3    0    0 -0.37509072194E+02 -0.89449738919E+02  0.39697653942E+03  0.40865457191E+03  0.00000000000E+00 0. -1.
</event>
<event>
 7    1  0.9036454E-005  0.2559596E+03  0.7818608E-02  0.1177787E+00
          2   -1    0    0  502    0  0.00000000000E+00  0.00000000000E+00  0.88392104576E+03  0.88392104576E+03  0.00000000000E+00 0. -1.
          1   -1    0    0  501    0 -0.00000000000E+00 -0.00000000000E+00 -0.11396662440E+04  0.11396662440E+04  0.00000000000E+00 0. -1.
         25    2    1    2    0    0  0.18399211097E+03 -0.21785800766E+03  0.76477002048E+03  0.82571994584E+03  0.12500014531E+03 0.  0.
          2    1    1    2  501    0 -0.66506597693E+02  0.91338171671E+02 -0.10189592802E+04  0.10252042742E+04  0.00000000000E+00 0. -1.
          1    1    1    2  502    0 -0.11748551328E+03  0.12651983599E+03 -0.15559386076E+01  0.17266306980E+03  0.00000000000E+00 0. -1.
         22    1    3    3    0    0  0.12221149313E+03 -0.15496829287E+03  0.65957084736E+03  0.68846533938E+03  0.00000000000E+00 0. -1.
         22    1    3    3    0    0  0.61780617836E+02 -0.62889714795E+02  0.10519917312E+03  0.13725460646E+03  0.00000000000E+00 0. -1.
</event>
<event>
 7    1  0.9036454E-005  0.1547390E+03  0.7818608E-02  0.1318710E+00
          2   -1    0    0  502    0  0.00000000000E+00  0.00000000000E+00  0.25642556601E+04  0.25642556601E+04  0.00000000000E+00 0. -1.
          1   -1    0    0  501    0 -0.00000000000E+00 -0.00000000000E+00 -0.45224919724E+03  0.45224919724E+03  0.00000000000E+00 0. -1.
         25    2    1    2    0    0  0.14021845614E+03 -0.13811407549E+03 -0.10145360223E+01  0.23315160322E+03  0.12498770944E+03 0.  0.
          2    1    1    2  501    0 -0.21938350578E+02  0.39676895166E+02 -0.33120209971E+03  0.33429085852E+03  0.00000000000E+00 0. -1.
          1    1    1    2  502    0 -0.11828010556E+03  0.98437180326E+02  0.24442230986E+04  0.24490623956E+04  0.00000000000E+00 0. -1.
         22    1    3    3    0    0  0.47643441829E+02 -0.81223376378E+02 -0.57860611750E+02  0.11052142241E+03  0.00000000000E+00 0.  1.
         22    1    3    3    0    0  0.92575014313E+02 -0.56890699115E+02  0.56846075727E+02  0.12263018081E+03  0.00000000000E+00 0.  1.
</event>
<event>
 7    1  0.9036454E-005  0.1804265E+03  0.7818608E-02  0.1172090E+00
          2   -1    0    0  502    0  0.00000000000E+00  0.00000000000E+00  0.21200295636E+04  0.21200295636E+04  0.00000000000E+00 0. -1.
          1   -1    0    0  501    0 -0.00000000000E+00 -0.00000000000E+00 -0.34166572006E+03  0.34166572006E+03  0.00000000000E+00 0. -1.
         25    2    1    2    0    0  0.33706928168E+03  0.61041829707E+02  0.73232301177E+03  0.81808538355E+03  0.12499958239E+03 0.  0.
          2    1    1    2  501    0 -0.16619347560E+03 -0.55034547032E+02 -0.26711271004E+03  0.31937168403E+03  0.00000000000E+00 0. -1.
          1    1    1    2  502    0 -0.17087580608E+03 -0.60072826752E+01  0.13131535418E+04  0.13242382161E+04  0.00000000000E+00 0. -1.
         22    1    3    3    0    0  0.21610911594E+03 -0.92359192493E+01  0.35553210325E+03  0.41616286312E+03  0.00000000000E+00 0. -1.
         22    1    3    3    0    0  0.12096016573E+03  0.70277748957E+02  0.37679090851E+03  0.40192252043E+03  0.00000000000E+00 0. -1.
</event>
<event>
 7    1  0.9036454E-005  0.5260244E+03  0.7818608E-02  0.1209637E+00
          2   -1    0    0  502    0  0.00000000000E+00  0.00000000000E+00  0.23157992367E+04  0.23157992367E+04  0.00000000000E+00 0. -1.
          1   -1    0    0  501    0 -0.00000000000E+00 -0.00000000000E+00 -0.89939716523E+03  0.89939716523E+03  0.00000000000E+00 0. -1.
         25    2    1    2    0    0 -0.43772380413E+03 -0.25728202778E+03  0.21177475354E+04  0.21813466140E+04  0.12498902382E+03 0.  0.
          2    1    1    2  501    0  0.47056585511E+03  0.23670711401E+03 -0.78287002364E+03  0.94358251135E+03  0.00000000000E+00 0. -1.
          1    1    1    2  502    0 -0.32842050980E+02  0.20574913770E+02  0.81524559720E+02  0.90267276611E+02  0.00000000000E+00 0. -1.
         22    1    3    3    0    0 -0.41484491874E+02  0.10749121068E+02  0.22779900189E+03  0.23179493509E+03  0.00000000000E+00 0. -1.
         22    1    3    3    0    0 -0.39623931226E+03 -0.26803114885E+03  0.18899485335E+04  0.19495516789E+04  0.00000000000E+00 0. -1.
</event>
<event>
 7    1  0.9036454E-005  0.3705943E+03  0.7818608E-02  0.1111576E+00
          2   -1    0    0  502    0  0.00000000000E+00  0.00000000000E+00  0.14050167592E+03  0.14050167592E+03  0.00000000000E+00 0. -1.
          1   -1    0    0  501    0 -0.00000000000E+00 -0.00000000000E+00 -0.24908302519E+04  0.24908302519E+04  0.00000000000E+00 0. -1.
         25    2    1    2    0    0  0.31500114523E+03 -0.14034686525E+03 -0.31992577410E+03  0.48672606888E+03  0.12500720423E+03 0.  0.
          2    1    1    2  501    0  0.13657542135E+02 -0.17184459010E+03 -0.10553269330E+04  0.10693138114E+04  0.00000000000E+00 0. -1.
          1    1    1    2  502    0 -0.32865868737E+03  0.31219145535E+03 -0.97507586880E+03  0.10752920475E+04  0.00000000000E+00 0. -1.
         22    1    3    3    0    0  0.29582513494E+03 -0.11396289312E+03 -0.23169892586E+03  0.39266327014E+03  0.00000000000E+00 0. -1.
         22    1    3    3    0    0  0.19176010287E+02 -0.26383972133E+02 -0.88226848240E+02  0.94062798738E+02  0.00000000000E+00 0. -1.
</event>
<event>
 7    1  0.9036454E-005  0.1404902E+03  0.7818608E-02  0.1333386E+00
          2   -1    0    0  502    0  0.00000000000E+00  0.00000000000E+00  0.29084650733E+04  0.29084650733E+04  0.00000000000E+00 0. -1.
          1   -1    0    0  501    0 -0.00000000000E+00 -0.00000000000E+00 -0.51487997524E+03  0.51487997524E+03  0.00000000000E+00 0. -1.
         25    2    1    2    0    0 -0.61228748443E+02 -0.10696218500E+03  0.59560164081E+03  0.62092745339E+03  0.12497887495E+03 0.  0.
          2    1    1    2  501    0  0.10355517034E+03  0.95490596059E+02 -0.49212575352E+03  0.51188854697E+03  0.00000000000E+00 0. -1.
          1    1    1    2  502    0 -0.42326421895E+02  0.11471588937E+02  0.22901092108E+04  0.22905290482E+04  0.00000000000E+00 0. -1.
         22    1    3    3    0    0 -0.32152650749E+01 -0.19158997832E+02  0.38505831722E+03  0.38554806806E+03  0.00000000000E+00 0. -1.
         22    1    3    3    0    0 -0.58013483368E+02 -0.87803187164E+02  0.21054332359E+03  0.23537938533E+03  0.00000000000E+00 0. -1.
</event>
<event>
 7    1  0.9036454E-005  0.1127102E+03  0.7818608E-02  0.1408649E+00
          2   -1    0    0  502    0  0.00000000000E+00  0.00000000000E+00  0.20158764834E+04  0.20158764834E+04  0.00000000000E+00 0. -1.
          1   -1    0    0  501    0 -0.00000000000E+00 -0.00000000000E+00 -0.28500944023E+03  0.28500944023E+03  0.00000000000E+00 0. -1.
         25    2    1    2    0    0 -0.13120726013E+03 -0.45404933712E+02  0.11813071356E+04  0.11959881967E+04  0.12499705975E+03 0.  0.
          2    1    1    2  501    0  0.10949386508E+03  0.25686847165E+02 -0.26600615589E+03  0.28880442445E+03  0.00000000000E+00 0. -1.
          1    1    1    2  502    0  0.21713395048E+02  0.19718086547E+02  0.81556606351E+03  0.81609330252E+03  0.00000000000E+00 0. -1.
         22    1    3    3    0    0 -0.62446682102E+02  0.11637636513E+02  0.18338772788E+03  0.19407751396E+03  0.00000000000E+00 0.  1.
         22    1    3    3    0    0 -0.68760578025E+02 -0.57042570225E+02  0.99791940769E+03  0.10019106827E+04  0.00000000000E+00 0.  1.
</event>
<event>
 7    1  0.9036454E-005  0.4498879E+03  0.7818608E-02  0.1129879E+00
          2   -1    0    0  502    0  0.00000000000E+00  0.00000000000E+00  0.17372168980E+03  0.17372168980E+03  0.00000000000E+00 0. -1.
          1   -1    0    0  501    0 -0.00000000000E+00 -0.00000000000E+00 -0.17109204571E+04  0.17109204571E+04  0.00000000000E+00 0. -1.
         25    2    1    2    0    0 -0.30745966149E+03 -0.27216405293E+03 -0.86562653853E+03  0.96619789783E+03  0.12499743369E+03 0.  0.
          2    1    1    2  501    0  0.25815105971E+02 -0.10999725804E+03 -0.28381804445E+03  0.30548076670E+03  0.00000000000E+00 0. -1.
          1    1    1    2  502    0  0.28164455551E+03  0.38216131097E+03 -0.38775418433E+03  0.61296348237E+03  0.00000000000E+00 0. -1.
         22    1    3    3    0    0 -0.14314443272E+03 -0.18505445445E+03 -0.57946458706E+03  0.62491174368E+03  0.00000000000E+00 0.  1.
         22    1    3    3    0    0 -0.16431522876E+03 -0.87109598479E+02 -0.28616195146E+03  0.34128615415E+03  0.00000000000E+00 0.  1.
</event>
<event>
 7    1  0.9036454E-005  0.1704358E+03  0.7818608E-02  0.1301190E+00
          2   -1    0    0  502    0  0.00000000000E+00  0.00000000000E+00  0.16280994437E+04  0.16280994437E+04  0.00000000000E+00 0. -1.
          1   -1    0    0  501    0 -0.00000000000E+00 -0.00000000000E+00 -0.67292382995E+02  0.67292382995E+02  0.00000000000E+00 0. -1.
         25    2    1    2    0    0 -0.12935586511E+03 -0.53963879512E+02  0.92989279343E+02  0.20956413834E+03  0.12500032750E+03 0.  0.
          2    1    1    2  501    0 -0.12346138812E+02 -0.46650156085E+02  0.18079095934E+03  0.18712037619E+03  0.00000000000E+00 0. -1.
          1    1    1    2  502    0  0.14170200392E+03  0.10061403560E+03  0.12870268220E+04  0.12987073122E+04  0.00000000000E+00 0. -1.
         22    1    3    3    0    0 -0.59015016514E+02 -0.36628866707E+02 -0.22691611794E+02  0.73070892264E+02  0.00000000000E+00 0. -1.
         22    1    3    3    0    0 -0.70340848593E+02 -0.17335012804E+02  0.11568089114E+03  0.13649324607E+03  0.00000000000E+00 0. -1.
</event>
<event>
 7    1  0.9036454E-005  0.8637297E+02  0.7818608E-02  0.1345165E+00
          2   -1    0    0  502    0  0.00000000000E+00  0.00000000000E+00  0.14924384832E+03  0.14924384832E+03  0.00000000000E+00 0. -1.
          1   -1    0    0  501    0 -0.00000000000E+00 -0.00000000000E+00 -0.51426270296E+03  0.51426270296E+03  0.00000000000E+00 0. -1.
         25    2    1    2    0    0 -0.50067271430E+02 -0.66269578171E+02 -0.11462367272E+02  0.15051639156E+03  0.12500163841E+03 0.  0.
          2    1    1    2  501    0  0.58572617948E+02 -0.26778365048E+02 -0.40242528159E+03  0.40754624237E+03  0.00000000000E+00 0. -1.
          1    1    1    2  502    0 -0.85053465182E+01  0.93047943219E+02  0.48868794225E+02  0.10544391735E+03  0.00000000000E+00 0. -1.
         22    1    3    3    0    0  0.41183800128E+02 -0.21558937470E+02  0.76730974182E+01  0.47114430930E+02  0.00000000000E+00 0.  1.
         22    1    3    3    0    0 -0.91251071558E+02 -0.44710640700E+02 -0.19135464690E+02  0.10340196063E+03  0.00000000000E+00 0.  1.
</event>
<event>
 7    1  0.9036454E-005  0.2800733E+03  0.7818608E-02  0.1183182E+00
          2   -1    0    0  502    0  0.00000000000E+00  0.00000000000E+00  0.21402893041E+04  0.21402893041E+04  0.00000000000E+00 0. -1.
          1   -1    0    0  501    0 -0.00000000000E+00 -0.00000000000E+00 -0.14284383636E+03  0.14284383636E+03  0.00000000000E+00 0. -1.
         25    2    1    2    0    0 -0.24582980038E+03  0.14675634855E+03  0.12395067116E+03  0.33609307019E+03  0.12500026543E+03 0.  0.
          2    1    1    2  501    0  0.27180281108E+03 -0.53102853857E+02  0.51216440849E+03  0.58224484757E+03  0.00000000000E+00 0. -1.
          1    1    1    2  502    0 -0.25973010704E+02 -0.93653494693E+02  0.13613303880E+04  0.13647952226E+04  0.00000000000E+00 0. -1.
         22    1    3    3    0    0 -0.25265622264E+03  0.11784681669E+03  0.94777446312E+02  0.29445849176E+03  0.00000000000E+00 0. -1.
         22    1    3    3    0    0  0.68264222585E+01  0.28909531861E+02  0.29173224844E+02  0.41634578431E+02  0.00000000000E+00 0. -1.
</event>
<event>
 7    1  0.9036454E-005  0.1130608E+03  0.7818608E-02  0.1316351E+00
          2   -1    0    0  502    0  0.00000000000E+00  0.00000000000E+00  0.43757851046E+03  0.43757851046E+03  0.00000000000E+00 0. -1.
          1   -1    0    0  501    0 -0.00000000000E+00 -0.00000000000E+00 -0.19974332546E+03  0.19974332546E+03  0.00000000000E+00 0. -1.
         25    2    1    2    0    0 -0.66062064210E+02  0.86554517226E+02  0.55178440902E+02  0.17471511906E+03  0.12499932683E+03 0.  0.
          2    1    1    2  501    0  0.10266247906E+02 -0.11661498039E+03 -0.11151875926E+03  0.16168142492E+03  0.00000000000E+00 0. -1.
          1    1    1    2  502    0  0.55795816304E+02  0.30060463164E+02  0.29417550335E+03  0.30092529195E+03  0.00000000000E+00 0. -1.
         22    1    3    3    0    0 -0.25208363562E+02 -0.24872283353E+02  0.42559487786E+02  0.55366073306E+02  0.00000000000E+00 0. -1.
         22    1    3    3    0    0 -0.40853700648E+02  0.11142680058E+03  0.12618953116E+02  0.11934904575E+03  0.00000000000E+00 0. -1.
</event>
<event>
 7    1  0.9036454E-005  0.2762024E+03  0.7818608E-02  0.1110359E+00
          2   -1    0    0  502    0  0.00000000000E+00  0.00000000000E+00  0.63630019099E+03  0.63630019099E+03  0.00000000000E+00 0. -1.
          1   -1    0    0  501    0 -0.00000000000E+00 -0.00000000000E+00 -0.12765220063E+04  0.12765220063E+04  0.00000000000E+00 0. -1.
         25    2    1    2    0    0 -0.23309480217E+03  0.21409648676E+03 -0.20359767728E+03  0.39654409824E+03  0.12499886087E+03 0.  0.
          2    1    1    2  501    0  0.28419447329E+03  0.15183667314E+02 -0.92852721535E+03  0.97116416329E+03  0.00000000000E+00 0. -1.
          1    1    1    2  502    0 -0.51099671127E+02 -0.22928015407E+03  0.49190307735E+03  0.54511393574E+03  0.00000000000E+00 0. -1.
         22    1    3    3    0    0 -0.20923286784E+03  0.17807824223E+03 -0.11476236288E+03  0.29775938822E+03  0.00000000000E+00 0. -1.
         22    1    3    3    0    0 -0.23861934324E+02  0.36018244522E+02 -0.88835314405E+02  0.98784710020E+02  0.00000000000E+00 0. -1.
</event>
<event>
 7    1  0.9036454E-005  0.1344649E+03  0.7818608E-02  0.1321867E+00
          2   -1    0    0  502    0  0.00000000000E+00  0.00000000000E+00  0.46564400965E+03  0.46564400965E+03  0.00000000000E+00 0. -1.
          1   -1    0    0  501    0 -0.00000000000E+00 -0.00000000000E+00 -0.42410061415E+03  0.42410061415E+03  0.00000000000E+00 0. -1.
         25    2    1    2    0    0 -0.12737190275E+03 -0.33323564003E+02  0.14084163184E+03  0.22977219029E+03  0.12499933058E+03 0.  0.
          2    1    1    2  501    0  0.15837986004E+02 -0.48187650665E+02 -0.36073386217E+03  0.36428259743E+03  0.00000000000E+00 0. -1.
          1    1    1    2  502    0  0.11153391675E+03  0.81511214668E+02  0.26143562583E+03  0.29568983607E+03  0.00000000000E+00 0. -1.
         22    1    3    3    0    0 -0.32006804303E+02 -0.39083676471E+01  0.12454555090E+03  0.12865187565E+03  0.00000000000E+00 0.  1.
         22    1    3    3    0    0 -0.95365098450E+02 -0.29415196356E+02  0.16296080932E+02  0.10112031464E+03  0.00000000000E+00 0.  1.
</event>
<event>
 7    1  0.9036454E-005  0.4593580E+03  0.7818608E-02  0.1044804E+00
          2   -1    0    0  502    0  0.00000000000E+00  0.00000000000E+00  0.67037141473E+03  0.67037141473E+03  0.00000000000E+00 0. -1.
          1   -1    0    0  501    0 -0.00000000000E+00 -0.00000000000E+00 -0.23171468698E+04  0.23171468698E+04  0.00000000000E+00 0. -1.
         25    2    1    2    0    0 -0.43249865164E+03 -0.87810522146E+02 -0.68539197980E+02  0.46377588057E+03  0.12499869705E+03 0.  0.
          2    1    1    2  501    0  0.40459180973E+03 -0.25425379798E+03 -0.19559035027E+04  0.20134294222E+04  0.00000000000E+00 0. -1.
          1    1    1    2  502    0  0.27906841910E+02  0.34206432013E+03  0.37766724562E+03  0.51031298175E+03  0.00000000000E+00 0. -1.
         22    1    3    3    0    0 -0.34065250954E+03 -0.10491998319E+03 -0.90604995741E+02  0.36777928215E+03  0.00000000000E+00 0. -1.
         22    1    3    3    0    0 -0.91846142107E+02  0.17109461041E+02  0.22065797761E+02  0.95996598418E+02  0.00000000000E+00 0. -1.
</event>
<event>
 7    1  0.9036454E-005  0.3845123E+03  0.7818608E-02  0.1197113E+00
          2   -1    0    0  502    0  0.00000000000E+00  0.00000000000E+00  0.11147292226E+04  0.11147292226E+04  0.00000000000E+00 0. -1.
          1   -1    0    0  501    0 -0.00000000000E+00 -0.00000000000E+00 -0.32453132662E+03  0.32453132662E+03  0.00000000000E+00 0. -1.
         25    2    1    2    0    0 -0.35682338186E+03 -0.22165017324E+03  0.32579273829E+03  0.54609302306E+03  0.12499982551E+03 0.  0.
          2    1    1    2  501    0  0.33261953986E+03  0.16599000123E+03 -0.50097155969E+02  0.37509753911E+03  0.00000000000E+00 0. -1.
          1    1    1    2  502    0  0.24203841995E+02  0.55660172002E+02  0.51450231366E+03  0.51806998705E+03  0.00000000000E+00 0. -1.
         22    1    3    3    0    0 -0.13698081205E+03 -0.84689026348E+02  0.20390028014E+03  0.25982936381E+03  0.00000000000E+00 0. -1.
         22    1    3    3    0    0 -0.21984256981E+03 -0.13696114689E+03  0.12189245815E+03  0.28626365926E+03  0.00000000000E+00 0. -1.
</event>
<event>
 7    1  0.9036454E-005  0.1575847E+03  0.7818608E-02  0.1283824E+00
          2   -1    0    0  502    0  0.00000000000E+00  0.00000000000E+00  0.35834724475E+03  0.35834724475E+03  0.00000000000E+00 0. -1.
          1   -1    0    0  501    0 -0.00000000000E+00 -0.00000000000E+00 -0.12258832919E+04  0.12258832919E+04  0.00000000000E+00 0. -1.
         25    2    1    2    0    0  0.80589472584E+02  0.18701814872E+03 -0.20195869139E+03  0.31286177000E+03  0.12499889222E+03 0.  0.
          2    1    1    2  501    0 -0.86727079242E+02 -0.12595611618E+03 -0.95924430681E+03  0.97135789987E+03  0.00000000000E+00 0. -1.
          1    1    1    2  502    0  0.61376066586E+01 -0.61062032538E+02  0.29366695106E+03  0.30001086677E+03  0.00000000000E+00 0. -1.
         22    1    3    3    0    0  0.91130637782E+02  0.15631889136E+03 -0.10188514104E+03  0.20765589542E+03  0.00000000000E+00 0.  1.
         22    1    3    3    0    0 -0.10541165198E+02  0.30699257363E+02 -0.10007355035E+03  0.10520587458E+03  0.00000000000E+00 0.  1.
</event>
<event>
 7    1  0.9036454E-005  0.4252364E+03  0.7818608E-02  0.1138768E+00
          2   -1    0    0  502    0  0.00000000000E+00  0.00000000000E+00  0.53281901452E+03  0.53281901452E+03  0.00000000000E+00 0. -1.
          1   -1    0    0  501    0 -0.00000000000E+00 -0.00000000000E+00 -0.20368296469E+04  0.20368296469E+04  0.00000000000E+00 0. -1.
         25    2    1    2    0    0 -0.43675640819E+03 -0.12792832433E+03 -0.64697224306E+02  0.47637424431E+03  0.12499949417E+03 0.  0.
          2    1    1    2  501    0  0.75860302907E+02 -0.75835734993E+02 -0.16324958190E+04  0.16360160279E+04  0.00000000000E+00 0. -1.
          1    1    1    2  502    0  0.36089610529E+03  0.20376405932E+03  0.19318241092E+03  0.45725838929E+03  0.00000000000E+00 0. -1.
         22    1    3    3    0    0 -0.16392122092E+03 -0.86118620900E+02 -0.75920136473E+02  0.20012608689E+03  0.00000000000E+00 0. -1.
         22    1    3    3    0    0 -0.27283518728E+03 -0.41809703429E+02  0.11222912167E+02  0.27624815742E+03  0.00000000000E+00 0. -1.
</event>
<event>
 7    1  0.9036454E-005  0.2150856E+03  0.7818608E-02  0.1212561E+00
          2   -1    0    0  502    0  0.00000000000E+00  0.00000000000E+00  0.33623327818E+04  0.33623327818E+04  0.00000000000E+00 0. -1.
          1   -1    0    0  501    0 -0.00000000000E+00 -0.00000000000E+00 -0.54933298214E+02  0.54933298214E+02  0.00000000000E+00 0. -1.
         25    2    1    2    0    0 -0.59326788486E+02  0.27185844849E+03  0.10148032786E+04  0.10596592743E+04  0.12500159813E+03 0.  0.
          2    1    1    2  501    0 -0.26972252896E+02 -0.87824915729E+02  0.47683085090E+02  0.10351036109E+03  0.00000000000E+00 0. -1.
          1    1    1    2  502    0  0.86299041382E+02 -0.18403353276E+03  0.22449131199E+04  0.22540964446E+04  0.00000000000E+00 0. -1.
         22    1    3    3    0    0  0.28098019353E+02  0.65753744681E+02  0.37655936982E+03  0.38328841965E+03  0.00000000000E+00 0. -1.
         22    1    3    3    0    0 -0.87424807839E+02  0.20610470381E+03  0.63824390878E+03  0.67637085467E+03  0.00000000000E+00 0. -1.
</event>
<event>
 7    1  0.9036454E-005  0.6371703E+03  0.7818608E-02  0.1095268E+00
          2   -1    0    0  502    0  0.00000000000E+00  0.00000000000E+00  0.16689802867E+04  0.16689802867E+04  0.00000000000E+00 0. -1.
          1   -1    0    0  501    0 -0.00000000000E+00 -0.00000000000E+00 -0.19074192471E+04  0.19074192471E+04  0.00000000000E+00 0. -1.
         25    2    1    2    0    0 -0.59019694588E+03  0.74077500486E+02 -0.25658337945E+03  0.65975695014E+03  0.12499716651E+03 0.  0.
          2    1    1    2  501    0 -0.53801409172E+02 -0.11141361589E+03 -0.13754422248E+04  0.13809956188E+04  0.00000000000E+00 0. -1.
          1    1    1    2  502    0  0.64399835506E+03  0.37336115399E+02  0.13935866438E+04  0.15356469649E+04  0.00000000000E+00 0. -1.
         22    1    3    3    0    0 -0.23088841856E+03  0.82282540150E+02 -0.13804114545E+03  0.28130985777E+03  0.00000000000E+00 0. -1.
         22    1    3    3    0    0 -0.35930852732E+03 -0.82050396639E+01 -0.11854223400E+03  0.37844709237E+03  0.00000000000E+00 0. -1.
</event>
<event>
 7    1  0.9036454E-005  0.1321471E+03  0.7818608E-02  0.1340552E+00
          2   -1    0    0  502    0  0.00000000000E+00  0.00000000000E+00  0.30497923206E+02  0.30497923206E+02  0.00000000000E+00 0. -1.
          1   -1    0    0  501    0 -0.00000000000E+00 -0.00000000000E+00 -0.11824733678E+04  0.11824733678E+04  0.00000000000E+00 0. -1.
         25    2    1    2    0    0 -0.11528651507E+03  0.11302763881E+03 -0.77214660166E+03  0.79868744694E+03  0.12500014303E+03 0.  0.
          2    1    1    2  501    0  0.19206114342E+02 -0.39368387029E+02 -0.86682643643E+02  0.97121704240E+02  0.00000000000E+00 0. -1.
          1    1    1    2  502    0  0.96080400727E+02 -0.73659251783E+02 -0.29314619925E+03  0.31716213978E+03  0.00000000000E+00 0. -1.
         22    1    3    3    0    0 -0.12330846214E+03  0.12606069761E+03 -0.58715368359E+03  0.61306257794E+03  0.00000000000E+00 0.  1.
         22    1    3    3    0    0  0.80219470707E+01 -0.13033058799E+02 -0.18499291807E+03  0.18562486900E+03  0.00000000000E+00 0.  1.
</event>
<event>
 7    1  0.9036454E-005  0.3562982E+03  0.7818608E-02  0.1089473E+00
          2   -1    0    0  502    0  0.00000000000E+00  0.00000000000E+00  0.31687837150E+04  0.31687837150E+04  0.00000000000E+00 0. -1.
          1   -1    0    0  501    0 -0.00000000000E+00 -0.00000000000E+00 -0.57558616342E+03  0.57558616342E+03  0.00000000000E+00 0. -1.
         25    2    1    2    0    0  0.37537874186E+03 -0.40648549655E+02  0.78066420529E+03  0.87614110503E+03  0.12500052030E+03 0.  0.
          2    1    1    2  501    0 -0.25975029312E+03  0.24957554764E+03 -0.45939699287E+03  0.58378400613E+03  0.00000000000E+00 0. -1.
          1    1    1    2  502    0 -0.11562844874E+03 -0.20892699799E+03  0.22719303391E+04  0.22844447672E+04  0.00000000000E+00 0. -1.
         22    1    3    3    0    0  0.55867943086E+02  0.37909562754E+02  0.10899277898E+03  0.12820993675E+03  0.00000000000E+00 0.  1.
         22    1    3    3    0    0  0.31951079877E+03 -0.78558112410E+02  0.67167142631E+03  0.74793116828E+03  0.00000000000E+00 0.  1.
</event>
<event>
 7    1  0.9036454E-005  0.1251099E+03  0.7818608E-02  0.1258723E+00
          2   -1    0    0  502    0  0.00000000000E+00  0.00000000000E+00  0.14837996955E+04  0.14837996955E+04  0.00000000000E+00 0. -1.
          1   -1    0    0  501    0 -0.00000000000E+00 -0.00000000000E+00 -0.29201288101E+03  0.29201288101E+03  0.00000000000E+00 0. -1.
         25    2    1    2    0    0 -0.88298727482E+02 -0.69104103258E+02 -0.73265356333E+01  0.16807959034E+03  0.12500011281E+03 0.  0.
          2    1    1    2  501    0  0.80054846059E+02 -0.57366934390E+02 -0.18938470311E+03  0.21346266491E+03  0.00000000000E+00 0. -1.
          1    1    1    2  502    0  0.82438814230E+01  0.12647103765E+03  0.13884980532E+04  0.13942703212E+04  0.00000000000E+00 0. -1.
         22    1    3    3    0    0 -0.11793114512E+03 -0.37139419341E+02 -0.12101946374E+02  0.12423183394E+03  0.00000000000E+00 0.  1.
         22    1    3    3    0    0  0.29632417639E+02 -0.31964683917E+02  0.47754107409E+01  0.43847756394E+02  0.00000000000E+00 0.  1.
</event>
<event>
 7    1  0.9036454E-005  0.1204945E+03  0.7818608E-02  0.1269756E+00
          2   -1    0    0  502    0  0.00000000000E+00  0.00000000000E+00  0.16232933620E+03  0.16232933620E+03  0.00000000000E+00 0. -1.
          1   -1    0    0  501    0 -0.00000000000E+00 -0.00000000000E+00 -0.35395186705E+03  0.35395186705E+03  0.00000000000E+00 0. -1.
         25    2    1    2    0    0  0.22538541484E+02  0.14230183896E+03  0.49503116729E+02  0.19705891705E+03  0.12499543591E+03 0.  0.
          2    1    1    2  501    0  0.55703299782E+02 -0.72993840247E+02 -0.16866180383E+03  0.19203583621E+03  0.00000000000E+00 0. -1.
          1    1    1    2  502    0 -0.78241841266E+02 -0.69307998713E+02 -0.72463843756E+02  0.12718644999E+03  0.00000000000E+00 0. -1.
         22    1    3    3    0    0  0.28291983471E+02 -0.15347122893E+02  0.17424753468E+01  0.32233627319E+02  0.00000000000E+00 0. -1.
         22    1    3    3    0    0 -0.57534419874E+01  0.15764896185E+03  0.47760641383E+02  0.16482528973E+03  0.00000000000E+00 0. -1.
</event>
<event>
 7    1  0.9036454E-005  0.1441906E+03  0.7818608E-02  0.1208261E+00
          2   -1    0    0  502    0  0.00000000000E+00  0.00000000000E+00  0.56775603803E+03  0.56775603803E+03  0.00000000000E+00 0. -1.
          1   -1    0    0  501    0 -0.00000000000E+00 -0.00000000000E+00 -0.57854796734E+03  0.57854796734E+03  0.00000000000E+00 0. -1.
         25    2    1    2    0    0  0.16682135066E+03  0.61483695473E+02  0.20689013894E+02  0.21831529822E+03  0.12499570510E+03 0.  0.
          2    1    1    2  501    0 -0.12564988512E+03  0.75960267100E+02 -0.45643371909E+03  0.47946803411E+03  0.00000000000E+00 0. -1.
          1    1    1    2  502    0 -0.41171465542E+02 -0.13744396257E+03  0.42495277588E+03  0.44852067304E+03  0.00000000000E+00 0. -1.
         22    1    3    3    0    0  0.79536231634E+02  0.94752227371E+02  0.16571146460E+02  0.12481426052E+03  0.00000000000E+00 0.  1.
         22    1    3    3    0    0  0.87285119031E+02 -0.33268531898E+02  0.41178674342E+01  0.93501037700E+02  0.00000000000E+00 0.  1.
</event>
<event>
 7    1  0.9036454E-005  0.6146588E+02  0.7818608E-02  0.1451962E+00
          2   -1    0    0  502    0  0.00000000000E+00  0.00000000000E+00  0.27549251288E+04  0.27549251288E+04  0.00000000000E+00 0. -1.
          1   -1    0    0  501    0 -0.00000000000E+00 -0.00000000000E+00 -0.18629983680E+02  0.18629983680E+02  0.00000000000E+00 0. -1.
         25    2    1    2    0    0  0.21142353829E+02  0.39949790075E+02  0.29422819204E+03  0.32285947006E+03  0.12500009427E+03 0.  0.
          2    1    1    2  501    0 -0.32395245864E+02  0.21232328221E+02  0.92201416251E+02  0.10000682414E+03  0.00000000000E+00 0. -1.
          1    1    1    2  502    0  0.11252892036E+02 -0.61182118296E+02  0.23498655368E+04  0.23506888183E+04  0.00000000000E+00 0. -1.
         22    1    3    3    0    0  0.54374651037E+02  0.16946256035E+01  0.24920443141E+03  0.25507317198E+03  0.00000000000E+00 0. -1.
         22    1    3    3    0    0 -0.33232297208E+02  0.38255164471E+02  0.45023760633E+02  0.67786298084E+02  0.00000000000E+00 0. -1.
</event>
<event>
 7    1  0.9036454E-005  0.2729175E+03  0.7818608E-02  0.1210112E+00
          2   -1    0    0  502    0  0.00000000000E+00  0.00000000000E+00  0.65962404500E+03  0.65962404500E+03  0.00000000000E+00 0. -1.
          1   -1    0    0  501    0 -0.00000000000E+00 -0.00000000000E+00 -0.10021595541E+04  0.10021595541E+04  0.00000000000E+00 0. -1.
         25    2    1    2    0    0  0.53541086426E+02  0.27078364780E+03  0.60260665812E+03  0.67450023395E+03  0.12500139733E+03 0.  0.
          2    1    1    2  501    0 -0.38320448948E+02 -0.63677621563E+02 -0.18735352982E+03  0.20155555420E+03  0.00000000000E+00 0. -1.
          1    1    1    2  502    0 -0.15220637478E+02 -0.20710602624E+03 -0.75778863737E+03  0.78572781091E+03  0.00000000000E+00 0. -1.
         22    1    3    3    0    0  0.61927249398E+02  0.64366751035E+02  0.25437252230E+03  0.26959867017E+03  0.00000000000E+00 0. -1.
         22    1    3    3    0    0 -0.83861629713E+01  0.20641689677E+03  0.34823413582E+03  0.40490156378E+03  0.00000000000E+00 0. -1.
</event>
<event>
 7    1  0.9036454E-005  0.3463743E+03  0.7818608E-02  0.1121027E+00
          2   -1    0    0  502    0  0.00000000000E+00  0.00000000000E+00  0.24009743698E+03  0.24009743698E+03  0.00000000000E+00 0. -1.
          1   -1    0    0  501    0 -0.00000000000E+00 -0.00000000000E+00 -0.13637031358E+04  0.13637031358E+04  0.00000000000E+00 0. -1.
         25    2    1    2    0    0  0.18659642276E+02  0.40690726648E+03 -0.98278501418E+03  0.10711723849E+04  0.12498875300E+03 0.  0.
          2    1    1    2  501    0  0.55439841001E+02 -0.26088385758E+03 -0.22460905803E+03  0.34868781462E+03  0.00000000000E+00 0. -1.
          1    1    1    2  502    0 -0.74099483278E+02 -0.14602340890E+03  0.83788373436E+02  0.18394037319E+03  0.00000000000E+00 0. -1.
         22    1    3    3    0    0  0.60757351489E+01  0.27874857662E+03 -0.51085483324E+03  0.58198826807E+03  0.00000000000E+00 0. -1.
         22    1    3    3    0    0  0.12583907127E+02  0.12815868985E+03 -0.47193018094E+03  0.48918411686E+03  0.00000000000E+00 0. -1.
</event>
<event>
 7    1  0.9036454E-005  0.3863623E+03  0.7818608E-02  0.1084079E+00
          2   -1    0    0  502    0  0.00000000000E+00  0.00000000000E+00  0.16166341736E+04  0.16166341736E+04  0.00000000000E+00 0. -1.
          1   -1    0    0  501    0 -0.00000000000E+00 -0.00000000000E+00 -0.90945550648E+03  0.90945550648E+03  0.00000000000E+00 0. -1.
         25    2    1    2    0    0 -0.60363321111E+02 -0.24183922297E+03  0.23078097301E+03  0.36195958546E+03  0.12499977480E+03 0.  0.
          2    1    1    2  501    0 -0.12339493084E+03 -0.20185376151E+03 -0.78210869495E+03  0.81710786357E+03  0.00000000000E+00 0. -1.
          1    1    1    2  502    0  0.18375825195E+03  0.44369298448E+03  0.12585063891E+04  0.13470222311E+04  0.00000000000E+00 0. -1.
         22    1    3    3    0    0 -0.52667522020E+02 -0.16452754106E+03  0.22552844492E+03  0.28408847057E+03  0.00000000000E+00 0.  1.
         22    1    3    3    0    0 -0.76957990908E+01 -0.77311681911E+02  0.52525280960E+01  0.77871114895E+02  0.00000000000E+00 0.  1.
</event>
<event>
 7    1  0.9036454E-005  0.1118263E+03  0.7818608E-02  0.1395315E+00
          2   -1    0    0  502    0  0.00000000000E+00  0.00000000000E+00  0.20082482973E+04  0.20082482973E+04  0.00000000000E+00 0. -1.
          1   -1    0    0  501    0 -0.00000000000E+00 -0.00000000000E+00 -0.28809646537E+03  0.28809646537E+03  0.00000000000E+00 0. -1.
         25    2    1    2    0    0  0.32766444561E+02  0.12752009916E+03  0.28314696499E+03  0.33635036154E+03  0.12499738536E+03 0.  0.
          2    1    1    2  501    0 -0.28129279192E+02 -0.16954957851E+02 -0.25865269762E+03  0.26072963953E+03  0.00000000000E+00 0. -1.
          1    1    1    2  502    0 -0.46371653695E+01 -0.11056514131E+03  0.16956575646E+04  0.16992647616E+04  0.00000000000E+00 0. -1.
         22    1    3    3    0    0  0.45417143050E+01  0.67222685148E+02  0.25554701874E+03  0.26427976721E+03  0.00000000000E+00 0.  1.
         22    1    3    3    0    0  0.28224730256E+02  0.60297414009E+02  0.27599946245E+02  0.72070594329E+02  0.00000000000E+00 0.  1.
</event>
<event>
 7    1  0.9036454E-005  0.1597668E+03  0.7818608E-02  0.1206807E+00
          2   -1    0    0  502    0  0.00000000000E+00  0.00000000000E+00  0.31909182683E+03  0.31909182683E+03  0.00000000000E+00 0. -1.
          1   -1    0    0  501    0 -0.00000000000E+00 -0.00000000000E+00 -0.87016836412E+03  0.87016836412E+03  0.00000000000E+00 0. -1.
         25    2    1    2    0    0  0.58599883245E+02  0.23945414900E+03 -0.22917140870E+03  0.35904981504E+03  0.12499999729E+03 0.  0.
          2    1    1    2  501    0 -0.96429265826E+02 -0.89444361194E+02 -0.54392768122E+03  0.55960362709E+03  0.00000000000E+00 0. -1.
          1    1    1    2  502    0  0.37829382581E+02 -0.15000978781E+03  0.22202255263E+03  0.27060674881E+03  0.00000000000E+00 0. -1.
         22    1    3    3    0    0 -0.10114754144E+02  0.18864069080E+03 -0.17728287458E+03  0.25906917241E+03  0.00000000000E+00 0. -1.
         22    1    3    3    0    0  0.68714637389E+02  0.50813458205E+02 -0.51888534124E+02  0.99980642626E+02  0.00000000000E+00 0. -1.
</event>
<event>
 7    1  0.9036454E-005  0.2345988E+03  0.7818608E-02  0.1238889E+00
          2   -1    0    0  502    0  0.00000000000E+00  0.00000000000E+00  0.21210411373E+04  0.21210411373E+04  0.00000000000E+00 0. -1.
          1   -1    0    0  501    0 -0.00000000000E+00 -0.00000000000E+00 -0.98003767250E+03  0.98003767250E+03  0.00000000000E+00 0. -1.
         25    2    1    2    0    0  0.19794592863E+03  0.14113073917E+03  0.62093406197E+03  0.67844258785E+03  0.12499903797E+03 0.  0.
          2    1    1    2  501    0 -0.49981922774E+02  0.40063429244E+02 -0.94088915846E+03  0.94306716594E+03  0.00000000000E+00 0. -1.
          1    1    1    2  502    0 -0.14796400585E+03 -0.18119416841E+03  0.14609585613E+04  0.14795690560E+04  0.00000000000E+00 0. -1.
         22    1    3    3    0    0  0.16197345919E+03  0.15874443521E+03  0.57125721133E+03  0.61462996891E+03  0.00000000000E+00 0. -1.
         22    1    3    3    0    0  0.35972469440E+02 -0.17613696043E+02  0.49676850647E+02  0.63812618941E+02  0.00000000000E+00 0. -1.
</event>
<event>
 7    1  0.9036454E-005  0.3059904E+02  0.7818608E-02  0.1634782E+00
          2   -1    0    0  502    0  0.00000000000E+00  0.00000000000E+00  0.46844795919E+03  0.46844795919E+03  0.00000000000E+00 0. -1.
          1   -1    0    0  501    0 -0.00000000000E+00 -0.00000000000E+00 -0.23132137335E+03  0.23132137335E+03  0.00000000000E+00 0. -1.
         25    2    1    2    0    0  0.79726615316E+01  0.77741139154E+01  0.36140546658E+03  0.38257402350E+03  0.12499988800E+03 0.  0.
          2    1    1    2  501    0 -0.30650158022E+02 -0.90724660571E+00 -0.21819359758E+03  0.22033769834E+03  0.00000000000E+00 0. -1.
          1    1    1    2  502    0  0.22677496491E+02 -0.68668673097E+01  0.93914716836E+02  0.96857610708E+02  0.00000000000E+00 0. -1.
         22    1    3    3    0    0 -0.12909326753E+02 -0.18508061531E+02  0.34404187858E+03  0.34478110922E+03  0.00000000000E+00 0. -1.
         22    1    3    3    0    0  0.20881988285E+02  0.26282175447E+02  0.17363587999E+02  0.37792914272E+02  0.00000000000E+00 0. -1.
</event>
<event>
 7    1  0.9036454E-005  0.6957486E+02  0.7818608E-02  0.1375560E+00
          2   -1    0    0  502    0  0.00000000000E+00  0.00000000000E+00  0.70355710399E+03  0.70355710399E+03  0.00000000000E+00 0. -1.
          1   -1    0    0  501    0 -0.00000000000E+00 -0.00000000000E+00 -0.72680877453E+03  0.72680877453E+03  0.00000000000E+00 0. -1.
         25    2    1    2    0    0  0.86007303370E+02 -0.58089863215E+02 -0.40944644940E+03  0.44050243988E+03  0.12499726466E+03 0.  0.
          2    1    1    2  501    0 -0.24106228233E+02  0.60231501148E+02 -0.29693084613E+03  0.30393563687E+03  0.00000000000E+00 0. -1.
          1    1    1    2  502    0 -0.61901075138E+02 -0.21416379330E+01  0.68312562500E+03  0.68592780177E+03  0.00000000000E+00 0. -1.
         22    1    3    3    0    0  0.34610535030E+02 -0.79143673622E+02 -0.34392786284E+03  0.35460962345E+03  0.00000000000E+00 0.  1.
         22    1    3    3    0    0  0.51396768341E+02  0.21053810407E+02 -0.65518586564E+02  0.85892816428E+02  0.00000000000E+00 0.  1.
</event>
<event>
 7    1  0.9036454E-005  0.5078559E+03  0.7818608E-02  0.1172855E+00
          2   -1    0    0  502    0  0.00000000000E+00  0.00000000000E+00  0.22336322272E+04  0.22336322272E+04  0.00000000000E+00 0. -1.
          1   -1    0    0  501    0 -0.00000000000E+00 -0.00000000000E+00 -0.26297697775E+03  0.26297697775E+03  0.00000000000E+00 0. -1.
         25    2    1    2    0    0 -0.50987579855E+03  0.11159431174E+03  0.11729332795E+04  0.12898932011E+04  0.12500148665E+03 0.  0.
          2    1    1    2  501    0  0.40626700902E+02  0.44448704204E+02 -0.13677358146E+03  0.14944306179E+03  0.00000000000E+00 0. -1.
          1    1    1    2  502    0  0.46924909765E+03 -0.15604301594E+03  0.93449555144E+03  0.10572729421E+04  0.00000000000E+00 0. -1.
         22    1    3    3    0    0 -0.24773508591E+03  0.25911227228E+02  0.42343460956E+03  0.49126462631E+03  0.00000000000E+00 0.  1.
         22    1    3    3    0    0 -0.26214071264E+03  0.85683084508E+02  0.74949866994E+03  0.79862857477E+03  0.00000000000E+00 0.  1.
</event>
<event>
 7    1  0.9036454E-005  0.6552695E+03  0.7818608E-02  0.1032617E+00
          2   -1    0    0  502    0  0.00000000000E+00  0.00000000000E+00  0.15083076651E+04  0.15083076651E+04  0.00000000000E+00 0. -1.
          1   -1    0    0  501    0 -0.00000000000E+00 -0.00000000000E+00 -0.54219635213E+03  0.54219635213E+03  0.00000000000E+00 0. -1.
         25    2    1    2    0    0  0.27052564046E+03 -0.74597039249E+03  0.12444777701E+03  0.81287640756E+03  0.12499942456E+03 0.  0.
          2    1    1    2  501    0 -0.25586607106E+03  0.13086846543E+03  0.21087264567E+03  0.35645655311E+03  0.00000000000E+00 0. -1.
          1    1    1    2  502    0 -0.14659569407E+02  0.61510192706E+03  0.63079089029E+03  0.88117105656E+03  0.00000000000E+00 0. -1.
         22    1    3    3    0    0  0.28281154845E+03 -0.72331962054E+03  0.11355408893E+03  0.78490010607E+03  0.00000000000E+00 0.  1.
         22    1    3    3    0    0 -0.12285907986E+02 -0.22650771955E+02  0.10893688083E+02  0.27976301493E+02  0.00000000000E+00 0.  1.
</event>
<event>
 7    1  0.9036454E-005  0.3912798E+03  0.7818608E-02  0.1052592E+00
          2   -1    0    0  502    0  0.00000000000E+00  0.00000000000E+00  0.18954356988E+04  0.18954356988E+04  0.00000000000E+00 0. -1.
          1   -1    0    0  501    0 -0.00000000000E+00 -0.00000000000E+00 -0.24495321210E+04  0.24495321210E+04  0.00000000000E+00 0. -1.
         25    2    1    2    0    0 -0.67664316059E+02 -0.18104756753E+03  0.80560058997E+03  0.83783815856E+03  0.12499515191E+03 0.  0.
          2    1    1    2  501    0  0.39610840521E+03  0.32570443055E+02 -0.23862567690E+04  0.24191287832E+04  0.00000000000E+00 0. -1.
          1    1    1    2  502    0 -0.32844408916E+03  0.14847712448E+03  0.10265597568E+04  0.10880008780E+04  0.00000000000E+00 0. -1.
         22    1    3    3    0    0 -0.11787471828E+02 -0.17292279219E+03  0.62786069475E+03  0.65134498429E+03  0.00000000000E+00 0.  1.
         22    1    3    3    0    0 -0.55876844231E+02 -0.81247753446E+01  0.17773989522E+03  0.18649317426E+03  0.00000000000E+00 0.  1.
</event>
<event>
 7    1  0.9036454E-005  0.6473844E+02  0.7818608E-02  0.1391639E+00
          2   -1    0    0  502    0  0.00000000000E+00  0.00000000000E+00  0.10746609941E+03  0.10746609941E+03  0.00000000000E+00 0. -1.
          1   -1    0    0  501    0 -0.00000000000E+00 -0.00000000000E+00 -0.46930129953E+03  0.46930129953E+03  0.00000000000E+00 0. -1.
         25    2    1    2    0    0  0.71620544903E+02 -0.25031698410E+02 -0.16210704374E+03  0.21830948068E+03  0.12499698936E+03 0.  0.
          2    1    1    2  501    0 -0.25686759522E+02  0.61137241820E+02 -0.26364778508E+03  0.27185975526E+03  0.00000000000E+00 0. -1.
          1    1    1    2  502    0 -0.45933785381E+02 -0.36105543410E+02  0.63919628695E+02  0.86598163011E+02  0.00000000000E+00 0. -1.
         22    1    3    3    0    0  0.32982707557E+02  0.39965976713E+02 -0.12237001745E+03  0.13288927520E+03  0.00000000000E+00 0. -1.
         22    1    3    3    0    0  0.38637837346E+02 -0.64997675122E+02 -0.39737026286E+02  0.85420205479E+02  0.00000000000E+00 0. -1.
</event>
<event>
 7    1  0.9036454E-005  0.2222207E+03  0.7818608E-02  0.1278637E+00
          2   -1    0    0  502    0  0.00000000000E+00  0.00000000000E+00  0.49201650617E+03  0.49201650617E+03  0.00000000000E+00 0. -1.
          1   -1    0    0  501    0 -0.00000000000E+00 -0.00000000000E+00 -0.18890721340E+04  0.18890721340E+04  0.00000000000E+00 0. -1.
         25    2    1    2    0    0 -0.69713382143E+02  0.20417350790E+03 -0.13116084609E+04  0.13350986210E+04  0.12499918433E+03 0.  0.
          2    1    1    2  501    0 -0.43854780198E+02 -0.12915615378E+02 -0.53894394628E+03  0.54087949868E+03  0.00000000000E+00 0. -1.
          1    1    1    2  502    0  0.11356816234E+03 -0.19125789252E+03  0.45349677940E+03  0.50511052045E+03  0.00000000000E+00 0. -1.
         22    1    3    3    0    0 -0.54568293936E+02  0.23059571696E+02 -0.49365114723E+03  0.49719301857E+03  0.00000000000E+00 0.  1.
         22    1    3    3    0    0 -0.15145088208E+02  0.18111393621E+03 -0.81795731370E+03  0.83790560245E+03  0.00000000000E+00 0.  1.
</event>
<event>
 7    1  0.9036454E-005  0.2628579E+03  0.7818608E-02  0.1123644E+00
          2   -1    0    0  502    0  0.00000000000E+00  0.00000000000E+00  0.72429796463E+03  0.72429796463E+03  0.00000000000E+00 0. -1.
          1   -1    0    0  501    0 -0.00000000000E+00 -0.00000000000E+00 -0.17203933470E+04  0.17203933470E+04  0.00000000000E+00 0. -1.
         25    2    1    2    0    0  0.32539205144E+03 -0.25989333777E+02 -0.15758713581E+02  0.34990298063E+03  0.12501330405E+03 0.  0.
          2    1    1    2  501    0 -0.18855022236E+03  0.18377551474E+03 -0.15061616217E+04  0.15290021115E+04  0.00000000000E+00 0. -1.
          1    1    1    2  502    0 -0.13684182908E+03 -0.15778618097E+03  0.52582495292E+03  0.56578621953E+03  0.00000000000E+00 0. -1.
         22    1    3    3    0    0  0.15802725089E+03  0.49816172395E+02 -0.28449345971E+01  0.16571770185E+03  0.00000000000E+00 0. -1.
         22    1    3    3    0    0  0.16736480055E+03 -0.75805506172E+02 -0.12913778984E+02  0.18418527878E+03  0.00000000000E+00 0. -1.
</event>
<event>
 7    1  0.9036454E-005  0.1053002E+03  0.7818608E-02  0.1442840E+00
          2   -1    0    0  502    0  0.00000000000E+00  0.00000000000E+00  0.19512764002E+03  0.19512764002E+03  0.00000000000E+00 0. -1.
          1   -1    0    0  501    0 -0.00000000000E+00 -0.00000000000E+00 -0.64013448899E+03  0.64013448899E+03  0.00000000000E+00 0. -1.
         25    2    1    2    0    0 -0.12688715674E+02  0.11295374381E+03  0.12479739782E+03  0.21004532534E+03  0.12500038579E+03 0.  0.
          2    1    1    2  501    0 -0.10029342191E+02 -0.10465329298E+03 -0.58648635538E+03  0.59583482987E+03  0.00000000000E+00 0. -1.
          1    1    1    2  502    0  0.22718057865E+02 -0.83004508377E+01  0.16682108594E+02  0.29381973801E+02  0.00000000000E+00 0. -1.
         22    1    3    3    0    0 -0.10891177587E+02 -0.24945586034E+02  0.56627066943E+01  0.27802270751E+02  0.00000000000E+00 0.  1.
         22    1    3    3    0    0 -0.17975380870E+01  0.13789932985E+03  0.11913469112E+03  0.18224305459E+03  0.00000000000E+00 0.  1.
</event>
<event>
 7    1  0.9036454E-005  0.1570941E+03  0.7818608E-02  0.1226270E+00
          2   -1    0    0  502    0  0.00000000000E+00  0.00000000000E+00  0.75504034575E+03  0.75504034575E+03  0.00000000000E+00 0. -1.
          1   -1    0    0  501    0 -0.00000000000E+00 -0.00000000000E+00 -0.14164788531E+03  0.14164788531E+03  0.00000000000E+00 0. -1.
         25    2    1    2    0    0 -0.23772974433E+03  0.32102505291E+02  0.25406437148E+03  0.37110481693E+03  0.12499631237E+03 0.  0.
          2    1    1    2  501    0  0.13070752987E+03 -0.52295364388E+02 -0.94125636549E+01  0.14109521557E+03  0.00000000000E+00 0. -1.
          1    1    1    2  502    0  0.10702221446E+03  0.20192859097E+02  0.36874065261E+03  0.38448819857E+03  0.00000000000E+00 0. -1.
         22    1    3    3    0    0 -0.48107746705E+02  0.90754052723E+01 -0.50249419590E+01  0.49213497291E+02  0.00000000000E+00 0.  1.
         22    1    3    3    0    0 -0.18962199763E+03  0.23027100019E+02  0.25908931344E+03  0.32189131964E+03  0.00000000000E+00 0.  1.
</event>
<event>
 7    1  0.9036454E-005  0.2829745E+03  0.7818608E-02  0.1158257E+00
          2   -1    0    0  502    0  0.00000000000E+00  0.00000000000E+00  0.11735530844E+04  0.11735530844E+04  0.00000000000E+00 0. -1.
          1   -1    0    0  501    0 -0.00000000000E+00 -0.00000000000E+00 -0.12072329190E+04  0.12072329190E+04  0.00000000000E+00 0. -1.
         25    2    1    2    0    0  0.20967153690E+03  0.20202281959E+03 -0.69435602190E+03  0.76323670794E+03  0.12499845670E+03 0.  0.
          2    1    1    2  501    0 -0.27369425326E+03 -0.91325283344E+02 -0.43086143650E+03  0.51854645800E+03  0.00000000000E+00 0. -1.
          1    1    1    2  502    0  0.64022716355E+02 -0.11069753624E+03  0.10915376238E+04  0.10990028375E+04  0.00000000000E+00 0. -1.
         22    1    3    3    0    0  0.19874796718E+03  0.13506380581E+03 -0.45635388609E+03  0.51575367710E+03  0.00000000000E+00 0. -1.
         22    1    3    3    0    0  0.10923569724E+02  0.66959013775E+02 -0.23800213581E+03  0.24748303084E+03  0.00000000000E+00 0. -1.
</event>
<event>
 7    1  0.9036454E-005  0.1757891E+04  0.7818608E-02  0.1116802E+00
          2   -1    0    0  502    0  0.00000000000E+00  0.00000000000E+00  0.31231365686E+04  0.31231365686E+04  0.00000000000E+00 0. -1.
          1   -1    0    0  501    0 -0.00000000000E+00 -0.00000000000E+00 -0.16930473352E+04  0.16930473352E+04  0.00000000000E+00 0. -1.
         25    2    1    2    0    0  0.17054426839E+04 -0.37243383252E+03 -0.18521796122E+03  0.17598787708E+04  0.12500354836E+03 0.  0.
          2    1    1    2  501    0  0.22257089897E+02  0.25727892748E+02 -0.38730466989E+03  0.38879584595E+03  0.00000000000E+00 0. -1.
          1    1    1    2  502    0 -0.17276997738E+04  0.34670593977E+03  0.20026118645E+04  0.26675092871E+04  0.00000000000E+00 0. -1.
         22    1    3    3    0    0  0.13594561281E+04 -0.32015583116E+03 -0.10302344256E+03  0.14004408413E+04  0.00000000000E+00 0.  1.
         22    1    3    3    0    0  0.34598655582E+03 -0.52278001359E+02 -0.82194518667E+02  0.35943792946E+03  0.00000000000E+00 0.  1.
</event>
<event>
 7    1  0.9036454E-005  0.1760267E+03  0.7818608E-02  0.1336753E+00
          2   -1    0    0  502    0  0.00000000000E+00  0.00000000000E+00  0.12625127127E+04  0.12625127127E+04  0.00000000000E+00 0. -1.
          1   -1    0    0  501    0 -0.00000000000E+00 -0.00000000000E+00 -0.13033133525E+03  0.13033133525E+03  0.00000000000E+00 0. -1.
         25    2    1    2    0    0  0.51499597995E+02  0.13716344452E+03  0.11098820077E+04  0.11264670704E+04  0.12499588191E+03 0.  0.
          2    1    1    2  501    0 -0.75928572660E+02 -0.16079227567E+03 -0.51501627669E+02  0.18512623183E+03  0.00000000000E+00 0. -1.
          1    1    1    2  502    0  0.24428974665E+02  0.23628831151E+02  0.73800997375E+02  0.81250745709E+02  0.00000000000E+00 0. -1.
         22    1    3    3    0    0  0.43849014343E+02 -0.88461819642E+01  0.32747026227E+03  0.33051136692E+03  0.00000000000E+00 0.  1.
         22    1    3    3    0    0  0.76505836521E+01  0.14600962648E+03  0.78241174548E+03  0.79595570349E+03  0.00000000000E+00 0.  1.
</event>
<event>
 7    1  0.9036454E-005  0.4042645E+03  0.7818608E-02  0.1208403E+00
          2   -1    0    0  502    0  0.00000000000E+00  0.00000000000E+00  0.41393910137E+04  0.41393910137E+04  0.00000000000E+00 0. -1.
          1   -1    0    0  501    0 -0.00000000000E+00 -0.00000000000E+00 -0.56863269325E+02  0.56863269325E+02  0.00000000000E+00 0. -1.
         25    2    1    2    0    0 -0.36667298305E+03 -0.14579129770E+03  0.12153332599E+04  0.12838863484E+04  0.12500017651E+03 0.  0.
          2    1    1    2  501    0 -0.29293328073E+02  0.41867015582E+02  0.77711923271E+02  0.93005855094E+02  0.00000000000E+00 0. -1.
          1    1    1    2  502    0  0.39596631113E+03  0.10392428211E+03  0.27894825612E+04  0.28193620794E+04  0.00000000000E+00 0. -1.
         22    1    3    3    0    0 -0.92675710921E+02 -0.78105836089E+02  0.50951378798E+03  0.52373047378E+03  0.00000000000E+00 0.  1.
         22    1    3    3    0    0 -0.27399727213E+03 -0.67685461608E+02  0.70581947192E+03  0.76015587467E+03  0.00000000000E+00 0.  1.
</event>
<event>
 7    1  0.9036454E-005  0.2469397E+03  0.7818608E-02  0.1129934E+00
          2   -1    0    0  502    0  0.00000000000E+00  0.00000000000E+00  0.34057124190E+04  0.34057124190E+04  0.00000000000E+00 0. -1.
          1   -1    0    0  501    0 -0.00000000000E+00 -0.00000000000E+00 -0.30891368171E+03  0.30891368171E+03  0.00000000000E+00 0. -1.
         25    2    1    2    0    0  0.83082946934E+02  0.57176028632E+02  0.66399515063E+02  0.17379635155E+03  0.12499760754E+03 0.  0.
          2    1    1    2  501    0 -0.53685794227E+02 -0.30235966754E+03 -0.15630013919E+03  0.34457693853E+03  0.00000000000E+00 0. -1.
          1    1    1    2  502    0 -0.29397152706E+02  0.24518363891E+03  0.31866993614E+04  0.31962528106E+04  0.00000000000E+00 0. -1.
         22    1    3    3    0    0  0.78734434793E+00  0.21188668520E+02 -0.33379595957E+02  0.39544620507E+02  0.00000000000E+00 0. -1.
         22    1    3    3    0    0  0.82295602586E+02  0.35987360112E+02  0.99779111020E+02  0.13425173105E+03  0.00000000000E+00 0. -1.
</event>
<event>
 7    1  0.9036454E-005  0.6396761E+03  0.7818608E-02  0.1212120E+00
          2   -1    0    0  502    0  0.00000000000E+00  0.00000000000E+00  0.20167933809E+04  0.20167933809E+04  0.00000000000E+00 0. -1.
          1   -1    0    0  501    0 -0.00000000000E+00 -0.00000000000E+00 -0.49721267903E+03  0.49721267903E+03  0.00000000000E+00 0. -1.
         25    2    1    2    0    0 -0.42959841513E+03  0.47913568914E+03  0.11464562778E+04  0.13206483297E+04  0.12499682767E+03 0.  0.
          2    1    1    2  501    0 -0.15376331412E+02 -0.26960239883E+02 -0.28065928841E+03  0.28237018659E+03  0.00000000000E+00 0. -1.
          1    1    1    2  502    0  0.44497474655E+03 -0.45217544926E+03  0.65378371248E+03  0.91098754365E+03  0.00000000000E+00 0. -1.
         22    1    3    3    0    0 -0.13560738928E+03  0.11799782844E+03  0.43109799204E+03  0.46707422353E+03  0.00000000000E+00 0. -1.
         22    1    3    3    0    0 -0.29399102586E+03  0.36113786070E+03  0.71535828576E+03  0.85357410616E+03  0.00000000000E+00 0. -1.
</event>
<event>
 7    1  0.9036454E-005  0.2739610E+03  0.7818608E-02  0.1211017E+00
          2   -1    0    0  502    0  0.00000000000E+00  0.00000000000E+00  0.39167423670E+03  0.39167423670E+03  0.00000000000E+00 0. -1.
          1   -1    0    0  501    0 -0.00000000000E+00 -0.00000000000E+00 -0.36962005608E+03  0.36962005608E+03  0.00000000000E+00 0. -1.
         25    2    1    2    0    0 -0.23065459429E+03 -0.19658963024E+03  0.10161599309E+03  0.34321797926E+03  0.12499498650E+03 0.  0.
          2    1    1    2  501    0  0.23555848604E+03  0.12342946031E+03 -0.15910084890E+03  0.30989629256E+03  0.00000000000E+00 0. -1.
          1    1    1    2  502    0 -0.49038917535E+01  0.73160169930E+02  0.79539036428E+02  0.10818002096E+03  0.00000000000E+00 0. -1.
         22    1    3    3    0    0 -0.56687886889E+02 -0.12455149351E+03  0.64579892595E+02  0.15131805438E+03  0.00000000000E+00 0. -1.
         22    1    3    3    0    0 -0.17396670740E+03 -0.72038136736E+02  0.37036100496E+02  0.19189992488E+03  0.00000000000E+00 0. -1.
</event>
<event>
 7    1  0.9036454E-005  0.2123453E+03  0.7818608E-02  0.1213428E+00
          2   -1    0    0  502    0  0.00000000000E+00  0.00000000000E+00  0.11024324171E+04  0.11024324171E+04  0.00000000000E+00 0. -1.
          1   -1    0    0  501    0 -0.00000000000E+00 -0.00000000000E+00 -0.23622718427E+03  0.23622718427E+03  0.00000000000E+00 0. -1.
         25    2    1    2    0    0  0.10621552281E+03  0.19101020962E+03  0.42382040507E+03  0.49296547752E+03  0.12499835524E+03 0.  0.
          2    1    1    2  501    0 -0.88968572357E+02  0.24216856193E+02 -0.17162569720E+03  0.19482618646E+03  0.00000000000E+00 0. -1.
          1    1    1    2  502    0 -0.17246950455E+02 -0.21522706581E+03  0.61401052498E+03  0.65086793740E+03  0.00000000000E+00 0. -1.
         22    1    3    3    0    0 -0.59092489531E+00  0.12330501735E+03  0.24037315365E+03  0.27015501012E+03  0.00000000000E+00 0. -1.
         22    1    3    3    0    0  0.10680644771E+03  0.67705192264E+02  0.18344725142E+03  0.22281046741E+03  0.00000000000E+00 0. -1.
</event>
<event>
 7    1  0.9036454E-005  0.2572795E+03  0.7818608E-02  0.1228415E+00
          2   -1    0    0  502    0  0.00000000000E+00  0.00000000000E+00  0.97721618496E+03  0.97721618496E+03  0.00000000000E+00 0. -1.
          1   -1    0    0  501    0 -0.00000000000E+00 -0.00000000000E+00 -0.18580027231E+03  0.18580027231E+03  0.00000000000E+00 0. -1.
         25    2    1    2    0    0 -0.18615688464E+00 -0.27666697861E+03  0.24144910811E+03  0.38790502534E+03  0.12501194009E+03 0.  0.
          2    1    1    2  501    0  0.57357558965E+02  0.30659594678E+02 -0.76049596167E+02  0.10006718440E+03  0.00000000000E+00 0. -1.
          1    1    1    2  502    0 -0.57171402080E+02  0.24600738394E+03  0.62601640072E+03  0.67504424754E+03  0.00000000000E+00 0. -1.
         22    1    3    3    0    0 -0.13732601161E+02 -0.21002345932E+03  0.24090522558E+03  0.31989649187E+03  0.00000000000E+00 0. -1.
         22    1    3    3    0    0  0.13546444276E+02 -0.66643519290E+02  0.54388252892E+00  0.68008533465E+02  0.00000000000E+00 0. -1.
</event>
<event>
 7    1  0.9036454E-005  0.2662953E+03  0.7818608E-02  0.1132622E+00
          2   -1    0    0  502    0  0.00000000000E+00  0.00000000000E+00  0.27656403683E+03  0.27656403683E+03  0.00000000000E+00 0. -1.
          1   -1    0    0  501    0 -0.00000000000E+00 -0.00000000000E+00 -0.18974301886E+04  0.18974301886E+04  0.00000000000E+00 0. -1.
         25    2    1    2    0    0  0.11372061627E+01 -0.11771158618E+03 -0.54465684882E+02  0.18013801869E+03  0.12500353671E+03 0.  0.
          2    1    1    2  501    0  0.67041307549E+02  0.28923016463E+03 -0.17250850312E+04  0.17504476542E+04  0.00000000000E+00 0. -1.
          1    1    1    2  502    0 -0.68178513711E+02 -0.17151857845E+03  0.15868456435E+03  0.24340855254E+03  0.00000000000E+00 0. -1.
         22    1    3    3    0    0  0.56040293321E+02 -0.49939456542E+02  0.39431807827E+01  0.75166564840E+02  0.00000000000E+00 0.  1.
         22    1    3    3    0    0 -0.54903087158E+02 -0.67772129640E+02 -0.58408865664E+02  0.10497145385E+03  0.00000000000E+00 0.  1.
</event>
<event>
 7    1  0.9036454E-005  0.1479289E+03  0.7818608E-02  0.1240095E+00
          2   -1    0    0  502    0  0.00000000000E+00  0.00000000000E+00  0.16952935854E+04  0.16952935854E+04  0.00000000000E+00 0. -1.
          1   -1    0    0  501    0 -0.00000000000E+00 -0.00000000000E+00 -0.29224353159E+03  0.29224353159E+03  0.00000000000E+00 0. -1.
         25    2    1    2    0    0 -0.12054489493E+01 -0.93615032569E+02  0.20324602151E+03  0.25631947226E+03  0.12500199668E+03 0.  0.
          2    1    1    2  501    0  0.93421663401E+02 -0.36638281499E+02 -0.25169992942E+03  0.27096646533E+03  0.00000000000E+00 0. -1.
          1    1    1    2  502    0 -0.92216214452E+02  0.13025331407E+03  0.14515039617E+04  0.14602511794E+04  0.00000000000E+00 0. -1.
         22    1    3    3    0    0  0.74835212126E+01  0.13988617707E+02  0.11720008366E+03  0.11826894827E+03  0.00000000000E+00 0.  1.
         22    1    3    3    0    0 -0.86889701619E+01 -0.10760365028E+03  0.86045937850E+02  0.13805052400E+03  0.00000000000E+00 0.  1.
</event>
<event>
 7    1  0.9036454E-005  0.8660840E+02  0.7818608E-02  0.1313300E+00
          2   -1    0    0  502    0  0.00000000000E+00  0.00000000000E+00  0.26043760284E+02  0.26043760284E+02  0.00000000000E+00 0. -1.
          1   -1    0    0  501    0 -0.00000000000E+00 -0.00000000000E+00 -0.12889560778E+04  0.12889560778E+04  0.00000000000E+00 0. -1.
         25    2    1    2    0    0 -0.34406920830E+02 -0.62241812136E+02 -0.65998285061E+03  0.67547019463E+03  0.12499896544E+03 0.  0.
          2    1    1    2  501    0  0.84306122693E+02 -0.19836640458E+02 -0.45486094669E+03  0.46303293128E+03  0.00000000000E+00 0. -1.
          1    1    1    2  502    0 -0.49899201862E+02  0.82078452594E+02 -0.14806852021E+03  0.17649671216E+03  0.00000000000E+00 0. -1.
         22    1    3    3    0    0 -0.15605604517E+02 -0.76501966113E+01 -0.55804979206E+03  0.55832036575E+03  0.00000000000E+00 0.  1.
         22    1    3    3    0    0 -0.18801316313E+02 -0.54591615524E+02 -0.10193305855E+03  0.11714982888E+03  0.00000000000E+00 0.  1.
</event>
<event>
 7    1  0.1009676E-004  0.1773751E+03  0.7818608E-02  0.1211535E+00
          2   -1    0    0  502    0  0.00000000000E+00  0.00000000000E+00  0.20722508172E+04  0.20722508172E+04  0.00000000000E+00 0. -1.
          1   -1    0    0  501    0 -0.00000000000E+00 -0.00000000000E+00 -0.94239753924E+03  0.94239753924E+03  0.00000000000E+00 0. -1.
         25    2    1    2    0    0  0.81490356403E+02  0.14518570797E+03  0.18130098820E+03  0.27608381112E+03  0.12503061407E+03 0.  0.
          2    1    1    2  501    0 -0.16503564204E+03 -0.69652095979E+02 -0.88429704768E+03  0.90225797095E+03  0.00000000000E+00 0. -1.
          1    1    1    2  502    0  0.83545285638E+02 -0.75533611995E+02  0.18328493374E+04  0.18363065743E+04  0.00000000000E+00 0. -1.
         22    1    3    3    0    0  0.84556991785E+02  0.12460483050E+03  0.19845273819E+03  0.24911791974E+03  0.00000000000E+00 0.  1.
         22    1    3    3    0    0 -0.30666353817E+01  0.20580877478E+02 -0.17151749988E+02  0.26965891381E+02  0.00000000000E+00 0.  1.
</event>
<event>
 7    1  0.9036454E-005  0.7703460E+03  0.7818608E-02  0.1176528E+00
          2   -1    0    0  502    0  0.00000000000E+00  0.00000000000E+00  0.68935081587E+03  0.68935081587E+03  0.00000000000E+00 0. -1.
          1   -1    0    0  501    0 -0.00000000000E+00 -0.00000000000E+00 -0.14380222875E+04  0.14380222875E+04  0.00000000000E+00 0. -1.
         25    2    1    2    0    0 -0.10892528307E+03 -0.74318255181E+03 -0.83039194716E+02  0.76596774935E+03  0.12500425023E+03 0.  0.
          2    1    1    2  501    0  0.13910880091E+03  0.76639802440E+03 -0.86176062314E+03  0.11616146357E+04  0.00000000000E+00 0. -1.
          1    1    1    2  502    0 -0.30183517841E+02 -0.23215472590E+02  0.19612834624E+03  0.19979071830E+03  0.00000000000E+00 0. -1.
         22    1    3    3    0    0 -0.71669222887E+02 -0.44051813813E+03 -0.11049774932E+03  0.45978523262E+03  0.00000000000E+00 0.  1.
         22    1    3    3    0    0 -0.37256060185E+02 -0.30266441368E+03  0.27458554607E+02  0.30618251673E+03  0.00000000000E+00 0.  1.
</event>
<event>
 7    1  0.9036454E-005  0.1408462E+03  0.7818608E-02  0.1276224E+00
          2   -1    0    0  502    0  0.00000000000E+00  0.00000000000E+00  0.40772018826E+03  0.40772018826E+03  0.00000000000E+00 0. -1.
          1   -1    0    0  501    0 -0.00000000000E+00 -0.00000000000E+00 -0.80346612836E+03  0.80346612836E+03  0.00000000000E+00 0. -1.
         25    2    1    2    0    0 -0.84290924523E+02 -0.46479235211E+02  0.74696404321E+02  0.17455627564E+03  0.12500024514E+03 0.  0.
          2    1    1    2  501    0  0.14388304623E+03  0.29237036926E+01 -0.74168780520E+03  0.75552080013E+03  0.00000000000E+00 0. -1.
          1    1    1    2  502    0 -0.59592121712E+02  0.43555531519E+02  0.27124546078E+03  0.28110924085E+03  0.00000000000E+00 0. -1.
         22    1    3    3    0    0 -0.17697253766E+02 -0.47881925085E+01  0.92247950436E+02  0.94052134149E+02  0.00000000000E+00 0.  1.
         22    1    3    3    0    0 -0.66593670757E+02 -0.41691042703E+02 -0.17551546115E+02  0.80504141493E+02  0.00000000000E+00 0.  1.
</event>
<event>
 7    1  0.9036454E-005  0.3030378E+03  0.7818608E-02  0.1090697E+00
          2   -1    0    0  502    0  0.00000000000E+00  0.00000000000E+00  0.19990223935E+04  0.19990223935E+04  0.00000000000E+00 0. -1.
          1   -1    0    0  501    0 -0.00000000000E+00 -0.00000000000E+00 -0.44125463786E+03  0.44125463786E+03  0.00000000000E+00 0. -1.
         25    2    1    2    0    0  0.18596451478E+03 -0.43958819777E+03 -0.20727808573E+03  0.53517236635E+03  0.12499869000E+03 0.  0.
          2    1    1    2  501    0  0.59868006592E+02  0.26968443691E+03  0.29166401361E+03  0.40172350013E+03  0.00000000000E+00 0. -1.
          1    1    1    2  502    0 -0.24583252138E+03  0.16990376086E+03  0.14733818278E+04  0.15033811649E+04  0.00000000000E+00 0. -1.
         22    1    3    3    0    0  0.12204925047E+03 -0.36226961558E+03 -0.20727918387E+03  0.43485624519E+03  0.00000000000E+00 0.  1.
         22    1    3    3    0    0  0.63915264311E+02 -0.77318582191E+02  0.10981363091E-02  0.10031612116E+03  0.00000000000E+00 0.  1.
</event>
<event>
 7    1  0.9036454E-005  0.6975504E+02  0.7818608E-02  0.1363323E+00
          2   -1    0    0  502    0  0.00000000000E+00  0.00000000000E+00  0.11943602563E+04  0.11943602563E+04  0.00000000000E+00 0. -1.
          1   -1    0    0  501    0 -0.00000000000E+00 -0.00000000000E+00 -0.56842452582E+02  0.56842452582E+02  0.00000000000E+00 0. -1.
         25    2    1    2    0    0  0.16432448337E+02  0.17993905484E+02  0.32167661962E+03  0.34597014392E+03  0.12500274749E+03 0.  0.
          2    1    1    2  501    0 -0.68282036870E+02  0.28668564416E+02 -0.11510595061E+02  0.74945426434E+02  0.00000000000E+00 0. -1.
          1    1    1    2  502    0  0.51849588532E+02 -0.46662469900E+02  0.82735177915E+03  0.83028713852E+03  0.00000000000E+00 0. -1.
         22    1    3    3    0    0 -0.12783568563E+02  0.46225716975E+02  0.29135183001E+03  0.29527296759E+03  0.00000000000E+00 0.  1.
         22    1    3    3    0    0  0.29216016900E+02 -0.28231811491E+02  0.30324789610E+02  0.50697176336E+02  0.00000000000E+00 0.  1.
</event>
<event>
 7    1  0.9036454E-005  0.3727016E+02  0.7818608E-02  0.1597976E+00
          2   -1    0    0  502    0  0.00000000000E+00  0.00000000000E+00  0.12861100205E+03  0.12861100205E+03  0.00000000000E+00 0. -1.
          1   -1    0    0  501    0 -0.00000000000E+00 -0.00000000000E+00 -0.37919224167E+03  0.37919224167E+03  0.00000000000E+00 0. -1.
         25    2    1    2    0    0  0.52007154395E+01  0.13949811813E+02 -0.80276746982E+02  0.14930471113E+03  0.12500358383E+03 0.  0.
          2    1    1    2  501    0 -0.22369707959E+02 -0.30954049558E+02 -0.26143954942E+03  0.26421429753E+03  0.00000000000E+00 0. -1.
          1    1    1    2  502    0  0.17168992519E+02  0.17004237745E+02  0.91135056784E+02  0.94284235057E+02  0.00000000000E+00 0. -1.
         22    1    3    3    0    0 -0.45641001119E+02 -0.28877673682E+02 -0.57860520495E+02  0.79150873984E+02  0.00000000000E+00 0. -1.
         22    1    3    3    0    0  0.50841716559E+02  0.42827485495E+02 -0.22416226487E+02  0.70153837147E+02  0.00000000000E+00 0. -1.
</event>
<event>
 7    1  0.9036454E-005  0.3856991E+03  0.7818608E-02  0.1194212E+00
          2   -1    0    0  502    0  0.00000000000E+00  0.00000000000E+00  0.92444151387E+02  0.92444151387E+02  0.00000000000E+00 0. -1.
          1   -1    0    0  501    0 -0.00000000000E+00 -0.00000000000E+00 -0.21137238821E+04  0.21137238821E+04  0.00000000000E+00 0. -1.
         25    2    1    2    0    0 -0.38487947146E+03 -0.90249717558E+02 -0.12473332657E+04  0.13144360578E+04  0.12499862039E+03 0.  0.
          2    1    1    2  501    0  0.34765992004E+03  0.14040799264E+03 -0.70636346995E+03  0.79970693137E+03  0.00000000000E+00 0. -1.
          1    1    1    2  502    0  0.37219551420E+02 -0.50158275081E+02 -0.67582994987E+02  0.92025044300E+02  0.00000000000E+00 0. -1.
         22    1    3    3    0    0 -0.37839284977E+03 -0.82338574800E+02 -0.12451459223E+04  0.13039743700E+04  0.00000000000E+00 0.  1.
         22    1    3    3    0    0 -0.64866216919E+01 -0.79111427585E+01 -0.21873434211E+01  0.10461687816E+02  0.00000000000E+00 0.  1.
</event>
<event>
 7    1  0.9036454E-005  0.5062791E+02  0.7818608E-02  0.1543702E+00
          2   -1    0    0  502    0  0.00000000000E+00  0.00000000000E+00  0.18761079605E+02  0.18761079605E+02  0.00000000000E+00 0. -1.
          1   -1    0    0  501    0 -0.00000000000E+00 -0.00000000000E+00 -0.31705160501E+04  0.31705160501E+04  0.00000000000E+00 0. -1.
         25    2    1    2    0    0  0.66812841350E+01  0.70235988662E+02 -0.56301741945E+03  0.58102545400E+03  0.12499691969E+03 0.  0.
          2    1    1    2  501    0 -0.16598723914E+02 -0.47316009981E+02 -0.25818620230E+04  0.25823488975E+04  0.00000000000E+00 0. -1.
          1    1    1    2  502    0  0.99174397786E+01 -0.22919978682E+02 -0.68755280446E+01  0.25902778238E+02  0.00000000000E+00 0. -1.
         22    1    3    3    0    0  0.43268528918E+02  0.74022802955E+02 -0.50572462726E+03  0.51294145823E+03  0.00000000000E+00 0. -1.
         22    1    3    3    0    0 -0.36587244783E+02 -0.37868142927E+01 -0.57292792189E+02  0.68083995771E+02  0.00000000000E+00 0. -1.
</event>
<event>
 7    1  0.9036454E-005  0.4856495E+02  0.7818608E-02  0.1579731E+00
          2   -1    0    0  502    0  0.00000000000E+00  0.00000000000E+00  0.33244181394E+03  0.33244181394E+03  0.00000000000E+00 0. -1.
          1   -1    0    0  501    0 -0.00000000000E+00 -0.00000000000E+00 -0.27128044417E+03  0.27128044417E+03  0.00000000000E+00 0. -1.
         25    2    1    2    0    0  0.67482852701E+02  0.23397189120E+00 -0.91524408530E+02  0.16898085714E+03  0.12499529020E+03 0.  0.
          2    1    1    2  501    0 -0.19673560678E+02  0.65301698992E+01 -0.13826547556E+03  0.13981070718E+03  0.00000000000E+00 0. -1.
          1    1    1    2  502    0 -0.47809292023E+02 -0.67641417904E+01  0.29095125385E+03  0.29493069379E+03  0.00000000000E+00 0. -1.
         22    1    3    3    0    0  0.26924392178E+01 -0.33475132807E+02 -0.89856170810E+02  0.95926874118E+02  0.00000000000E+00 0. -1.
         22    1    3    3    0    0  0.64790413483E+02  0.33709104699E+02 -0.16682377193E+01  0.73053983026E+02  0.00000000000E+00 0. -1.
</event>
<event>
 7    1  0.9036454E-005  0.1039715E+03  0.7818608E-02  0.1377728E+00
          2   -1    0    0  502    0  0.00000000000E+00  0.00000000000E+00  0.63163427207E+03  0.63163427207E+03  0.00000000000E+00 0. -1.
          1   -1    0    0  501    0 -0.00000000000E+00 -0.00000000000E+00 -0.63748128673E+03  0.63748128673E+03  0.00000000000E+00 0. -1.
         25    2    1    2    0    0 -0.62776018969E+02  0.12873897356E+03  0.18385825551E+03  0.26446904534E+03  0.12500186379E+03 0.  0.
          2    1    1    2  501    0  0.39482278714E+02 -0.95342922299E+02 -0.59168162415E+03  0.60061324288E+03  0.00000000000E+00 0. -1.
          1    1    1    2  502    0  0.23293740256E+02 -0.33396051264E+02  0.40197635398E+03  0.40403327058E+03  0.00000000000E+00 0. -1.
         22    1    3    3    0    0 -0.80743341747E+02  0.49560874363E+02  0.14796715918E+03  0.17569874131E+03  0.00000000000E+00 0. -1.
         22    1    3    3    0    0  0.17967322777E+02  0.79178099200E+02  0.35891096335E+02  0.88770304026E+02  0.00000000000E+00 0. -1.
</event>
<event>
 7    1  0.9036454E-005  0.2932685E+03  0.7818608E-02  0.1255662E+00
          2   -1    0    0  502    0  0.00000000000E+00  0.00000000000E+00  0.23748894667E+04  0.23748894667E+04  0.00000000000E+00 0. -1.
          1   -1    0    0  501    0 -0.00000000000E+00 -0.00000000000E+00 -0.91141401716E+02  0.91141401716E+02  0.00000000000E+00 0. -1.
         25    2    1    2    0    0  0.16104337712E+03  0.19860470262E+03  0.18660883805E+03  0.34033328963E+03  0.12500036951E+03 0.  0.
          2    1    1    2  501    0  0.29754797707E+02  0.31462732426E+02  0.16553024113E+03  0.17110088324E+03  0.00000000000E+00 0. -1.
          1    1    1    2  502    0 -0.19079817483E+03 -0.23006743505E+03  0.19316089858E+04  0.19545966956E+04  0.00000000000E+00 0. -1.
         22    1    3    3    0    0  0.13938563337E+03  0.21181841847E+03  0.18683034776E+03  0.31496186442E+03  0.00000000000E+00 0. -1.
         22    1    3    3    0    0  0.21657743751E+02 -0.13213715851E+02 -0.22150970792E+00  0.25371425217E+02  0.00000000000E+00 0. -1.
</event>
<event>
 7    1  0.9036454E-005  0.8308384E+02  0.7818608E-02  0.1438942E+00
          2   -1    0    0  502    0  0.00000000000E+00  0.00000000000E+00  0.74006316688E+03  0.74006316688E+03  0.00000000000E+00 0. -1.
          1   -1    0    0  501    0 -0.00000000000E+00 -0.00000000000E+00 -0.24789107001E+02  0.24789107001E+02  0.00000000000E+00 0. -1.
         25    2    1    2    0    0  0.77785677037E+02 -0.33682261847E+02  0.37400576433E+03  0.40334604858E+03  0.12499046699E+03 0.  0.
          2    1    1    2  501    0  0.63023783056E+01  0.30923712423E+02  0.58282264443E+02  0.66278339681E+02  0.00000000000E+00 0. -1.
          1    1    1    2  502    0 -0.84088055343E+02  0.27585494246E+01  0.28298603110E+03  0.29522788561E+03  0.00000000000E+00 0. -1.
         22    1    3    3    0    0 -0.67745106895E+01  0.38371628199E+02  0.78291556409E+02  0.87451950525E+02  0.00000000000E+00 0.  1.
         22    1    3    3    0    0  0.84560187726E+02 -0.72053890046E+02  0.29571420792E+03  0.31589409806E+03  0.00000000000E+00 0.  1.
</event>
<event>
 7    1  0.9036454E-005  0.3237878E+03  0.7818608E-02  0.1140461E+00
          2   -1    0    0  502    0  0.00000000000E+00  0.00000000000E+00  0.47262122219E+03  0.47262122219E+03  0.00000000000E+00 0. -1.
          1   -1    0    0  501    0 -0.00000000000E+00 -0.00000000000E+00 -0.19193004979E+04  0.19193004979E+04  0.00000000000E+00 0. -1.
         25    2    1    2    0    0  0.17592009532E+03  0.32945072194E+03  0.29804399843E+03  0.49390352890E+03  0.12499925092E+03 0.  0.
          2    1    1    2  501    0 -0.24515992354E+03 -0.21004917243E+03 -0.17292512992E+04  0.17591287897E+04  0.00000000000E+00 0. -1.
          1    1    1    2  502    0  0.69239828217E+02 -0.11940154951E+03 -0.15471974928E+02  0.13888940149E+03  0.00000000000E+00 0. -1.
         22    1    3    3    0    0  0.11544310319E+03  0.88806473765E+02  0.10594720942E+03  0.18010694334E+03  0.00000000000E+00 0. -1.
         22    1    3    3    0    0  0.60476992134E+02  0.24064424818E+03  0.19209678902E+03  0.31379658556E+03  0.00000000000E+00 0. -1.
</event>
<event>
 7    1  0.9036454E-005  0.3276876E+02  0.7818608E-02  0.1576326E+00
          2   -1    0    0  502    0  0.00000000000E+00  0.00000000000E+00  0.12102087358E+04  0.12102087358E+04  0.00000000000E+00 0. -1.
          1   -1    0    0  501    0 -0.00000000000E+00 -0.00000000000E+00 -0.42656916486E+02  0.42656916486E+02  0.00000000000E+00 0. -1.
         25    2    1    2    0    0  0.38882319314E+02  0.87567266701E+01  0.70737235771E+03  0.71943677263E+03  0.12500040933E+03 0.  0.
          2    1    1    2  501    0 -0.12313985558E+02 -0.28858542757E+02 -0.29232990505E+02  0.42883766908E+02  0.00000000000E+00 0. -1.
          1    1    1    2  502    0 -0.26568333756E+02  0.20101816087E+02  0.48941245210E+03  0.49054511275E+03  0.00000000000E+00 0. -1.
         22    1    3    3    0    0  0.21054231952E+02 -0.43800573393E+02  0.55757648292E+03  0.55969036549E+03  0.00000000000E+00 0. -1.
         22    1    3    3    0    0  0.17828087362E+02  0.52557300063E+02  0.14979587479E+03  0.15974640714E+03  0.00000000000E+00 0. -1.
</event>
<event>
 7    1  0.9036454E-005  0.2035077E+03  0.7818608E-02  0.1148571E+00
          2   -1    0    0  502    0  0.00000000000E+00  0.00000000000E+00  0.42489742497E+04  0.42489742497E+04  0.00000000000E+00 0. -1.
          1   -1    0    0  501    0 -0.00000000000E+00 -0.00000000000E+00 -0.87707749408E+03  0.87707749408E+03  0.00000000000E+00 0. -1.
         25    2    1    2    0    0  0.30271601234E+03 -0.97507784524E+02  0.41262351681E+02  0.34419742274E+03  0.12499812791E+03 0.  0.
          2    1    1    2  501    0 -0.18835993236E+03 -0.65715465341E+02 -0.70939511916E+03  0.73691208538E+03  0.00000000000E+00 0. -1.
          1    1    1    2  502    0 -0.11435607998E+03  0.16322324987E+03  0.40400295231E+04  0.40449422357E+04  0.00000000000E+00 0. -1.
         22    1    3    3    0    0  0.14853192180E+03 -0.49707029182E+02 -0.42559786069E+02  0.16230790472E+03  0.00000000000E+00 0. -1.
         22    1    3    3    0    0  0.15418409054E+03 -0.47800755342E+02  0.83822137750E+02  0.18188951802E+03  0.00000000000E+00 0. -1.
</event>
<event>
 7    1  0.9036454E-005  0.9767194E+02  0.7818608E-02  0.1286284E+00
          2   -1    0    0  502    0  0.00000000000E+00  0.00000000000E+00  0.17989455727E+03  0.17989455727E+03  0.00000000000E+00 0. -1.
          1   -1    0    0  501    0 -0.00000000000E+00 -0.00000000000E+00 -0.25640651357E+04  0.25640651357E+04  0.00000000000E+00 0. -1.
         25    2    1    2    0    0 -0.40542660239E+02 -0.65891933133E+01 -0.67318267690E+03  0.68592083859E+03  0.12500142226E+03 0.  0.
          2    1    1    2  501    0  0.85076731162E+02 -0.80339080797E+02 -0.18687928625E+04  0.18724527179E+04  0.00000000000E+00 0. -1.
          1    1    1    2  502    0 -0.44534070923E+02  0.86928274110E+02  0.15780496098E+03  0.18558613640E+03  0.00000000000E+00 0. -1.
         22    1    3    3    0    0  0.17647630573E+01  0.55544799821E+02 -0.32489814492E+03  0.32961666182E+03  0.00000000000E+00 0. -1.
         22    1    3    3    0    0 -0.42307423296E+02 -0.62133993135E+02 -0.34828453198E+03  0.35630417677E+03  0.00000000000E+00 0. -1.
</event>
<event>
 7    1  0.9036454E-005  0.1656501E+03  0.7818608E-02  0.1306290E+00
          2   -1    0    0  502    0  0.00000000000E+00  0.00000000000E+00  0.65720418145E+03  0.65720418145E+03  0.00000000000E+00 0. -1.
          1   -1    0    0  501    0 -0.00000000000E+00 -0.00000000000E+00 -0.30323280636E+03  0.30323280636E+03  0.00000000000E+00 0. -1.
         25    2    1    2    0    0  0.11542567705E+03 -0.95096859136E+02 -0.31611488718E+02  0.19746058664E+03  0.12499959007E+03 0.  0.
          2    1    1    2  501    0 -0.10386375335E+03  0.14104820340E+03 -0.14676625922E+03  0.22852266799E+03  0.00000000000E+00 0. -1.
          1    1    1    2  502    0 -0.11561923699E+02 -0.45951344262E+02  0.53234912303E+03  0.53445373318E+03  0.00000000000E+00 0. -1.
         22    1    3    3    0    0  0.77038803563E+02 -0.80232919360E+02 -0.77687488791E+02  0.13567477480E+03  0.00000000000E+00 0.  1.
         22    1    3    3    0    0  0.38386873483E+02 -0.14863939776E+02  0.46076000073E+02  0.61785811836E+02  0.00000000000E+00 0.  1.
</event>
<event>
 7    1  0.9036454E-005  0.5560201E+02  0.7818608E-02  0.1483186E+00
          2   -1    0    0  502    0  0.00000000000E+00  0.00000000000E+00  0.31475505076E+03  0.31475505076E+03  0.00000000000E+00 0. -1.
          1   -1    0    0  501    0 -0.00000000000E+00 -0.00000000000E+00 -0.49456075267E+03  0.49456075267E+03  0.00000000000E+00 0. -1.
         25    2    1    2    0    0  0.27249186042E+02 -0.14673657519E+02  0.13651567400E+03  0.18766831602E+03  0.12500013291E+03 0.  0.
          2    1    1    2  501    0  0.15110945209E+02 -0.30691944046E+02 -0.46201708453E+03  0.46328190391E+03  0.00000000000E+00 0. -1.
          1    1    1    2  502    0 -0.42360131251E+02  0.45365601565E+02  0.14569570862E+03  0.15836558349E+03  0.00000000000E+00 0. -1.
         22    1    3    3    0    0 -0.18790208405E+02 -0.33113210057E+02 -0.43560741897E+01  0.38321429964E+02  0.00000000000E+00 0. -1.
         22    1    3    3    0    0  0.46039394447E+02  0.18439552538E+02  0.14087174819E+03  0.14934688606E+03  0.00000000000E+00 0. -1.
</event>
<event>
 7    1  0.9036454E-005  0.5220902E+03  0.7818608E-02  0.1096944E+00
          2   -1    0    0  502    0  0.00000000000E+00  0.00000000000E+00  0.15300149053E+04  0.15300149053E+04  0.00000000000E+00 0. -1.
          1   -1    0    0  501    0 -0.00000000000E+00 -0.00000000000E+00 -0.29343846169E+03  0.29343846169E+03  0.00000000000E+00 0. -1.
         25    2    1    2    0    0  0.57844391601E+02 -0.51135174951E+03  0.87035135615E+03  0.10188054610E+04  0.12500599496E+03 0.  0.
          2    1    1    2  501    0  0.14772076053E+03  0.10010138649E+01  0.76534102800E+01  0.14792227624E+03  0.00000000000E+00 0. -1.
          1    1    1    2  502    0 -0.20556515213E+03  0.51035073564E+03  0.35857167717E+03  0.65672562978E+03  0.00000000000E+00 0. -1.
         22    1    3    3    0    0  0.73436576511E+02 -0.19176788807E+03  0.40474872477E+03  0.45386053350E+03  0.00000000000E+00 0. -1.
         22    1    3    3    0    0 -0.15592184910E+02 -0.31958386144E+03  0.46560263137E+03  0.56494492746E+03  0.00000000000E+00 0. -1.
</event>
<event>
 7    1  0.9036454E-005  0.5794803E+03  0.7818608E-02  0.1164855E+00
          2   -1    0    0  502    0  0.00000000000E+00  0.00000000000E+00  0.88760081154E+03  0.88760081154E+03  0.00000000000E+00 0. -1.
          1   -1    0    0  501    0 -0.00000000000E+00 -0.00000000000E+00 -0.70380509223E+03  0.70380509223E+03  0.00000000000E+00 0. -1.
         25    2    1    2    0    0 -0.42310847459E+03  0.41751763513E+03 -0.32189049428E+03  0.68744477991E+03  0.12500031284E+03 0.  0.
          2    1    1    2  501    0  0.36587297400E+03 -0.40916278478E+03  0.18669651340E+03  0.57976961430E+03  0.00000000000E+00 0. -1.
          1    1    1    2  502    0  0.57235500586E+02 -0.83548503468E+01  0.31898970017E+03  0.32419150956E+03  0.00000000000E+00 0. -1.
         22    1    3    3    0    0 -0.12751277004E+03  0.11218708593E+03 -0.31512711300E+02  0.17273824055E+03  0.00000000000E+00 0. -1.
         22    1    3    3    0    0 -0.29559570455E+03  0.30533054919E+03 -0.29037778298E+03  0.51470653936E+03  0.00000000000E+00 0. -1.
</event>
<event>
 7    1  0.9036454E-005  0.1171081E+03  0.7818608E-02  0.1268855E+00
          2   -1    0    0  502    0  0.00000000000E+00  0.00000000000E+00  0.10385869166E+04  0.10385869166E+04  0.00000000000E+00 0. -1.
          1   -1    0    0  501    0 -0.00000000000E+00 -0.00000000000E+00 -0.49246162589E+02  0.49246162589E+02  0.00000000000E+00 0. -1.
         25    2    1    2    0    0 -0.65289830929E+02 -0.75878796945E+02  0.18510392866E+03  0.24476098662E+03  0.12499648923E+03 0.  0.
          2    1    1    2  501    0  0.12313599886E+03 -0.25945248354E+02  0.29826542591E+03  0.32372502904E+03  0.00000000000E+00 0. -1.
          1    1    1    2  502    0 -0.57846167933E+02  0.10182404530E+03  0.50597139941E+03  0.51934706350E+03  0.00000000000E+00 0. -1.
         22    1    3    3    0    0 -0.11327747288E+02 -0.89369314530E+02  0.16025663443E+03  0.18384064055E+03  0.00000000000E+00 0.  1.
         22    1    3    3    0    0 -0.53962083641E+02  0.13490517585E+02  0.24847294226E+02  0.60920346075E+02  0.00000000000E+00 0.  1.
</event>
<event>
 7    1  0.9036454E-005  0.1177838E+03  0.7818608E-02  0.1269955E+00
          2   -1    0    0  502    0  0.00000000000E+00  0.00000000000E+00  0.30314645596E+03  0.30314645596E+03  0.00000000000E+00 0. -1.
          1   -1    0    0  501    0 -0.00000000000E+00 -0.00000000000E+00 -0.10257460947E+04  0.10257460947E+04  0.00000000000E+00 0. -1.
         25    2    1    2    0    0  0.58292047646E+02 -0.13928358943E+03  0.33552887689E+02  0.19886798011E+03  0.12499918454E+03 0.  0.
          2    1    1    2  501    0  0.43375671043E+02  0.83114803513E+02 -0.92243763006E+03  0.92718967895E+03  0.00000000000E+00 0. -1.
          1    1    1    2  502    0 -0.10166771869E+03  0.56168785919E+02  0.16628510367E+03  0.20283489156E+03  0.00000000000E+00 0. -1.
         22    1    3    3    0    0  0.55337316724E+01 -0.44421746979E+02  0.71094015167E+02  0.84013527384E+02  0.00000000000E+00 0. -1.
         22    1    3    3    0    0  0.52758315973E+02 -0.94861842453E+02 -0.37541127478E+02  0.11485445272E+03  0.00000000000E+00 0. -1.
</event>
<event>
 7    1  0.9036454E-005  0.6109639E+02  0.7818608E-02  0.1538210E+00
          2   -1    0    0  502    0  0.00000000000E+00  0.00000000000E+00  0.18135774112E+04  0.18135774112E+04  0.00000000000E+00 0. -1.
          1   -1    0    0  501    0 -0.00000000000E+00 -0.00000000000E+00 -0.40358402242E+02  0.40358402242E+02  0.00000000000E+00 0. -1.
         25    2    1    2    0    0  0.60840786190E+01 -0.40211205693E+02  0.31726147065E+03  0.34341513874E+03  0.12500063873E+03 0.  0.
          2    1    1    2  501    0  0.30617824127E+01 -0.21227018326E+02 -0.22311177411E+02  0.30947527463E+02  0.00000000000E+00 0. -1.
          1    1    1    2  502    0 -0.91458610317E+01  0.61438224019E+02  0.14782687157E+04  0.14795731473E+04  0.00000000000E+00 0. -1.
         22    1    3    3    0    0  0.61420953917E+02 -0.35862540532E+02  0.13104863332E+03  0.14910533086E+03  0.00000000000E+00 0. -1.
         22    1    3    3    0    0 -0.55336875298E+02 -0.43486651612E+01  0.18621283732E+03  0.19430980788E+03  0.00000000000E+00 0. -1.
</event>
<event>
 7    1  0.9036454E-005  0.2258183E+03  0.7818608E-02  0.1176660E+00
          2   -1    0    0  502    0  0.00000000000E+00  0.00000000000E+00  0.13998172119E+04  0.13998172119E+04  0.00000000000E+00 0. -1.
          1   -1    0    0  501    0 -0.00000000000E+00 -0.00000000000E+00 -0.18267614787E+03  0.18267614787E+03  0.00000000000E+00 0. -1.
         25    2    1    2    0    0  0.12691921907E+03 -0.26270969722E+03  0.10155051095E+04  0.10639553525E+04  0.12500196583E+03 0.  0.
          2    1    1    2  501    0 -0.17190723864E+03  0.14105455630E+03 -0.56685240001E+02  0.22948137830E+03  0.00000000000E+00 0. -1.
          1    1    1    2  502    0  0.44988019572E+02  0.12165514092E+03  0.25832119454E+03  0.28905662899E+03  0.00000000000E+00 0. -1.
         22    1    3    3    0    0  0.10942928270E+03 -0.86313265055E+02  0.41033667627E+03  0.43336005299E+03  0.00000000000E+00 0. -1.
         22    1    3    3    0    0  0.17489936367E+02 -0.17639643217E+03  0.60516843322E+03  0.63059529947E+03  0.00000000000E+00 0. -1.
</event>
<event>
 7    1  0.9036454E-005  0.6973482E+03  0.7818608E-02  0.1035400E+00
          2   -1    0    0  502    0  0.00000000000E+00  0.00000000000E+00  0.93558489049E+03  0.93558489049E+03  0.00000000000E+00 0. -1.
          1   -1    0    0  501    0 -0.00000000000E+00 -0.00000000000E+00 -0.11444048278E+04  0.11444048278E+04  0.00000000000E+00 0. -1.
         25    2    1    2    0    0  0.71946496566E+03  0.39327691893E+03 -0.40806193679E+02  0.83041322820E+03  0.12499764935E+03 0.  0.
          2    1    1    2  501    0 -0.63880037059E+03 -0.14693642481E+03 -0.50284081404E+03  0.82613867520E+03  0.00000000000E+00 0. -1.
          1    1    1    2  502    0 -0.80664595078E+02 -0.24634049413E+03  0.33482707045E+03  0.42343781486E+03  0.00000000000E+00 0. -1.
         22    1    3    3    0    0  0.19080224980E+03  0.61572581831E+02  0.28345343341E+02  0.20248491265E+03  0.00000000000E+00 0.  1.
         22    1    3    3    0    0  0.52866271586E+03  0.33170433710E+03 -0.69151537019E+02  0.62792831555E+03  0.00000000000E+00 0.  1.
</event>
<event>
 7    1  0.9036454E-005  0.3960983E+03  0.7818608E-02  0.1133868E+00
          2   -1    0    0  502    0  0.00000000000E+00  0.00000000000E+00  0.48435986098E+03  0.48435986098E+03  0.00000000000E+00 0. -1.
          1   -1    0    0  501    0 -0.00000000000E+00 -0.00000000000E+00 -0.13108716153E+04  0.13108716153E+04  0.00000000000E+00 0. -1.
         25    2    1    2    0    0  0.18392515481E+03  0.37184267829E+03  0.24331349424E+03  0.49691281982E+03  0.12500181620E+03 0.  0.
          2    1    1    2  501    0 -0.12134012457E+03 -0.14588287195E+02 -0.88095854678E+03  0.88939541549E+03  0.00000000000E+00 0. -1.
          1    1    1    2  502    0 -0.62585030233E+02 -0.35725439109E+03 -0.18886670179E+03  0.40892324097E+03  0.00000000000E+00 0. -1.
         22    1    3    3    0    0 -0.13732959441E+02  0.68310124279E+02  0.25189278722E+02  0.74090262629E+02  0.00000000000E+00 0. -1.
         22    1    3    3    0    0  0.19765811425E+03  0.30353255401E+03  0.21812421552E+03  0.42282255719E+03  0.00000000000E+00 0. -1.
</event>
<event>
 7    1  0.9036454E-005  0.4880178E+03  0.7818608E-02  0.1099955E+00
          2   -1    0    0  502    0  0.00000000000E+00  0.00000000000E+00  0.52899738824E+03  0.52899738824E+03  0.00000000000E+00 0. -1.
          1   -1    0    0  501    0 -0.00000000000E+00 -0.00000000000E+00 -0.14756751824E+04  0.14756751824E+04  0.00000000000E+00 0. -1.
         25    2    1    2    0    0  0.58042727213E+03  0.36314980524E+02 -0.30938951635E+03  0.67049349139E+03  0.12500021252E+03 0.  0.
          2    1    1    2  501    0 -0.45834460984E+03  0.54179744042E+02 -0.91092559526E+03  0.10211761191E+04  0.00000000000E+00 0. -1.
          1    1    1    2  502    0 -0.12208266229E+03 -0.90494724565E+02  0.27363731744E+03  0.31300296021E+03  0.00000000000E+00 0. -1.
         22    1    3    3    0    0  0.23657812621E+03 -0.45515400810E+02 -0.11229475037E+03  0.26580250652E+03  0.00000000000E+00 0. -1.
         22    1    3    3    0    0  0.34384914592E+03  0.81830381334E+02 -0.19709476599E+03  0.40469098487E+03  0.00000000000E+00 0. -1.
</event>
<event>
 7    1  0.9036454E-005  0.1060593E+04  0.7818608E-02  0.1102547E+00
          2   -1    0    0  502    0  0.00000000000E+00  0.00000000000E+00  0.24537787930E+04  0.24537787930E+04  0.00000000000E+00 0. -1.
          1   -1    0    0  501    0 -0.00000000000E+00 -0.00000000000E+00 -0.10416860778E+04  0.10416860778E+04  0.00000000000E+00 0. -1.
         25    2    1    2    0    0  0.37318737124E+03 -0.10312162368E+04  0.94847037754E+02  0.11078343949E+04  0.12500137918E+03 0.  0.
          2    1    1    2  501    0 -0.33671926548E+03  0.97427563873E+03 -0.37205355857E+02  0.10314926672E+04  0.00000000000E+00 0. -1.
          1    1    1    2  502    0 -0.36468105758E+02  0.56940598117E+02  0.13544510333E+04  0.13561378086E+04  0.00000000000E+00 0. -1.
         22    1    3    3    0    0  0.25055729080E+03 -0.52908954455E+03  0.21898379424E+02  0.58582782552E+03  0.00000000000E+00 0. -1.
         22    1    3    3    0    0  0.12263008044E+03 -0.50212669230E+03  0.72948658330E+02  0.52200656940E+03  0.00000000000E+00 0. -1.
</event>
<event>
 7    1  0.9036454E-005  0.2825184E+03  0.7818608E-02  0.1203076E+00
          2   -1    0    0  502    0  0.00000000000E+00  0.00000000000E+00  0.19656205642E+04  0.19656205642E+04  0.00000000000E+00 0. -1.
          1   -1    0    0  501    0 -0.00000000000E+00 -0.00000000000E+00 -0.17266185545E+03  0.17266185545E+03  0.00000000000E+00 0. -1.
         25    2    1    2    0    0  0.23670007833E+03 -0.12404082614E+03  0.94036535443E+03  0.98555894060E+03  0.12500548773E+03 0.  0.
          2    1    1    2  501    0 -0.20818923998E+03  0.19602848836E+03 -0.10516395483E+02  0.28614772840E+03  0.00000000000E+00 0. -1.
          1    1    1    2  502    0 -0.28510838345E+02 -0.71987662218E+02  0.86310974975E+03  0.86657575060E+03  0.00000000000E+00 0. -1.
         22    1    3    3    0    0  0.15236414738E+03 -0.89981377115E+02  0.79205514594E+03  0.81158045556E+03  0.00000000000E+00 0.  1.
         22    1    3    3    0    0  0.84335930946E+02 -0.34059449028E+02  0.14831020849E+03  0.17397848504E+03  0.00000000000E+00 0.  1.
</event>
<event>
 7    1  0.9036454E-005  0.1077151E+03  0.7818608E-02  0.1345780E+00
          2   -1    0    0  502    0  0.00000000000E+00  0.00000000000E+00  0.22261139240E+04  0.22261139240E+04  0.00000000000E+00 0. -1.
          1   -1    0    0  501    0 -0.00000000000E+00 -0.00000000000E+00 -0.68927942701E+02  0.68927942701E+02  0.00000000000E+00 0. -1.
         25    2    1    2    0    0 -0.13645047934E+03  0.64673875371E+02  0.30673761843E+03  0.36402454696E+03  0.12499784302E+03 0.  0.
          2    1    1    2  501    0  0.90908148394E+02 -0.40906616619E+02  0.22305355391E+02  0.10215268771E+03  0.00000000000E+00 0. -1.
          1    1    1    2  502    0  0.45542330949E+02 -0.23767258751E+02  0.18281430075E+04  0.18288646321E+04  0.00000000000E+00 0. -1.
         22    1    3    3    0    0  0.23961263798E+02  0.88987855276E+01  0.50753453309E+02  0.56826433721E+02  0.00000000000E+00 0.  1.
         22    1    3    3    0    0 -0.16041174314E+03  0.55775089843E+02  0.25598416512E+03  0.30719811324E+03  0.00000000000E+00 0.  1.
</event>
<event>
 7    1  0.9036454E-005  0.3476026E+03  0.7818608E-02  0.1188022E+00
          2   -1    0    0  502    0  0.00000000000E+00  0.00000000000E+00  0.13275806850E+03  0.13275806850E+03  0.00000000000E+00 0. -1.
          1   -1    0    0  501    0 -0.00000000000E+00 -0.00000000000E+00 -0.20585876752E+04  0.20585876752E+04  0.00000000000E+00 0. -1.
         25    2    1    2    0    0  0.54473105576E+02  0.28339707255E+03 -0.14372625863E+04  0.14712683920E+04  0.12500287764E+03 0.  0.
          2    1    1    2  501    0  0.37182488916E+02  0.64211682934E+02 -0.30985756302E+03  0.31861793275E+03  0.00000000000E+00 0. -1.
          1    1    1    2  502    0 -0.91655594491E+02 -0.34760875548E+03 -0.17870945739E+03  0.40145941893E+03  0.00000000000E+00 0. -1.
         22    1    3    3    0    0 -0.23137665579E+02  0.18444082464E+03 -0.75782980729E+03  0.78029467906E+03  0.00000000000E+00 0.  1.
         22    1    3    3    0    0  0.77610771155E+02  0.98956247910E+02 -0.67943277899E+03  0.69097371293E+03  0.00000000000E+00 0.  1.
</event>
<event>
 7    1  0.9036454E-005  0.4465812E+03  0.7818608E-02  0.1265899E+00
          2   -1    0    0  502    0  0.00000000000E+00  0.00000000000E+00  0.58648195103E+03  0.58648195103E+03  0.00000000000E+00 0. -1.
          1   -1    0    0  501    0 -0.00000000000E+00 -0.00000000000E+00 -0.88509163476E+03  0.88509163476E+03  0.00000000000E+00 0. -1.
         25    2    1    2    0    0 -0.43137149858E+03 -0.70415757734E+02 -0.31080366009E+03  0.55069402414E+03  0.12500097749E+03 0.  0.
          2    1    1    2  501    0  0.45240910665E+03  0.55620433915E+02 -0.33943164371E+03  0.56831459000E+03  0.00000000000E+00 0. -1.
          1    1    1    2  502    0 -0.21037608078E+02  0.14795323819E+02  0.35162562006E+03  0.35256497166E+03  0.00000000000E+00 0. -1.
         22    1    3    3    0    0 -0.40467827497E+03 -0.69451558652E+02 -0.32193496084E+03  0.52175678649E+03  0.00000000000E+00 0. -1.
         22    1    3    3    0    0 -0.26693223604E+02 -0.96419908177E+00  0.11131300754E+02  0.28937237648E+02  0.00000000000E+00 0. -1.
</event>
<event>
 7    1  0.9036454E-005  0.8477030E+02  0.7818608E-02  0.1392372E+00
          2   -1    0    0  502    0  0.00000000000E+00  0.00000000000E+00  0.11402974943E+04  0.11402974943E+04  0.00000000000E+00 0. -1.
          1   -1    0    0  501    0 -0.00000000000E+00 -0.00000000000E+00 -0.72244058891E+03  0.72244058891E+03  0.00000000000E+00 0. -1.
         25    2    1    2    0    0  0.15654712309E+02 -0.53910214370E+02 -0.68066110074E+02  0.15300164779E+03  0.12500051062E+03 0.  0.
          2    1    1    2  501    0  0.43753490652E+02 -0.72965439722E+01 -0.60944260995E+03  0.61105474576E+03  0.00000000000E+00 0. -1.
          1    1    1    2  502    0 -0.59408202961E+02  0.61206758343E+02  0.10953656254E+04  0.10986816897E+04  0.00000000000E+00 0. -1.
         22    1    3    3    0    0 -0.97834916639E+01  0.34980323514E+02  0.29136736498E+01  0.36439391274E+02  0.00000000000E+00 0. -1.
         22    1    3    3    0    0  0.25438203972E+02 -0.88890537885E+02 -0.70979783724E+02  0.11656225652E+03  0.00000000000E+00 0. -1.
</event>
<event>
 7    1  0.9036454E-005  0.3384709E+03  0.7818608E-02  0.1212587E+00
          2   -1    0    0  502    0  0.00000000000E+00  0.00000000000E+00  0.39875637279E+03  0.39875637279E+03  0.00000000000E+00 0. -1.
          1   -1    0    0  501    0 -0.00000000000E+00 -0.00000000000E+00 -0.23382246338E+04  0.23382246338E+04  0.00000000000E+00 0. -1.
         25    2    1    2    0    0  0.28972622743E+03 -0.20042023364E+03 -0.11107694446E+04  0.11719818727E+04  0.12499277522E+03 0.  0.
          2    1    1    2  501    0 -0.23839432044E+03  0.22819778601E+03 -0.11715875218E+04  0.12171784597E+04  0.00000000000E+00 0. -1.
          1    1    1    2  502    0 -0.51331906992E+02 -0.27777552369E+02  0.34288870542E+03  0.34782067420E+03  0.00000000000E+00 0. -1.
         22    1    3    3    0    0  0.52476439626E+02 -0.10634509858E+03 -0.35227760384E+03  0.37170225567E+03  0.00000000000E+00 0.  1.
         22    1    3    3    0    0  0.23724978781E+03 -0.94075135065E+02 -0.75849184079E+03  0.80027961701E+03  0.00000000000E+00 0.  1.
</event>
<event>
 7    1  0.9036454E-005  0.1807675E+03  0.7818608E-02  0.1183604E+00
          2   -1    0    0  502    0  0.00000000000E+00  0.00000000000E+00  0.39645162031E+04  0.39645162031E+04  0.00000000000E+00 0. -1.
          1   -1    0    0  501    0 -0.00000000000E+00 -0.00000000000E+00 -0.17608100002E+04  0.17608100002E+04  0.00000000000E+00 0. -1.
         25    2    1    2    0    0  0.10243060127E+03  0.25579626276E+03  0.36935520419E+03  0.47746409808E+03  0.12499976789E+03 0.  0.
          2    1    1    2  501    0 -0.14171378208E+03 -0.11116572710E+03 -0.17004114554E+04  0.17099238968E+04  0.00000000000E+00 0. -1.
          1    1    1    2  502    0  0.39283180805E+02 -0.14463053565E+03  0.35347624542E+04  0.35379382085E+04  0.00000000000E+00 0. -1.
         22    1    3    3    0    0  0.38861993941E+02  0.23114361397E+03  0.28564815479E+03  0.36950303542E+03  0.00000000000E+00 0.  1.
         22    1    3    3    0    0  0.63568607333E+02  0.24652648793E+02  0.83707049398E+02  0.10796106266E+03  0.00000000000E+00 0.  1.
</event>
<event>
 7    1  0.9036454E-005  0.6699190E+03  0.7818608E-02  0.1206465E+00
          2   -1    0    0  502    0  0.00000000000E+00  0.00000000000E+00  0.18609287106E+04  0.18609287106E+04  0.00000000000E+00 0. -1.
          1   -1    0    0  501    0 -0.00000000000E+00 -0.00000000000E+00 -0.46844647699E+03  0.46844647699E+03  0.00000000000E+00 0. -1.
         25    2    1    2    0    0 -0.56852218493E+03  0.38593671682E+03  0.68437308389E+03  0.97783240013E+03  0.12500024263E+03 0.  0.
          2    1    1    2  501    0  0.18491991602E+02 -0.25478859878E+02 -0.21547169569E+03  0.21775944916E+03  0.00000000000E+00 0. -1.
          1    1    1    2  502    0  0.55003019332E+03 -0.36045785694E+03  0.92358084543E+03  0.11337833383E+04  0.00000000000E+00 0. -1.
         22    1    3    3    0    0 -0.56843461840E+03  0.36144095069E+03  0.65471814943E+03  0.93936858124E+03  0.00000000000E+00 0. -1.
         22    1    3    3    0    0 -0.87566529672E-01  0.24495766130E+02  0.29654934460E+02  0.38463818895E+02  0.00000000000E+00 0. -1.
</event>
<event>
 7    1  0.9036454E-005  0.3205770E+03  0.7818608E-02  0.1148577E+00
          2   -1    0    0  502    0  0.00000000000E+00  0.00000000000E+00  0.17573698836E+04  0.17573698836E+04  0.00000000000E+00 0. -1.
          1   -1    0    0  501    0 -0.00000000000E+00 -0.00000000000E+00 -0.48900423052E+03  0.48900423052E+03  0.00000000000E+00 0. -1.
         25    2    1    2    0    0 -0.23807709493E+03  0.58368107173E+02 -0.42261000531E+02  0.27838482779E+03  0.12499832443E+03 0.  0.
          2    1    1    2  501    0 -0.90273355520E+02 -0.88627959654E+02 -0.29914377309E+03  0.32479407465E+03  0.00000000000E+00 0. -1.
          1    1    1    2  502    0  0.32835045045E+03  0.30259852481E+02  0.16097704267E+04  0.16431952117E+04  0.00000000000E+00 0. -1.
         22    1    3    3    0    0 -0.12820523336E+03  0.13856455326E+01 -0.77349476261E+02  0.14973791555E+03  0.00000000000E+00 0.  1.
         22    1    3    3    0    0 -0.10987186157E+03  0.56982461640E+02  0.35088475729E+02  0.12864691224E+03  0.00000000000E+00 0.  1.
</event>
<event>
 7    1  0.9036454E-005  0.1074750E+03  0.7818608E-02  0.1289292E+00
          2   -1    0    0  502    0  0.00000000000E+00  0.00000000000E+00  0.26849506814E+04  0.26849506814E+04  0.00000000000E+00 0. -1.
          1   -1    0    0  501    0 -0.00000000000E+00 -0.00000000000E+00 -0.54846280389E+02  0.54846280389E+02  0.00000000000E+00 0. -1.
         25    2    1    2    0    0 -0.12461380057E+03  0.68171795823E+02  0.10249246797E+04  0.10422432017E+04  0.12499719750E+03 0.  0.
          2    1    1    2  501    0  0.20540658531E+02 -0.82962296512E+02 -0.34077916273E+01  0.85535222799E+02  0.00000000000E+00 0. -1.
          1    1    1    2  502    0  0.10407314204E+03  0.14790500689E+02  0.16085875130E+04  0.16120185373E+04  0.00000000000E+00 0. -1.
         22    1    3    3    0    0 -0.27193621533E+02  0.75557604480E+02  0.64407487151E+03  0.64906154158E+03  0.00000000000E+00 0. -1.
         22    1    3    3    0    0 -0.97420179036E+02 -0.73858086576E+01  0.38084980818E+03  0.39318166010E+03  0.00000000000E+00 0. -1.
</event>
<event>
 7    1  0.9036454E-005  0.1392614E+03  0.7818608E-02  0.1296064E+00
          2   -1    0    0  502    0  0.00000000000E+00  0.00000000000E+00  0.13797609341E+04  0.13797609341E+04  0.00000000000E+00 0. -1.
          1   -1    0    0  501    0 -0.00000000000E+00 -0.00000000000E+00 -0.29769441894E+02  0.29769441894E+02  0.00000000000E+00 0. -1.
         25    2    1    2    0    0 -0.12272163933E+03 -0.12602739157E+03  0.63514414392E+03  0.67080283199E+03  0.12499940669E+03 0.  0.
          2    1    1    2  501    0  0.68048874744E+02  0.96952686601E+02  0.37426784114E+03  0.39256450388E+03  0.00000000000E+00 0. -1.
          1    1    1    2  502    0  0.54672764586E+02  0.29074704973E+02  0.34057950713E+03  0.34616304011E+03  0.00000000000E+00 0. -1.
         22    1    3    3    0    0 -0.40771501799E+02 -0.10616821018E+03  0.22532981709E+03  0.25240350767E+03  0.00000000000E+00 0.  1.
         22    1    3    3    0    0 -0.81950137531E+02 -0.19859181397E+02  0.40981432683E+03  0.41839932433E+03  0.00000000000E+00 0.  1.
</event>
<event>
 7    1  0.9036454E-005  0.2216350E+03  0.7818608E-02  0.1160499E+00
          2   -1    0    0  502    0  0.00000000000E+00  0.00000000000E+00  0.61698710007E+03  0.61698710007E+03  0.00000000000E+00 0. -1.
          1   -1    0    0  501    0 -0.00000000000E+00 -0.00000000000E+00 -0.90283161281E+03  0.90283161281E+03  0.00000000000E+00 0. -1.
         25    2    1    2    0    0  0.95516708474E+02 -0.83302686280E+02  0.21848272536E+03  0.28181941103E+03  0.12499880006E+03 0.  0.
          2    1    1    2  501    0 -0.13175275543E+03 -0.17822260045E+03 -0.80669247542E+03  0.83658522207E+03  0.00000000000E+00 0. -1.
          1    1    1    2  502    0  0.36236046951E+02  0.26152528673E+03  0.30236523733E+03  0.40141407978E+03  0.00000000000E+00 0. -1.
         22    1    3    3    0    0  0.12599734376E+02 -0.93156385200E+02  0.10508392180E+03  0.14099466668E+03  0.00000000000E+00 0. -1.
         22    1    3    3    0    0  0.82916974098E+02  0.98536989202E+01  0.11339880355E+03  0.14082474436E+03  0.00000000000E+00 0. -1.
</event>
<event>
 7    1  0.9036454E-005  0.4024081E+03  0.7818608E-02  0.1137368E+00
          2   -1    0    0  502    0  0.00000000000E+00  0.00000000000E+00  0.19886241070E+04  0.19886241070E+04  0.00000000000E+00 0. -1.
          1   -1    0    0  501    0 -0.00000000000E+00 -0.00000000000E+00 -0.12528732113E+03  0.12528732113E+03  0.00000000000E+00 0. -1.
         25    2    1    2    0    0 -0.38302855113E+03  0.19520063440E+02  0.11092843400E+04  0.11803515213E+04  0.12500425180E+03 0.  0.
          2    1    1    2  501    0  0.40583828535E+03  0.93488573235E+02  0.47552011189E+03  0.63211091115E+03  0.00000000000E+00 0. -1.
          1    1    1    2  502    0 -0.22809734223E+02 -0.11300863667E+03  0.27853233397E+03  0.30144899570E+03  0.00000000000E+00 0. -1.
         22    1    3    3    0    0 -0.95419460502E+02 -0.30636933613E+01  0.46087059364E+03  0.47065482441E+03  0.00000000000E+00 0. -1.
         22    1    3    3    0    0 -0.28760909063E+03  0.22583756801E+02  0.64841374640E+03  0.70969669691E+03  0.00000000000E+00 0. -1.
</event>
<event>
 7    1  0.9036454E-005  0.2266006E+03  0.7818608E-02  0.1176832E+00
          2   -1    0    0  502    0  0.00000000000E+00  0.00000000000E+00  0.50882356424E+03  0.50882356424E+03  0.00000000000E+00 0. -1.
          1   -1    0    0  501    0 -0.00000000000E+00 -0.00000000000E+00 -0.77621692436E+03  0.77621692436E+03  0.00000000000E+00 0. -1.
         25    2    1    2    0    0  0.11191537609E+03  0.30427807922E+03 -0.60160098738E+02  0.35263836533E+03  0.12499751325E+03 0.  0.
          2    1    1    2  501    0 -0.12237035491E+03 -0.17569450716E+03 -0.53710109566E+03  0.57820467879E+03  0.00000000000E+00 0. -1.
          1    1    1    2  502    0  0.10454978824E+02 -0.12858357206E+03  0.32986783428E+03  0.35419744449E+03  0.00000000000E+00 0. -1.
         22    1    3    3    0    0  0.89300229612E+02  0.28575818089E+03 -0.88225682801E+02  0.31211542746E+03  0.00000000000E+00 0. -1.
         22    1    3    3    0    0  0.22615146476E+02  0.18519898332E+02  0.28065584062E+02  0.40522937864E+02  0.00000000000E+00 0. -1.
</event>
<event>
 7    1  0.9036454E-005  0.1515201E+03  0.7818608E-02  0.1275782E+00
          2   -1    0    0  502    0  0.00000000000E+00  0.00000000000E+00  0.21652965242E+04  0.21652965242E+04  0.00000000000E+00 0. -1.
          1   -1    0    0  501    0 -0.00000000000E+00 -0.00000000000E+00 -0.31768834592E+02  0.31768834592E+02  0.00000000000E+00 0. -1.
         25    2    1    2    0    0 -0.56213700356E+02  0.12120903415E+03  0.48852408528E+03  0.52166311570E+03  0.12500005727E+03 0.  0.
          2    1    1    2  501    0  0.13708240066E+02 -0.17543974824E+03  0.53367240808E+03  0.56193706076E+03  0.00000000000E+00 0. -1.
          1    1    1    2  502    0  0.42505460290E+02  0.54230714089E+02  0.11113311963E+04  0.11134651823E+04  0.00000000000E+00 0. -1.
         22    1    3    3    0    0 -0.88452173967E+02  0.62666724936E+02  0.22434827966E+03  0.24916471677E+03  0.00000000000E+00 0. -1.
         22    1    3    3    0    0  0.32238473611E+02  0.58542309218E+02  0.26417580562E+03  0.27249839894E+03  0.00000000000E+00 0. -1.
</event>
<event>
 7    1  0.9036454E-005  0.1391226E+04  0.7818608E-02  0.1003257E+00
          2   -1    0    0  502    0  0.00000000000E+00  0.00000000000E+00  0.10363982395E+04  0.10363982395E+04  0.00000000000E+00 0. -1.
          1   -1    0    0  501    0 -0.00000000000E+00 -0.00000000000E+00 -0.31043227937E+04  0.31043227937E+04  0.00000000000E+00 0. -1.
         25    2    1    2    0    0 -0.48631476394E+03 -0.13720344534E+04  0.82871156969E+02  0.14633777315E+04  0.12500466167E+03 0.  0.
          2    1    1    2  501    0  0.42258089797E+02  0.20724048493E+03 -0.84902529985E+03  0.87497332790E+03  0.00000000000E+00 0. -1.
          1    1    1    2  502    0  0.44405667415E+03  0.11647939684E+04 -0.13017704113E+04  0.18023699738E+04  0.00000000000E+00 0. -1.
         22    1    3    3    0    0 -0.49474874662E+02 -0.28776765115E+03  0.22739899215E+02  0.29287384193E+03  0.00000000000E+00 0.  1.
         22    1    3    3    0    0 -0.43683988928E+03 -0.10842668022E+04  0.60131257754E+02  0.11705038895E+04  0.00000000000E+00 0.  1.
</event>
<event>
 7    1  0.9036454E-005  0.3380524E+03  0.7818608E-02  0.1270313E+00
          2   -1    0    0  502    0  0.00000000000E+00  0.00000000000E+00  0.14352674319E+04  0.14352674319E+04  0.00000000000E+00 0. -1.
          1   -1    0    0  501    0 -0.00000000000E+00 -0.00000000000E+00 -0.27960069632E+03  0.27960069632E+03  0.00000000000E+00 0. -1.
         25    2    1    2    0    0  0.32797414232E+03 -0.84676392912E+02 -0.76820958987E+02  0.36913738493E+03  0.12499527857E+03 0.  0.
          2    1    1    2  501    0 -0.31662849206E+03  0.11518770026E+03  0.44795261618E+03  0.56052061035E+03  0.00000000000E+00 0. -1.
          1    1    1    2  502    0 -0.11345650255E+02 -0.30511307351E+02  0.78453507840E+03  0.78521013296E+03  0.00000000000E+00 0. -1.
         22    1    3    3    0    0  0.19653193545E+03 -0.76134622546E-01 -0.81481099830E+02  0.21275332448E+03  0.00000000000E+00 0. -1.
         22    1    3    3    0    0  0.13144220686E+03 -0.84600258289E+02  0.46601408439E+01  0.15638406044E+03  0.00000000000E+00 0. -1.
</event>
<event>
 7    1  0.9036454E-005  0.2734466E+03  0.7818608E-02  0.1196456E+00
          2   -1    0    0  502    0  0.00000000000E+00  0.00000000000E+00  0.31554964156E+03  0.31554964156E+03  0.00000000000E+00 0. -1.
          1   -1    0    0  501    0 -0.00000000000E+00 -0.00000000000E+00 -0.16055235757E+04  0.16055235757E+04  0.00000000000E+00 0. -1.
         25    2    1    2    0    0 -0.59360537846E+02 -0.21593541624E+03  0.14060533810E+03  0.29248220905E+03  0.12499681623E+03 0.  0.
          2    1    1    2  501    0 -0.13313900738E+01  0.27681203712E+03 -0.14954779373E+04  0.15208816316E+04  0.00000000000E+00 0. -1.
          1    1    1    2  502    0  0.60691927920E+02 -0.60876620880E+02  0.64898665037E+02  0.10770937660E+03  0.00000000000E+00 0. -1.
         22    1    3    3    0    0 -0.59867681714E+02 -0.24265569025E+02  0.40504325832E+02  0.76246688879E+02  0.00000000000E+00 0. -1.
         22    1    3    3    0    0  0.50714386798E+00 -0.19166984722E+03  0.10010101227E+03  0.21623552017E+03  0.00000000000E+00 0. -1.
</event>
<event>
 7    1  0.9036454E-005  0.4044035E+03  0.7818608E-02  0.1057642E+00
          2   -1    0    0  502    0  0.00000000000E+00  0.00000000000E+00  0.13909644878E+04  0.13909644878E+04  0.00000000000E+00 0. -1.
          1   -1    0    0  501    0 -0.00000000000E+00 -0.00000000000E+00 -0.12417000129E+04  0.12417000129E+04  0.00000000000E+00 0. -1.
         25    2    1    2    0    0 -0.10371315310E+03 -0.41295022421E+03  0.97268234773E+03  0.10691208384E+04  0.12499644695E+03 0.  0.
          2    1    1    2  501    0  0.35304369233E+03  0.20488505841E+03 -0.10768485953E+04  0.11516165303E+04  0.00000000000E+00 0. -1.
          1    1    1    2  502    0 -0.24933053923E+03  0.20806516580E+03  0.25343072235E+03  0.41192713196E+03  0.00000000000E+00 0. -1.
         22    1    3    3    0    0 -0.42794445621E+02 -0.22119150637E+02  0.10243426765E+03  0.11319629230E+03  0.00000000000E+00 0. -1.
         22    1    3    3    0    0 -0.60918707483E+02 -0.39083107357E+03  0.87024808008E+03  0.95592454612E+03  0.00000000000E+00 0. -1.
</event>
<event>
 7    1  0.9036454E-005  0.1883887E+03  0.7818608E-02  0.1382490E+00
          2   -1    0    0  502    0  0.00000000000E+00  0.00000000000E+00  0.17379145604E+04  0.17379145604E+04  0.00000000000E+00 0. -1.
          1   -1    0    0  501    0 -0.00000000000E+00 -0.00000000000E+00 -0.11031620900E+04  0.11031620900E+04  0.00000000000E+00 0. -1.
         25    2    1    2    0    0 -0.15375719983E+03 -0.12553655907E+03  0.45324497236E+03  0.51034530763E+03  0.12498249433E+03 0.  0.
          2    1    1    2  501    0  0.15680216359E+03  0.10413621407E+03 -0.10662747901E+04  0.10827618378E+04  0.00000000000E+00 0. -1.
          1    1    1    2  502    0 -0.30449637546E+01  0.21400344999E+02  0.12477822881E+04  0.12479695049E+04  0.00000000000E+00 0. -1.
         22    1    3    3    0    0 -0.15514780918E+03 -0.60843028788E+02  0.28589888423E+03  0.33092429474E+03  0.00000000000E+00 0.  1.
         22    1    3    3    0    0  0.13906093471E+01 -0.64693530281E+02  0.16734608813E+03  0.17942101289E+03  0.00000000000E+00 0.  1.
</event>
<event>
 7    1  0.9036454E-005  0.1996611E+03  0.7818608E-02  0.1197042E+00
          2   -1    0    0  502    0  0.00000000000E+00  0.00000000000E+00  0.60069155199E+03  0.60069155199E+03  0.00000000000E+00 0. -1.
          1   -1    0    0  501    0 -0.00000000000E+00 -0.00000000000E+00 -0.90019647129E+03  0.90019647129E+03  0.00000000000E+00 0. -1.
         25    2    1    2    0    0 -0.15749166964E+03  0.28981386446E+02 -0.32032317175E+03  0.37931408081E+03  0.12501476222E+03 0.  0.
          2    1    1    2  501    0  0.20220932787E+03 -0.13707476588E+03 -0.51666548010E+03  0.57150793699E+03  0.00000000000E+00 0. -1.
          1    1    1    2  502    0 -0.44717658231E+02  0.10809337943E+03  0.53748373255E+03  0.55006600548E+03  0.00000000000E+00 0. -1.
         22    1    3    3    0    0 -0.11280874367E+03  0.77236542348E+02 -0.23037433234E+03  0.26788734409E+03  0.00000000000E+00 0. -1.
         22    1    3    3    0    0 -0.44682925969E+02 -0.48255155902E+02 -0.89948839407E+02  0.11142673672E+03  0.00000000000E+00 0. -1.
</event>
<event>
 7    1  0.9036454E-005  0.2715009E+03  0.7818608E-02  0.1282145E+00
          2   -1    0    0  502    0  0.00000000000E+00  0.00000000000E+00  0.27608397666E+03  0.27608397666E+03  0.00000000000E+00 0. -1.
          1   -1    0    0  501    0 -0.00000000000E+00 -0.00000000000E+00 -0.15061419737E+04  0.15061419737E+04  0.00000000000E+00 0. -1.
         25    2    1    2    0    0  0.26667132095E+03  0.19448237084E+02  0.15175034063E+03  0.33188040600E+03  0.12499844264E+03 0.  0.
          2    1    1    2  501    0  0.34323730785E+02  0.11475744843E+02 -0.73897270974E+03  0.73985841683E+03  0.00000000000E+00 0. -1.
          1    1    1    2  502    0 -0.30099505173E+03 -0.30923981927E+02 -0.64283562790E+03  0.71048712749E+03  0.00000000000E+00 0. -1.
         22    1    3    3    0    0  0.22650980753E+03  0.27701385665E+02  0.67156337816E+02  0.23787398636E+03  0.00000000000E+00 0. -1.
         22    1    3    3    0    0  0.40161513412E+02 -0.82531485811E+01  0.84594002819E+02  0.94006419642E+02  0.00000000000E+00 0. -1.
</event>
<event>
 7    1  0.9036454E-005  0.5761784E+03  0.7818608E-02  0.1004064E+00
          2   -1    0    0  502    0  0.00000000000E+00  0.00000000000E+00  0.49475940116E+04  0.49475940116E+04  0.00000000000E+00 0. -1.
          1   -1    0    0  501    0 -0.00000000000E+00 -0.00000000000E+00 -0.79056027842E+03  0.79056027842E+03  0.00000000000E+00 0. -1.
         25    2    1    2    0    0 -0.35458541550E+03  0.29935236418E+03 -0.24715983539E+03  0.54042087557E+03  0.12499633474E+03 0.  0.
          2    1    1    2  501    0  0.77014213045E+03  0.99764354558E+02  0.21029720966E+02  0.77686168441E+03  0.00000000000E+00 0. -1.
          1    1    1    2  502    0 -0.41555671495E+03 -0.39911671874E+03  0.43831638476E+04  0.44208717300E+04  0.00000000000E+00 0. -1.
         22    1    3    3    0    0 -0.25379532861E+03  0.13843127389E+03 -0.12733919337E+03  0.31589643331E+03  0.00000000000E+00 0. -1.
         22    1    3    3    0    0 -0.10079008689E+03  0.16092109030E+03 -0.11982064202E+03  0.22452444226E+03  0.00000000000E+00 0. -1.
</event>
<event>
 7    1  0.9036454E-005  0.1260997E+04  0.7818608E-02  0.1122171E+00
          2   -1    0    0  502    0  0.00000000000E+00  0.00000000000E+00  0.27776972984E+04  0.27776972984E+04  0.00000000000E+00 0. -1.
          1   -1    0    0  501    0 -0.00000000000E+00 -0.00000000000E+00 -0.17624460007E+04  0.17624460007E+04  0.00000000000E+00 0. -1.
         25    2    1    2    0    0  0.89291627734E+03  0.91305683526E+03  0.14482503445E+04  0.19349484240E+04  0.12499632179E+03 0.  0.
          2    1    1    2  501    0 -0.42021583514E+02 -0.14156502612E+02 -0.11658900121E+04  0.11667329344E+04  0.00000000000E+00 0. -1.
          1    1    1    2  502    0 -0.85089469383E+03 -0.89890033265E+03  0.73289096524E+03  0.14384619407E+04  0.00000000000E+00 0. -1.
         22    1    3    3    0    0  0.57980769174E+03  0.66818640694E+03  0.10347234405E+04  0.13613605812E+04  0.00000000000E+00 0. -1.
         22    1    3    3    0    0  0.31310858560E+03  0.24487042832E+03  0.41352690400E+03  0.57358784277E+03  0.00000000000E+00 0. -1.
</event>
<event>
 7    1  0.9036454E-005  0.1597860E+03  0.7818608E-02  0.1195438E+00
          2   -1    0    0  502    0  0.00000000000E+00  0.00000000000E+00  0.17528247719E+04  0.17528247719E+04  0.00000000000E+00 0. -1.
          1   -1    0    0  501    0 -0.00000000000E+00 -0.00000000000E+00 -0.34059391574E+03  0.34059391574E+03  0.00000000000E+00 0. -1.
         25    2    1    2    0    0 -0.26252086931E+03  0.23685445233E+02  0.17751395749E+03  0.34148868534E+03  0.12500043991E+03 0.  0.
          2    1    1    2  501    0  0.12712818313E+03 -0.85306433087E+02 -0.23185083785E+03  0.27783731478E+03  0.00000000000E+00 0. -1.
          1    1    1    2  502    0  0.13539268618E+03  0.61620987854E+02  0.14665677366E+04  0.14740926876E+04  0.00000000000E+00 0. -1.
         22    1    3    3    0    0 -0.25486373555E+03 -0.82284626945E+01  0.17350067690E+03  0.30842457130E+03  0.00000000000E+00 0.  1.
         22    1    3    3    0    0 -0.76571337641E+01  0.31913907928E+02  0.40132805865E+01  0.33064114048E+02  0.00000000000E+00 0.  1.
</event>
<event>
 7    1  0.9036454E-005  0.2277705E+03  0.7818608E-02  0.1136232E+00
          2   -1    0    0  502    0  0.00000000000E+00  0.00000000000E+00  0.16449597742E+04  0.16449597742E+04  0.00000000000E+00 0. -1.
          1   -1    0    0  501    0 -0.00000000000E+00 -0.00000000000E+00 -0.45261980775E+03  0.45261980775E+03  0.00000000000E+00 0. -1.
         25    2    1    2    0    0  0.12183841942E+02  0.29485714107E+03  0.15609332165E+03  0.35648544301E+03  0.12501026507E+03 0.  0.
          2    1    1    2  501    0 -0.16591290002E+03 -0.15697106524E+03 -0.30667765619E+03  0.38238487224E+03  0.00000000000E+00 0. -1.
          1    1    1    2  502    0  0.15372905808E+03 -0.13788607583E+03  0.13429243010E+04  0.13587092667E+04  0.00000000000E+00 0. -1.
         22    1    3    3    0    0  0.28522027950E+02  0.43700452012E+02  0.76325527804E+02  0.92459838735E+02  0.00000000000E+00 0.  1.
         22    1    3    3    0    0 -0.16338186008E+02  0.25115668905E+03  0.79767793844E+02  0.26402560428E+03  0.00000000000E+00 0.  1.
</event>
<event>
 7    1  0.9036454E-005  0.9879814E+02  0.7818608E-02  0.1335394E+00
          2   -1    0    0  502    0  0.00000000000E+00  0.00000000000E+00  0.16482331144E+03  0.16482331144E+03  0.00000000000E+00 0. -1.
          1   -1    0    0  501    0 -0.00000000000E+00 -0.00000000000E+00 -0.18719389892E+03  0.18719389892E+03  0.00000000000E+00 0. -1.
         25    2    1    2    0    0 -0.58249092979E+02  0.61601184739E+02  0.34712537696E+02  0.15497625304E+03  0.12500006376E+03 0.  0.
          2    1    1    2  501    0 -0.59293986395E+02 -0.15455765305E+02 -0.90620220606E+01  0.61941728646E+02  0.00000000000E+00 0. -1.
          1    1    1    2  502    0  0.11754307937E+03 -0.46145419434E+02 -0.48021103111E+02  0.13509922867E+03  0.00000000000E+00 0. -1.
         22    1    3    3    0    0 -0.79929057983E+02  0.86578684155E+02  0.29767997243E+02  0.12153458981E+03  0.00000000000E+00 0. -1.
         22    1    3    3    0    0  0.21679965004E+02 -0.24977499416E+02  0.49445404531E+01  0.33441663235E+02  0.00000000000E+00 0. -1.
</event>
<event>
 7    1  0.9036454E-005  0.2543727E+03  0.7818608E-02  0.1132922E+00
          2   -1    0    0  502    0  0.00000000000E+00  0.00000000000E+00  0.84378756298E+03  0.84378756298E+03  0.00000000000E+00 0. -1.
          1   -1    0    0  501    0 -0.00000000000E+00 -0.00000000000E+00 -0.54638699823E+03  0.54638699823E+03  0.00000000000E+00 0. -1.
         25    2    1    2    0    0 -0.58101292961E+02  0.22893080057E+03  0.50679222216E+03  0.57292976958E+03  0.12500037094E+03 0.  0.
          2    1    1    2  501    0 -0.19183378294E+03  0.16195422995E+02 -0.38136879939E+03  0.42720563333E+03  0.00000000000E+00 0. -1.
          1    1    1    2  502    0  0.24993507590E+03 -0.24512622357E+03  0.17197714198E+03  0.39003915830E+03  0.00000000000E+00 0. -1.
         22    1    3    3    0    0 -0.78682288568E+02  0.81714380412E+02  0.16521814878E+03  0.20041252253E+03  0.00000000000E+00 0. -1.
         22    1    3    3    0    0  0.20580995606E+02  0.14721642016E+03  0.34157407338E+03  0.37251724705E+03  0.00000000000E+00 0. -1.
</event>
<event>
 7    1  0.9036454E-005  0.8494741E+02  0.7818608E-02  0.1375577E+00
          2   -1    0    0  502    0  0.00000000000E+00  0.00000000000E+00  0.40639002193E+04  0.40639002193E+04  0.00000000000E+00 0. -1.
          1   -1    0    0  501    0 -0.00000000000E+00 -0.00000000000E+00 -0.80363079067E+02  0.80363079067E+02  0.00000000000E+00 0. -1.
         25    2    1    2    0    0  0.88228415836E+02  0.58969529505E+02  0.14865646251E+04  0.14955803710E+04  0.12499841163E+03 0.  0.
          2    1    1    2  501    0 -0.84388915152E+02 -0.83927581905E+01 -0.51820958786E+02  0.99384803466E+02  0.00000000000E+00 0. -1.
          1    1    1    2  502    0 -0.38395006843E+01 -0.50576771314E+02  0.25487934740E+04  0.25492981239E+04  0.00000000000E+00 0. -1.
         22    1    3    3    0    0  0.34296978051E+02 -0.14052069759E+02  0.11101925389E+03  0.11704280457E+03  0.00000000000E+00 0. -1.
         22    1    3    3    0    0  0.53931437785E+02  0.73021599264E+02  0.13755453712E+04  0.13785375664E+04  0.00000000000E+00 0. -1.
</event>
<event>
 7    1  0.9036454E-005  0.3776110E+03  0.7818608E-02  0.1132449E+00
          2   -1    0    0  502    0  0.00000000000E+00  0.00000000000E+00  0.39679874624E+03  0.39679874624E+03  0.00000000000E+00 0. -1.
          1   -1    0    0  501    0 -0.00000000000E+00 -0.00000000000E+00 -0.10695431489E+04  0.10695431489E+04  0.00000000000E+00 0. -1.
         25    2    1    2    0    0 -0.18087549072E+03 -0.33284210096E+03 -0.70811700460E+03  0.81274539041E+03  0.12500228045E+03 0.  0.
          2    1    1    2  501    0  0.61129395895E+02  0.38456070410E+03  0.20465120528E+03  0.43989300290E+03  0.00000000000E+00 0. -1.
          1    1    1    2  502    0  0.11974609483E+03 -0.51718603141E+02 -0.16927860333E+03  0.21370350181E+03  0.00000000000E+00 0. -1.
         22    1    3    3    0    0 -0.19659939840E+03 -0.32785102001E+03 -0.68273124038E+03  0.78247016643E+03  0.00000000000E+00 0.  1.
         22    1    3    3    0    0  0.15723907677E+02 -0.49910809476E+01 -0.25385764227E+02  0.30275223980E+02  0.00000000000E+00 0.  1.
</event>
<event>
 7    1  0.9036454E-005  0.4608257E+03  0.7818608E-02  0.1256229E+00
          2   -1    0    0  502    0  0.00000000000E+00  0.00000000000E+00  0.17648873745E+04  0.17648873745E+04  0.00000000000E+00 0. -1.
          1   -1    0    0  501    0 -0.00000000000E+00 -0.00000000000E+00 -0.42597958762E+03  0.42597958762E+03  0.00000000000E+00 0. -1.
         25    2    1    2    0    0  0.29687021720E+02  0.44220802929E+03 -0.19880919220E+02  0.46092168947E+03  0.12499716975E+03 0.  0.
          2    1    1    2  501    0 -0.17540204839E+02  0.21055889779E+02 -0.14953984977E+03  0.15203018105E+03  0.00000000000E+00 0. -1.
          1    1    1    2  502    0 -0.12146816881E+02 -0.46326391907E+03  0.15083285559E+04  0.15779150916E+04  0.00000000000E+00 0. -1.
         22    1    3    3    0    0 -0.17604775383E+02  0.33744171998E+03  0.21921240155E+02  0.33861096153E+03  0.00000000000E+00 0.  1.
         22    1    3    3    0    0  0.47291797103E+02  0.10476630931E+03 -0.41802159374E+02  0.12231072794E+03  0.00000000000E+00 0.  1.
</event>
<event>
 7    1  0.9036454E-005  0.2652405E+03  0.7818608E-02  0.1272732E+00
          2   -1    0    0  502    0  0.00000000000E+00  0.00000000000E+00  0.10280295063E+04  0.10280295063E+04  0.00000000000E+00 0. -1.
          1   -1    0    0  501    0 -0.00000000000E+00 -0.00000000000E+00 -0.20318494027E+03  0.20318494027E+03  0.00000000000E+00 0. -1.
         25    2    1    2    0    0 -0.26770594987E+03  0.75436683073E+01 -0.58061341273E+02  0.30119700666E+03  0.12500053977E+03 0.  0.
          2    1    1    2  501    0  0.24967007795E+03  0.28753736397E+02  0.74263202990E+03  0.78400526594E+03  0.00000000000E+00 0. -1.
          1    1    1    2  502    0  0.18035871918E+02 -0.36297404704E+02  0.14027387745E+03  0.14601217401E+03  0.00000000000E+00 0. -1.
         22    1    3    3    0    0 -0.11841207287E+03  0.54805584816E+02 -0.62197647287E+02  0.14454625023E+03  0.00000000000E+00 0.  1.
         22    1    3    3    0    0 -0.14929387700E+03 -0.47261916509E+02  0.41363060137E+01  0.15665075643E+03  0.00000000000E+00 0.  1.
</event>
<event>
 7    1  0.9036454E-005  0.1503159E+03  0.7818608E-02  0.1203934E+00
          2   -1    0    0  502    0  0.00000000000E+00  0.00000000000E+00  0.28426695844E+04  0.28426695844E+04  0.00000000000E+00 0. -1.
          1   -1    0    0  501    0 -0.00000000000E+00 -0.00000000000E+00 -0.17481340763E+04  0.17481340763E+04  0.00000000000E+00 0. -1.
         25    2    1    2    0    0 -0.54914788343E+01  0.29125214979E+03 -0.70895047791E+03  0.77659088097E+03  0.12499858070E+03 0.  0.
          2    1    1    2  501    0  0.23007546815E+02 -0.14233614082E+03 -0.99817879835E+03  0.10085384661E+04  0.00000000000E+00 0. -1.
          1    1    1    2  502    0 -0.17516067981E+02 -0.14891600897E+03  0.28016647843E+04  0.28056743136E+04  0.00000000000E+00 0. -1.
         22    1    3    3    0    0 -0.58337387540E+02  0.85490157717E+02 -0.20336938312E+03  0.22819054284E+03  0.00000000000E+00 0. -1.
         22    1    3    3    0    0  0.52845908705E+02  0.20576199207E+03 -0.50558109479E+03  0.54840033812E+03  0.00000000000E+00 0. -1.
</event>
<event>
 7    1  0.9036454E-005  0.2005694E+03  0.7818608E-02  0.1216701E+00
          2   -1    0    0  502    0  0.00000000000E+00  0.00000000000E+00  0.23078709669E+03  0.23078709669E+03  0.00000000000E+00 0. -1.
          1   -1    0    0  501    0 -0.00000000000E+00 -0.00000000000E+00 -0.14755128827E+04  0.14755128827E+04  0.00000000000E+00 0. -1.
         25    2    1    2    0    0  0.18873011105E+02  0.27684472826E+03 -0.10975666625E+04  0.11389804541E+04  0.12499880811E+03 0.  0.
          2    1    1    2  501    0 -0.47562390267E+02 -0.81420218187E+02 -0.30197695087E+03  0.31635662116E+03  0.00000000000E+00 0. -1.
          1    1    1    2  502    0  0.28689379162E+02 -0.19542451007E+03  0.15481782734E+03  0.25096290418E+03  0.00000000000E+00 0. -1.
         22    1    3    3    0    0 -0.49200930507E+02  0.15833121845E+03 -0.53825143064E+03  0.56320876137E+03  0.00000000000E+00 0. -1.
         22    1    3    3    0    0  0.68073941611E+02  0.11851350981E+03 -0.55931523188E+03  0.57577169273E+03  0.00000000000E+00 0. -1.
</event>
<event>
 7    1  0.9036454E-005  0.1088579E+03  0.7818608E-02  0.1453497E+00
          2   -1    0    0  502    0  0.00000000000E+00  0.00000000000E+00  0.31273712938E+03  0.31273712938E+03  0.00000000000E+00 0. -1.
          1   -1    0    0  501    0 -0.00000000000E+00 -0.00000000000E+00 -0.11800384391E+04  0.11800384391E+04  0.00000000000E+00 0. -1.
         25    2    1    2    0    0  0.70161539833E+02  0.54785168083E+02 -0.85827096203E+02  0.17582725345E+03  0.12499950520E+03 0.  0.
          2    1    1    2  501    0  0.15975126647E+02  0.14575754191E+02 -0.10376735806E+04  0.10378988954E+04  0.00000000000E+00 0. -1.
          1    1    1    2  502    0 -0.86136666481E+02 -0.69360922274E+02  0.25619936710E+03  0.27904941956E+03  0.00000000000E+00 0. -1.
         22    1    3    3    0    0 -0.22315386667E+02  0.30196439046E+02  0.11569167954E+02  0.39289274113E+02  0.00000000000E+00 0.  1.
         22    1    3    3    0    0  0.92476926500E+02  0.24588729037E+02 -0.97396264157E+02  0.13653797934E+03  0.00000000000E+00 0.  1.
</event>
<event>
 7    1  0.9036454E-005  0.1195043E+03  0.7818608E-02  0.1393076E+00
          2   -1    0    0  502    0  0.00000000000E+00  0.00000000000E+00  0.11717782369E+04  0.11717782369E+04  0.00000000000E+00 0. -1.
          1   -1    0    0  501    0 -0.00000000000E+00 -0.00000000000E+00 -0.13212071861E+03  0.13212071861E+03  0.00000000000E+00 0. -1.
         25    2    1    2    0    0 -0.14491867606E+03  0.36322811250E+02  0.75763634845E+03  0.78227904643E+03  0.12500760254E+03 0.  0.
          2    1    1    2  501    0  0.11562053551E+03 -0.25341999111E+02 -0.89743889465E+02  0.14854053604E+03  0.00000000000E+00 0. -1.
          1    1    1    2  502    0  0.29298140556E+02 -0.10980812139E+02  0.37176505934E+03  0.37307937308E+03  0.00000000000E+00 0. -1.
         22    1    3    3    0    0 -0.14005512056E+03 -0.14670760856E+02  0.60879361480E+03  0.62486825287E+03  0.00000000000E+00 0. -1.
         22    1    3    3    0    0 -0.48635555025E+01  0.50993572106E+02  0.14884273365E+03  0.15741079356E+03  0.00000000000E+00 0. -1.
</event>
<event>
 7    1  0.9036454E-005  0.4537256E+03  0.7818608E-02  0.1062139E+00
          2   -1    0    0  502    0  0.00000000000E+00  0.00000000000E+00  0.31252035157E+03  0.31252035157E+03  0.00000000000E+00 0. -1.
          1   -1    0    0  501    0 -0.00000000000E+00 -0.00000000000E+00 -0.18649092878E+04  0.18649092878E+04  0.00000000000E+00 0. -1.
         25    2    1    2    0    0  0.30073428648E+03 -0.54650075426E+03 -0.42064393339E+03  0.76267317393E+03  0.12499946426E+03 0.  0.
          2    1    1    2  501    0 -0.49627923818E+02  0.26721455737E+03 -0.96730551381E+03  0.10047619158E+04  0.00000000000E+00 0. -1.
          1    1    1    2  502    0 -0.25110636266E+03  0.27928619689E+03 -0.16443948905E+03  0.40999454960E+03  0.00000000000E+00 0. -1.
         22    1    3    3    0    0  0.20431610172E+03 -0.33921397225E+03 -0.33451275069E+03  0.51837242284E+03  0.00000000000E+00 0.  1.
         22    1    3    3    0    0  0.96418184756E+02 -0.20728678201E+03 -0.86131182698E+02  0.24430075108E+03  0.00000000000E+00 0.  1.
</event>
<event>
 7    1  0.9036454E-005  0.2925428E+03  0.7818608E-02  0.1244210E+00
          2   -1    0    0  502    0  0.00000000000E+00  0.00000000000E+00  0.15333318466E+03  0.15333318466E+03  0.00000000000E+00 0. -1.
          1   -1    0    0  501    0 -0.00000000000E+00 -0.00000000000E+00 -0.75528171298E+03  0.75528171298E+03  0.00000000000E+00 0. -1.
         25    2    1    2    0    0  0.18068988728E+03 -0.21879870215E+03 -0.35839757026E+03  0.47391494167E+03  0.12499938454E+03 0.  0.
          2    1    1    2  501    0 -0.15981821149E+03  0.26277018962E+03 -0.18640313939E+03  0.35963337394E+03  0.00000000000E+00 0. -1.
          1    1    1    2  502    0 -0.20871675793E+02 -0.43971487466E+02 -0.57147818671E+02  0.75066582040E+02  0.00000000000E+00 0. -1.
         22    1    3    3    0    0  0.77044555126E+02 -0.21174916866E+02 -0.14274964965E+03  0.16359004571E+03  0.00000000000E+00 0.  1.
         22    1    3    3    0    0  0.10364533215E+03 -0.19762378529E+03 -0.21564792061E+03  0.31032489596E+03  0.00000000000E+00 0.  1.
</event>
<event>
 7    1  0.9036454E-005  0.2221201E+03  0.7818608E-02  0.1226243E+00
          2   -1    0    0  502    0  0.00000000000E+00  0.00000000000E+00  0.26498150811E+04  0.26498150811E+04  0.00000000000E+00 0. -1.
          1   -1    0    0  501    0 -0.00000000000E+00 -0.00000000000E+00 -0.12254633484E+03  0.12254633484E+03  0.00000000000E+00 0. -1.
         25    2    1    2    0    0 -0.26725593290E+03 -0.49168330082E+02  0.21393434768E+03  0.36774694327E+03  0.12500660308E+03 0.  0.
          2    1    1    2  501    0  0.66497972035E+02 -0.38917515081E+02 -0.37897689855E+01  0.77142177917E+02  0.00000000000E+00 0. -1.
          1    1    1    2  502    0  0.20075796086E+03  0.88085845163E+02  0.23171241675E+04  0.23274722947E+04  0.00000000000E+00 0. -1.
         22    1    3    3    0    0 -0.26956757636E+03 -0.64082862693E+02  0.21748771282E+03  0.35224167377E+03  0.00000000000E+00 0.  1.
         22    1    3    3    0    0  0.23116434564E+01  0.14914532611E+02 -0.35533651364E+01  0.15505269500E+02  0.00000000000E+00 0.  1.
</event>
<event>
 7    1  0.9036454E-005  0.1733420E+03  0.7818608E-02  0.1270369E+00
          2   -1    0    0  502    0  0.00000000000E+00  0.00000000000E+00  0.78676309965E+03  0.78676309965E+03  0.00000000000E+00 0. -1.
          1   -1    0    0  501    0 -0.00000000000E+00 -0.00000000000E+00 -0.76211504645E+02  0.76211504645E+02  0.00000000000E+00 0. -1.
         25    2    1    2    0    0 -0.19266668641E+03  0.42367282536E+02  0.53208389931E+03  0.58107991672E+03  0.12500062009E+03 0.  0.
          2    1    1    2  501    0  0.45486701654E+02 -0.44235969495E+02  0.22202122733E+02  0.67221985082E+02  0.00000000000E+00 0. -1.
          1    1    1    2  502    0  0.14717998476E+03  0.18686869589E+01  0.15626557296E+03  0.21467270250E+03  0.00000000000E+00 0. -1.
         22    1    3    3    0    0 -0.20731805226E+03  0.22143711621E+02  0.47941048621E+03  0.52278631681E+03  0.00000000000E+00 0. -1.
         22    1    3    3    0    0  0.14651365854E+02  0.20223570916E+02  0.52673413107E+02  0.58293599908E+02  0.00000000000E+00 0. -1.
</event>
<event>
 7    1  0.9036454E-005  0.9978159E+02  0.7818608E-02  0.1436209E+00
          2   -1    0    0  502    0  0.00000000000E+00  0.00000000000E+00  0.17284236865E+04  0.17284236865E+04  0.00000000000E+00 0. -1.
          1   -1    0    0  501    0 -0.00000000000E+00 -0.00000000000E+00 -0.79331309307E+03  0.79331309307E+03  0.00000000000E+00 0. -1.
         25    2    1    2    0    0 -0.90852677899E+02  0.85164625527E+02  0.33697049713E+03  0.38037326715E+03  0.12500993523E+03 0.  0.
          2    1    1    2  501    0  0.18212052696E+02 -0.19691464609E+02 -0.76963232627E+03  0.77009957167E+03  0.00000000000E+00 0. -1.
          1    1    1    2  502    0  0.72640625203E+02 -0.65473160917E+02  0.13677724226E+04  0.13712639407E+04  0.00000000000E+00 0. -1.
         22    1    3    3    0    0  0.23115166242E+01  0.81924650974E+02  0.18056135179E+03  0.19829118313E+03  0.00000000000E+00 0. -1.
         22    1    3    3    0    0 -0.93164194523E+02  0.32399745529E+01  0.15640914533E+03  0.18208208402E+03  0.00000000000E+00 0. -1.
</event>
<event>
 7    1  0.9036454E-005  0.1340694E+03  0.7818608E-02  0.1300331E+00
          2   -1    0    0  502    0  0.00000000000E+00  0.00000000000E+00  0.12114115243E+04  0.12114115243E+04  0.00000000000E+00 0. -1.
          1   -1    0    0  501    0 -0.00000000000E+00 -0.00000000000E+00 -0.77700054492E+03  0.77700054492E+03  0.00000000000E+00 0. -1.
         25    2    1    2    0    0  0.16945881126E+03  0.68071893758E+02 -0.22588909357E+03  0.31622587539E+03  0.12499140066E+03 0.  0.
          2    1    1    2  501    0 -0.12297295068E+03 -0.27299044672E+02 -0.49726450881E+03  0.51297132099E+03  0.00000000000E+00 0. -1.
          1    1    1    2  502    0 -0.46485860576E+02 -0.40772849086E+02  0.11575645817E+04  0.11592148728E+04  0.00000000000E+00 0. -1.
         22    1    3    3    0    0  0.93169105692E+02  0.52843057881E+02 -0.39343152456E+02  0.11410852145E+03  0.00000000000E+00 0. -1.
         22    1    3    3    0    0  0.76289705564E+02  0.15228835876E+02 -0.18654594112E+03  0.20211735394E+03  0.00000000000E+00 0. -1.
</event>
<event>
 7    1  0.9036454E-005  0.1473640E+03  0.7818608E-02  0.1317398E+00
          2   -1    0    0  502    0  0.00000000000E+00  0.00000000000E+00  0.10988789969E+03  0.10988789969E+03  0.00000000000E+00 0. -1.
          1   -1    0    0  501    0 -0.00000000000E+00 -0.00000000000E+00 -0.38448905771E+03  0.38448905771E+03  0.00000000000E+00 0. -1.
         25    2    1    2    0    0 -0.25147631675E+02 -0.17163911590E+03 -0.14058585700E+03  0.25589464037E+03  0.12500117717E+03 0.  0.
          2    1    1    2  501    0  0.31244766667E+02  0.36662475635E+02 -0.79145027643E+02  0.92651540540E+02  0.00000000000E+00 0. -1.
          1    1    1    2  502    0 -0.60971349918E+01  0.13497664027E+03 -0.54870273377E+02  0.14583077649E+03  0.00000000000E+00 0. -1.
         22    1    3    3    0    0  0.38794680326E+02 -0.10814454610E+03 -0.11421283094E+03  0.16200259511E+03  0.00000000000E+00 0.  1.
         22    1    3    3    0    0 -0.63942312001E+02 -0.63494569805E+02 -0.26373026059E+02  0.93892045255E+02  0.00000000000E+00 0.  1.
</event>
<event>
 7    1  0.9036454E-005  0.8487342E+02  0.7818608E-02  0.1341911E+00
          2   -1    0    0  502    0  0.00000000000E+00  0.00000000000E+00  0.24161873518E+03  0.24161873518E+03  0.00000000000E+00 0. -1.
          1   -1    0    0  501    0 -0.00000000000E+00 -0.00000000000E+00 -0.40006537128E+03  0.40006537128E+03  0.00000000000E+00 0. -1.
         25    2    1    2    0    0 -0.91702271375E+02 -0.82769694787E+02  0.12660744610E+03  0.21659893120E+03  0.12500209053E+03 0.  0.
          2    1    1    2  501    0  0.82684762994E+02  0.15970574973E+02 -0.33227814372E+03  0.34278359659E+03  0.00000000000E+00 0. -1.
          1    1    1    2  502    0  0.90175083803E+01  0.66799119814E+02  0.47224061517E+02  0.82301578669E+02  0.00000000000E+00 0. -1.
         22    1    3    3    0    0 -0.27078913786E+02 -0.27653553566E+02  0.12584306940E+03  0.13166041437E+03  0.00000000000E+00 0.  1.
         22    1    3    3    0    0 -0.64623357589E+02 -0.55116141221E+02  0.76437670484E+00  0.84938516828E+02  0.00000000000E+00 0.  1.
</event>
<event>
 7    1  0.9036454E-005  0.6192536E+03  0.7818608E-02  0.1233724E+00
          2   -1    0    0  502    0  0.00000000000E+00  0.00000000000E+00  0.30130754756E+04  0.30130754756E+04  0.00000000000E+00 0. -1.
          1   -1    0    0  501    0 -0.00000000000E+00 -0.00000000000E+00 -0.19297522594E+03  0.19297522594E+03  0.00000000000E+00 0. -1.
         25    2    1    2    0    0  0.53804074487E+03  0.33302396439E+03  0.58867570389E+03  0.87324482022E+03  0.12499851078E+03 0.  0.
          2    1    1    2  501    0 -0.53247911452E+01 -0.25022035383E+02  0.95682668787E+01  0.27313135787E+02  0.00000000000E+00 0. -1.
          1    1    1    2  502    0 -0.53271595372E+03 -0.30800192901E+03  0.22218562789E+04  0.23054927455E+04  0.00000000000E+00 0. -1.
         22    1    3    3    0    0  0.36055948150E+03  0.28912209589E+03  0.42234120652E+03  0.62607253634E+03  0.00000000000E+00 0. -1.
         22    1    3    3    0    0  0.17748126337E+03  0.43901868497E+02  0.16633449736E+03  0.24717228388E+03  0.00000000000E+00 0. -1.
</event>
<event>
 7    1  0.9036454E-005  0.2114399E+03  0.7818608E-02  0.1217586E+00
          2   -1    0    0  502    0  0.00000000000E+00  0.00000000000E+00  0.14384554600E+04  0.14384554600E+04  0.00000000000E+00 0. -1.
          1   -1    0    0  501    0 -0.00000000000E+00 -0.00000000000E+00 -0.98854562468E+03  0.98854562468E+03  0.00000000000E+00 0. -1.
         25    2    1    2    0    0 -0.17087275593E+03  0.23384018856E+03 -0.73167693447E+03  0.79677720186E+03  0.12499616183E+03 0.  0.
          2    1    1    2  501    0  0.75848718870E+02 -0.45821872674E+02 -0.20730253523E+03  0.22544847146E+03  0.00000000000E+00 0. -1.
          1    1    1    2  502    0  0.95024037057E+02 -0.18801831588E+03  0.13888893050E+04  0.14047754113E+04  0.00000000000E+00 0. -1.
         22    1    3    3    0    0 -0.39187008927E+02  0.11421594814E+03 -0.42916601254E+03  0.44582997970E+03  0.00000000000E+00 0.  1.
         22    1    3    3    0    0 -0.13168574700E+03  0.11962424042E+03 -0.30251092193E+03  0.35094722217E+03  0.00000000000E+00 0.  1.
</event>
<event>
 7    1  0.9036454E-005  0.3266861E+03  0.7818608E-02  0.1182395E+00
          2   -1    0    0  502    0  0.00000000000E+00  0.00000000000E+00  0.35603933682E+03  0.35603933682E+03  0.00000000000E+00 0. -1.
          1   -1    0    0  501    0 -0.00000000000E+00 -0.00000000000E+00 -0.79254031787E+03  0.79254031787E+03  0.00000000000E+00 0. -1.
         25    2    1    2    0    0 -0.28324033177E+03  0.26660260328E+02  0.14762839301E+03  0.34402557796E+03  0.12499440326E+03 0.  0.
          2    1    1    2  501    0  0.31870240431E+03 -0.10287142191E+03 -0.62652245304E+03  0.71041124437E+03  0.00000000000E+00 0. -1.
          1    1    1    2  502    0 -0.35462072531E+02  0.76211161585E+02  0.42393078983E+02  0.94142832356E+02  0.00000000000E+00 0. -1.
         22    1    3    3    0    0 -0.58224315591E+02 -0.45884827321E+02  0.40380149939E+02  0.84415903794E+02  0.00000000000E+00 0. -1.
         22    1    3    3    0    0 -0.22501601618E+03  0.72545087649E+02  0.10724824307E+03  0.25960967417E+03  0.00000000000E+00 0. -1.
</event>
<event>
 7    1  0.9036454E-005  0.4605603E+03  0.7818608E-02  0.1181251E+00
          2   -1    0    0  502    0  0.00000000000E+00  0.00000000000E+00  0.90959432107E+03  0.90959432107E+03  0.00000000000E+00 0. -1.
          1   -1    0    0  501    0 -0.00000000000E+00 -0.00000000000E+00 -0.13940485083E+04  0.13940485083E+04  0.00000000000E+00 0. -1.
         25    2    1    2    0    0 -0.13313376316E+03  0.45527291225E+03 -0.11045335868E+02  0.49065403053E+03  0.12498541799E+03 0.  0.
          2    1    1    2  501    0  0.72795571656E+02 -0.45269322294E+03 -0.10957039688E+04  0.11877699848E+04  0.00000000000E+00 0. -1.
          1    1    1    2  502    0  0.60338191504E+02 -0.25796893095E+01  0.62229511752E+03  0.62521881405E+03  0.00000000000E+00 0. -1.
         22    1    3    3    0    0 -0.55841782932E+02  0.28123630832E+03  0.49213394357E+02  0.29091944594E+03  0.00000000000E+00 0.  1.
         22    1    3    3    0    0 -0.77291980227E+02  0.17403660393E+03 -0.60258730226E+02  0.19973458459E+03  0.00000000000E+00 0.  1.
</event>
<event>
 7    1  0.9036454E-005  0.3076194E+03  0.7818608E-02  0.1272286E+00
          2   -1    0    0  502    0  0.00000000000E+00  0.00000000000E+00  0.55314047144E+03  0.55314047144E+03  0.00000000000E+00 0. -1.
          1   -1    0    0  501    0 -0.00000000000E+00 -0.00000000000E+00 -0.13883988814E+04  0.13883988814E+04  0.00000000000E+00 0. -1.
         25    2    1    2    0    0  0.27733311008E+03  0.36063586554E+02  0.16341773227E+02  0.30676726885E+03  0.12499946985E+03 0.  0.
          2    1    1    2  501    0 -0.30585193083E+03 -0.56522576581E+02 -0.12228914660E+04  0.12618255596E+04  0.00000000000E+00 0. -1.
          1    1    1    2  502    0  0.28518820750E+02  0.20458990027E+02  0.37129128278E+03  0.37294652442E+03  0.00000000000E+00 0. -1.
         22    1    3    3    0    0  0.12550515420E+03 -0.38463709775E+02 -0.22627137433E+02  0.13320280796E+03  0.00000000000E+00 0. -1.
         22    1    3    3    0    0  0.15182795588E+03  0.74527296329E+02  0.38968910660E+02  0.17356446088E+03  0.00000000000E+00 0. -1.
</event>
<event>
 7    1  0.9036454E-005  0.3450314E+03  0.7818608E-02  0.1296076E+00
          2   -1    0    0  502    0  0.00000000000E+00  0.00000000000E+00  0.34010375910E+04  0.34010375910E+04  0.00000000000E+00 0. -1.
          1   -1    0    0  501    0 -0.00000000000E+00 -0.00000000000E+00 -0.39646892888E+03  0.39646892888E+03  0.00000000000E+00 0. -1.
         25    2    1    2    0    0  0.34580467175E+03  0.31327271811E+02  0.62034211449E+03  0.72181482127E+03  0.12502011134E+03 0.  0.
          2    1    1    2  501    0 -0.56111400899E+01  0.24352409730E+02 -0.33438224046E+03  0.33531478865E+03  0.00000000000E+00 0. -1.
          1    1    1    2  502    0 -0.34019353166E+03 -0.55679681541E+02  0.27186087881E+04  0.27403769100E+04  0.00000000000E+00 0. -1.
         22    1    3    3    0    0  0.66401336478E+02  0.38145971660E+02  0.66388136390E+02  0.10134908630E+03  0.00000000000E+00 0.  1.
         22    1    3    3    0    0  0.27940333527E+03 -0.68186998490E+01  0.55395397810E+03  0.62046573497E+03  0.00000000000E+00 0.  1.
</event>
<event>
 7    1  0.9036454E-005  0.4961351E+03  0.7818608E-02  0.1152350E+00
          2   -1    0    0  502    0  0.00000000000E+00  0.00000000000E+00  0.39374901631E+03  0.39374901631E+03  0.00000000000E+00 0. -1.
          1   -1    0    0  501    0 -0.00000000000E+00 -0.00000000000E+00 -0.15063674119E+04  0.15063674119E+04  0.00000000000E+00 0. -1.
         25    2    1    2    0    0  0.44810630267E+02 -0.48394780930E+03 -0.30349292874E+02  0.50275093006E+03  0.12499577347E+03 0.  0.
          2    1    1    2  501    0  0.76251555432E+02 -0.17221379099E+02 -0.81102761940E+03  0.81478627568E+03  0.00000000000E+00 0. -1.
          1    1    1    2  502    0 -0.12106218570E+03  0.50116918840E+03 -0.27124148334E+03  0.58257922250E+03  0.00000000000E+00 0. -1.
         22    1    3    3    0    0  0.14295971656E+02 -0.40324580489E+03 -0.66976179678E+02  0.40902000270E+03  0.00000000000E+00 0.  1.
         22    1    3    3    0    0  0.30514658611E+02 -0.80702004412E+02  0.36626886804E+02  0.93730927357E+02  0.00000000000E+00 0.  1.
</event>
<event>
 7    1  0.9036454E-005  0.3299554E+03  0.7818608E-02  0.1139237E+00
          2   -1    0    0  502    0  0.00000000000E+00  0.00000000000E+00  0.20926755504E+04  0.20926755504E+04  0.00000000000E+00 0. -1.
          1   -1    0    0  501    0 -0.00000000000E+00 -0.00000000000E+00 -0.12648823606E+03  0.12648823606E+03  0.00000000000E+00 0. -1.
         25    2    1    2    0    0 -0.33429160616E+02 -0.29316263139E+03  0.53874645432E+03  0.62684496123E+03  0.12500010462E+03 0.  0.
          2    1    1    2  501    0  0.12845033538E+03 -0.48943134390E+02  0.17748162202E+02  0.13859984244E+03  0.00000000000E+00 0. -1.
          1    1    1    2  502    0 -0.95021174764E+02  0.34210576578E+03  0.14096926978E+04  0.14537189828E+04  0.00000000000E+00 0. -1.
         22    1    3    3    0    0 -0.73704469449E+02 -0.22858383504E+03  0.44876918694E+03  0.50899577759E+03  0.00000000000E+00 0.  1.
         22    1    3    3    0    0  0.40275308833E+02 -0.64578796354E+02  0.89977267385E+02  0.11784918365E+03  0.00000000000E+00 0.  1.
</event>
<event>
 7    1  0.9036454E-005  0.1723723E+03  0.7818608E-02  0.1332628E+00
          2   -1    0    0  502    0  0.00000000000E+00  0.00000000000E+00  0.71832821352E+02  0.71832821352E+02  0.00000000000E+00 0. -1.
          1   -1    0    0  501    0 -0.00000000000E+00 -0.00000000000E+00 -0.91646424933E+03  0.91646424933E+03  0.00000000000E+00 0. -1.
         25    2    1    2    0    0  0.10586287306E+03  0.15204289938E+03 -0.69017624784E+03  0.72545922399E+03  0.12499536572E+03 0.  0.
          2    1    1    2  501    0 -0.35898509743E+02  0.24284928818E+01 -0.41179126603E+01  0.36215435717E+02  0.00000000000E+00 0. -1.
          1    1    1    2  502    0 -0.69964363318E+02 -0.15447139226E+03 -0.15033726748E+03  0.22662241098E+03  0.00000000000E+00 0. -1.
         22    1    3    3    0    0 -0.28722984515E+02  0.30485877666E+02 -0.14338071174E+03  0.14937344836E+03  0.00000000000E+00 0.  1.
         22    1    3    3    0    0  0.13458585758E+03  0.12155702171E+03 -0.54679553610E+03  0.57608577563E+03  0.00000000000E+00 0.  1.
</event>
<event>
 7    1  0.9036454E-005  0.6594843E+03  0.7818608E-02  0.1111814E+00
          2   -1    0    0  502    0  0.00000000000E+00  0.00000000000E+00  0.21195774869E+04  0.21195774869E+04  0.00000000000E+00 0. -1.
          1   -1    0    0  501    0 -0.00000000000E+00 -0.00000000000E+00 -0.32103765306E+03  0.32103765306E+03  0.00000000000E+00 0. -1.
         25    2    1    2    0    0 -0.60309980464E+03 -0.22407213359E+03  0.12117617294E+04  0.13776536294E+04  0.12500135320E+03 0.  0.
          2    1    1    2  501    0 -0.10411645229E+02 -0.96016264853E+02 -0.61701048987E+02  0.11460604224E+03  0.00000000000E+00 0. -1.
          1    1    1    2  502    0  0.61351144986E+03  0.32008839844E+03  0.64847915349E+03  0.94835546840E+03  0.00000000000E+00 0. -1.
         22    1    3    3    0    0 -0.33401537722E+03 -0.85211584555E+02  0.53777723172E+03  0.63877354150E+03  0.00000000000E+00 0. -1.
         22    1    3    3    0    0 -0.26908442741E+03 -0.13886054904E+03  0.67398449765E+03  0.73888008785E+03  0.00000000000E+00 0. -1.
</event>
<event>
 7    1  0.9036454E-005  0.3039552E+03  0.7818608E-02  0.1212859E+00
          2   -1    0    0  502    0  0.00000000000E+00  0.00000000000E+00  0.32178340280E+03  0.32178340280E+03  0.00000000000E+00 0. -1.
          1   -1    0    0  501    0 -0.00000000000E+00 -0.00000000000E+00 -0.48069096713E+03  0.48069096713E+03  0.00000000000E+00 0. -1.
         25    2    1    2    0    0  0.20035890005E+03 -0.26608249243E+03  0.82705226287E+02  0.36525022065E+03  0.12499595041E+03 0.  0.
          2    1    1    2  501    0 -0.13565164442E+03  0.26250974172E+03 -0.22175932936E+03  0.36944544020E+03  0.00000000000E+00 0. -1.
          1    1    1    2  502    0 -0.64707255632E+02  0.35727507115E+01 -0.19853461263E+02  0.67778709069E+02  0.00000000000E+00 0. -1.
         22    1    3    3    0    0  0.70740992369E+02 -0.16447202938E+02  0.32312869090E+02  0.79491634746E+02  0.00000000000E+00 0.  1.
         22    1    3    3    0    0  0.12961790768E+03 -0.24963528949E+03  0.50392357198E+02  0.28575858590E+03  0.00000000000E+00 0.  1.
</event>
<event>
 7    1  0.9036454E-005  0.4134899E+03  0.7818608E-02  0.1104205E+00
          2   -1    0    0  502    0  0.00000000000E+00  0.00000000000E+00  0.19357494253E+04  0.19357494253E+04  0.00000000000E+00 0. -1.
          1   -1    0    0  501    0 -0.00000000000E+00 -0.00000000000E+00 -0.19191317281E+03  0.19191317281E+03  0.00000000000E+00 0. -1.
         25    2    1    2    0    0  0.25480650525E+03 -0.34206106455E+03  0.30607145293E+03  0.53966399181E+03  0.12500145101E+03 0.  0.
          2    1    1    2  501    0 -0.96357837371E+02  0.40302001692E+03  0.57539312317E+03  0.70907489947E+03  0.00000000000E+00 0. -1.
          1    1    1    2  502    0 -0.15844866788E+03 -0.60958952362E+02  0.86237167638E+03  0.87892370685E+03  0.00000000000E+00 0. -1.
         22    1    3    3    0    0  0.82624144927E+01 -0.51342137232E+02  0.19735658835E+01  0.52040152874E+02  0.00000000000E+00 0. -1.
         22    1    3    3    0    0  0.24654409076E+03 -0.29071892732E+03  0.30409788705E+03  0.48762383893E+03  0.00000000000E+00 0. -1.
</event>
<event>
 7    1  0.9036454E-005  0.9873678E+02  0.7818608E-02  0.1458895E+00
          2   -1    0    0  502    0  0.00000000000E+00  0.00000000000E+00  0.22435048055E+02  0.22435048055E+02  0.00000000000E+00 0. -1.
          1   -1    0    0  501    0 -0.00000000000E+00 -0.00000000000E+00 -0.19549129423E+04  0.19549129423E+04  0.00000000000E+00 0. -1.
         25    2    1    2    0    0  0.84206248159E+02 -0.10375078141E+02 -0.78050111461E+03  0.79498732105E+03  0.12499806496E+03 0.  0.
          2    1    1    2  501    0  0.17700674368E+02  0.14561605750E+02 -0.99435019561E+03  0.99461433015E+03  0.00000000000E+00 0. -1.
          1    1    1    2  502    0 -0.10190692253E+03 -0.41865276090E+01 -0.15762658399E+03  0.18774633912E+03  0.00000000000E+00 0. -1.
         22    1    3    3    0    0 -0.23197644034E+02 -0.27921748408E+02 -0.30711490912E+03  0.30925284498E+03  0.00000000000E+00 0. -1.
         22    1    3    3    0    0  0.10740389219E+03  0.17546670267E+02 -0.47338620549E+03  0.48573447607E+03  0.00000000000E+00 0. -1.
</event>
<event>
 7    1  0.9036454E-005  0.4586611E+03  0.7818608E-02  0.1220190E+00
          2   -1    0    0  502    0  0.00000000000E+00  0.00000000000E+00  0.56896675947E+03  0.56896675947E+03  0.00000000000E+00 0. -1.
          1   -1    0    0  501    0 -0.00000000000E+00 -0.00000000000E+00 -0.18846616614E+04  0.18846616614E+04  0.00000000000E+00 0. -1.
         25    2    1    2    0    0 -0.23708839978E+03  0.36981705183E+03  0.40610858210E+01  0.45674803426E+03  0.12500685281E+03 0.  0.
          2    1    1    2  501    0  0.21999261149E+03 -0.40570018245E+03 -0.16248950279E+04  0.16891634731E+04  0.00000000000E+00 0. -1.
          1    1    1    2  502    0  0.17095788297E+02  0.35883130617E+02  0.30513904015E+03  0.30771691351E+03  0.00000000000E+00 0. -1.
         22    1    3    3    0    0  0.15270357629E+02  0.16408123053E+02 -0.13217332357E+01  0.22453447463E+02  0.00000000000E+00 0.  1.
         22    1    3    3    0    0 -0.25235875741E+03  0.35340892878E+03  0.53828190567E+01  0.43429458680E+03  0.00000000000E+00 0.  1.
</event>
<event>
 7    1  0.9036454E-005  0.1440786E+03  0.7818608E-02  0.1274379E+00
          2   -1    0    0  502    0  0.00000000000E+00  0.00000000000E+00  0.22094513052E+03  0.22094513052E+03  0.00000000000E+00 0. -1.
          1   -1    0    0  501    0 -0.00000000000E+00 -0.00000000000E+00 -0.14584710094E+04  0.14584710094E+04  0.00000000000E+00 0. -1.
         25    2    1    2    0    0 -0.12146711177E+03 -0.13394038212E+03 -0.17322239199E+03  0.27986671132E+03  0.12500037525E+03 0.  0.
          2    1    1    2  501    0  0.12853262551E+03  0.60836724136E+02 -0.12195468836E+04  0.12278095716E+04  0.00000000000E+00 0. -1.
          1    1    1    2  502    0 -0.70655137387E+01  0.73103657982E+02  0.15524339666E+03  0.17173985705E+03  0.00000000000E+00 0. -1.
         22    1    3    3    0    0 -0.10212817056E+03 -0.51441891179E+02 -0.38399664168E+02  0.12062738329E+03  0.00000000000E+00 0. -1.
         22    1    3    3    0    0 -0.19338941207E+02 -0.82498490940E+02 -0.13482272782E+03  0.15923932803E+03  0.00000000000E+00 0. -1.
</event>
<event>
 7    1  0.9036454E-005  0.1624104E+03  0.7818608E-02  0.1197395E+00
          2   -1    0    0  502    0  0.00000000000E+00  0.00000000000E+00  0.13810246765E+04  0.13810246765E+04  0.00000000000E+00 0. -1.
          1   -1    0    0  501    0 -0.00000000000E+00 -0.00000000000E+00 -0.23216663525E+04  0.23216663525E+04  0.00000000000E+00 0. -1.
         25    2    1    2    0    0  0.15970610575E+03 -0.25863452628E+03  0.52807554007E+03  0.62200237747E+03  0.12500129264E+03 0.  0.
          2    1    1    2  501    0 -0.95145118852E+02  0.13075167563E+03 -0.22654326078E+04  0.22711964897E+04  0.00000000000E+00 0. -1.
          1    1    1    2  502    0 -0.64560986895E+02  0.12788285064E+03  0.79671539179E+03  0.80949216181E+03  0.00000000000E+00 0. -1.
         22    1    3    3    0    0  0.17275124714E+03 -0.24567621168E+03  0.44465739360E+03  0.53658176642E+03  0.00000000000E+00 0. -1.
         22    1    3    3    0    0 -0.13045141390E+02 -0.12958314598E+02  0.83418146473E+02  0.85420611050E+02  0.00000000000E+00 0. -1.
</event>
<event>
 7    1  0.9036454E-005  0.9194288E+02  0.7818608E-02  0.1368464E+00
          2   -1    0    0  502    0  0.00000000000E+00  0.00000000000E+00  0.11043236828E+03  0.11043236828E+03  0.00000000000E+00 0. -1.
          1   -1    0    0  501    0 -0.00000000000E+00 -0.00000000000E+00 -0.58529165824E+03  0.58529165824E+03  0.00000000000E+00 0. -1.
         25    2    1    2    0    0  0.38728021475E+01 -0.11169451258E+03 -0.33476543653E+03  0.37441152690E+03  0.12500172497E+03 0.  0.
          2    1    1    2  501    0  0.38848416308E+02  0.30992483021E+02 -0.20393061836E+03  0.20989861972E+03  0.00000000000E+00 0. -1.
          1    1    1    2  502    0 -0.42721218455E+02  0.80702029557E+02  0.63836764925E+02  0.11141387991E+03  0.00000000000E+00 0. -1.
         22    1    3    3    0    0 -0.32222379643E+02 -0.12384118579E+03 -0.27821385731E+03  0.30623172835E+03  0.00000000000E+00 0.  1.
         22    1    3    3    0    0  0.36095181790E+02  0.12146673209E+02 -0.56551579211E+02  0.68179798546E+02  0.00000000000E+00 0.  1.
</event>
<event>
 7    1  0.9036454E-005  0.1454651E+03  0.7818608E-02  0.1245539E+00
          2   -1    0    0  502    0  0.00000000000E+00  0.00000000000E+00  0.93990524759E+03  0.93990524759E+03  0.00000000000E+00 0. -1.
          1   -1    0    0  501    0 -0.00000000000E+00 -0.00000000000E+00 -0.39403135665E+03  0.39403135665E+03  0.00000000000E+00 0. -1.
         25    2    1    2    0    0 -0.76054640358E+01  0.11240878278E+03  0.84088228872E+02  0.18812110764E+03  0.12500057350E+03 0.  0.
          2    1    1    2  501    0 -0.88225605259E+02 -0.12445160529E+03 -0.32189054511E+03  0.35620988548E+03  0.00000000000E+00 0. -1.
          1    1    1    2  502    0  0.95831069294E+02  0.12042822510E+02  0.78367620718E+03  0.78960561112E+03  0.00000000000E+00 0. -1.
         22    1    3    3    0    0  0.59239304333E+01 -0.14921351956E+02  0.54342845879E+02  0.56664667953E+02  0.00000000000E+00 0. -1.
         22    1    3    3    0    0 -0.13529394469E+02  0.12733013473E+03  0.29745382993E+02  0.13145643969E+03  0.00000000000E+00 0. -1.
</event>
<event>
 7    1  0.9036454E-005  0.6135897E+02  0.7818608E-02  0.1504004E+00
          2   -1    0    0  502    0  0.00000000000E+00  0.00000000000E+00  0.81417242016E+03  0.81417242016E+03  0.00000000000E+00 0. -1.
          1   -1    0    0  501    0 -0.00000000000E+00 -0.00000000000E+00 -0.68893646441E+03  0.68893646441E+03  0.00000000000E+00 0. -1.
         25    2    1    2    0    0  0.67201564225E+02  0.45552469494E+02  0.44063145916E+02  0.15542513585E+03  0.12499733723E+03 0.  0.
          2    1    1    2  501    0 -0.26834249891E+02  0.11835769885E+00 -0.63166997328E+03  0.63223970622E+03  0.00000000000E+00 0. -1.
          1    1    1    2  502    0 -0.40367314334E+02 -0.45670827193E+02  0.71284278312E+03  0.71544404251E+03  0.00000000000E+00 0. -1.
         22    1    3    3    0    0  0.50562500016E+02  0.80625796851E+02 -0.19946479175E+01  0.95189622051E+02  0.00000000000E+00 0. -1.
         22    1    3    3    0    0  0.16639064209E+02 -0.35073327357E+02  0.46057793833E+02  0.60235513797E+02  0.00000000000E+00 0. -1.
</event>
<event>
 7    1  0.9036454E-005  0.2455368E+03  0.7818608E-02  0.1159721E+00
          2   -1    0    0  502    0  0.00000000000E+00  0.00000000000E+00  0.21092742197E+04  0.21092742197E+04  0.00000000000E+00 0. -1.
          1   -1    0    0  501    0 -0.00000000000E+00 -0.00000000000E+00 -0.74150179255E+03  0.74150179255E+03  0.00000000000E+00 0. -1.
         25    2    1    2    0    0 -0.16818874276E+03 -0.22342874191E+02 -0.63904831237E+03  0.67290121599E+03  0.12500657473E+03 0.  0.
          2    1    1    2  501    0 -0.13870279125E+02 -0.14421525440E+03 -0.10742365865E+02  0.14527843153E+03  0.00000000000E+00 0. -1.
          1    1    1    2  502    0  0.18205902189E+03  0.16655812859E+03  0.20175631054E+04  0.20325963647E+04  0.00000000000E+00 0. -1.
         22    1    3    3    0    0 -0.18033661063E+03 -0.42824655037E+02 -0.53620098186E+03  0.56733300376E+03  0.00000000000E+00 0. -1.
         22    1    3    3    0    0  0.12147867873E+02  0.20481780845E+02 -0.10284733051E+03  0.10556821223E+03  0.00000000000E+00 0. -1.
</event>
<event>
 7    1  0.9036454E-005  0.5115565E+03  0.7818608E-02  0.1105589E+00
          2   -1    0    0  502    0  0.00000000000E+00  0.00000000000E+00  0.20374870702E+03  0.20374870702E+03  0.00000000000E+00 0. -1.
          1   -1    0    0  501    0 -0.00000000000E+00 -0.00000000000E+00 -0.30315825736E+04  0.30315825736E+04  0.00000000000E+00 0. -1.
         25    2    1    2    0    0  0.49176540460E+03  0.23270157330E+03 -0.68975523369E+03  0.88733897333E+03  0.12499974326E+03 0.  0.
          2    1    1    2  501    0 -0.49606805281E+03 -0.97964898295E+02 -0.21537207541E+04  0.22122824686E+04  0.00000000000E+00 0. -1.
          1    1    1    2  502    0  0.43026482097E+01 -0.13473667501E+03  0.15642121155E+02  0.13570983873E+03  0.00000000000E+00 0. -1.
         22    1    3    3    0    0  0.28881164880E+03  0.20245436589E+03 -0.42147963996E+03  0.54958623132E+03  0.00000000000E+00 0. -1.
         22    1    3    3    0    0  0.20295375580E+03  0.30247207414E+02 -0.26827559373E+03  0.33775274202E+03  0.00000000000E+00 0. -1.
</event>
<event>
 7    1  0.9036454E-005  0.2134126E+03  0.7818608E-02  0.1207068E+00
          2   -1    0    0  502    0  0.00000000000E+00  0.00000000000E+00  0.89797026820E+03  0.89797026820E+03  0.00000000000E+00 0. -1.
          1   -1    0    0  501    0 -0.00000000000E+00 -0.00000000000E+00 -0.67153625665E+03  0.67153625665E+03  0.00000000000E+00 0. -1.
         25    2    1    2    0    0  0.23183450713E+03 -0.92827152581E+02 -0.20805895715E+03  0.34825033303E+03  0.12500258338E+03 0.  0.
          2    1    1    2  501    0 -0.14692305891E+03  0.14213034419E+03 -0.36361185274E+03  0.41713427027E+03  0.00000000000E+00 0. -1.
          1    1    1    2  502    0 -0.84911448216E+02 -0.49303191608E+02  0.79810482143E+03  0.80412192156E+03  0.00000000000E+00 0. -1.
         22    1    3    3    0    0  0.14767660892E+03 -0.11263266870E+03 -0.17649216008E+03  0.25621081447E+03  0.00000000000E+00 0. -1.
         22    1    3    3    0    0  0.84157898210E+02  0.19805516117E+02 -0.31566797069E+02  0.92039518561E+02  0.00000000000E+00 0. -1.
</event>
<event>
 7    1  0.9036454E-005  0.5057010E+03  0.7818608E-02  0.1058034E+00
          2   -1    0    0  502    0  0.00000000000E+00  0.00000000000E+00  0.43098026754E+04  0.43098026754E+04  0.00000000000E+00 0. -1.
          1   -1    0    0  501    0 -0.00000000000E+00 -0.00000000000E+00 -0.12241435392E+03  0.12241435392E+03  0.00000000000E+00 0. -1.
         25    2    1    2    0    0 -0.14596295411E+03 -0.57854050750E+03  0.22215519576E+04  0.23036786459E+04  0.12501160257E+03 0.  0.
          2    1    1    2  501    0 -0.13730124308E+03  0.21874101535E+03  0.27699451273E+03  0.37871522709E+03  0.00000000000E+00 0. -1.
          1    1    1    2  502    0  0.28326419719E+03  0.35979949215E+03  0.16888418512E+04  0.17498231563E+04  0.00000000000E+00 0. -1.
         22    1    3    3    0    0 -0.29469842487E+01 -0.99366961943E+02  0.23513894164E+03  0.25528963888E+03  0.00000000000E+00 0.  1.
         22    1    3    3    0    0 -0.14301596986E+03 -0.47917354555E+03  0.19864130159E+04  0.20483890071E+04  0.00000000000E+00 0.  1.
</event>
<event>
 7    1  0.9036454E-005  0.6936638E+03  0.7818608E-02  0.1239414E+00
          2   -1    0    0  502    0  0.00000000000E+00  0.00000000000E+00  0.72545814209E+03  0.72545814209E+03  0.00000000000E+00 0. -1.
          1   -1    0    0  501    0 -0.00000000000E+00 -0.00000000000E+00 -0.15925758456E+04  0.15925758456E+04  0.00000000000E+00 0. -1.
         25    2    1    2    0    0  0.16471753917E+03 -0.68975481896E+03 -0.12653334388E+04  0.14558803384E+04  0.12500108169E+03 0.  0.
          2    1    1    2  501    0 -0.16008019343E+02  0.14425496848E+02 -0.38618914444E+02  0.44224113281E+02  0.00000000000E+00 0. -1.
          1    1    1    2  502    0 -0.14870951983E+03  0.67532932211E+03  0.43683464977E+03  0.81792953598E+03  0.00000000000E+00 0. -1.
         22    1    3    3    0    0  0.92732324157E+01 -0.26925727659E+03 -0.41900790967E+03  0.49814967851E+03  0.00000000000E+00 0. -1.
         22    1    3    3    0    0  0.15544430676E+03 -0.42049754237E+03 -0.84632552915E+03  0.95773065991E+03  0.00000000000E+00 0. -1.
</event>
<event>
 7    1  0.9036454E-005  0.2019221E+03  0.7818608E-02  0.1205821E+00
          2   -1    0    0  502    0  0.00000000000E+00  0.00000000000E+00  0.19289584975E+03  0.19289584975E+03  0.00000000000E+00 0. -1.
          1   -1    0    0  501    0 -0.00000000000E+00 -0.00000000000E+00 -0.83139532470E+03  0.83139532470E+03  0.00000000000E+00 0. -1.
         25    2    1    2    0    0  0.23213705472E+03 -0.63277399185E+02  0.20901229120E+01  0.27114896873E+03  0.12500301281E+03 0.  0.
          2    1    1    2  501    0 -0.64086662685E+02  0.83394866163E+02 -0.55234347708E+03  0.56226783717E+03  0.00000000000E+00 0. -1.
          1    1    1    2  502    0 -0.16805039203E+03 -0.20117466978E+02 -0.88246120776E+02  0.19087436856E+03  0.00000000000E+00 0. -1.
         22    1    3    3    0    0  0.94337108393E+01  0.15187742721E+01 -0.34984872339E+02  0.36266277284E+02  0.00000000000E+00 0. -1.
         22    1    3    3    0    0  0.22270334388E+03 -0.64796173457E+02  0.37074995251E+02  0.23488269145E+03  0.00000000000E+00 0. -1.
</event>
<event>
 7    1  0.9036454E-005  0.4539228E+03  0.7818608E-02  0.1119196E+00
          2   -1    0    0  502    0  0.00000000000E+00  0.00000000000E+00  0.60603834134E+03  0.60603834134E+03  0.00000000000E+00 0. -1.
          1   -1    0    0  501    0 -0.00000000000E+00 -0.00000000000E+00 -0.16079407489E+04  0.16079407489E+04  0.00000000000E+00 0. -1.
         25    2    1    2    0    0  0.35689621550E+03 -0.42919094965E+01  0.46587377819E+03  0.60004173398E+03  0.12497350197E+03 0.  0.
          2    1    1    2  501    0 -0.45236352103E+03  0.89323337128E+02 -0.13895552217E+04  0.14640611763E+04  0.00000000000E+00 0. -1.
          1    1    1    2  502    0  0.95467305537E+02 -0.85031427632E+02 -0.78220964047E+02  0.14987617999E+03  0.00000000000E+00 0. -1.
         22    1    3    3    0    0  0.80635462235E+02  0.38403634469E+02  0.61454233983E+02  0.10841374352E+03  0.00000000000E+00 0.  1.
         22    1    3    3    0    0  0.27626075326E+03 -0.42695543966E+02  0.40441954421E+03  0.49162799046E+03  0.00000000000E+00 0.  1.
</event>
<event>
 7    1  0.9036454E-005  0.1737229E+03  0.7818608E-02  0.1342736E+00
          2   -1    0    0  502    0  0.00000000000E+00  0.00000000000E+00  0.11038113148E+04  0.11038113148E+04  0.00000000000E+00 0. -1.
          1   -1    0    0  501    0 -0.00000000000E+00 -0.00000000000E+00 -0.20301851161E+04  0.20301851161E+04  0.00000000000E+00 0. -1.
         25    2    1    2    0    0  0.16327285423E+02 -0.19698771626E+03 -0.22584788232E+03  0.32511822293E+03  0.12499540922E+03 0.  0.
          2    1    1    2  501    0  0.18012672125E+02  0.27288487372E+02 -0.17474389699E+04  0.17477448530E+04  0.00000000000E+00 0. -1.
          1    1    1    2  502    0 -0.34339957548E+02  0.16969922889E+03  0.10469130508E+04  0.10611333549E+04  0.00000000000E+00 0. -1.
         22    1    3    3    0    0  0.15276131400E+02 -0.13345916628E+03 -0.59252952167E+02  0.14681832854E+03  0.00000000000E+00 0. -1.
         22    1    3    3    0    0  0.10511540230E+01 -0.63528549988E+02 -0.16659493015E+03  0.17829989440E+03  0.00000000000E+00 0. -1.
</event>
<event>
 7    1  0.9036454E-005  0.2315392E+03  0.7818608E-02  0.1138091E+00
          2   -1    0    0  502    0  0.00000000000E+00  0.00000000000E+00  0.57769033830E+03  0.57769033830E+03  0.00000000000E+00 0. -1.
          1   -1    0    0  501    0 -0.00000000000E+00 -0.00000000000E+00 -0.12613910007E+04  0.12613910007E+04  0.00000000000E+00 0. -1.
         25    2    1    2    0    0 -0.16965055648E+02 -0.20830655922E+03 -0.72561968002E+03  0.76539461504E+03  0.12500224391E+03 0.  0.
          2    1    1    2  501    0  0.19189388486E+03  0.51248912546E+02 -0.47006720509E+03  0.51030666406E+03  0.00000000000E+00 0. -1.
          1    1    1    2  502    0 -0.17492882921E+03  0.15705764667E+03  0.51198622270E+03  0.56338005990E+03  0.00000000000E+00 0. -1.
         22    1    3    3    0    0 -0.15015275461E+02 -0.42413439521E+02 -0.40705909853E+02  0.60673960198E+02  0.00000000000E+00 0.  1.
         22    1    3    3    0    0 -0.19497801870E+01 -0.16589311970E+03 -0.68491377016E+03  0.70472065485E+03  0.00000000000E+00 0.  1.
</event>
<event>
 7    1  0.9036454E-005  0.5548637E+02  0.7818608E-02  0.1489172E+00
          2   -1    0    0  502    0  0.00000000000E+00  0.00000000000E+00  0.36648917031E+04  0.36648917031E+04  0.00000000000E+00 0. -1.
          1   -1    0    0  501    0 -0.00000000000E+00 -0.00000000000E+00 -0.17623427402E+03  0.17623427402E+03  0.00000000000E+00 0. -1.
         25    2    1    2    0    0  0.87704729578E+02  0.27934728832E+01  0.12282447569E+04  0.12377048125E+04  0.12501238748E+03 0.  0.
          2    1    1    2  501    0 -0.55014609018E+02 -0.62669386543E+01 -0.16692093824E+03  0.17586495202E+03  0.00000000000E+00 0. -1.
          1    1    1    2  502    0 -0.32690120560E+02  0.34734657711E+01  0.24273336105E+04  0.24275562126E+04  0.00000000000E+00 0. -1.
         22    1    3    3    0    0  0.33058145922E+02 -0.19732624228E+01  0.63038157893E+02  0.71207753278E+02  0.00000000000E+00 0.  1.
         22    1    3    3    0    0  0.54646583657E+02  0.47667353060E+01  0.11652065990E+04  0.11664970592E+04  0.00000000000E+00 0.  1.
</event>
<event>
 7    1  0.9036454E-005  0.2297902E+03  0.7818608E-02  0.1206066E+00
          2   -1    0    0  502    0  0.00000000000E+00  0.00000000000E+00  0.69798609830E+03  0.69798609830E+03  0.00000000000E+00 0. -1.
          1   -1    0    0  501    0 -0.00000000000E+00 -0.00000000000E+00 -0.32597013224E+03  0.32597013224E+03  0.00000000000E+00 0. -1.
         25    2    1    2    0    0  0.46624887919E+02  0.23232070009E+03  0.16934802135E+03  0.31694014014E+03  0.12500204892E+03 0.  0.
          2    1    1    2  501    0 -0.12948622648E+03 -0.19194065164E+03 -0.19258374396E+03  0.30115842183E+03  0.00000000000E+00 0. -1.
          1    1    1    2  502    0  0.82861338563E+02 -0.40380048451E+02  0.39525168867E+03  0.40585766857E+03  0.00000000000E+00 0. -1.
         22    1    3    3    0    0  0.40993141049E+02  0.18634598329E+03  0.18720089251E+03  0.26730027546E+03  0.00000000000E+00 0. -1.
         22    1    3    3    0    0  0.56317468700E+01  0.45974716800E+02 -0.17852871158E+02  0.49639864688E+02  0.00000000000E+00 0. -1.
</event>
<event>
 7    1  0.9036454E-005  0.4728080E+03  0.7818608E-02  0.1192721E+00
          2   -1    0    0  502    0  0.00000000000E+00  0.00000000000E+00  0.33446544264E+04  0.33446544264E+04  0.00000000000E+00 0. -1.
          1   -1    0    0  501    0 -0.00000000000E+00 -0.00000000000E+00 -0.82582466229E+03  0.82582466229E+03  0.00000000000E+00 0. -1.
         25    2    1    2    0    0 -0.21055113762E+03  0.46750664284E+03  0.69387937305E+02  0.53229169516E+03  0.12500208093E+03 0.  0.
          2    1    1    2  501    0  0.18989195444E+03 -0.42001222992E+03 -0.50474465757E+03  0.68354692377E+03  0.00000000000E+00 0. -1.
          1    1    1    2  502    0  0.20659183176E+02 -0.47494412917E+02  0.29541864844E+04  0.29546404698E+04  0.00000000000E+00 0. -1.
         22    1    3    3    0    0 -0.27388757487E+02  0.42367140318E+02 -0.30180800746E+02  0.58787748291E+02  0.00000000000E+00 0.  1.
         22    1    3    3    0    0 -0.18316238013E+03  0.42513950252E+03  0.99568738051E+02  0.47350394686E+03  0.00000000000E+00 0.  1.
</event>
<event>
 7    1  0.9036454E-005  0.1048483E+03  0.7818608E-02  0.1347999E+00
          2   -1    0    0  502    0  0.00000000000E+00  0.00000000000E+00  0.55980412505E+03  0.55980412505E+03  0.00000000000E+00 0. -1.
          1   -1    0    0  501    0 -0.00000000000E+00 -0.00000000000E+00 -0.11228584423E+04  0.11228584423E+04  0.00000000000E+00 0. -1.
         25    2    1    2    0    0 -0.11550146913E+03 -0.84050140409E+02  0.15959544046E+03  0.24799253006E+03  0.12499829949E+03 0.  0.
          2    1    1    2  501    0  0.98337840991E+02  0.35196278633E+02 -0.10742306841E+04  0.10792963780E+04  0.00000000000E+00 0. -1.
          1    1    1    2  502    0  0.17163628142E+02  0.48853861776E+02  0.35158092635E+03  0.35537365929E+03  0.00000000000E+00 0. -1.
         22    1    3    3    0    0 -0.12118096288E+03 -0.90508149816E+02  0.86188129674E+02  0.17408315439E+03  0.00000000000E+00 0.  1.
         22    1    3    3    0    0  0.56794937419E+01  0.64580094073E+01  0.73407310789E+02  0.73909375670E+02  0.00000000000E+00 0.  1.
</event>
<event>
 7    1  0.9036454E-005  0.1147876E+03  0.7818608E-02  0.1379781E+00
          2   -1    0    0  502    0  0.00000000000E+00  0.00000000000E+00  0.25684431972E+04  0.25684431972E+04  0.00000000000E+00 0. -1.
          1   -1    0    0  501    0 -0.00000000000E+00 -0.00000000000E+00 -0.15097409005E+03  0.15097409005E+03  0.00000000000E+00 0. -1.
         25    2    1    2    0    0 -0.10532832209E+03 -0.14833503210E+02  0.13838435249E+03  0.21468167767E+03  0.12499562178E+03 0.  0.
          2    1    1    2  501    0  0.19623903573E+01 -0.36213911576E+02 -0.10848378763E+03  0.11438544726E+03  0.00000000000E+00 0. -1.
          1    1    1    2  502    0  0.10336593173E+03  0.51047414786E+02  0.23875685423E+04  0.23903501623E+04  0.00000000000E+00 0. -1.
         22    1    3    3    0    0 -0.36236311059E+02  0.75056749842E-01 -0.19893900403E+02  0.41338156054E+02  0.00000000000E+00 0. -1.
         22    1    3    3    0    0 -0.69092011026E+02 -0.14908559960E+02  0.15827825290E+03  0.17334352162E+03  0.00000000000E+00 0. -1.
</event>
<event>
 7    1  0.9036454E-005  0.1119360E+03  0.7818608E-02  0.1274818E+00
          2   -1    0    0  502    0  0.00000000000E+00  0.00000000000E+00  0.10112008632E+04  0.10112008632E+04  0.00000000000E+00 0. -1.
          1   -1    0    0  501    0 -0.00000000000E+00 -0.00000000000E+00 -0.37493074397E+02  0.37493074397E+02  0.00000000000E+00 0. -1.
         25    2    1    2    0    0 -0.48593839034E+02  0.50519401772E+02  0.44061004586E+03  0.46333083266E+03  0.12499870733E+03 0.  0.
          2    1    1    2  501    0  0.14191936643E+03 -0.38193534927E+02  0.30332960436E+03  0.33705889924E+03  0.00000000000E+00 0. -1.
          1    1    1    2  502    0 -0.93325527397E+02 -0.12325866845E+02  0.22976813861E+03  0.24830420572E+03  0.00000000000E+00 0. -1.
         22    1    3    3    0    0 -0.75109584675E+02  0.74322453780E+01  0.36245309160E+03  0.37022821556E+03  0.00000000000E+00 0.  1.
         22    1    3    3    0    0  0.26515745641E+02  0.43087156394E+02  0.78156954262E+02  0.93102617109E+02  0.00000000000E+00 0.  1.
</event>
<event>
 7    1  0.9036454E-005  0.6045831E+02  0.7818608E-02  0.1486212E+00
          2   -1    0    0  502    0  0.00000000000E+00  0.00000000000E+00  0.36636587677E+03  0.36636587677E+03  0.00000000000E+00 0. -1.
          1   -1    0    0  501    0 -0.00000000000E+00 -0.00000000000E+00 -0.85551358875E+02  0.85551358875E+02  0.00000000000E+00 0. -1.
         25    2    1    2    0    0 -0.13929434995E+02 -0.87599261849E+02  0.42125502208E+02  0.15895930892E+03  0.12500337643E+03 0.  0.
          2    1    1    2  501    0  0.10835773988E+02  0.28832282567E+02 -0.13764016085E+02  0.33736666325E+02  0.00000000000E+00 0. -1.
          1    1    1    2  502    0  0.30936610071E+01  0.58766979282E+02  0.25245303177E+03  0.25922126040E+03  0.00000000000E+00 0. -1.
         22    1    3    3    0    0  0.15587258877E+02 -0.28563085038E+02  0.77514151086E+02  0.84066973805E+02  0.00000000000E+00 0.  1.
         22    1    3    3    0    0 -0.29516693872E+02 -0.59036176811E+02 -0.35388648877E+02  0.74892335115E+02  0.00000000000E+00 0.  1.
</event>
<event>
 7    1  0.9036454E-005  0.9052888E+03  0.7818608E-02  0.9569216E-01
          2   -1    0    0  502    0  0.00000000000E+00  0.00000000000E+00  0.15554909075E+04  0.15554909075E+04  0.00000000000E+00 0. -1.
          1   -1    0    0  501    0 -0.00000000000E+00 -0.00000000000E+00 -0.20522237421E+04  0.20522237421E+04  0.00000000000E+00 0. -1.
         25    2    1    2    0    0  0.56971421894E+03  0.86837352658E+03  0.83151232417E+03  0.13362959916E+04  0.12500943597E+03 0.  0.
          2    1    1    2  501    0 -0.69354026908E+03 -0.56324552138E+02 -0.12697445787E+04  0.14479025710E+04  0.00000000000E+00 0. -1.
          1    1    1    2  502    0  0.12382605015E+03 -0.81204897444E+03 -0.58500580076E+02  0.82351608694E+03  0.00000000000E+00 0. -1.
         22    1    3    3    0    0  0.13544993363E+03  0.30626067478E+03  0.29220638470E+03  0.44443993598E+03  0.00000000000E+00 0.  1.
         22    1    3    3    0    0  0.43426428530E+03  0.56211285180E+03  0.53930593948E+03  0.89185605565E+03  0.00000000000E+00 0.  1.
</event>
<event>
 7    1  0.9036454E-005  0.3455617E+03  0.7818608E-02  0.1164905E+00
          2   -1    0    0  502    0  0.00000000000E+00  0.00000000000E+00  0.26221312987E+04  0.26221312987E+04  0.00000000000E+00 0. -1.
          1   -1    0    0  501    0 -0.00000000000E+00 -0.00000000000E+00 -0.34054713650E+03  0.34054713650E+03  0.00000000000E+00 0. -1.
         25    2    1    2    0    0 -0.30614668205E+03 -0.10516458236E+02  0.73840493490E+02  0.33899028616E+03  0.12500243520E+03 0.  0.
          2    1    1    2  501    0 -0.28610410975E+02 -0.92622991528E+02 -0.18317537925E+03  0.20724573274E+03  0.00000000000E+00 0. -1.
          1    1    1    2  502    0  0.33475709302E+03  0.10313944976E+03  0.23909190480E+04  0.24164424163E+04  0.00000000000E+00 0. -1.
         22    1    3    3    0    0 -0.76647598703E+02 -0.21945609693E+01 -0.35665958955E+02  0.84567908292E+02  0.00000000000E+00 0. -1.
         22    1    3    3    0    0 -0.22949908335E+03 -0.83218972664E+01  0.10950645245E+03  0.25442237786E+03  0.00000000000E+00 0. -1.
</event>
<event>
 7    1  0.9036454E-005  0.7435505E+03  0.7818608E-02  0.1086491E+00
          2   -1    0    0  502    0  0.00000000000E+00  0.00000000000E+00  0.56529121153E+03  0.56529121153E+03  0.00000000000E+00 0. -1.
          1   -1    0    0  501    0 -0.00000000000E+00 -0.00000000000E+00 -0.15970152328E+04  0.15970152328E+04  0.00000000000E+00 0. -1.
         25    2    1    2    0    0 -0.43994734315E+03 -0.53747356304E+03 -0.14452159544E+03  0.72037648903E+03  0.12499719472E+03 0.  0.
          2    1    1    2  501    0 -0.61974125669E+02 -0.10163754919E+03 -0.54893651082E+03  0.56169589332E+03  0.00000000000E+00 0. -1.
          1    1    1    2  502    0  0.50192146882E+03  0.63911111223E+03 -0.33826591506E+03  0.88023406202E+03  0.00000000000E+00 0. -1.
         22    1    3    3    0    0 -0.53466892184E+02 -0.14454923494E+03 -0.42487915801E+02  0.15986998740E+03  0.00000000000E+00 0. -1.
         22    1    3    3    0    0 -0.38648045097E+03 -0.39292432811E+03 -0.10203367964E+03  0.56050650164E+03  0.00000000000E+00 0. -1.
</event>
<event>
 7    1  0.9036454E-005  0.2486522E+03  0.7818608E-02  0.1258087E+00
          2   -1    0    0  502    0  0.00000000000E+00  0.00000000000E+00  0.22838123623E+04  0.22838123623E+04  0.00000000000E+00 0. -1.
          1   -1    0    0  501    0 -0.00000000000E+00 -0.00000000000E+00 -0.91687926908E+02  0.91687926908E+02  0.00000000000E+00 0. -1.
         25    2    1    2    0    0 -0.83835353599E+02  0.20583669447E+03  0.56188710543E+03  0.61704073213E+03  0.12500013822E+03 0.  0.
          2    1    1    2  501    0  0.66598029358E+02 -0.25262844044E+03  0.20431105139E+03  0.33166162298E+03  0.00000000000E+00 0. -1.
          1    1    1    2  502    0  0.17237324241E+02  0.46791745971E+02  0.14259262786E+04  0.14267979341E+04  0.00000000000E+00 0. -1.
         22    1    3    3    0    0 -0.10039205227E+03  0.19754341621E+03  0.42879585903E+03  0.48266743640E+03  0.00000000000E+00 0.  1.
         22    1    3    3    0    0  0.16556698673E+02  0.82932782639E+01  0.13309124640E+03  0.13437329572E+03  0.00000000000E+00 0.  1.
</event>
<event>
 7    1  0.9036454E-005  0.7055489E+03  0.7818608E-02  0.1001011E+00
          2   -1    0    0  502    0  0.00000000000E+00  0.00000000000E+00  0.11050144254E+04  0.11050144254E+04  0.00000000000E+00 0. -1.
          1   -1    0    0  501    0 -0.00000000000E+00 -0.00000000000E+00 -0.99820074682E+03  0.99820074682E+03  0.00000000000E+00 0. -1.
         25    2    1    2    0    0 -0.27631222602E+01  0.73331172533E+03  0.35361491913E+03  0.82366432768E+03  0.12500276916E+03 0.  0.
          2    1    1    2  501    0  0.41584874283E+03 -0.11705948246E+03 -0.31481182633E+03  0.53454614893E+03  0.00000000000E+00 0. -1.
          1    1    1    2  502    0 -0.41308562057E+03 -0.61625224287E+03  0.68010585827E+02  0.74500469566E+03  0.00000000000E+00 0. -1.
         22    1    3    3    0    0  0.41287294887E+01  0.72205740593E+03  0.32437176476E+03  0.79158131966E+03  0.00000000000E+00 0.  1.
         22    1    3    3    0    0 -0.68918517489E+01  0.11254319404E+02  0.29243154367E+02  0.32083008012E+02  0.00000000000E+00 0.  1.
</event>
<event>
 7    1  0.9036454E-005  0.1484577E+03  0.7818608E-02  0.1327742E+00
          2   -1    0    0  502    0  0.00000000000E+00  0.00000000000E+00  0.45965546686E+03  0.45965546686E+03  0.00000000000E+00 0. -1.
          1   -1    0    0  501    0 -0.00000000000E+00 -0.00000000000E+00 -0.66614837805E+03  0.66614837805E+03  0.00000000000E+00 0. -1.
         25    2    1    2    0    0  0.22863540655E+02 -0.18915507040E+03 -0.32764192872E+03  0.39909387149E+03  0.12499721062E+03 0.  0.
          2    1    1    2  501    0 -0.71579081571E+01  0.43019180881E+02 -0.28835204982E+03  0.29163125725E+03  0.00000000000E+00 0. -1.
          1    1    1    2  502    0 -0.15705632497E+02  0.14613588952E+03  0.40950106735E+03  0.43507871616E+03  0.00000000000E+00 0. -1.
         22    1    3    3    0    0 -0.23344873964E+02 -0.14723706783E+03 -0.29041613967E+03  0.32644336640E+03  0.00000000000E+00 0.  1.
         22    1    3    3    0    0  0.46208414618E+02 -0.41918002565E+02 -0.37225789047E+02  0.72650505096E+02  0.00000000000E+00 0.  1.
</event>
<event>
 7    1  0.9036454E-005  0.7412058E+03  0.7818608E-02  0.1104443E+00
          2   -1    0    0  502    0  0.00000000000E+00  0.00000000000E+00  0.17380170844E+04  0.17380170844E+04  0.00000000000E+00 0. -1.
          1   -1    0    0  501    0 -0.00000000000E+00 -0.00000000000E+00 -0.63022645379E+03  0.63022645379E+03  0.00000000000E+00 0. -1.
         25    2    1    2    0    0 -0.81651900487E+02  0.67000020815E+03  0.27756069898E+02  0.68699537308E+03  0.12499972579E+03 0.  0.
          2    1    1    2  501    0 -0.47157766054E+02  0.81799713794E+02 -0.18290961032E+03  0.20584210848E+03  0.00000000000E+00 0. -1.
          1    1    1    2  502    0  0.12880966654E+03 -0.75179992194E+03  0.12629441711E+04  0.14754060567E+04  0.00000000000E+00 0. -1.
         22    1    3    3    0    0 -0.31317416399E+02  0.24399998458E+03 -0.50026765462E+02  0.25103675091E+03  0.00000000000E+00 0. -1.
         22    1    3    3    0    0 -0.50334484089E+02  0.42600022357E+03  0.77782835360E+02  0.43595862217E+03  0.00000000000E+00 0. -1.
</event>
<event>
 7    1  0.9036454E-005  0.4797229E+03  0.7818608E-02  0.1124977E+00
          2   -1    0    0  502    0  0.00000000000E+00  0.00000000000E+00  0.16408150141E+04  0.16408150141E+04  0.00000000000E+00 0. -1.
          1   -1    0    0  501    0 -0.00000000000E+00 -0.00000000000E+00 -0.28580920155E+04  0.28580920155E+04  0.00000000000E+00 0. -1.
         25    2    1    2    0    0  0.45745796727E+03  0.47996908943E+02 -0.99486566540E+03  0.11031566894E+04  0.12500197607E+03 0.  0.
          2    1    1    2  501    0 -0.41917193067E+01  0.11248637265E+03 -0.17708234217E+04  0.17743974598E+04  0.00000000000E+00 0. -1.
          1    1    1    2  502    0 -0.45326624796E+03 -0.16048328159E+03  0.15484120858E+04  0.16213528804E+04  0.00000000000E+00 0. -1.
         22    1    3    3    0    0  0.39683573406E+03  0.82233179010E+02 -0.88007470894E+03  0.96890267255E+03  0.00000000000E+00 0. -1.
         22    1    3    3    0    0  0.60622233205E+02 -0.34236270067E+02 -0.11479095646E+03  0.13425401682E+03  0.00000000000E+00 0. -1.
</event>
<event>
 7    1  0.9036454E-005  0.1235065E+04  0.7818608E-02  0.9897327E-01
          2   -1    0    0  502    0  0.00000000000E+00  0.00000000000E+00  0.33829193343E+04  0.33829193343E+04  0.00000000000E+00 0. -1.
          1   -1    0    0  501    0 -0.00000000000E+00 -0.00000000000E+00 -0.21077509392E+04  0.21077509392E+04  0.00000000000E+00 0. -1.
         25    2    1    2    0    0  0.10445089505E+04 -0.22340053869E+03 -0.11851478123E+04  0.16003459117E+04  0.12499980717E+03 0.  0.
          2    1    1    2  501    0  0.10304856568E+03 -0.27672988171E+03 -0.55323975812E+03  0.62711455436E+03  0.00000000000E+00 0. -1.
          1    1    1    2  502    0 -0.11475575162E+04  0.50013042040E+03  0.30135559655E+04  0.32632098074E+04  0.00000000000E+00 0. -1.
         22    1    3    3    0    0  0.87519319138E+03 -0.23349105885E+03 -0.99913050533E+03  0.13486077871E+04  0.00000000000E+00 0. -1.
         22    1    3    3    0    0  0.16931575909E+03  0.10090520167E+02 -0.18601730697E+03  0.25173812458E+03  0.00000000000E+00 0. -1.
</event>
<event>
 7    1  0.9036454E-005  0.5843163E+02  0.7818608E-02  0.1441217E+00
          2   -1    0    0  502    0  0.00000000000E+00  0.00000000000E+00  0.15075539341E+03  0.15075539341E+03  0.00000000000E+00 0. -1.
          1   -1    0    0  501    0 -0.00000000000E+00 -0.00000000000E+00 -0.42525703426E+03  0.42525703426E+03  0.00000000000E+00 0. -1.
         25    2    1    2    0    0 -0.10203709503E+02  0.15195664671E+02 -0.83130840348E+02  0.15123053141E+03  0.12499965240E+03 0.  0.
          2    1    1    2  501    0  0.27600147471E+02 -0.55738787952E+02 -0.30060639694E+03  0.30697359252E+03  0.00000000000E+00 0. -1.
          1    1    1    2  502    0 -0.17396437968E+02  0.40543123280E+02  0.10923559645E+03  0.11780830374E+03  0.00000000000E+00 0. -1.
         22    1    3    3    0    0 -0.20294757680E+02 -0.52891440316E+02 -0.28867088957E+02  0.63582155302E+02  0.00000000000E+00 0.  1.
         22    1    3    3    0    0  0.10091048176E+02  0.68087104988E+02 -0.54263751391E+02  0.87648376105E+02  0.00000000000E+00 0.  1.
</event>
<event>
 7    1  0.9036454E-005  0.6585284E+02  0.7818608E-02  0.1469792E+00
          2   -1    0    0  502    0  0.00000000000E+00  0.00000000000E+00  0.17215224744E+04  0.17215224744E+04  0.00000000000E+00 0. -1.
          1   -1    0    0  501    0 -0.00000000000E+00 -0.00000000000E+00 -0.83163242161E+02  0.83163242161E+02  0.00000000000E+00 0. -1.
         25    2    1    2    0    0  0.27822708069E+02 -0.30677998188E+02  0.85062711989E+03  0.86075955390E+03  0.12500107955E+03 0.  0.
          2    1    1    2  501    0 -0.23213711706E+02  0.62107840338E+02 -0.63674181404E+02  0.91927480223E+02  0.00000000000E+00 0. -1.
          1    1    1    2  502    0 -0.46089963627E+01 -0.31429842150E+02  0.85140629377E+03  0.85199868245E+03  0.00000000000E+00 0. -1.
         22    1    3    3    0    0 -0.18488743837E+02  0.39364878770E+02  0.19587296781E+03  0.20064308323E+03  0.00000000000E+00 0. -1.
         22    1    3    3    0    0  0.46311451905E+02 -0.70042876957E+02  0.65475415208E+03  0.66011647067E+03  0.00000000000E+00 0. -1.
</event>
<event>
 7    1  0.9036454E-005  0.6991494E+03  0.7818608E-02  0.1139679E+00
          2   -1    0    0  502    0  0.00000000000E+00  0.00000000000E+00  0.84868798679E+03  0.84868798679E+03  0.00000000000E+00 0. -1.
          1   -1    0    0  501    0 -0.00000000000E+00 -0.00000000000E+00 -0.92956946297E+03  0.92956946297E+03  0.00000000000E+00 0. -1.
         25    2    1    2    0    0 -0.69933056656E+03  0.20584263677E+03 -0.55072962040E+02  0.74168200684E+03  0.12499894271E+03 0.  0.
          2    1    1    2  501    0  0.33942431981E+02 -0.54878543442E+02 -0.29583221551E+03  0.30278778534E+03  0.00000000000E+00 0. -1.
          1    1    1    2  502    0  0.66538813458E+03 -0.15096409333E+03  0.27002370136E+03  0.73378765758E+03  0.00000000000E+00 0. -1.
         22    1    3    3    0    0 -0.25735463608E+03  0.89281406298E+02 -0.80027066327E+02  0.28391356003E+03  0.00000000000E+00 0. -1.
         22    1    3    3    0    0 -0.44197593048E+03  0.11656123048E+03  0.24954104287E+02  0.45776844681E+03  0.00000000000E+00 0. -1.
</event>
<event>
 7    1  0.9036454E-005  0.2647428E+03  0.7818608E-02  0.1113640E+00
          2   -1    0    0  502    0  0.00000000000E+00  0.00000000000E+00  0.58702073570E+03  0.58702073570E+03  0.00000000000E+00 0. -1.
          1   -1    0    0  501    0 -0.00000000000E+00 -0.00000000000E+00 -0.31980545449E+03  0.31980545449E+03  0.00000000000E+00 0. -1.
         25    2    1    2    0    0 -0.16950043748E+03  0.20297818633E+02  0.25398707130E+03  0.33057112877E+03  0.12500175614E+03 0.  0.
          2    1    1    2  501    0  0.16177587560E+03  0.24433222150E+03 -0.65077311008E+02  0.30017449058E+03  0.00000000000E+00 0. -1.
          1    1    1    2  502    0  0.77245618832E+01 -0.26463004013E+03  0.78305520913E+02  0.27608057085E+03  0.00000000000E+00 0. -1.
         22    1    3    3    0    0 -0.14953381285E+03 -0.17333075510E+02  0.24418623821E+03  0.28685835464E+03  0.00000000000E+00 0. -1.
         22    1    3    3    0    0 -0.19966624628E+02  0.37630894143E+02  0.98008330925E+01  0.43712774133E+02  0.00000000000E+00 0. -1.
</event>
<event>
 7    1  0.9036454E-005  0.2012496E+03  0.7818608E-02  0.1362867E+00
          2   -1    0    0  502    0  0.00000000000E+00  0.00000000000E+00  0.11019394852E+04  0.11019394852E+04  0.00000000000E+00 0. -1.
          1   -1    0    0  501    0 -0.00000000000E+00 -0.00000000000E+00 -0.17354535784E+03  0.17354535784E+03  0.00000000000E+00 0. -1.
         25    2    1    2    0    0  0.10571388488E+03  0.17066273948E+03 -0.64531843759E+02  0.24512986283E+03  0.12499237853E+03 0.  0.
          2    1    1    2  501    0 -0.20628090949E+02  0.11847337877E+02  0.80646835436E+01  0.25118054694E+02  0.00000000000E+00 0. -1.
          1    1    1    2  502    0 -0.85085793928E+02 -0.18251007735E+03  0.98486128754E+03  0.10052369255E+04  0.00000000000E+00 0. -1.
         22    1    3    3    0    0  0.80896621684E+02  0.66167400056E+02  0.22484717158E+02  0.10690159370E+03  0.00000000000E+00 0.  1.
         22    1    3    3    0    0  0.24817263194E+02  0.10449533942E+03 -0.87016560917E+02  0.13822826913E+03  0.00000000000E+00 0.  1.
</event>
<event>
 7    1  0.9036454E-005  0.2910724E+03  0.7818608E-02  0.1137117E+00
          2   -1    0    0  502    0  0.00000000000E+00  0.00000000000E+00  0.44445280322E+03  0.44445280322E+03  0.00000000000E+00 0. -1.
          1   -1    0    0  501    0 -0.00000000000E+00 -0.00000000000E+00 -0.16760044426E+04  0.16760044426E+04  0.00000000000E+00 0. -1.
         25    2    1    2    0    0 -0.23254088430E+03 -0.19284741618E+03 -0.12495066037E+03  0.35000403958E+03  0.12499908558E+03 0.  0.
          2    1    1    2  501    0  0.13362780287E+03 -0.87761408800E+02 -0.13662413134E+04  0.13755630778E+04  0.00000000000E+00 0. -1.
          1    1    1    2  502    0  0.98913081422E+02  0.28060882498E+03  0.25964033437E+03  0.39489012847E+03  0.00000000000E+00 0. -1.
         22    1    3    3    0    0 -0.22535685335E+03 -0.16407850073E+03 -0.69767399133E+02  0.28735858389E+03  0.00000000000E+00 0.  1.
         22    1    3    3    0    0 -0.71840309410E+01 -0.28768915456E+02 -0.55183261238E+02  0.62645455685E+02  0.00000000000E+00 0.  1.
</event>
<event>
 7    1  0.9036454E-005  0.2285991E+03  0.7818608E-02  0.1135746E+00
          2   -1    0    0  502    0  0.00000000000E+00  0.00000000000E+00  0.10972881668E+04  0.10972881668E+04  0.00000000000E+00 0. -1.
          1   -1    0    0  501    0 -0.00000000000E+00 -0.00000000000E+00 -0.32656223671E+03  0.32656223671E+03  0.00000000000E+00 0. -1.
         25    2    1    2    0    0 -0.31611961782E+01  0.20304057756E+03  0.78832975183E+03  0.82360429922E+03  0.12499909913E+03 0.  0.
          2    1    1    2  501    0  0.22819961337E+03  0.13509190901E+02 -0.13629318322E+03  0.26614543688E+03  0.00000000000E+00 0. -1.
          1    1    1    2  502    0 -0.22503841719E+03 -0.21654976846E+03  0.11868936149E+03  0.33410066741E+03  0.00000000000E+00 0. -1.
         22    1    3    3    0    0 -0.70784709702E+01 -0.61716262861E+00 -0.20526624865E+01  0.73958815748E+01  0.00000000000E+00 0.  1.
         22    1    3    3    0    0  0.39172747920E+01  0.20365774019E+03  0.79038241432E+03  0.81620841765E+03  0.00000000000E+00 0.  1.
</event>
<event>
 7    1  0.9036454E-005  0.4757384E+03  0.7818608E-02  0.1121580E+00
          2   -1    0    0  502    0  0.00000000000E+00  0.00000000000E+00  0.68756199241E+03  0.68756199241E+03  0.00000000000E+00 0. -1.
          1   -1    0    0  501    0 -0.00000000000E+00 -0.00000000000E+00 -0.89617752172E+03  0.89617752172E+03  0.00000000000E+00 0. -1.
         25    2    1    2    0    0  0.41975635328E+03  0.31562866884E+03 -0.32738806735E+02  0.54084533871E+03  0.12499999289E+03 0.  0.
          2    1    1    2  501    0 -0.41684436651E+03 -0.19726181786E+03 -0.51049171088E+03  0.68794857188E+03  0.00000000000E+00 0. -1.
          1    1    1    2  502    0 -0.29119867667E+01 -0.11836685098E+03  0.33461498830E+03  0.35494560354E+03  0.00000000000E+00 0. -1.
         22    1    3    3    0    0  0.22559002290E+03  0.24158497245E+03 -0.38419062275E+00  0.33053638975E+03  0.00000000000E+00 0.  1.
         22    1    3    3    0    0  0.19416633038E+03  0.74043696393E+02 -0.32354616112E+02  0.21030894896E+03  0.00000000000E+00 0.  1.
</event>
<event>
 7    1  0.9036454E-005  0.6937183E+03  0.7818608E-02  0.1009327E+00
          2   -1    0    0  502    0  0.00000000000E+00  0.00000000000E+00  0.35955695063E+04  0.35955695063E+04  0.00000000000E+00 0. -1.
          1   -1    0    0  501    0 -0.00000000000E+00 -0.00000000000E+00 -0.63780569693E+03  0.63780569693E+03  0.00000000000E+00 0. -1.
         25    2    1    2    0    0 -0.42175266724E+03 -0.45885333599E+03  0.19978916287E+04  0.20965730122E+04  0.12500295557E+03 0.  0.
          2    1    1    2  501    0  0.68843021642E+03  0.17987052553E+03 -0.33440888341E+03  0.78620536131E+03  0.00000000000E+00 0. -1.
          1    1    1    2  502    0 -0.26667754919E+03  0.27898281046E+03  0.12942810641E+04  0.13505968298E+04  0.00000000000E+00 0. -1.
         22    1    3    3    0    0 -0.35842091434E+03 -0.44279474005E+03  0.17622696545E+04  0.18520602228E+04  0.00000000000E+00 0. -1.
         22    1    3    3    0    0 -0.63331752894E+02 -0.16058595943E+02  0.23562197420E+03  0.24451278935E+03  0.00000000000E+00 0. -1.
</event>
<event>
 7    1  0.9036454E-005  0.3339530E+03  0.7818608E-02  0.1139832E+00
          2   -1    0    0  502    0  0.00000000000E+00  0.00000000000E+00  0.11795985347E+04  0.11795985347E+04  0.00000000000E+00 0. -1.
          1   -1    0    0  501    0 -0.00000000000E+00 -0.00000000000E+00 -0.46806209385E+03  0.46806209385E+03  0.00000000000E+00 0. -1.
         25    2    1    2    0    0 -0.12687740986E+03  0.38311251664E+03  0.66701539204E+03  0.78955947185E+03  0.12498619461E+03 0.  0.
          2    1    1    2  501    0 -0.10637009034E+02 -0.13442205147E+03 -0.34817080341E+03  0.37337024819E+03  0.00000000000E+00 0. -1.
          1    1    1    2  502    0  0.13751441890E+03 -0.24869046517E+03  0.39269185227E+03  0.48473090855E+03  0.00000000000E+00 0. -1.
         22    1    3    3    0    0 -0.54478153788E+02  0.63504978397E+02  0.21935444020E+03  0.23477036004E+03  0.00000000000E+00 0.  1.
         22    1    3    3    0    0 -0.72399256075E+02  0.31960753824E+03  0.44766095184E+03  0.55478911181E+03  0.00000000000E+00 0.  1.
</event>
<event>
 7    1  0.9036454E-005  0.3373806E+03  0.7818608E-02  0.1251815E+00
          2   -1    0    0  502    0  0.00000000000E+00  0.00000000000E+00  0.53471776249E+03  0.53471776249E+03  0.00000000000E+00 0. -1.
          1   -1    0    0  501    0 -0.00000000000E+00 -0.00000000000E+00 -0.43339336173E+03  0.43339336173E+03  0.00000000000E+00 0. -1.
         25    2    1    2    0    0  0.25951351680E+03  0.20262163470E+03 -0.50402636600E+02  0.35576441356E+03  0.12500039972E+03 0.  0.
          2    1    1    2  501    0 -0.29302321815E+03 -0.18245933000E+03 -0.98592277198E+02  0.35899087816E+03  0.00000000000E+00 0. -1.
          1    1    1    2  502    0  0.33509701350E+02 -0.20162304698E+02  0.25031931456E+03  0.25335583249E+03  0.00000000000E+00 0. -1.
         22    1    3    3    0    0  0.26222535570E+03  0.17985305731E+03 -0.70012231802E+02  0.32559326160E+03  0.00000000000E+00 0. -1.
         22    1    3    3    0    0 -0.27118389049E+01  0.22768577389E+02  0.19609595202E+02  0.30171151960E+02  0.00000000000E+00 0. -1.
</event>
<event>
 7    1  0.9036454E-005  0.2660853E+03  0.7818608E-02  0.1346148E+00
          2   -1    0    0  502    0  0.00000000000E+00  0.00000000000E+00  0.16386703807E+04  0.16386703807E+04  0.00000000000E+00 0. -1.
          1   -1    0    0  501    0 -0.00000000000E+00 -0.00000000000E+00 -0.92225787259E+02  0.92225787259E+02  0.00000000000E+00 0. -1.
         25    2    1    2    0    0  0.12761415208E+03  0.24318506271E+03  0.50365556064E+03  0.58712684752E+03  0.12499865910E+03 0.  0.
          2    1    1    2  501    0 -0.13449547334E+03 -0.22363038830E+03  0.28779741904E+03  0.38849316252E+03  0.00000000000E+00 0. -1.
          1    1    1    2  502    0  0.68813212528E+01 -0.19554674418E+02  0.75499161375E+03  0.75527615791E+03  0.00000000000E+00 0. -1.
         22    1    3    3    0    0  0.28334060374E+02  0.14564584003E+02  0.15681072127E+03  0.16001421309E+03  0.00000000000E+00 0. -1.
         22    1    3    3    0    0  0.99280091711E+02  0.22862047871E+03  0.34684483937E+03  0.42711263444E+03  0.00000000000E+00 0. -1.
</event>
<event>
 7    1  0.9036454E-005  0.4823375E+03  0.7818608E-02  0.1172619E+00
          2   -1    0    0  502    0  0.00000000000E+00  0.00000000000E+00  0.16172422802E+04  0.16172422802E+04  0.00000000000E+00 0. -1.
          1   -1    0    0  501    0 -0.00000000000E+00 -0.00000000000E+00 -0.14286401155E+04  0.14286401155E+04  0.00000000000E+00 0. -1.
         25    2    1    2    0    0  0.28334710824E+03 -0.34812867868E+03 -0.42191989227E+03  0.62858660918E+03  0.12500227633E+03 0.  0.
          2    1    1    2  501    0 -0.29502656090E+03  0.41062091678E+03 -0.83188410699E+03  0.97348927904E+03  0.00000000000E+00 0. -1.
          1    1    1    2  502    0  0.11679452662E+02 -0.62492238103E+02  0.14424061639E+04  0.14438065075E+04  0.00000000000E+00 0. -1.
         22    1    3    3    0    0  0.95502809493E+02 -0.45991833919E+02 -0.13432670794E+03  0.17111312011E+03  0.00000000000E+00 0.  1.
         22    1    3    3    0    0  0.18784429874E+03 -0.30213684476E+03 -0.28759318433E+03  0.45747348907E+03  0.00000000000E+00 0.  1.
</event>
<event>
 7    1  0.9036454E-005  0.3546469E+03  0.7818608E-02  0.1103924E+00
          2   -1    0    0  502    0  0.00000000000E+00  0.00000000000E+00  0.10089755895E+04  0.10089755895E+04  0.00000000000E+00 0. -1.
          1   -1    0    0  501    0 -0.00000000000E+00 -0.00000000000E+00 -0.48661225924E+03  0.48661225924E+03  0.00000000000E+00 0. -1.
         25    2    1    2    0    0  0.17025119275E+03  0.46765648725E+02 -0.36171526425E+03  0.42146531834E+03  0.12499035019E+03 0.  0.
          2    1    1    2  501    0  0.18889782973E+03  0.61502688849E+02  0.14716477686E+03  0.24722953375E+03  0.00000000000E+00 0. -1.
          1    1    1    2  502    0 -0.35914902247E+03 -0.10826833757E+03  0.73691381769E+03  0.82689299668E+03  0.00000000000E+00 0. -1.
         22    1    3    3    0    0  0.80672746444E+02 -0.23080393351E+02 -0.24336324981E+03  0.25742274168E+03  0.00000000000E+00 0. -1.
         22    1    3    3    0    0  0.89578446304E+02  0.69846042076E+02 -0.11835201444E+03  0.16404257666E+03  0.00000000000E+00 0. -1.
</event>
<event>
 7    1  0.9036454E-005  0.4280484E+03  0.7818608E-02  0.1104975E+00
          2   -1    0    0  502    0  0.00000000000E+00  0.00000000000E+00  0.55786633240E+03  0.55786633240E+03  0.00000000000E+00 0. -1.
          1   -1    0    0  501    0 -0.00000000000E+00 -0.00000000000E+00 -0.14203686491E+04  0.14203686491E+04  0.00000000000E+00 0. -1.
         25    2    1    2    0    0 -0.29673603326E+03 -0.39036677936E+03  0.19411988689E+03  0.54198350133E+03  0.12500035746E+03 0.  0.
          2    1    1    2  501    0  0.71045624627E+01  0.16222563426E+03 -0.10551333356E+04  0.10675551448E+04  0.00000000000E+00 0. -1.
          1    1    1    2  502    0  0.28963147080E+03  0.22814114510E+03 -0.14888679200E+01  0.36869633534E+03  0.00000000000E+00 0. -1.
         22    1    3    3    0    0 -0.13504668346E+03 -0.25408908368E+03  0.67661067598E+02  0.29559582072E+03  0.00000000000E+00 0. -1.
         22    1    3    3    0    0 -0.16168934980E+03 -0.13627769568E+03  0.12645881929E+03  0.24638768061E+03  0.00000000000E+00 0. -1.
</event>
<event>
 7    1  0.9036454E-005  0.1090182E+03  0.7818608E-02  0.1265642E+00
          2   -1    0    0  502    0  0.00000000000E+00  0.00000000000E+00  0.87716729861E+03  0.87716729861E+03  0.00000000000E+00 0. -1.
          1   -1    0    0  501    0 -0.00000000000E+00 -0.00000000000E+00 -0.61706162790E+03  0.61706162790E+03  0.00000000000E+00 0. -1.
         25    2    1    2    0    0  0.50611717577E+02 -0.76289744762E+02 -0.38773428557E+03  0.41754631557E+03  0.12500151330E+03 0.  0.
          2    1    1    2  501    0  0.25883900239E+02  0.15396456418E+03 -0.18195582352E+03  0.23975609487E+03  0.00000000000E+00 0. -1.
          1    1    1    2  502    0 -0.76495617816E+02 -0.77674819419E+02  0.82979577980E+03  0.83692651607E+03  0.00000000000E+00 0. -1.
         22    1    3    3    0    0 -0.13292966553E+02 -0.26026476742E+02 -0.95861734925E+01  0.30756709408E+02  0.00000000000E+00 0. -1.
         22    1    3    3    0    0  0.63904684130E+02 -0.50263268020E+02 -0.37814811208E+03  0.38678960616E+03  0.00000000000E+00 0. -1.
</event>
<event>
 7    1  0.9036454E-005  0.8400111E+03  0.7818608E-02  0.1143616E+00
          2   -1    0    0  502    0  0.00000000000E+00  0.00000000000E+00  0.17952376574E+04  0.17952376574E+04  0.00000000000E+00 0. -1.
          1   -1    0    0  501    0 -0.00000000000E+00 -0.00000000000E+00 -0.13239010952E+04  0.13239010952E+04  0.00000000000E+00 0. -1.
         25    2    1    2    0    0 -0.72138135325E+03  0.43808293684E+03 -0.71857284442E+03  0.11154729993E+04  0.12500145213E+03 0.  0.
          2    1    1    2  501    0  0.68457259257E+03 -0.47370521754E+03  0.20095086523E+02  0.83273049669E+03  0.00000000000E+00 0. -1.
          1    1    1    2  502    0  0.36808760680E+02  0.35622280700E+02  0.11698143201E+04  0.11709352566E+04  0.00000000000E+00 0. -1.
         22    1    3    3    0    0 -0.23969911817E+03  0.19676267328E+03 -0.31751983691E+03  0.44383562687E+03  0.00000000000E+00 0. -1.
         22    1    3    3    0    0 -0.48168223507E+03  0.24132026356E+03 -0.40105300750E+03  0.67163737241E+03  0.00000000000E+00 0. -1.
</event>
<event>
 7    1  0.9036454E-005  0.7617955E+03  0.7818608E-02  0.1061044E+00
          2   -1    0    0  502    0  0.00000000000E+00  0.00000000000E+00  0.11929139514E+04  0.11929139514E+04  0.00000000000E+00 0. -1.
          1   -1    0    0  501    0 -0.00000000000E+00 -0.00000000000E+00 -0.12795503452E+04  0.12795503452E+04  0.00000000000E+00 0. -1.
         25    2    1    2    0    0  0.62853727016E+03  0.46910883923E+03 -0.35199519021E+03  0.86870474395E+03  0.12500046083E+03 0.  0.
          2    1    1    2  501    0 -0.12843223042E+03  0.10257225487E+03 -0.49948880187E+03  0.52583739737E+03  0.00000000000E+00 0. -1.
          1    1    1    2  502    0 -0.50010503975E+03 -0.57168109410E+03  0.76484759833E+03  0.10779221553E+04  0.00000000000E+00 0. -1.
         22    1    3    3    0    0  0.18247955894E+03  0.69490989606E+02 -0.90703857365E+02  0.21530205946E+03  0.00000000000E+00 0. -1.
         22    1    3    3    0    0  0.44605771122E+03  0.39961784962E+03 -0.26129133285E+03  0.65340268449E+03  0.00000000000E+00 0. -1.
</event>
<event>
 7    1  0.1030154E-004  0.2311753E+03  0.7818608E-02  0.1207515E+00
          2   -1    0    0  502    0  0.00000000000E+00  0.00000000000E+00  0.94458622685E+03  0.94458622685E+03  0.00000000000E+00 0. -1.
          1   -1    0    0  501    0 -0.00000000000E+00 -0.00000000000E+00 -0.21185670738E+04  0.21185670738E+04  0.00000000000E+00 0. -1.
         25    2    1    2    0    0  0.18382091864E+03 -0.19145746452E+03 -0.50820755172E+03  0.58680903317E+03  0.12499533965E+03 0.  0.
          2    1    1    2  501    0  0.22055515778E+02  0.87472076347E+02 -0.15550393756E+04  0.15576537707E+04  0.00000000000E+00 0. -1.
          1    1    1    2  502    0 -0.20587643442E+03  0.10398538817E+03  0.88926608033E+03  0.91869049675E+03  0.00000000000E+00 0. -1.
         22    1    3    3    0    0  0.15241367777E+03 -0.19682047580E+03 -0.37687557700E+03  0.45166738803E+03  0.00000000000E+00 0.  1.
         22    1    3    3    0    0  0.31407240870E+02  0.53630112814E+01 -0.13133197471E+03  0.13514164514E+03  0.00000000000E+00 0.  1.
</event>
<event>
 7    1  0.9036454E-005  0.3564121E+02  0.7818608E-02  0.1602758E+00
          2   -1    0    0  502    0  0.00000000000E+00  0.00000000000E+00  0.28118922065E+02  0.28118922065E+02  0.00000000000E+00 0. -1.
          1   -1    0    0  501    0 -0.00000000000E+00 -0.00000000000E+00 -0.10301832276E+04  0.10301832276E+04  0.00000000000E+00 0. -1.
         25    2    1    2    0    0 -0.31329665786E+02 -0.24505592504E+02 -0.25922028793E+03  0.29052385975E+03  0.12500753332E+03 0.  0.
          2    1    1    2  501    0  0.35745290603E+02  0.35335285171E+00 -0.74236080235E+03  0.74322097086E+03  0.00000000000E+00 0. -1.
          1    1    1    2  502    0 -0.44156248162E+01  0.24152239652E+02 -0.48321526402E+00  0.24557319066E+02  0.00000000000E+00 0. -1.
         22    1    3    3    0    0  0.45003557687E+02 -0.47621778886E+01 -0.14373053321E+03  0.15068664413E+03  0.00000000000E+00 0. -1.
         22    1    3    3    0    0 -0.76333223473E+02 -0.19743414615E+02 -0.11548975471E+03  0.13983721561E+03  0.00000000000E+00 0. -1.
</event>
<event>
 7    1  0.9036454E-005  0.5381401E+03  0.7818608E-02  0.1216465E+00
          2   -1    0    0  502    0  0.00000000000E+00  0.00000000000E+00  0.86850873459E+03  0.86850873459E+03  0.00000000000E+00 0. -1.
          1   -1    0    0  501    0 -0.00000000000E+00 -0.00000000000E+00 -0.56607002920E+03  0.56607002920E+03  0.00000000000E+00 0. -1.
         25    2    1    2    0    0 -0.13713322628E+03 -0.50551224217E+03 -0.26597486658E+03  0.60059688889E+03  0.12500337820E+03 0.  0.
          2    1    1    2  501    0 -0.34184771463E+02 -0.85267137134E+01 -0.14531036540E+02  0.38111080667E+02  0.00000000000E+00 0. -1.
          1    1    1    2  502    0  0.17131799774E+03  0.51403895588E+03  0.58294460851E+03  0.79587079423E+03  0.00000000000E+00 0. -1.
         22    1    3    3    0    0 -0.37284731702E+02 -0.21412934557E+03 -0.46185215633E+02  0.22220396485E+03  0.00000000000E+00 0.  1.
         22    1    3    3    0    0 -0.99848494573E+02 -0.29138289660E+03 -0.21978965095E+03  0.37839292404E+03  0.00000000000E+00 0.  1.
</event>
<event>
 7    1  0.9036454E-005  0.3111446E+03  0.7818608E-02  0.1184608E+00
          2   -1    0    0  502    0  0.00000000000E+00  0.00000000000E+00  0.42163146100E+03  0.42163146100E+03  0.00000000000E+00 0. -1.
          1   -1    0    0  501    0 -0.00000000000E+00 -0.00000000000E+00 -0.23589662626E+04  0.23589662626E+04  0.00000000000E+00 0. -1.
         25    2    1    2    0    0  0.16136975349E+03  0.31547396260E+03 -0.27795329423E+03  0.46738761314E+03  0.12501651378E+03 0.  0.
          2    1    1    2  501    0 -0.19535742460E+03 -0.23636536636E+03 -0.19685426411E+04  0.19922834235E+04  0.00000000000E+00 0. -1.
          1    1    1    2  502    0  0.33987671106E+02 -0.79108596238E+02  0.30916113374E+03  0.32092668696E+03  0.00000000000E+00 0. -1.
         22    1    3    3    0    0  0.10531933131E+03  0.29819538892E+03 -0.22255684195E+03  0.38670945091E+03  0.00000000000E+00 0.  1.
         22    1    3    3    0    0  0.56050422181E+02  0.17278573677E+02 -0.55396452286E+02  0.80678162231E+02  0.00000000000E+00 0.  1.
</event>
<event>
 7    1  0.9036454E-005  0.2241197E+03  0.7818608E-02  0.1223669E+00
          2   -1    0    0  502    0  0.00000000000E+00  0.00000000000E+00  0.72954734338E+03  0.72954734338E+03  0.00000000000E+00 0. -1.
          1   -1    0    0  501    0 -0.00000000000E+00 -0.00000000000E+00 -0.54173764564E+03  0.54173764564E+03  0.00000000000E+00 0. -1.
         25    2    1    2    0    0  0.55266199597E+02 -0.21114205317E+03 -0.44909401012E+03  0.51472862673E+03  0.12499923925E+03 0.  0.
          2    1    1    2  501    0 -0.86605455826E+02  0.28304464940E+03  0.34635006106E+03  0.45560195712E+03  0.00000000000E+00 0. -1.
          1    1    1    2  502    0  0.31339256229E+02 -0.71902596236E+02  0.29055364680E+03  0.30095440518E+03  0.00000000000E+00 0. -1.
         22    1    3    3    0    0 -0.21707594497E+02 -0.52810877785E+02 -0.41040564453E+02  0.70317397576E+02  0.00000000000E+00 0. -1.
         22    1    3    3    0    0  0.76973794094E+02 -0.15833117538E+03 -0.40805344566E+03  0.44441122915E+03  0.00000000000E+00 0. -1.
</event>
<event>
 7    1  0.9036454E-005  0.1275264E+03  0.7818608E-02  0.1394203E+00
          2   -1    0    0  502    0  0.00000000000E+00  0.00000000000E+00  0.15433212930E+03  0.15433212930E+03  0.00000000000E+00 0. -1.
          1   -1    0    0  501    0 -0.00000000000E+00 -0.00000000000E+00 -0.10913487483E+04  0.10913487483E+04  0.00000000000E+00 0. -1.
         25    2    1    2    0    0 -0.28835911194E+02  0.95769672578E+02 -0.52482309237E+03  0.54869651708E+03  0.12500099842E+03 0.  0.
          2    1    1    2  501    0 -0.66088188883E+01  0.28295665081E+02 -0.52487496626E+03  0.52567865788E+03  0.00000000000E+00 0. -1.
          1    1    1    2  502    0  0.35444730082E+02 -0.12406533766E+03  0.11268143966E+03  0.17130570260E+03  0.00000000000E+00 0. -1.
         22    1    3    3    0    0  0.31356048738E+02  0.18452179310E+02 -0.40000850769E+02  0.54071737313E+02  0.00000000000E+00 0.  1.
         22    1    3    3    0    0 -0.60191959932E+02  0.77317493268E+02 -0.48482224160E+03  0.49462477976E+03  0.00000000000E+00 0.  1.
</event>
<event>
 7    1  0.9036454E-005  0.1135602E+03  0.7818608E-02  0.1293387E+00
          2   -1    0    0  502    0  0.00000000000E+00  0.00000000000E+00  0.20275902442E+04  0.20275902442E+04  0.00000000000E+00 0. -1.
          1   -1    0    0  501    0 -0.00000000000E+00 -0.00000000000E+00 -0.44195402564E+02  0.44195402564E+02  0.00000000000E+00 0. -1.
         25    2    1    2    0    0  0.45007680865E+02  0.75005263202E+02  0.17551622688E+03  0.23256176795E+03  0.12501019627E+03 0.  0.
          2    1    1    2  501    0  0.66595913986E+02 -0.40320300309E+02  0.97087963057E+02  0.12444603227E+03  0.00000000000E+00 0. -1.
          1    1    1    2  502    0 -0.11160359485E+03 -0.34684962893E+02  0.17107906517E+04  0.17147778466E+04  0.00000000000E+00 0. -1.
         22    1    3    3    0    0  0.86137422595E+02  0.58067612249E+02  0.14597354292E+03  0.17916411023E+03  0.00000000000E+00 0. -1.
         22    1    3    3    0    0 -0.41129741731E+02  0.16937650953E+02  0.29542683958E+02  0.53397657721E+02  0.00000000000E+00 0. -1.
</event>
<event>
 7    1  0.9036454E-005  0.5763987E+02  0.7818608E-02  0.1483120E+00
          2   -1    0    0  502    0  0.00000000000E+00  0.00000000000E+00  0.14792272871E+04  0.14792272871E+04  0.00000000000E+00 0. -1.
          1   -1    0    0  501    0 -0.00000000000E+00 -0.00000000000E+00 -0.11274060300E+04  0.11274060300E+04  0.00000000000E+00 0. -1.
         25    2    1    2    0    0 -0.25069456858E+02  0.60234748933E+02 -0.95860721708E+00  0.14100978005E+03  0.12500454590E+03 0.  0.
          2    1    1    2  501    0 -0.77996429639E+01 -0.57123844131E+02 -0.10554415925E+04  0.10570151008E+04  0.00000000000E+00 0. -1.
          1    1    1    2  502    0  0.32869099822E+02 -0.31109048026E+01  0.14082214568E+04  0.14086084364E+04  0.00000000000E+00 0. -1.
         22    1    3    3    0    0 -0.35627065382E+02  0.80533868857E+01  0.53546601051E+02  0.64818078591E+02  0.00000000000E+00 0. -1.
         22    1    3    3    0    0  0.10557608523E+02  0.52181362048E+02 -0.54505208268E+02  0.76191701459E+02  0.00000000000E+00 0. -1.
</event>
<event>
 7    1  0.9036454E-005  0.5727818E+03  0.7818608E-02  0.1215453E+00
          2   -1    0    0  502    0  0.00000000000E+00  0.00000000000E+00  0.96584647263E+03  0.96584647263E+03  0.00000000000E+00 0. -1.
          1   -1    0    0  501    0 -0.00000000000E+00 -0.00000000000E+00 -0.59927603812E+03  0.59927603812E+03  0.00000000000E+00 0. -1.
         25    2    1    2    0    0  0.56045018490E+03  0.81462223011E+02 -0.29377124054E+03  0.65013169885E+03  0.12501672109E+03 0.  0.
          2    1    1    2  501    0 -0.59265691023E+03 -0.90524406518E+02  0.61795939521E+03  0.86099401598E+03  0.00000000000E+00 0. -1.
          1    1    1    2  502    0  0.32206725337E+02  0.90621835079E+01  0.42382279829E+02  0.53996795927E+02  0.00000000000E+00 0. -1.
         22    1    3    3    0    0  0.30132955820E+03  0.36243235164E+02 -0.22629105527E+03  0.37857722652E+03  0.00000000000E+00 0.  1.
         22    1    3    3    0    0  0.25912062669E+03  0.45218987846E+02 -0.67480185267E+02  0.27155447233E+03  0.00000000000E+00 0.  1.
</event>
<event>
 7    1  0.9036454E-005  0.1427108E+03  0.7818608E-02  0.1210900E+00
          2   -1    0    0  502    0  0.00000000000E+00  0.00000000000E+00  0.84156577826E+02  0.84156577826E+02  0.00000000000E+00 0. -1.
          1   -1    0    0  501    0 -0.00000000000E+00 -0.00000000000E+00 -0.16087823165E+04  0.16087823165E+04  0.00000000000E+00 0. -1.
         25    2    1    2    0    0  0.14998851492E+03 -0.24223402047E+01 -0.31383543137E+03  0.36962160059E+03  0.12500010919E+03 0.  0.
          2    1    1    2  501    0 -0.56614031683E+02  0.12906506460E+03 -0.11435597340E+04  0.11522117014E+04  0.00000000000E+00 0. -1.
          1    1    1    2  502    0 -0.93374483234E+02 -0.12664272439E+03 -0.67230573295E+02  0.17110559239E+03  0.00000000000E+00 0. -1.
         22    1    3    3    0    0  0.13850900798E+03  0.41850065606E+02 -0.19924757803E+03  0.24624331592E+03  0.00000000000E+00 0.  1.
         22    1    3    3    0    0  0.11479506942E+02 -0.44272405811E+02 -0.11458785334E+03  0.12337828467E+03  0.00000000000E+00 0.  1.
</event>
<event>
 7    1  0.9036454E-005  0.4420636E+03  0.7818608E-02  0.1098108E+00
          2   -1    0    0  502    0  0.00000000000E+00  0.00000000000E+00  0.16151218753E+04  0.16151218753E+04  0.00000000000E+00 0. -1.
          1   -1    0    0  501    0 -0.00000000000E+00 -0.00000000000E+00 -0.42661171465E+03  0.42661171465E+03  0.00000000000E+00 0. -1.
         25    2    1    2    0    0  0.26431812101E+03  0.32592421555E+03  0.18995833608E+03  0.47728407036E+03  0.12500100399E+03 0.  0.
          2    1    1    2  501    0 -0.13195063090E+03  0.11007943953E+03 -0.21088217901E+03  0.27202894226E+03  0.00000000000E+00 0. -1.
          1    1    1    2  502    0 -0.13236749012E+03 -0.43600365508E+03  0.12094340035E+04  0.12924205773E+04  0.00000000000E+00 0. -1.
         22    1    3    3    0    0  0.18978330025E+03  0.15317730599E+03  0.14539446306E+03  0.28393756006E+03  0.00000000000E+00 0. -1.
         22    1    3    3    0    0  0.74534820763E+02  0.17274690956E+03  0.44563873019E+02  0.19334651030E+03  0.00000000000E+00 0. -1.
</event>
<event>
 7    1  0.9036454E-005  0.1612829E+03  0.7818608E-02  0.1264232E+00
          2   -1    0    0  502    0  0.00000000000E+00  0.00000000000E+00  0.35282873313E+03  0.35282873313E+03  0.00000000000E+00 0. -1.
          1   -1    0    0  501    0 -0.00000000000E+00 -0.00000000000E+00 -0.81087798744E+03  0.81087798744E+03  0.00000000000E+00 0. -1.
         25    2    1    2    0    0 -0.19373487431E+03  0.92325990541E+02  0.36710894218E+02  0.25105844092E+03  0.12500144379E+03 0.  0.
          2    1    1    2  501    0  0.50906308246E+02 -0.51455147905E+02 -0.67511581431E+03  0.67898486522E+03  0.00000000000E+00 0. -1.
          1    1    1    2  502    0  0.14282856606E+03 -0.40870842635E+02  0.18035566579E+03  0.23366341443E+03  0.00000000000E+00 0. -1.
         22    1    3    3    0    0  0.18049339154E+02  0.77094123267E+01  0.80045044769E+01  0.21196362288E+02  0.00000000000E+00 0.  1.
         22    1    3    3    0    0 -0.21178421346E+03  0.84616578214E+02  0.28706389741E+02  0.22986207863E+03  0.00000000000E+00 0.  1.
</event>
<event>
 7    1  0.9036454E-005  0.4479158E+03  0.7818608E-02  0.1104176E+00
          2   -1    0    0  502    0  0.00000000000E+00  0.00000000000E+00  0.79843918029E+03  0.79843918029E+03  0.00000000000E+00 0. -1.
          1   -1    0    0  501    0 -0.00000000000E+00 -0.00000000000E+00 -0.15730395672E+04  0.15730395672E+04  0.00000000000E+00 0. -1.
         25    2    1    2    0    0 -0.12990866025E+03  0.39214426077E+03 -0.65249611367E+03  0.78232306762E+03  0.12499929001E+03 0.  0.
          2    1    1    2  501    0 -0.15235376462E+03 -0.36997173088E+02 -0.77690103518E+03  0.79256272867E+03  0.00000000000E+00 0. -1.
          1    1    1    2  502    0  0.28226242487E+03 -0.35514708768E+03  0.65479676196E+03  0.79659295118E+03  0.00000000000E+00 0. -1.
         22    1    3    3    0    0  0.82524236723E+01 -0.33530571059E+01 -0.29267077580E+01  0.93760922950E+01  0.00000000000E+00 0. -1.
         22    1    3    3    0    0 -0.13816108392E+03  0.39549731788E+03 -0.64956940592E+03  0.77294697532E+03  0.00000000000E+00 0. -1.
</event>
<event>
 7    1  0.9036454E-005  0.1711862E+04  0.7818608E-02  0.1154645E+00
          2   -1    0    0  502    0  0.00000000000E+00  0.00000000000E+00  0.34677535912E+04  0.34677535912E+04  0.00000000000E+00 0. -1.
          1   -1    0    0  501    0 -0.00000000000E+00 -0.00000000000E+00 -0.10994139634E+04  0.10994139634E+04  0.00000000000E+00 0. -1.
         25    2    1    2    0    0  0.50672013461E+03 -0.16378167448E+04  0.98965525220E+03  0.19834948719E+04  0.12500161646E+03 0.  0.
          2    1    1    2  501    0 -0.48474754993E+03  0.16396876945E+04  0.61108862836E+03  0.18157602359E+04  0.00000000000E+00 0. -1.
          1    1    1    2  502    0 -0.21972584680E+02 -0.18709496366E+01  0.76759574716E+03  0.76791244682E+03  0.00000000000E+00 0. -1.
         22    1    3    3    0    0  0.33234416251E+03 -0.88360224279E+03  0.57412875933E+03  0.11049114888E+04  0.00000000000E+00 0.  1.
         22    1    3    3    0    0  0.17437597210E+03 -0.75421450204E+03  0.41552649287E+03  0.87858338307E+03  0.00000000000E+00 0.  1.
</event>
<event>
 7    1  0.9036454E-005  0.1288740E+03  0.7818608E-02  0.1255574E+00
          2   -1    0    0  502    0  0.00000000000E+00  0.00000000000E+00  0.57451328131E+03  0.57451328131E+03  0.00000000000E+00 0. -1.
          1   -1    0    0  501    0 -0.00000000000E+00 -0.00000000000E+00 -0.86352597112E+02  0.86352597112E+02  0.00000000000E+00 0. -1.
         25    2    1    2    0    0 -0.79196063914E+02  0.82870841885E+02  0.12969747422E+03  0.21350729811E+03  0.12499735419E+03 0.  0.
          2    1    1    2  501    0  0.16433075476E+03 -0.33070835767E+02  0.24718587405E+03  0.29866223978E+03  0.00000000000E+00 0. -1.
          1    1    1    2  502    0 -0.85134690848E+02 -0.49800006118E+02  0.11127733593E+03  0.14869634053E+03  0.00000000000E+00 0. -1.
         22    1    3    3    0    0 -0.65263205711E+02  0.25326123978E+02  0.13700161594E+03  0.15385103622E+03  0.00000000000E+00 0. -1.
         22    1    3    3    0    0 -0.13932858203E+02  0.57544717907E+02 -0.73041417249E+01  0.59656261893E+02  0.00000000000E+00 0. -1.
</event>
<event>
 7    1  0.9036454E-005  0.2554489E+03  0.7818608E-02  0.1129246E+00
          2   -1    0    0  502    0  0.00000000000E+00  0.00000000000E+00  0.85403258211E+03  0.85403258211E+03  0.00000000000E+00 0. -1.
          1   -1    0    0  501    0 -0.00000000000E+00 -0.00000000000E+00 -0.22536627818E+03  0.22536627818E+03  0.00000000000E+00 0. -1.
         25    2    1    2    0    0 -0.19425806600E+03  0.11786664519E+03  0.28831982057E+03  0.38779132124E+03  0.12500019057E+03 0.  0.
          2    1    1    2  501    0 -0.12590845739E+03 -0.15608882252E+03 -0.27532418064E+02  0.20242206946E+03  0.00000000000E+00 0. -1.
          1    1    1    2  502    0  0.32016652339E+03  0.38222177331E+02  0.36787890143E+03  0.48918546959E+03  0.00000000000E+00 0. -1.
         22    1    3    3    0    0 -0.80279768513E+02  0.76941125568E+02  0.22535893262E+03  0.25129947582E+03  0.00000000000E+00 0. -1.
         22    1    3    3    0    0 -0.11397829749E+03  0.40925519623E+02  0.62960887948E+02  0.13649184542E+03  0.00000000000E+00 0. -1.
</event>
<event>
 7    1  0.9036454E-005  0.1858059E+03  0.7818608E-02  0.1182582E+00
          2   -1    0    0  502    0  0.00000000000E+00  0.00000000000E+00  0.11836739475E+04  0.11836739475E+04  0.00000000000E+00 0. -1.
          1   -1    0    0  501    0 -0.00000000000E+00 -0.00000000000E+00 -0.24511591765E+03  0.24511591765E+03  0.00000000000E+00 0. -1.
         25    2    1    2    0    0 -0.21432230618E+03 -0.10202780927E+03  0.31188430961E+03  0.41138859421E+03  0.12500011229E+03 0.  0.
          2    1    1    2  501    0  0.81464170310E+02  0.16605447887E+03 -0.14295694962E+03  0.23376738532E+03  0.00000000000E+00 0. -1.
          1    1    1    2  502    0  0.13285813587E+03 -0.64026669602E+02  0.76963066987E+03  0.78363388562E+03  0.00000000000E+00 0. -1.
         22    1    3    3    0    0 -0.72668185083E+01 -0.28298898913E+02  0.10698544623E+03  0.11090320120E+03  0.00000000000E+00 0.  1.
         22    1    3    3    0    0 -0.20705548768E+03 -0.73728910354E+02  0.20489886338E+03  0.30048539301E+03  0.00000000000E+00 0.  1.
</event>
<event>
 7    1  0.9036454E-005  0.1653525E+03  0.7818608E-02  0.1319151E+00
          2   -1    0    0  502    0  0.00000000000E+00  0.00000000000E+00  0.19953986129E+02  0.19953986129E+02  0.00000000000E+00 0. -1.
          1   -1    0    0  501    0 -0.00000000000E+00 -0.00000000000E+00 -0.37109826196E+04  0.37109826196E+04  0.00000000000E+00 0. -1.
         25    2    1    2    0    0  0.70368230843E+02 -0.16892063205E+03 -0.13266607117E+04  0.13450426856E+04  0.12500125705E+03 0.  0.
          2    1    1    2  501    0  0.18840403065E+02  0.37828820662E+02 -0.17769006054E+04  0.17774030893E+04  0.00000000000E+00 0. -1.
          1    1    1    2  502    0 -0.89208633907E+02  0.13109181138E+03 -0.58746731630E+03  0.60849083074E+03  0.00000000000E+00 0. -1.
         22    1    3    3    0    0  0.47872334184E+02 -0.18628044806E+03 -0.11919391514E+04  0.12073570749E+04  0.00000000000E+00 0. -1.
         22    1    3    3    0    0  0.22495896659E+02  0.17359816017E+02 -0.13472156038E+03  0.13768561076E+03  0.00000000000E+00 0. -1.
</event>
<event>
 7    1  0.9036454E-005  0.1821097E+03  0.7818608E-02  0.1196008E+00
          2   -1    0    0  502    0  0.00000000000E+00  0.00000000000E+00  0.11419083165E+04  0.11419083165E+04  0.00000000000E+00 0. -1.
          1   -1    0    0  501    0 -0.00000000000E+00 -0.00000000000E+00 -0.87807171184E+03  0.87807171184E+03  0.00000000000E+00 0. -1.
         25    2    1    2    0    0 -0.27614482280E+00 -0.23007260862E+03  0.17367578552E+03  0.31419916197E+03  0.12499741361E+03 0.  0.
          2    1    1    2  501    0  0.10239090252E+03  0.15009110406E+03 -0.79279522273E+03  0.81334832736E+03  0.00000000000E+00 0. -1.
          1    1    1    2  502    0 -0.10211475769E+03  0.79981504568E+02  0.88295604192E+03  0.89243253906E+03  0.00000000000E+00 0. -1.
         22    1    3    3    0    0  0.21932940773E+02 -0.26753660918E+02  0.84057766122E+02  0.90898406525E+02  0.00000000000E+00 0.  1.
         22    1    3    3    0    0 -0.22209085596E+02 -0.20331894771E+03  0.89618019398E+02  0.22330075544E+03  0.00000000000E+00 0.  1.
</event>
<event>
 7    1  0.9036454E-005  0.1554919E+03  0.7818608E-02  0.1306472E+00
          2   -1    0    0  502    0  0.00000000000E+00  0.00000000000E+00  0.11269868667E+04  0.11269868667E+04  0.00000000000E+00 0. -1.
          1   -1    0    0  501    0 -0.00000000000E+00 -0.00000000000E+00 -0.99052572220E+03  0.99052572220E+03  0.00000000000E+00 0. -1.
         25    2    1    2    0    0 -0.93979418545E+02  0.48164966781E+02 -0.71517860448E+03  0.73366198312E+03  0.12500989576E+03 0.  0.
          2    1    1    2  501    0 -0.46689771560E+02  0.18967602112E+02 -0.25822387574E+03  0.26309556192E+03  0.00000000000E+00 0. -1.
          1    1    1    2  502    0  0.14066919010E+03 -0.67132568893E+02  0.11098636247E+04  0.11207550438E+04  0.00000000000E+00 0. -1.
         22    1    3    3    0    0 -0.20533097441E+02  0.56260327356E+02 -0.12209073458E+03  0.13598889659E+03  0.00000000000E+00 0. -1.
         22    1    3    3    0    0 -0.73446321103E+02 -0.80953605751E+01 -0.59308786990E+03  0.59767308653E+03  0.00000000000E+00 0. -1.
</event>
<event>
 7    1  0.9036454E-005  0.1899596E+03  0.7818608E-02  0.1243010E+00
          2   -1    0    0  502    0  0.00000000000E+00  0.00000000000E+00  0.19116558887E+04  0.19116558887E+04  0.00000000000E+00 0. -1.
          1   -1    0    0  501    0 -0.00000000000E+00 -0.00000000000E+00 -0.57143704763E+02  0.57143704763E+02  0.00000000000E+00 0. -1.
         25    2    1    2    0    0 -0.27075198205E+02 -0.23261078523E+03  0.57126764085E+03  0.62993012036E+03  0.12499758114E+03 0.  0.
          2    1    1    2  501    0  0.54856917262E+02  0.16200793877E+03  0.25040339905E+03  0.30324530640E+03  0.00000000000E+00 0. -1.
          1    1    1    2  502    0 -0.27781719057E+02  0.70602846461E+02  0.10328411441E+04  0.10356241667E+04  0.00000000000E+00 0. -1.
         22    1    3    3    0    0 -0.53901299334E+02 -0.57739118525E+02  0.26185597668E+03  0.27350997861E+03  0.00000000000E+00 0.  1.
         22    1    3    3    0    0  0.26826101129E+02 -0.17487166671E+03  0.30941166417E+03  0.35642014175E+03  0.00000000000E+00 0.  1.
</event>
<event>
 7    1  0.9036454E-005  0.2920368E+03  0.7818608E-02  0.1215166E+00
          2   -1    0    0  502    0  0.00000000000E+00  0.00000000000E+00  0.90441578115E+03  0.90441578115E+03  0.00000000000E+00 0. -1.
          1   -1    0    0  501    0 -0.00000000000E+00 -0.00000000000E+00 -0.92268440539E+03  0.92268440539E+03  0.00000000000E+00 0. -1.
         25    2    1    2    0    0 -0.18983480215E+03  0.26755806185E+03  0.80564958621E+03  0.87881869187E+03  0.12500587530E+03 0.  0.
          2    1    1    2  501    0  0.12415051217E+03 -0.26332499593E+03 -0.83247080507E+03  0.88190761673E+03  0.00000000000E+00 0. -1.
          1    1    1    2  502    0  0.65684289983E+02 -0.42330659204E+01  0.85525946147E+01  0.66373877936E+02  0.00000000000E+00 0. -1.
         22    1    3    3    0    0 -0.13137925229E+02  0.28558569908E+02  0.21824742050E+03  0.22049973594E+03  0.00000000000E+00 0. -1.
         22    1    3    3    0    0 -0.17669687692E+03  0.23899949194E+03  0.58740216570E+03  0.65831895593E+03  0.00000000000E+00 0. -1.
</event>
<event>
 7    1  0.9036454E-005  0.1380459E+03  0.7818608E-02  0.1287058E+00
          2   -1    0    0  502    0  0.00000000000E+00  0.00000000000E+00  0.21917549718E+04  0.21917549718E+04  0.00000000000E+00 0. -1.
          1   -1    0    0  501    0 -0.00000000000E+00 -0.00000000000E+00 -0.39549693371E+03  0.39549693371E+03  0.00000000000E+00 0. -1.
         25    2    1    2    0    0  0.22552946877E+02  0.84659526001E+02  0.22146404485E+02  0.15424551318E+03  0.12500137739E+03 0.  0.
          2    1    1    2  501    0 -0.75190897089E+02 -0.12763100196E+03 -0.31221460978E+03  0.34557387955E+03  0.00000000000E+00 0. -1.
          1    1    1    2  502    0  0.52637950213E+02  0.42971475958E+02  0.20863262434E+04  0.20874325128E+04  0.00000000000E+00 0. -1.
         22    1    3    3    0    0  0.58468332886E+02  0.63306328803E+02  0.54007050802E+02  0.10170053468E+03  0.00000000000E+00 0. -1.
         22    1    3    3    0    0 -0.35915386009E+02  0.21353197199E+02 -0.31860646317E+02  0.52544978509E+02  0.00000000000E+00 0. -1.
</event>
<event>
 7    1  0.9036454E-005  0.2293293E+03  0.7818608E-02  0.1137879E+00
          2   -1    0    0  502    0  0.00000000000E+00  0.00000000000E+00  0.67886743819E+03  0.67886743819E+03  0.00000000000E+00 0. -1.
          1   -1    0    0  501    0 -0.00000000000E+00 -0.00000000000E+00 -0.55299278949E+03  0.55299278949E+03  0.00000000000E+00 0. -1.
         25    2    1    2    0    0 -0.21280164010E+03 -0.33987649472E+03 -0.16151924066E+03  0.45001589107E+03  0.12500106968E+03 0.  0.
          2    1    1    2  501    0  0.52178759552E+02  0.19415882532E+03 -0.17792217190E+03  0.26847080224E+03  0.00000000000E+00 0. -1.
          1    1    1    2  502    0  0.16062288054E+03  0.14571766939E+03  0.46531606126E+03  0.51337353438E+03  0.00000000000E+00 0. -1.
         22    1    3    3    0    0 -0.21429934485E+03 -0.27297231684E+03 -0.10544468143E+03  0.36270742453E+03  0.00000000000E+00 0. -1.
         22    1    3    3    0    0  0.14977047570E+01 -0.66904177872E+02 -0.56074559226E+02  0.87308466535E+02  0.00000000000E+00 0. -1.
</event>
<event>
 7    1  0.9036454E-005  0.1979814E+03  0.7818608E-02  0.1196474E+00
          2   -1    0    0  502    0  0.00000000000E+00  0.00000000000E+00  0.16283949093E+04  0.16283949093E+04  0.00000000000E+00 0. -1.
          1   -1    0    0  501    0 -0.00000000000E+00 -0.00000000000E+00 -0.33346954596E+03  0.33346954596E+03  0.00000000000E+00 0. -1.
         25    2    1    2    0    0 -0.25205482760E+02 -0.13569437872E+03  0.35678281812E+03  0.40245103241E+03  0.12499829362E+03 0.  0.
          2    1    1    2  501    0  0.14336336458E+03  0.14706818663E+03 -0.27346674720E+03  0.34200316906E+03  0.00000000000E+00 0. -1.
          1    1    1    2  502    0 -0.11815788182E+03 -0.11373807911E+02  0.12116092924E+04  0.12174102538E+04  0.00000000000E+00 0. -1.
         22    1    3    3    0    0  0.90108093110E+01 -0.81783486031E+02  0.31634745369E+03  0.32687221468E+03  0.00000000000E+00 0.  1.
         22    1    3    3    0    0 -0.34216292071E+02 -0.53910892693E+02  0.40435364426E+02  0.75578817735E+02  0.00000000000E+00 0.  1.
</event>
<event>
 7    1  0.9036454E-005  0.4298226E+03  0.7818608E-02  0.1106052E+00
          2   -1    0    0  502    0  0.00000000000E+00  0.00000000000E+00  0.20576815660E+04  0.20576815660E+04  0.00000000000E+00 0. -1.
          1   -1    0    0  501    0 -0.00000000000E+00 -0.00000000000E+00 -0.75682208325E+03  0.75682208325E+03  0.00000000000E+00 0. -1.
         25    2    1    2    0    0  0.22303002875E+01  0.44889702796E+03 -0.24129005518E+03  0.52474411352E+03  0.12498791141E+03 0.  0.
          2    1    1    2  501    0 -0.15278861194E+03 -0.45740772751E+02 -0.33120758186E+03  0.36760718235E+03  0.00000000000E+00 0. -1.
          1    1    1    2  502    0  0.15055831165E+03 -0.40315625521E+03  0.18733571198E+04  0.19221523534E+04  0.00000000000E+00 0. -1.
         22    1    3    3    0    0  0.15513711100E+01  0.39449685666E+03 -0.25357827662E+03  0.46896920906E+03  0.00000000000E+00 0. -1.
         22    1    3    3    0    0  0.67892917747E+00  0.54400171294E+02  0.12288221443E+02  0.55774904463E+02  0.00000000000E+00 0. -1.
</event>
<event>
 7    1  0.9036454E-005  0.1400611E+03  0.7818608E-02  0.1342408E+00
          2   -1    0    0  502    0  0.00000000000E+00  0.00000000000E+00  0.14809182324E+04  0.14809182324E+04  0.00000000000E+00 0. -1.
          1   -1    0    0  501    0 -0.00000000000E+00 -0.00000000000E+00 -0.57894803341E+02  0.57894803341E+02  0.00000000000E+00 0. -1.
         25    2    1    2    0    0  0.13807733861E+03 -0.97813060045E+02  0.11466462389E+04  0.11657854323E+04  0.12500132286E+03 0.  0.
          2    1    1    2  501    0 -0.97409904464E+02  0.97299913759E+02  0.55514378304E+02  0.14845136882E+03  0.00000000000E+00 0. -1.
          1    1    1    2  502    0 -0.40667434145E+02  0.51314628634E+00  0.22086281188E+03  0.22457623469E+03  0.00000000000E+00 0. -1.
         22    1    3    3    0    0 -0.17897219797E+02 -0.35001862473E+02  0.15061470406E+03  0.15566062422E+03  0.00000000000E+00 0. -1.
         22    1    3    3    0    0  0.15597455841E+03 -0.62811197572E+02  0.99603153485E+03  0.10101248080E+04  0.00000000000E+00 0. -1.
</event>
<event>
 7    1  0.9036454E-005  0.4803382E+03  0.7818608E-02  0.1221728E+00
          2   -1    0    0  502    0  0.00000000000E+00  0.00000000000E+00  0.15108499836E+04  0.15108499836E+04  0.00000000000E+00 0. -1.
          1   -1    0    0  501    0 -0.00000000000E+00 -0.00000000000E+00 -0.32375458193E+04  0.32375458193E+04  0.00000000000E+00 0. -1.
         25    2    1    2    0    0  0.24649183370E+03  0.37231784099E+03  0.78805846402E+03  0.91435227815E+03  0.12500058815E+03 0.  0.
          2    1    1    2  501    0 -0.27771462087E+03 -0.39281033573E+03 -0.31556262266E+04  0.31920843116E+04  0.00000000000E+00 0. -1.
          1    1    1    2  502    0  0.31222787164E+02  0.20492494742E+02  0.64087192686E+03  0.64195921321E+03  0.00000000000E+00 0. -1.
         22    1    3    3    0    0  0.10586018569E+03  0.64998587279E+02  0.18042828339E+03  0.21905606750E+03  0.00000000000E+00 0.  1.
         22    1    3    3    0    0  0.14063164802E+03  0.30731925371E+03  0.60763018063E+03  0.69529621064E+03  0.00000000000E+00 0.  1.
</event>
<event>
 7    1  0.9036454E-005  0.1767534E+03  0.7818608E-02  0.1220844E+00
          2   -1    0    0  502    0  0.00000000000E+00  0.00000000000E+00  0.57851262367E+03  0.57851262367E+03  0.00000000000E+00 0. -1.
          1   -1    0    0  501    0 -0.00000000000E+00 -0.00000000000E+00 -0.95497453367E+03  0.95497453367E+03  0.00000000000E+00 0. -1.
         25    2    1    2    0    0  0.97312930130E+02  0.39406964406E+02 -0.28284147202E+02  0.16566909160E+03  0.12499415872E+03 0.  0.
          2    1    1    2  501    0 -0.18886025254E+03  0.65530167543E+01 -0.84227500407E+03  0.86321394770E+03  0.00000000000E+00 0. -1.
          1    1    1    2  502    0  0.91547322411E+02 -0.45959981160E+02  0.49409724128E+03  0.50460411804E+03  0.00000000000E+00 0. -1.
         22    1    3    3    0    0  0.43799938553E+02  0.51656800110E+02 -0.69484842932E+02  0.97030938428E+02  0.00000000000E+00 0. -1.
         22    1    3    3    0    0  0.53512991577E+02 -0.12249835705E+02  0.41200695730E+02  0.68638153173E+02  0.00000000000E+00 0. -1.
</event>
<event>
 7    1  0.9036454E-005  0.6302885E+02  0.7818608E-02  0.1488788E+00
          2   -1    0    0  502    0  0.00000000000E+00  0.00000000000E+00  0.20863774389E+04  0.20863774389E+04  0.00000000000E+00 0. -1.
          1   -1    0    0  501    0 -0.00000000000E+00 -0.00000000000E+00 -0.13311092940E+03  0.13311092940E+03  0.00000000000E+00 0. -1.
         25    2    1    2    0    0  0.65916874385E+02 -0.14298038649E+02  0.12829100553E+04  0.12907488848E+04  0.12500002191E+03 0.  0.
          2    1    1    2  501    0 -0.49915353833E+02  0.38505208948E+02 -0.12121930106E+03  0.13663203363E+03  0.00000000000E+00 0. -1.
          1    1    1    2  502    0 -0.16001520553E+02 -0.24207170299E+02  0.79157575526E+03  0.79210744982E+03  0.00000000000E+00 0. -1.
         22    1    3    3    0    0  0.46017846921E+02 -0.53418190594E+02  0.36250842874E+03  0.36930137589E+03  0.00000000000E+00 0.  1.
         22    1    3    3    0    0  0.19899027465E+02  0.39120151945E+02  0.92040162654E+03  0.92144750893E+03  0.00000000000E+00 0.  1.
</event>
<event>
 7    1  0.9036454E-005  0.9782890E+02  0.7818608E-02  0.1315315E+00
          2   -1    0    0  502    0  0.00000000000E+00  0.00000000000E+00  0.41152359821E+03  0.41152359821E+03  0.00000000000E+00 0. -1.
          1   -1    0    0  501    0 -0.00000000000E+00 -0.00000000000E+00 -0.51048257409E+03  0.51048257409E+03  0.00000000000E+00 0. -1.
         25    2    1    2    0    0 -0.90782310143E+02 -0.49225914886E+02 -0.44805554770E+03  0.47648957773E+03  0.12499570126E+03 0.  0.
          2    1    1    2  501    0  0.95339655392E+02 -0.24564825240E+02  0.10579369613E+02  0.99020218090E+02  0.00000000000E+00 0. -1.
          1    1    1    2  502    0 -0.45573452488E+01  0.73790740126E+02  0.33851720220E+03  0.34649637648E+03  0.00000000000E+00 0. -1.
         22    1    3    3    0    0 -0.18663232472E+02 -0.81073943135E+02 -0.22147763861E+03  0.23658749947E+03  0.00000000000E+00 0. -1.
         22    1    3    3    0    0 -0.72119077671E+02  0.31848028249E+02 -0.22657790909E+03  0.23990207826E+03  0.00000000000E+00 0. -1.
</event>
<event>
 7    1  0.9036454E-005  0.1373199E+03  0.7818608E-02  0.1244253E+00
          2   -1    0    0  502    0  0.00000000000E+00  0.00000000000E+00  0.75981197081E+03  0.75981197081E+03  0.00000000000E+00 0. -1.
          1   -1    0    0  501    0 -0.00000000000E+00 -0.00000000000E+00 -0.92347289187E+03  0.92347289187E+03  0.00000000000E+00 0. -1.
         25    2    1    2    0    0  0.16016325566E+03  0.64673644388E+02  0.26849363712E+03  0.34285456291E+03  0.12500187756E+03 0.  0.
          2    1    1    2  501    0 -0.13268629411E+03  0.35266650181E+02 -0.87495484222E+03  0.88566097644E+03  0.00000000000E+00 0. -1.
          1    1    1    2  502    0 -0.27476961554E+02 -0.99940294568E+02  0.44280028404E+03  0.45476932332E+03  0.00000000000E+00 0. -1.
         22    1    3    3    0    0  0.60753081303E+02  0.61654717019E+02  0.43530528664E+02  0.96887295061E+02  0.00000000000E+00 0. -1.
         22    1    3    3    0    0  0.99410174360E+02  0.30189273686E+01  0.22496310846E+03  0.24596726785E+03  0.00000000000E+00 0. -1.
</event>
<event>
 7    1  0.9036454E-005  0.1032824E+03  0.7818608E-02  0.1302946E+00
          2   -1    0    0  502    0  0.00000000000E+00  0.00000000000E+00  0.36967151627E+03  0.36967151627E+03  0.00000000000E+00 0. -1.
          1   -1    0    0  501    0 -0.00000000000E+00 -0.00000000000E+00 -0.35595405034E+03  0.35595405034E+03  0.00000000000E+00 0. -1.
         25    2    1    2    0    0  0.43784998812E+02 -0.58573442539E+02  0.12696329817E+03  0.19258267680E+03  0.12498173479E+03 0.  0.
          2    1    1    2  501    0 -0.38091988417E+02 -0.68476263803E+02 -0.29834519569E+03  0.30846369977E+03  0.00000000000E+00 0. -1.
          1    1    1    2  502    0 -0.56930103954E+01  0.12704970634E+03  0.18509936344E+03  0.22457919003E+03  0.00000000000E+00 0. -1.
         22    1    3    3    0    0  0.21162491320E+02 -0.96652708189E+02  0.10027556572E+03  0.14087152345E+03  0.00000000000E+00 0.  1.
         22    1    3    3    0    0  0.22622507492E+02  0.38079265651E+02  0.26687732456E+02  0.51711153355E+02  0.00000000000E+00 0.  1.
</event>
<event>
 7    1  0.9036454E-005  0.1221259E+03  0.7818608E-02  0.1272800E+00
          2   -1    0    0  502    0  0.00000000000E+00  0.00000000000E+00  0.11638216114E+04  0.11638216114E+04  0.00000000000E+00 0. -1.
          1   -1    0    0  501    0 -0.00000000000E+00 -0.00000000000E+00 -0.65591727130E+03  0.65591727130E+03  0.00000000000E+00 0. -1.
         25    2    1    2    0    0 -0.43556357660E+02  0.47376975823E+02  0.71136719120E+02  0.15756385689E+03  0.12499680819E+03 0.  0.
          2    1    1    2  501    0  0.45007959425E+01 -0.12620318108E+03 -0.60432185978E+03  0.61737542087E+03  0.00000000000E+00 0. -1.
          1    1    1    2  502    0  0.39055561717E+02  0.78826205254E+02  0.10410894807E+04  0.10447996049E+04  0.00000000000E+00 0. -1.
         22    1    3    3    0    0 -0.31467269766E+02  0.72929273801E+02  0.92653204419E+02  0.12203886403E+03  0.00000000000E+00 0. -1.
         22    1    3    3    0    0 -0.12089087894E+02 -0.25552297978E+02 -0.21516485299E+02  0.35524992860E+02  0.00000000000E+00 0. -1.
</event>
<event>
 7    1  0.9036454E-005  0.4973852E+03  0.7818608E-02  0.1261353E+00
          2   -1    0    0  502    0  0.00000000000E+00  0.00000000000E+00  0.37587788338E+04  0.37587788338E+04  0.00000000000E+00 0. -1.
          1   -1    0    0  501    0 -0.00000000000E+00 -0.00000000000E+00 -0.15679777775E+03  0.15679777775E+03  0.00000000000E+00 0. -1.
         25    2    1    2    0    0  0.20763129796E+03 -0.45165012112E+03  0.43009630634E+03  0.66910798990E+03  0.12499632646E+03 0.  0.
          2    1    1    2  501    0 -0.18615545905E+03  0.46267623025E+03  0.16344562958E+04  0.17088506465E+04  0.00000000000E+00 0. -1.
          1    1    1    2  502    0 -0.21475838908E+02 -0.11026109125E+02  0.15374284539E+04  0.15376179752E+04  0.00000000000E+00 0. -1.
         22    1    3    3    0    0  0.20460176672E+03 -0.32136587593E+03  0.29937183394E+03  0.48452183038E+03  0.00000000000E+00 0. -1.
         22    1    3    3    0    0  0.30295312368E+01 -0.13028424519E+03  0.13072447239E+03  0.18458615952E+03  0.00000000000E+00 0. -1.
</event>
<event>
 7    1  0.9036454E-005  0.2111208E+03  0.7818608E-02  0.1179135E+00
          2   -1    0    0  502    0  0.00000000000E+00  0.00000000000E+00  0.12446676475E+04  0.12446676475E+04  0.00000000000E+00 0. -1.
          1   -1    0    0  501    0 -0.00000000000E+00 -0.00000000000E+00 -0.96702708959E+03  0.96702708959E+03  0.00000000000E+00 0. -1.
         25    2    1    2    0    0 -0.14459358215E+03  0.16635691851E+03 -0.90958110070E+03  0.94421636781E+03  0.12499936860E+03 0.  0.
          2    1    1    2  501    0  0.14948567146E+03 -0.31528533449E+02  0.12689024194E+03  0.19859795541E+03  0.00000000000E+00 0. -1.
          1    1    1    2  502    0 -0.48920893094E+01 -0.13482838506E+03  0.10603314166E+04  0.10688804138E+04  0.00000000000E+00 0. -1.
         22    1    3    3    0    0  0.15345914051E-01 -0.18592974943E+02 -0.63372286301E+02  0.66043513109E+02  0.00000000000E+00 0. -1.
         22    1    3    3    0    0 -0.14460892807E+03  0.18494989345E+03 -0.84620881440E+03  0.87817285470E+03  0.00000000000E+00 0. -1.
</event>
<event>
 7    1  0.9036454E-005  0.3606995E+03  0.7818608E-02  0.1095643E+00
          2   -1    0    0  502    0  0.00000000000E+00  0.00000000000E+00  0.13218304174E+04  0.13218304174E+04  0.00000000000E+00 0. -1.
          1   -1    0    0  501    0 -0.00000000000E+00 -0.00000000000E+00 -0.10428397251E+04  0.10428397251E+04  0.00000000000E+00 0. -1.
         25    2    1    2    0    0 -0.95233878787E+02  0.30443060084E+03 -0.32521780496E+03  0.47237658434E+03  0.12500213745E+03 0.  0.
          2    1    1    2  501    0 -0.19999209204E+03 -0.85457580939E+02 -0.59738201581E+03  0.63573981143E+03  0.00000000000E+00 0. -1.
          1    1    1    2  502    0  0.29522597083E+03 -0.21897301991E+03  0.12015905131E+04  0.12565537467E+04  0.00000000000E+00 0. -1.
         22    1    3    3    0    0 -0.37080436505E+02  0.46239696544E+02 -0.88877880327E+01  0.59933805853E+02  0.00000000000E+00 0.  1.
         22    1    3    3    0    0 -0.58153442282E+02  0.25819090430E+03 -0.31633001693E+03  0.41244277849E+03  0.00000000000E+00 0.  1.
</event>
<event>
 7    1  0.9036454E-005  0.1238216E+04  0.7818608E-02  0.9570311E-01
          2   -1    0    0  502    0  0.00000000000E+00  0.00000000000E+00  0.36678532047E+04  0.36678532047E+04  0.00000000000E+00 0. -1.
          1   -1    0    0  501    0 -0.00000000000E+00 -0.00000000000E+00 -0.17144994784E+04  0.17144994784E+04  0.00000000000E+00 0. -1.
         25    2    1    2    0    0 -0.10289632779E+04 -0.49360725593E+03  0.14225603283E+04  0.18280361125E+04  0.12499836310E+03 0.  0.
          2    1    1    2  501    0  0.82876289293E+03  0.96024910247E+03 -0.12027065250E+04  0.17479786203E+04  0.00000000000E+00 0. -1.
          1    1    1    2  502    0  0.20020038500E+03 -0.46664184654E+03  0.17334999231E+04  0.18063379503E+04  0.00000000000E+00 0. -1.
         22    1    3    3    0    0 -0.70550816808E+03 -0.33305793791E+03  0.87705263514E+03  0.11738358872E+04  0.00000000000E+00 0.  1.
         22    1    3    3    0    0 -0.32345510985E+03 -0.16054931802E+03  0.54550769312E+03  0.65420022536E+03  0.00000000000E+00 0.  1.
</event>
<event>
 7    1  0.9036454E-005  0.4004480E+03  0.7818608E-02  0.1197132E+00
          2   -1    0    0  502    0  0.00000000000E+00  0.00000000000E+00  0.84057639805E+02  0.84057639805E+02  0.00000000000E+00 0. -1.
          1   -1    0    0  501    0 -0.00000000000E+00 -0.00000000000E+00 -0.31987964852E+04  0.31987964852E+04  0.00000000000E+00 0. -1.
         25    2    1    2    0    0 -0.29559990090E+03  0.22442337295E+03 -0.94253683955E+03  0.10206593039E+04  0.12499827583E+03 0.  0.
          2    1    1    2  501    0  0.30588978723E+03 -0.28177480729E+03 -0.21637038615E+04  0.22033111456E+04  0.00000000000E+00 0. -1.
          1    1    1    2  502    0 -0.10289886324E+02  0.57351434338E+02 -0.84981442767E+01  0.58883675474E+02  0.00000000000E+00 0. -1.
         22    1    3    3    0    0 -0.39146583942E+02 -0.12531286534E+02 -0.12804613163E+03  0.13448159726E+03  0.00000000000E+00 0.  1.
         22    1    3    3    0    0 -0.25645331696E+03  0.23695465948E+03 -0.81449070792E+03  0.88617770662E+03  0.00000000000E+00 0.  1.
</event>
<event>
 7    1  0.9036454E-005  0.7416203E+02  0.7818608E-02  0.1390597E+00
          2   -1    0    0  502    0  0.00000000000E+00  0.00000000000E+00  0.10965659090E+03  0.10965659090E+03  0.00000000000E+00 0. -1.
          1   -1    0    0  501    0 -0.00000000000E+00 -0.00000000000E+00 -0.10998335422E+04  0.10998335422E+04  0.00000000000E+00 0. -1.
         25    2    1    2    0    0  0.64786245955E+02 -0.12507991897E+02  0.43563622382E+02  0.14790618822E+03  0.12499897516E+03 0.  0.
          2    1    1    2  501    0  0.50331688600E+02  0.10568274054E+02 -0.79364974342E+03  0.79531432938E+03  0.00000000000E+00 0. -1.
          1    1    1    2  502    0 -0.11511793456E+03  0.19397178435E+01 -0.24009083027E+03  0.26626961550E+03  0.00000000000E+00 0. -1.
         22    1    3    3    0    0 -0.57852330041E+01 -0.47590727670E+02 -0.14420572313E+02  0.50062952240E+02  0.00000000000E+00 0.  1.
         22    1    3    3    0    0  0.70571478959E+02  0.35082735773E+02  0.57984194695E+02  0.97843235976E+02  0.00000000000E+00 0.  1.
</event>
<event>
 7    1  0.9036454E-005  0.1386267E+03  0.7818608E-02  0.1235517E+00
          2   -1    0    0  502    0  0.00000000000E+00  0.00000000000E+00  0.51919548161E+03  0.51919548161E+03  0.00000000000E+00 0. -1.
          1   -1    0    0  501    0 -0.00000000000E+00 -0.00000000000E+00 -0.34989402843E+03  0.34989402843E+03  0.00000000000E+00 0. -1.
         25    2    1    2    0    0  0.21662010150E+02  0.17559280425E+03  0.23823469482E+03  0.32199784023E+03  0.12499905483E+03 0.  0.
          2    1    1    2  501    0 -0.92575724125E+02 -0.63387108126E+02 -0.27780822632E+03  0.29960907994E+03  0.00000000000E+00 0. -1.
          1    1    1    2  502    0  0.70913713975E+02 -0.11220569612E+03  0.20887498467E+03  0.24748258988E+03  0.00000000000E+00 0. -1.
         22    1    3    3    0    0  0.71305392634E+02  0.96032946649E+02  0.10557765142E+03  0.15954129979E+03  0.00000000000E+00 0.  1.
         22    1    3    3    0    0 -0.49643382483E+02  0.79559857598E+02  0.13265704340E+03  0.16245654043E+03  0.00000000000E+00 0.  1.
</event>
<event>
 7    1  0.9036454E-005  0.2601225E+03  0.7818608E-02  0.1153640E+00
          2   -1    0    0  502    0  0.00000000000E+00  0.00000000000E+00  0.87702494292E+02  0.87702494292E+02  0.00000000000E+00 0. -1.
          1   -1    0    0  501    0 -0.00000000000E+00 -0.00000000000E+00 -0.16279314779E+04  0.16279314779E+04  0.00000000000E+00 0. -1.
         25    2    1    2    0    0 -0.16416498663E+03  0.28911540902E+03 -0.56441287823E+03  0.66687676061E+03  0.12499941664E+03 0.  0.
          2    1    1    2  501    0  0.27582620194E+02 -0.23517420462E+03 -0.63154777652E+03  0.67447779910E+03  0.00000000000E+00 0. -1.
          1    1    1    2  502    0  0.13658236643E+03 -0.53941204396E+02 -0.34426832885E+03  0.37427941247E+03  0.00000000000E+00 0. -1.
         22    1    3    3    0    0 -0.22851358202E+02  0.77380102280E+02 -0.24788646281E+03  0.26068671475E+03  0.00000000000E+00 0.  1.
         22    1    3    3    0    0 -0.14131362843E+03  0.21173530674E+03 -0.31652641542E+03  0.40619004586E+03  0.00000000000E+00 0.  1.
</event>
<event>
 7    1  0.9036454E-005  0.3113591E+03  0.7818608E-02  0.1083627E+00
          2   -1    0    0  502    0  0.00000000000E+00  0.00000000000E+00  0.89719182338E+03  0.89719182338E+03  0.00000000000E+00 0. -1.
          1   -1    0    0  501    0 -0.00000000000E+00 -0.00000000000E+00 -0.99061788154E+03  0.99061788154E+03  0.00000000000E+00 0. -1.
         25    2    1    2    0    0  0.34635906027E+03  0.33375997549E+03  0.17368168928E+03  0.52645087022E+03  0.12499947877E+03 0.  0.
          2    1    1    2  501    0 -0.30095107191E+03 -0.41919056416E+02 -0.74217315401E+03  0.80196617479E+03  0.00000000000E+00 0. -1.
          1    1    1    2  502    0 -0.45407988362E+02 -0.29184091907E+03  0.47506540656E+03  0.55939265992E+03  0.00000000000E+00 0. -1.
         22    1    3    3    0    0  0.17627475098E+03  0.11704651554E+03  0.12772456936E+03  0.24715630732E+03  0.00000000000E+00 0. -1.
         22    1    3    3    0    0  0.17008430929E+03  0.21671345995E+03  0.45957119917E+02  0.27929456289E+03  0.00000000000E+00 0. -1.
</event>
<event>
 7    1  0.9036454E-005  0.4061953E+03  0.7818608E-02  0.1154728E+00
          2   -1    0    0  502    0  0.00000000000E+00  0.00000000000E+00  0.12714495014E+04  0.12714495014E+04  0.00000000000E+00 0. -1.
          1   -1    0    0  501    0 -0.00000000000E+00 -0.00000000000E+00 -0.19211243643E+03  0.19211243643E+03  0.00000000000E+00 0. -1.
         25    2    1    2    0    0  0.32480345683E+03 -0.33141881577E+03  0.62875005299E+03  0.79138283202E+03  0.12499776264E+03 0.  0.
          2    1    1    2  501    0 -0.24149992523E+03  0.29042177852E+03  0.25517031512E+03  0.45582772298E+03  0.00000000000E+00 0. -1.
          1    1    1    2  502    0 -0.83303531607E+02  0.40997037249E+02  0.19541669684E+03  0.21635138281E+03  0.00000000000E+00 0. -1.
         22    1    3    3    0    0  0.33496685528E+03 -0.32334262617E+03  0.59695155747E+03  0.75703659753E+03  0.00000000000E+00 0.  1.
         22    1    3    3    0    0 -0.10163398443E+02 -0.80761895933E+01  0.31798495513E+02  0.34346234483E+02  0.00000000000E+00 0.  1.
</event>
<event>
 7    1  0.1199247E-004  0.1839822E+03  0.7818608E-02  0.1217727E+00
          2   -1    0    0  502    0  0.00000000000E+00  0.00000000000E+00  0.11356982389E+04  0.11356982389E+04  0.00000000000E+00 0. -1.
          1   -1    0    0  501    0 -0.00000000000E+00 -0.00000000000E+00 -0.11533626155E+04  0.11533626155E+04  0.00000000000E+00 0. -1.
         25    2    1    2    0    0 -0.23715513437E+03 -0.41531364484E+02 -0.14365994755E+03  0.30697113469E+03  0.12500274000E+03 0.  0.
          2    1    1    2  501    0  0.17531677642E+03 -0.39195508396E+02 -0.91685714373E+03  0.93429079091E+03  0.00000000000E+00 0. -1.
          1    1    1    2  502    0  0.61838357951E+02  0.80726872880E+02  0.10428527147E+04  0.10477989287E+04  0.00000000000E+00 0. -1.
         22    1    3    3    0    0  0.76538423339E+01 -0.75940791506E+01 -0.35659927920E+02  0.37254285658E+02  0.00000000000E+00 0.  1.
         22    1    3    3    0    0 -0.24480897670E+03 -0.33937285333E+02 -0.10800001963E+03  0.26971684903E+03  0.00000000000E+00 0.  1.
</event>
<event>
 7    1  0.9036454E-005  0.2531405E+03  0.7818608E-02  0.1245596E+00
          2   -1    0    0  502    0  0.00000000000E+00  0.00000000000E+00  0.35771600579E+04  0.35771600579E+04  0.00000000000E+00 0. -1.
          1   -1    0    0  501    0 -0.00000000000E+00 -0.00000000000E+00 -0.21881199643E+04  0.21881199643E+04  0.00000000000E+00 0. -1.
         25    2    1    2    0    0  0.28603279497E+03 -0.92670200295E+02  0.15252915898E+04  0.15596610377E+04  0.12500237064E+03 0.  0.
          2    1    1    2  501    0 -0.24731719626E+03  0.52945378539E+02 -0.21631879885E+04  0.21779236172E+04  0.00000000000E+00 0. -1.
          1    1    1    2  502    0 -0.38715598707E+02  0.39724821756E+02  0.20269364923E+04  0.20276953674E+04  0.00000000000E+00 0. -1.
         22    1    3    3    0    0  0.15905860081E+03 -0.26577635997E+01  0.97046312864E+03  0.98341516474E+03  0.00000000000E+00 0. -1.
         22    1    3    3    0    0  0.12697419416E+03 -0.90012436696E+02  0.55482846118E+03  0.57624587293E+03  0.00000000000E+00 0. -1.
</event>
<event>
 7    1  0.9036454E-005  0.1834933E+03  0.7818608E-02  0.1301635E+00
          2   -1    0    0  502    0  0.00000000000E+00  0.00000000000E+00  0.17896466261E+04  0.17896466261E+04  0.00000000000E+00 0. -1.
          1   -1    0    0  501    0 -0.00000000000E+00 -0.00000000000E+00 -0.81004453303E+02  0.81004453303E+02  0.00000000000E+00 0. -1.
         25    2    1    2    0    0 -0.14452917828E+03  0.16055229391E+02  0.91387433740E+02  0.21242112709E+03  0.12499847369E+03 0.  0.
          2    1    1    2  501    0 -0.38364453277E+02  0.22822373274E+02  0.18081301125E+02  0.48162490047E+02  0.00000000000E+00 0. -1.
          1    1    1    2  502    0  0.18289363156E+03 -0.38877602665E+02  0.15991734379E+04  0.16100674623E+04  0.00000000000E+00 0. -1.
         22    1    3    3    0    0 -0.85122153761E+02  0.61403588110E+02  0.15829902736E+02  0.10614503057E+03  0.00000000000E+00 0.  1.
         22    1    3    3    0    0 -0.59407024522E+02 -0.45348358719E+02  0.75557531004E+02  0.10627609652E+03  0.00000000000E+00 0.  1.
</event>
<event>
 7    1  0.9036454E-005  0.2734963E+03  0.7818608E-02  0.1312510E+00
          2   -1    0    0  502    0  0.00000000000E+00  0.00000000000E+00  0.77712790464E+03  0.77712790464E+03  0.00000000000E+00 0. -1.
          1   -1    0    0  501    0 -0.00000000000E+00 -0.00000000000E+00 -0.28967358648E+03  0.28967358648E+03  0.00000000000E+00 0. -1.
         25    2    1    2    0    0  0.31871544781E+02  0.25692003682E+03 -0.99964958447E+02  0.30437054826E+03  0.12499894818E+03 0.  0.
          2    1    1    2  501    0 -0.19871609600E+02  0.18459734902E+02 -0.56127750551E+02  0.62337525317E+02  0.00000000000E+00 0. -1.
          1    1    1    2  502    0 -0.11999935181E+02 -0.27537977172E+03  0.64354702716E+03  0.70009341754E+03  0.00000000000E+00 0. -1.
         22    1    3    3    0    0  0.56398025223E+02  0.17029243107E+03 -0.11500851231E+03  0.21308966946E+03  0.00000000000E+00 0. -1.
         22    1    3    3    0    0 -0.24526480442E+02  0.86627605754E+02  0.15043553866E+02  0.91280878800E+02  0.00000000000E+00 0. -1.
</event>
<event>
 7    1  0.9036454E-005  0.4516688E+03  0.7818608E-02  0.1246171E+00
          2   -1    0    0  502    0  0.00000000000E+00  0.00000000000E+00  0.15182051451E+04  0.15182051451E+04  0.00000000000E+00 0. -1.
          1   -1    0    0  501    0 -0.00000000000E+00 -0.00000000000E+00 -0.56639631675E+03  0.56639631675E+03  0.00000000000E+00 0. -1.
         25    2    1    2    0    0 -0.15092773398E+03 -0.44134999364E+03 -0.26085732524E+02  0.48360673495E+03  0.12500404345E+03 0.  0.
          2    1    1    2  501    0  0.15986466698E+03  0.41176079089E+03 -0.15467437896E+03  0.46800408564E+03  0.00000000000E+00 0. -1.
          1    1    1    2  502    0 -0.89369329968E+01  0.29589202746E+02  0.11325689399E+04  0.11329906413E+04  0.00000000000E+00 0. -1.
         22    1    3    3    0    0 -0.13861185538E+03 -0.21540636589E+03 -0.24528255783E+02  0.25732233531E+03  0.00000000000E+00 0.  1.
         22    1    3    3    0    0 -0.12315878601E+02 -0.22594362775E+03 -0.15574767411E+01  0.22628439964E+03  0.00000000000E+00 0.  1.
</event>
<event>
 7    1  0.9036454E-005  0.2335395E+03  0.7818608E-02  0.1233424E+00
          2   -1    0    0  502    0  0.00000000000E+00  0.00000000000E+00  0.28881907391E+04  0.28881907391E+04  0.00000000000E+00 0. -1.
          1   -1    0    0  501    0 -0.00000000000E+00 -0.00000000000E+00 -0.33518116228E+03  0.33518116228E+03  0.00000000000E+00 0. -1.
         25    2    1    2    0    0  0.11224392859E+03  0.18054175058E+03  0.37766487272E+03  0.45105355052E+03  0.12499810454E+03 0.  0.
          2    1    1    2  501    0 -0.47718692472E+02  0.48505435412E+02 -0.28880146264E+03  0.29670883994E+03  0.00000000000E+00 0. -1.
          1    1    1    2  502    0 -0.64525236113E+02 -0.22904718599E+03  0.24641461667E+04  0.24756095109E+04  0.00000000000E+00 0. -1.
         22    1    3    3    0    0  0.81187666827E+02  0.14798600138E+03  0.17377460978E+03  0.24225793868E+03  0.00000000000E+00 0. -1.
         22    1    3    3    0    0  0.31056261758E+02  0.32555749205E+02  0.20389026294E+03  0.20879561184E+03  0.00000000000E+00 0. -1.
</event>
<event>
 7    1  0.9036454E-005  0.9820767E+03  0.7818608E-02  0.1166337E+00
          2   -1    0    0  502    0  0.00000000000E+00  0.00000000000E+00  0.14782645830E+04  0.14782645830E+04  0.00000000000E+00 0. -1.
          1   -1    0    0  501    0 -0.00000000000E+00 -0.00000000000E+00 -0.21681455599E+04  0.21681455599E+04  0.00000000000E+00 0. -1.
         25    2    1    2    0    0 -0.93716237931E+03  0.26194294862E+03  0.48558323369E+03  0.10946712277E+04  0.12500634503E+03 0.  0.
          2    1    1    2  501    0 -0.26053502200E+02 -0.21141135898E+02 -0.15051873506E+04  0.15055612551E+04  0.00000000000E+00 0. -1.
          1    1    1    2  502    0  0.96321588151E+03 -0.24080181272E+03  0.32972314007E+03  0.10461776601E+04  0.00000000000E+00 0. -1.
         22    1    3    3    0    0 -0.50590130440E+03  0.11736933925E+03  0.32325785528E+03  0.61172488309E+03  0.00000000000E+00 0. -1.
         22    1    3    3    0    0 -0.43126107491E+03  0.14457360937E+03  0.16232537842E+03  0.48294634457E+03  0.00000000000E+00 0. -1.
</event>
<event>
 7    1  0.9036454E-005  0.5599543E+03  0.7818608E-02  0.1144832E+00
          2   -1    0    0  502    0  0.00000000000E+00  0.00000000000E+00  0.79817770673E+03  0.79817770673E+03  0.00000000000E+00 0. -1.
          1   -1    0    0  501    0 -0.00000000000E+00 -0.00000000000E+00 -0.10417972848E+04  0.10417972848E+04  0.00000000000E+00 0. -1.
         25    2    1    2    0    0 -0.48234429584E+03  0.22662989868E+03  0.43897783921E+02  0.54915237612E+03  0.12499674418E+03 0.  0.
          2    1    1    2  501    0 -0.65363986349E+02 -0.38245965455E+02 -0.61890531837E+03  0.62352144926E+03  0.00000000000E+00 0. -1.
          1    1    1    2  502    0  0.54770828219E+03 -0.18838393323E+03  0.33138795640E+03  0.66730116613E+03  0.00000000000E+00 0. -1.
         22    1    3    3    0    0 -0.55585175149E+02  0.73166957189E+02 -0.10082435864E+02  0.92437929626E+02  0.00000000000E+00 0. -1.
         22    1    3    3    0    0 -0.42675912069E+03  0.15346294149E+03  0.53980219786E+02  0.45671444649E+03  0.00000000000E+00 0. -1.
</event>
<event>
 7    1  0.9036454E-005  0.2894379E+03  0.7818608E-02  0.1175414E+00
          2   -1    0    0  502    0  0.00000000000E+00  0.00000000000E+00  0.90876514658E+03  0.90876514658E+03  0.00000000000E+00 0. -1.
          1   -1    0    0  501    0 -0.00000000000E+00 -0.00000000000E+00 -0.79104427985E+03  0.79104427985E+03  0.00000000000E+00 0. -1.
         25    2    1    2    0    0 -0.20306425942E+03  0.25625301887E+03  0.19681417247E+03  0.40157415554E+03  0.12500112310E+03 0.  0.
          2    1    1    2  501    0 -0.29358416578E+02 -0.98345426310E+02 -0.65205425648E+03  0.66008218647E+03  0.00000000000E+00 0. -1.
          1    1    1    2  502    0  0.23242267600E+03 -0.15790759256E+03  0.57296095073E+03  0.63815308443E+03  0.00000000000E+00 0. -1.
         22    1    3    3    0    0 -0.10789399971E+03  0.70410173071E+02  0.12830834009E+03  0.18182886950E+03  0.00000000000E+00 0. -1.
         22    1    3    3    0    0 -0.95170259708E+02  0.18584284580E+03  0.68505832382E+02  0.21974528604E+03  0.00000000000E+00 0. -1.
</event>
<event>
 7    1  0.9036454E-005  0.1631044E+03  0.7818608E-02  0.1261157E+00
          2   -1    0    0  502    0  0.00000000000E+00  0.00000000000E+00  0.15885095113E+03  0.15885095113E+03  0.00000000000E+00 0. -1.
          1   -1    0    0  501    0 -0.00000000000E+00 -0.00000000000E+00 -0.66974093419E+03  0.66974093419E+03  0.00000000000E+00 0. -1.
         25    2    1    2    0    0  0.11312483044E+03 -0.10435409073E+03 -0.33074993421E+03  0.38562799622E+03  0.12500571576E+03 0.  0.
          2    1    1    2  501    0 -0.53149721776E+02 -0.51142656624E+02 -0.25118518120E+03  0.26179086979E+03  0.00000000000E+00 0. -1.
          1    1    1    2  502    0 -0.59975108667E+02  0.15549674736E+03  0.71045132347E+02  0.18117301932E+03  0.00000000000E+00 0. -1.
         22    1    3    3    0    0  0.50743744331E+02 -0.12247075953E+03 -0.20579456275E+03  0.24479668418E+03  0.00000000000E+00 0.  1.
         22    1    3    3    0    0  0.62381086112E+02  0.18116668799E+02 -0.12495537146E+03  0.14083131204E+03  0.00000000000E+00 0.  1.
</event>
<event>
 7    1  0.9036454E-005  0.1093733E+03  0.7818608E-02  0.1351706E+00
          2   -1    0    0  502    0  0.00000000000E+00  0.00000000000E+00  0.32249875775E+04  0.32249875775E+04  0.00000000000E+00 0. -1.
          1   -1    0    0  501    0 -0.00000000000E+00 -0.00000000000E+00 -0.29553282956E+03  0.29553282956E+03  0.00000000000E+00 0. -1.
         25    2    1    2    0    0  0.31274135071E+02 -0.74266560851E+02 -0.88655394795E+02  0.17314365263E+03  0.12500140733E+03 0.  0.
          2    1    1    2  501    0 -0.31171334026E+02  0.12235984152E+03 -0.14021252862E+03  0.18868793301E+03  0.00000000000E+00 0. -1.
          1    1    1    2  502    0 -0.10280104528E+00 -0.48093280666E+02  0.31583226714E+04  0.31586888214E+04  0.00000000000E+00 0. -1.
         22    1    3    3    0    0  0.48238184455E+01 -0.53844366852E+02  0.21388836623E+02  0.58137487030E+02  0.00000000000E+00 0. -1.
         22    1    3    3    0    0  0.26450316625E+02 -0.20422193999E+02 -0.11004423142E+03  0.11500616560E+03  0.00000000000E+00 0. -1.
</event>
<event>
 7    1  0.9036454E-005  0.1332502E+03  0.7818608E-02  0.1248202E+00
          2   -1    0    0  502    0  0.00000000000E+00  0.00000000000E+00  0.10211456116E+04  0.10211456116E+04  0.00000000000E+00 0. -1.
          1   -1    0    0  501    0 -0.00000000000E+00 -0.00000000000E+00 -0.39889924831E+03  0.39889924831E+03  0.00000000000E+00 0. -1.
         25    2    1    2    0    0 -0.17272582180E+03 -0.57047876743E+02  0.34034825890E+03  0.40565083632E+03  0.12500797541E+03 0.  0.
          2    1    1    2  501    0  0.92980642933E+02 -0.43509152890E+02 -0.35250026451E+03  0.36714422619E+03  0.00000000000E+00 0. -1.
          1    1    1    2  502    0  0.79745178866E+02  0.10055702963E+03  0.63439836888E+03  0.64724979737E+03  0.00000000000E+00 0. -1.
         22    1    3    3    0    0 -0.49394711558E+02 -0.68641983851E+02  0.75923219903E+02  0.11364811832E+03  0.00000000000E+00 0.  1.
         22    1    3    3    0    0 -0.12333111024E+03  0.11594107108E+02  0.26442503899E+03  0.29200271800E+03  0.00000000000E+00 0.  1.
</event>
<event>
 7    1  0.9036454E-005  0.9722948E+02  0.7818608E-02  0.1336300E+00
          2   -1    0    0  502    0  0.00000000000E+00  0.00000000000E+00  0.71797695851E+03  0.71797695851E+03  0.00000000000E+00 0. -1.
          1   -1    0    0  501    0 -0.00000000000E+00 -0.00000000000E+00 -0.18061123388E+04  0.18061123388E+04  0.00000000000E+00 0. -1.
         25    2    1    2    0    0  0.16053616299E+02 -0.14747676224E+03  0.12409782607E+03  0.23028559039E+03  0.12499627478E+03 0.  0.
          2    1    1    2  501    0  0.16242356862E+02  0.59600015029E+02 -0.17484167613E+04  0.17495076871E+04  0.00000000000E+00 0. -1.
          1    1    1    2  502    0 -0.32295973161E+02  0.87876747209E+02  0.53618355496E+03  0.54429601982E+03  0.00000000000E+00 0. -1.
         22    1    3    3    0    0  0.30917292466E+02  0.12478263487E+02  0.21812477316E+02  0.39841814714E+02  0.00000000000E+00 0. -1.
         22    1    3    3    0    0 -0.14863676167E+02 -0.15995502573E+03  0.10228534876E+03  0.19044377568E+03  0.00000000000E+00 0. -1.
</event>
<event>
 7    1  0.9036454E-005  0.3738177E+03  0.7818608E-02  0.1097190E+00
          2   -1    0    0  502    0  0.00000000000E+00  0.00000000000E+00  0.16403633583E+04  0.16403633583E+04  0.00000000000E+00 0. -1.
          1   -1    0    0  501    0 -0.00000000000E+00 -0.00000000000E+00 -0.65218194422E+03  0.65218194422E+03  0.00000000000E+00 0. -1.
         25    2    1    2    0    0 -0.26497094186E+03 -0.41001808609E+03  0.31464193864E+02  0.50491432443E+03  0.12499619421E+03 0.  0.
          2    1    1    2  501    0  0.28191212549E+03  0.20506066530E+03 -0.33271825650E+03  0.48189808172E+03  0.00000000000E+00 0. -1.
          1    1    1    2  502    0 -0.16941183630E+02  0.20495742079E+03  0.12894354767E+04  0.13057328963E+04  0.00000000000E+00 0. -1.
         22    1    3    3    0    0  0.32753500309E+01 -0.13534608331E+02  0.22099783153E+02  0.26121140019E+02  0.00000000000E+00 0.  1.
         22    1    3    3    0    0 -0.26824629189E+03 -0.39648347776E+03  0.93644107111E+01  0.47879318441E+03  0.00000000000E+00 0.  1.
</event>
<event>
 7    1  0.9036454E-005  0.8173561E+02  0.7818608E-02  0.1421125E+00
          2   -1    0    0  502    0  0.00000000000E+00  0.00000000000E+00  0.87961530452E+03  0.87961530452E+03  0.00000000000E+00 0. -1.
          1   -1    0    0  501    0 -0.00000000000E+00 -0.00000000000E+00 -0.17765437065E+03  0.17765437065E+03  0.00000000000E+00 0. -1.
         25    2    1    2    0    0 -0.10997299746E+03 -0.24995549521E+02  0.31293869555E+02  0.17123528741E+03  0.12499351870E+03 0.  0.
          2    1    1    2  501    0  0.29158300907E+02  0.22317534256E+02 -0.10238229521E+03  0.10876770302E+03  0.00000000000E+00 0. -1.
          1    1    1    2  502    0  0.80814696550E+02  0.26780152652E+01  0.77304935952E+03  0.77726668474E+03  0.00000000000E+00 0. -1.
         22    1    3    3    0    0 -0.11406807315E+03 -0.28228000002E+02 -0.20410539365E+02  0.11926833365E+03  0.00000000000E+00 0. -1.
         22    1    3    3    0    0  0.40950756890E+01  0.32324504811E+01  0.51704408920E+02  0.51966953757E+02  0.00000000000E+00 0. -1.
</event>
<event>
 7    1  0.9036454E-005  0.7530358E+03  0.7818608E-02  0.1137886E+00
          2   -1    0    0  502    0  0.00000000000E+00  0.00000000000E+00  0.18132532563E+04  0.18132532563E+04  0.00000000000E+00 0. -1.
          1   -1    0    0  501    0 -0.00000000000E+00 -0.00000000000E+00 -0.83798113991E+03  0.83798113991E+03  0.00000000000E+00 0. -1.
         25    2    1    2    0    0  0.63447457067E+03  0.43502751400E+03  0.90345846743E+03  0.11931758877E+04  0.12499831154E+03 0.  0.
          2    1    1    2  501    0 -0.58012267947E+02  0.19563893348E+02 -0.51474356588E+03  0.51837159237E+03  0.00000000000E+00 0. -1.
          1    1    1    2  502    0 -0.57646230272E+03 -0.45459140735E+03  0.58655721489E+03  0.93968691618E+03  0.00000000000E+00 0. -1.
         22    1    3    3    0    0  0.35518853759E+03  0.30976919640E+03  0.58896114252E+03  0.75431497379E+03  0.00000000000E+00 0. -1.
         22    1    3    3    0    0  0.27928603308E+03  0.12525831759E+03  0.31449732491E+03  0.43886091393E+03  0.00000000000E+00 0. -1.
</event>
<event>
 7    1  0.9036454E-005  0.2607620E+03  0.7818608E-02  0.1171614E+00
          2   -1    0    0  502    0  0.00000000000E+00  0.00000000000E+00  0.29200278032E+04  0.29200278032E+04  0.00000000000E+00 0. -1.
          1   -1    0    0  501    0 -0.00000000000E+00 -0.00000000000E+00 -0.14310777694E+03  0.14310777694E+03  0.00000000000E+00 0. -1.
         25    2    1    2    0    0  0.47217614964E+02 -0.21219579816E+03  0.86363364281E+03  0.89930073325E+03  0.12498871913E+03 0.  0.
          2    1    1    2  501    0  0.59579226787E+02  0.26457304737E+03  0.25599471419E+02  0.27240395481E+03  0.00000000000E+00 0. -1.
          1    1    1    2  502    0 -0.10679684175E+03 -0.52377249217E+02  0.18876869121E+04  0.18914308921E+04  0.00000000000E+00 0. -1.
         22    1    3    3    0    0  0.24658690040E+02 -0.14066895185E+03  0.74773944407E+03  0.76125559521E+03  0.00000000000E+00 0.  1.
         22    1    3    3    0    0  0.22558924924E+02 -0.71526846308E+02  0.11589419874E+03  0.13804513804E+03  0.00000000000E+00 0.  1.
</event>
<event>
 7    1  0.9036454E-005  0.3874935E+03  0.7818608E-02  0.1104603E+00
          2   -1    0    0  502    0  0.00000000000E+00  0.00000000000E+00  0.14036270500E+04  0.14036270500E+04  0.00000000000E+00 0. -1.
          1   -1    0    0  501    0 -0.00000000000E+00 -0.00000000000E+00 -0.19657397132E+04  0.19657397132E+04  0.00000000000E+00 0. -1.
         25    2    1    2    0    0 -0.33065011584E+03 -0.98658666913E+02  0.27993356705E+03  0.46157442717E+03  0.12500047276E+03 0.  0.
          2    1    1    2  501    0  0.17919315628E+02 -0.17934346809E+03 -0.18279261654E+04  0.18367904746E+04  0.00000000000E+00 0. -1.
          1    1    1    2  502    0  0.31273080021E+03  0.27800213500E+03  0.98587993520E+03  0.10710018614E+04  0.00000000000E+00 0. -1.
         22    1    3    3    0    0 -0.30945543607E+03 -0.89748443010E+02  0.20193238635E+03  0.38025535972E+03  0.00000000000E+00 0. -1.
         22    1    3    3    0    0 -0.21194679770E+02 -0.89102239030E+01  0.78001180697E+02  0.81319067449E+02  0.00000000000E+00 0. -1.
</event>
<event>
 7    1  0.9036454E-005  0.3902341E+03  0.7818608E-02  0.1151359E+00
          2   -1    0    0  502    0  0.00000000000E+00  0.00000000000E+00  0.11664203616E+04  0.11664203616E+04  0.00000000000E+00 0. -1.
          1   -1    0    0  501    0 -0.00000000000E+00 -0.00000000000E+00 -0.36022038223E+03  0.36022038223E+03  0.00000000000E+00 0. -1.
         25    2    1    2    0    0 -0.32570667120E+03 -0.32736163375E+03  0.46011204593E+03  0.66376198875E+03  0.12500563182E+03 0.  0.
          2    1    1    2  501    0  0.29189533396E+03  0.23266007659E+03 -0.11528758645E+03  0.39067227290E+03  0.00000000000E+00 0. -1.
          1    1    1    2  502    0  0.33811337237E+02  0.94701557158E+02  0.46137551992E+03  0.47220648220E+03  0.00000000000E+00 0. -1.
         22    1    3    3    0    0 -0.26155035196E+02 -0.95982948110E+02  0.10731151273E+03  0.14633035556E+03  0.00000000000E+00 0.  1.
         22    1    3    3    0    0 -0.29955163600E+03 -0.23137868564E+03  0.35280053320E+03  0.51743163319E+03  0.00000000000E+00 0.  1.
</event>
<event>
 7    1  0.9036454E-005  0.3625234E+03  0.7818608E-02  0.1161601E+00
          2   -1    0    0  502    0  0.00000000000E+00  0.00000000000E+00  0.11820676187E+04  0.11820676187E+04  0.00000000000E+00 0. -1.
          1   -1    0    0  501    0 -0.00000000000E+00 -0.00000000000E+00 -0.14036689626E+04  0.14036689626E+04  0.00000000000E+00 0. -1.
         25    2    1    2    0    0  0.10988794571E+03  0.36761746079E+03  0.27632180462E+03  0.48907748657E+03  0.12500036030E+03 0.  0.
          2    1    1    2  501    0 -0.14069924386E+02 -0.36159752335E+03 -0.12690207753E+04  0.13196076917E+04  0.00000000000E+00 0. -1.
          1    1    1    2  502    0 -0.95818021327E+02 -0.60199374388E+01  0.77109762684E+03  0.77705140305E+03  0.00000000000E+00 0. -1.
         22    1    3    3    0    0 -0.62989352357E+01  0.19667352685E+03  0.13012703489E+03  0.23590930028E+03  0.00000000000E+00 0. -1.
         22    1    3    3    0    0  0.11618688095E+03  0.17094393393E+03  0.14619476973E+03  0.25316818629E+03  0.00000000000E+00 0. -1.
</event>
<event>
 7    1  0.9036454E-005  0.6998287E+03  0.7818608E-02  0.1040116E+00
          2   -1    0    0  502    0  0.00000000000E+00  0.00000000000E+00  0.58570541247E+03  0.58570541247E+03  0.00000000000E+00 0. -1.
          1   -1    0    0  501    0 -0.00000000000E+00 -0.00000000000E+00 -0.37893439379E+04  0.37893439379E+04  0.00000000000E+00 0. -1.
         25    2    1    2    0    0  0.58246347623E+03 -0.14175876843E+03 -0.60170033466E+03  0.85850270095E+03  0.12499738094E+03 0.  0.
          2    1    1    2  501    0  0.16699452121E+03  0.17389185099E+03 -0.27427268248E+04  0.27533027406E+04  0.00000000000E+00 0. -1.
          1    1    1    2  502    0 -0.74945799743E+03 -0.32133082562E+02  0.14078863401E+03  0.76324390884E+03  0.00000000000E+00 0. -1.
         22    1    3    3    0    0  0.14906877099E+02  0.13237102220E+02 -0.50461939827E+01  0.20564530963E+02  0.00000000000E+00 0.  1.
         22    1    3    3    0    0  0.56755659913E+03 -0.15499587065E+03 -0.59665414067E+03  0.83793816998E+03  0.00000000000E+00 0.  1.
</event>
<event>
 7    1  0.9036454E-005  0.3528893E+03  0.7818608E-02  0.1100258E+00
          2   -1    0    0  502    0  0.00000000000E+00  0.00000000000E+00  0.17719502782E+04  0.17719502782E+04  0.00000000000E+00 0. -1.
          1   -1    0    0  501    0 -0.00000000000E+00 -0.00000000000E+00 -0.45517779800E+03  0.45517779800E+03  0.00000000000E+00 0. -1.
         25    2    1    2    0    0 -0.59698145614E+02 -0.19923472600E+03 -0.11922030065E+03  0.27036167663E+03  0.12499444574E+03 0.  0.
          2    1    1    2  501    0 -0.19832833070E+03 -0.66978724495E+02 -0.19384157517E+03  0.28529779628E+03  0.00000000000E+00 0. -1.
          1    1    1    2  502    0  0.25802647632E+03  0.26621345050E+03  0.16298343561E+04  0.16714686033E+04  0.00000000000E+00 0. -1.
         22    1    3    3    0    0 -0.38899536614E+02 -0.55989868556E+01  0.46217158367E+01  0.39571237786E+02  0.00000000000E+00 0.  1.
         22    1    3    3    0    0 -0.20798608999E+02 -0.19363573915E+03 -0.12384201649E+03  0.23079043884E+03  0.00000000000E+00 0.  1.
</event>
<event>
 7    1  0.9036454E-005  0.2645499E+03  0.7818608E-02  0.1175658E+00
          2   -1    0    0  502    0  0.00000000000E+00  0.00000000000E+00  0.16932689226E+03  0.16932689226E+03  0.00000000000E+00 0. -1.
          1   -1    0    0  501    0 -0.00000000000E+00 -0.00000000000E+00 -0.19174671444E+04  0.19174671444E+04  0.00000000000E+00 0. -1.
         25    2    1    2    0    0  0.28198463222E+03 -0.74378748838E+02 -0.91512872720E+02  0.33022298336E+03  0.12500032711E+03 0.  0.
          2    1    1    2  501    0 -0.46401031652E+02  0.10191340522E+03 -0.14098468333E+04  0.14142869197E+04  0.00000000000E+00 0. -1.
          1    1    1    2  502    0 -0.23558360057E+03 -0.27534656377E+02 -0.24678054607E+03  0.34228413355E+03  0.00000000000E+00 0. -1.
         22    1    3    3    0    0  0.15771782781E+01 -0.53615285897E+01 -0.35659673798E+02  0.36094955541E+02  0.00000000000E+00 0. -1.
         22    1    3    3    0    0  0.28040745394E+03 -0.69017220248E+02 -0.55853198922E+02  0.29412802782E+03  0.00000000000E+00 0. -1.
</event>
<event>
 7    1  0.1023122E-004  0.2670695E+03  0.7818608E-02  0.1143203E+00
          2   -1    0    0  502    0  0.00000000000E+00  0.00000000000E+00  0.20673792198E+04  0.20673792198E+04  0.00000000000E+00 0. -1.
          1   -1    0    0  501    0 -0.00000000000E+00 -0.00000000000E+00 -0.97620336591E+03  0.97620336591E+03  0.00000000000E+00 0. -1.
         25    2    1    2    0    0  0.30983891791E+03  0.70790646626E+02 -0.31261792538E+03  0.46299943565E+03  0.12500815750E+03 0.  0.
          2    1    1    2  501    0 -0.24712710742E+03  0.78482194720E+02 -0.55632828942E+03  0.61378532706E+03  0.00000000000E+00 0. -1.
          1    1    1    2  502    0 -0.62711810495E+02 -0.14927284135E+03  0.19601220687E+04  0.19667978230E+04  0.00000000000E+00 0. -1.
         22    1    3    3    0    0  0.44477794233E+02  0.34121384019E+02 -0.68370482149E+01  0.56473783790E+02  0.00000000000E+00 0.  1.
         22    1    3    3    0    0  0.26536112368E+03  0.36669262606E+02 -0.30578087716E+03  0.40652565186E+03  0.00000000000E+00 0.  1.
</event>
<event>
 7    1  0.9036454E-005  0.6293077E+03  0.7818608E-02  0.9986720E-01
          2   -1    0    0  502    0  0.00000000000E+00  0.00000000000E+00  0.46497311891E+03  0.46497311891E+03  0.00000000000E+00 0. -1.
          1   -1    0    0  501    0 -0.00000000000E+00 -0.00000000000E+00 -0.25227318164E+04  0.25227318164E+04  0.00000000000E+00 0. -1.
         25    2    1    2    0    0  0.24929774450E+03  0.19810480929E+03 -0.30457921676E+03  0.45802631620E+03  0.12499890467E+03 0.  0.
          2    1    1    2  501    0 -0.10114276345E+03  0.62112665429E+03 -0.15497727388E+04  0.16726696390E+04  0.00000000000E+00 0. -1.
          1    1    1    2  502    0 -0.14815498105E+03 -0.81923146358E+03 -0.20340674194E+03  0.85700898012E+03  0.00000000000E+00 0. -1.
         22    1    3    3    0    0  0.35779434907E+02  0.25966043754E+02  0.49307958013E+01  0.44482762254E+02  0.00000000000E+00 0.  1.
         22    1    3    3    0    0  0.21351830960E+03  0.17213876554E+03 -0.30951001256E+03  0.41354355394E+03  0.00000000000E+00 0.  1.
</event>
<event>
 7    1  0.9036454E-005  0.6963879E+03  0.7818608E-02  0.1172504E+00
          2   -1    0    0  502    0  0.00000000000E+00  0.00000000000E+00  0.70949722462E+03  0.70949722462E+03  0.00000000000E+00 0. -1.
          1   -1    0    0  501    0 -0.00000000000E+00 -0.00000000000E+00 -0.15750776802E+04  0.15750776802E+04  0.00000000000E+00 0. -1.
         25    2    1    2    0    0  0.49949230373E+03  0.49783539580E+03  0.18305475840E+03  0.73923315404E+03  0.12499587459E+03 0.  0.
          2    1    1    2  501    0 -0.43134419319E+02  0.91359770738E+01 -0.82692332863E+03  0.82809796259E+03  0.00000000000E+00 0. -1.
          1    1    1    2  502    0 -0.45635788441E+03 -0.50697137287E+03 -0.22171188533E+03  0.71724378818E+03  0.00000000000E+00 0. -1.
         22    1    3    3    0    0  0.14049324256E+03  0.12639535968E+03  0.10676997865E+03  0.21705751886E+03  0.00000000000E+00 0.  1.
         22    1    3    3    0    0  0.35899906117E+03  0.37144003611E+03  0.76284779754E+02  0.52217563518E+03  0.00000000000E+00 0.  1.
</event>
<event>
 7    1  0.9036454E-005  0.2753119E+03  0.7818608E-02  0.1109269E+00
          2   -1    0    0  502    0  0.00000000000E+00  0.00000000000E+00  0.46979751982E+03  0.46979751982E+03  0.00000000000E+00 0. -1.
          1   -1    0    0  501    0 -0.00000000000E+00 -0.00000000000E+00 -0.15492353982E+04  0.15492353982E+04  0.00000000000E+00 0. -1.
         25    2    1    2    0    0 -0.27049095301E+03 -0.17764747365E+03 -0.38726535907E+03  0.51992620554E+03  0.12499928126E+03 0.  0.
          2    1    1    2  501    0  0.21828336065E+03 -0.97233794037E+02 -0.10317773745E+04  0.10590876200E+04  0.00000000000E+00 0. -1.
          1    1    1    2  502    0  0.52207592366E+02  0.27488126768E+03  0.33960485524E+03  0.44001909246E+03  0.00000000000E+00 0. -1.
         22    1    3    3    0    0 -0.13707295518E+03 -0.14245982435E+03 -0.29053299738E+03  0.35141602007E+03  0.00000000000E+00 0. -1.
         22    1    3    3    0    0 -0.13341799783E+03 -0.35187649296E+02 -0.96732361690E+02  0.16851018547E+03  0.00000000000E+00 0. -1.
</event>
<event>
 7    1  0.9036454E-005  0.2346153E+03  0.7818608E-02  0.1191907E+00
          2   -1    0    0  502    0  0.00000000000E+00  0.00000000000E+00  0.81459708178E+03  0.81459708178E+03  0.00000000000E+00 0. -1.
          1   -1    0    0  501    0 -0.00000000000E+00 -0.00000000000E+00 -0.17024173124E+03  0.17024173124E+03  0.00000000000E+00 0. -1.
         25    2    1    2    0    0 -0.49882568111E+02 -0.14574039739E+03  0.99005773120E+01  0.19862688629E+03  0.12500433789E+03 0.  0.
          2    1    1    2  501    0 -0.16674196643E+01 -0.10530132927E+03  0.36984743254E+01  0.10537945220E+03  0.00000000000E+00 0. -1.
          1    1    1    2  502    0  0.51549987775E+02  0.25104172666E+03  0.63075629890E+03  0.68083247453E+03  0.00000000000E+00 0. -1.
         22    1    3    3    0    0  0.22777739579E+02  0.52892571442E+01  0.19934545662E+02  0.30727638571E+02  0.00000000000E+00 0.  1.
         22    1    3    3    0    0 -0.72660307689E+02 -0.15102965454E+03 -0.10033968350E+02  0.16789924772E+03  0.00000000000E+00 0.  1.
</event>
<event>
 7    1  0.9036454E-005  0.8937455E+02  0.7818608E-02  0.1444673E+00
          2   -1    0    0  502    0  0.00000000000E+00  0.00000000000E+00  0.45367140902E+03  0.45367140902E+03  0.00000000000E+00 0. -1.
          1   -1    0    0  501    0 -0.00000000000E+00 -0.00000000000E+00 -0.15411930178E+03  0.15411930178E+03  0.00000000000E+00 0. -1.
         25    2    1    2    0    0  0.37123677214E+02 -0.89526957846E+02 -0.97706268781E+02  0.18591747425E+03  0.12500219470E+03 0.  0.
          2    1    1    2  501    0 -0.36109688877E+02  0.61433978175E+02  0.97318801972E+02  0.12061920462E+03  0.00000000000E+00 0. -1.
          1    1    1    2  502    0 -0.10139883371E+01  0.28092979671E+02  0.29993957405E+03  0.30125403194E+03  0.00000000000E+00 0. -1.
         22    1    3    3    0    0 -0.26990099836E+02 -0.42102998959E+02  0.10892063099E+02  0.51183640444E+02  0.00000000000E+00 0. -1.
         22    1    3    3    0    0  0.64113777050E+02 -0.47423958886E+02 -0.10859833188E+03  0.13473383380E+03  0.00000000000E+00 0. -1.
</event>
<event>
 7    1  0.9036454E-005  0.4346032E+02  0.7818608E-02  0.1495194E+00
          2   -1    0    0  502    0  0.00000000000E+00  0.00000000000E+00  0.96286055038E+02  0.96286055038E+02  0.00000000000E+00 0. -1.
          1   -1    0    0  501    0 -0.00000000000E+00 -0.00000000000E+00 -0.16266097612E+03  0.16266097612E+03  0.00000000000E+00 0. -1.
         25    2    1    2    0    0  0.61333607726E+01 -0.63182765888E+01 -0.15123736746E+02  0.12621570990E+03  0.12499655706E+03 0.  0.
          2    1    1    2  501    0  0.42372877913E+02  0.96611794405E+01 -0.68514781193E+02  0.81136147386E+02  0.00000000000E+00 0. -1.
          1    1    1    2  502    0 -0.48506238686E+02 -0.33429028517E+01  0.17263596855E+02  0.51595173876E+02  0.00000000000E+00 0. -1.
         22    1    3    3    0    0  0.10007310561E+02 -0.33081354090E+02  0.47070708991E+02  0.58396694238E+02  0.00000000000E+00 0. -1.
         22    1    3    3    0    0 -0.38739497886E+01  0.26763077501E+02 -0.62194445737E+02  0.67819015658E+02  0.00000000000E+00 0. -1.
</event>
<event>
 7    1  0.9036454E-005  0.4219500E+03  0.7818608E-02  0.1226412E+00
          2   -1    0    0  502    0  0.00000000000E+00  0.00000000000E+00  0.15279050819E+04  0.15279050819E+04  0.00000000000E+00 0. -1.
          1   -1    0    0  501    0 -0.00000000000E+00 -0.00000000000E+00 -0.30036899671E+03  0.30036899671E+03  0.00000000000E+00 0. -1.
         25    2    1    2    0    0  0.15743002352E+03  0.38749890744E+03 -0.54734310497E+02  0.43995493601E+03  0.12499954162E+03 0.  0.
          2    1    1    2  501    0 -0.36500342988E+02  0.17522539938E+02  0.25162565032E+01  0.40566562473E+02  0.00000000000E+00 0. -1.
          1    1    1    2  502    0 -0.12092968053E+03 -0.40502144738E+03  0.12797541392E+04  0.13477525801E+04  0.00000000000E+00 0. -1.
         22    1    3    3    0    0  0.17733404130E+03  0.36750645089E+03 -0.54987855658E+02  0.41174265983E+03  0.00000000000E+00 0. -1.
         22    1    3    3    0    0 -0.19904017780E+02  0.19992456548E+02  0.25354516141E+00  0.28212276189E+02  0.00000000000E+00 0. -1.
</event>
<event>
 7    1  0.9036454E-005  0.5715456E+03  0.7818608E-02  0.1087302E+00
          2   -1    0    0  502    0  0.00000000000E+00  0.00000000000E+00  0.66766918510E+03  0.66766918510E+03  0.00000000000E+00 0. -1.
          1   -1    0    0  501    0 -0.00000000000E+00 -0.00000000000E+00 -0.10708172920E+04  0.10708172920E+04  0.00000000000E+00 0. -1.
         25    2    1    2    0    0  0.25584406222E+03  0.63414293078E+03 -0.23824883822E+03  0.73483373012E+03  0.12499864470E+03 0.  0.
          2    1    1    2  501    0 -0.44408061314E+02 -0.14662966102E+03 -0.39568605443E+03  0.42431095563E+03  0.00000000000E+00 0. -1.
          1    1    1    2  502    0 -0.21143600091E+03 -0.48751326976E+03  0.23078678578E+03  0.57934179131E+03  0.00000000000E+00 0. -1.
         22    1    3    3    0    0  0.98293209888E+02  0.22887242803E+03 -0.15120792919E+03  0.29138974119E+03  0.00000000000E+00 0. -1.
         22    1    3    3    0    0  0.15755085233E+03  0.40527050276E+03 -0.87040909028E+02  0.44344398893E+03  0.00000000000E+00 0. -1.
</event>
<event>
 7    1  0.9036454E-005  0.1278003E+03  0.7818608E-02  0.1300164E+00
          2   -1    0    0  502    0  0.00000000000E+00  0.00000000000E+00  0.22884435045E+04  0.22884435045E+04  0.00000000000E+00 0. -1.
          1   -1    0    0  501    0 -0.00000000000E+00 -0.00000000000E+00 -0.47617371453E+03  0.47617371453E+03  0.00000000000E+00 0. -1.
         25    2    1    2    0    0 -0.10455800466E+03 -0.42415117212E+02  0.14763650748E+04  0.14859390453E+04  0.12501837420E+03 0.  0.
          2    1    1    2  501    0 -0.11102480520E+02 -0.64010451129E+02 -0.46143948020E+03  0.46599033983E+03  0.00000000000E+00 0. -1.
          1    1    1    2  502    0  0.11566048518E+03  0.10642556834E+03  0.79734419538E+03  0.81268783388E+03  0.00000000000E+00 0. -1.
         22    1    3    3    0    0 -0.33245062626E+02 -0.41958743236E+02  0.11762413493E+04  0.11774589089E+04  0.00000000000E+00 0. -1.
         22    1    3    3    0    0 -0.71312942033E+02 -0.45637397618E+00  0.30012372546E+03  0.30848013641E+03  0.00000000000E+00 0. -1.
</event>
<event>
 7    1  0.9036454E-005  0.2238408E+03  0.7818608E-02  0.1216179E+00
          2   -1    0    0  502    0  0.00000000000E+00  0.00000000000E+00  0.17910495019E+04  0.17910495019E+04  0.00000000000E+00 0. -1.
          1   -1    0    0  501    0 -0.00000000000E+00 -0.00000000000E+00 -0.11473892285E+04  0.11473892285E+04  0.00000000000E+00 0. -1.
         25    2    1    2    0    0 -0.22893114277E+03  0.42508880551E+02  0.13096381649E+04  0.13360365795E+04  0.12500058210E+03 0.  0.
          2    1    1    2  501    0  0.19020106593E+03 -0.11812617511E+03 -0.11191541347E+04  0.11413308968E+04  0.00000000000E+00 0. -1.
          1    1    1    2  502    0  0.38730076838E+02  0.75617294560E+02  0.45317624314E+03  0.46107125418E+03  0.00000000000E+00 0. -1.
         22    1    3    3    0    0 -0.52419890577E+02  0.62756224522E+02  0.54011105055E+03  0.54626562730E+03  0.00000000000E+00 0.  1.
         22    1    3    3    0    0 -0.17651125219E+03 -0.20247343971E+02  0.76952711438E+03  0.78977095215E+03  0.00000000000E+00 0.  1.
</event>
<event>
 7    1  0.9036454E-005  0.1440954E+03  0.7818608E-02  0.1393357E+00
          2   -1    0    0  502    0  0.00000000000E+00  0.00000000000E+00  0.80012355888E+03  0.80012355888E+03  0.00000000000E+00 0. -1.
          1   -1    0    0  501    0 -0.00000000000E+00 -0.00000000000E+00 -0.10296116268E+04  0.10296116268E+04  0.00000000000E+00 0. -1.
         25    2    1    2    0    0  0.99077251531E+02  0.95937056661E+02  0.60600494308E+03  0.63394562879E+03  0.12499939443E+03 0.  0.
          2    1    1    2  501    0  0.59209678834E+01  0.25204231823E+02 -0.97977154805E+03  0.98011356359E+03  0.00000000000E+00 0. -1.
          1    1    1    2  502    0 -0.10499821941E+03 -0.12114128848E+03  0.14427853702E+03  0.21567599333E+03  0.00000000000E+00 0. -1.
         22    1    3    3    0    0  0.12290093044E+03  0.66837993353E+02  0.54148289147E+03  0.55926351375E+03  0.00000000000E+00 0.  1.
         22    1    3    3    0    0 -0.23823678910E+02  0.29099063309E+02  0.64522051611E+02  0.74682115037E+02  0.00000000000E+00 0.  1.
</event>
<event>
 7    1  0.9036454E-005  0.3923073E+03  0.7818608E-02  0.1095743E+00
          2   -1    0    0  502    0  0.00000000000E+00  0.00000000000E+00  0.10814668962E+04  0.10814668962E+04  0.00000000000E+00 0. -1.
          1   -1    0    0  501    0 -0.00000000000E+00 -0.00000000000E+00 -0.40508577130E+03  0.40508577130E+03  0.00000000000E+00 0. -1.
         25    2    1    2    0    0 -0.31675163093E+03 -0.35260135299E+03  0.53084820643E+03  0.72255632969E+03  0.12501408511E+03 0.  0.
          2    1    1    2  501    0  0.34902077273E+03  0.15552482734E+03 -0.14733209284E+03  0.40952437936E+03  0.00000000000E+00 0. -1.
          1    1    1    2  502    0 -0.32269141799E+02  0.19707652565E+03  0.29286501130E+03  0.35447195844E+03  0.00000000000E+00 0. -1.
         22    1    3    3    0    0 -0.24815519850E+02 -0.30050756433E+02  0.11226257939E+03  0.11883494738E+03  0.00000000000E+00 0.  1.
         22    1    3    3    0    0 -0.29193611108E+03 -0.32255059656E+03  0.41858562704E+03  0.60372138231E+03  0.00000000000E+00 0.  1.
</event>
<event>
 7    1  0.9036454E-005  0.8185527E+03  0.7818608E-02  0.1099089E+00
          2   -1    0    0  502    0  0.00000000000E+00  0.00000000000E+00  0.11604281074E+04  0.11604281074E+04  0.00000000000E+00 0. -1.
          1   -1    0    0  501    0 -0.00000000000E+00 -0.00000000000E+00 -0.11207687373E+04  0.11207687373E+04  0.00000000000E+00 0. -1.
         25    2    1    2    0    0 -0.76246835709E+03  0.35079164318E+03 -0.49353638313E+03  0.98163941449E+03  0.12500002447E+03 0.  0.
          2    1    1    2  501    0  0.68095601808E+03 -0.39263881665E+03  0.28446685957E+02  0.78655931298E+03  0.00000000000E+00 0. -1.
          1    1    1    2  502    0  0.81512339008E+02  0.41847173466E+02  0.50474906727E+03  0.51299811720E+03  0.00000000000E+00 0. -1.
         22    1    3    3    0    0 -0.45699325876E+03  0.15019644356E+03 -0.31414942210E+03  0.57453604727E+03  0.00000000000E+00 0. -1.
         22    1    3    3    0    0 -0.30547509833E+03  0.20059519963E+03 -0.17938696103E+03  0.40710336722E+03  0.00000000000E+00 0. -1.
</event>
<event>
 7    1  0.9036454E-005  0.8769303E+02  0.7818608E-02  0.1479159E+00
          2   -1    0    0  502    0  0.00000000000E+00  0.00000000000E+00  0.15735424493E+03  0.15735424493E+03  0.00000000000E+00 0. -1.
          1   -1    0    0  501    0 -0.00000000000E+00 -0.00000000000E+00 -0.36147215317E+03  0.36147215317E+03  0.00000000000E+00 0. -1.
         25    2    1    2    0    0 -0.75449942664E+02 -0.16674562680E+02 -0.24471005256E+02  0.14898707965E+03  0.12501033924E+03 0.  0.
          2    1    1    2  501    0  0.89116791421E+02 -0.96690216153E+00 -0.26606070501E+03  0.28059051331E+03  0.00000000000E+00 0. -1.
          1    1    1    2  502    0 -0.13666848757E+02  0.17641464842E+02  0.86413802028E+02  0.89248805133E+02  0.00000000000E+00 0. -1.
         22    1    3    3    0    0 -0.17766641906E+02 -0.39225951720E+02  0.40578350057E+02  0.59168668620E+02  0.00000000000E+00 0. -1.
         22    1    3    3    0    0 -0.57683300758E+02  0.22551389040E+02 -0.65049355313E+02  0.89818411033E+02  0.00000000000E+00 0. -1.
</event>
<event>
 7    1  0.9036454E-005  0.1110624E+03  0.7818608E-02  0.1309730E+00
          2   -1    0    0  502    0  0.00000000000E+00  0.00000000000E+00  0.13159253620E+04  0.13159253620E+04  0.00000000000E+00 0. -1.
          1   -1    0    0  501    0 -0.00000000000E+00 -0.00000000000E+00 -0.29930836524E+03  0.29930836524E+03  0.00000000000E+00 0. -1.
         25    2    1    2    0    0 -0.13537765590E+03  0.50867150214E+02  0.75669923741E+03  0.78047049204E+03  0.12500350541E+03 0.  0.
          2    1    1    2  501    0  0.34429853587E+02 -0.59211657924E+02 -0.27855184061E+03  0.28684937364E+03  0.00000000000E+00 0. -1.
          1    1    1    2  502    0  0.10094780231E+03  0.83445077100E+01  0.53846959996E+03  0.54791386156E+03  0.00000000000E+00 0. -1.
         22    1    3    3    0    0  0.16915612095E+02  0.49372333666E+01  0.19404150203E+02  0.26211357290E+02  0.00000000000E+00 0.  1.
         22    1    3    3    0    0 -0.15229326799E+03  0.45929916848E+02  0.73729508721E+03  0.75425913475E+03  0.00000000000E+00 0.  1.
</event>
<event>
 7    1  0.9036454E-005  0.2546599E+03  0.7818608E-02  0.1229600E+00
          2   -1    0    0  502    0  0.00000000000E+00  0.00000000000E+00  0.40930546935E+03  0.40930546935E+03  0.00000000000E+00 0. -1.
          1   -1    0    0  501    0 -0.00000000000E+00 -0.00000000000E+00 -0.54156420001E+03  0.54156420001E+03  0.00000000000E+00 0. -1.
         25    2    1    2    0    0 -0.26270003014E+03  0.15200614381E+03  0.21460787957E+03  0.39217110515E+03  0.12499784058E+03 0.  0.
          2    1    1    2  501    0  0.19779492513E+03 -0.15160064270E+03 -0.40237186306E+03  0.47329557726E+03  0.00000000000E+00 0. -1.
          1    1    1    2  502    0  0.64905105008E+02 -0.40550110482E+00  0.55505252832E+02  0.85402986946E+02  0.00000000000E+00 0. -1.
         22    1    3    3    0    0 -0.16788564188E+03  0.16136095795E+03  0.14771599506E+03  0.27575888508E+03  0.00000000000E+00 0. -1.
         22    1    3    3    0    0 -0.94814388259E+02 -0.93548141479E+01  0.66891884512E+02  0.11641222007E+03  0.00000000000E+00 0. -1.
</event>
<event>
 7    1  0.9036454E-005  0.2826897E+03  0.7818608E-02  0.1163890E+00
          2   -1    0    0  502    0  0.00000000000E+00  0.00000000000E+00  0.18358443082E+04  0.18358443082E+04  0.00000000000E+00 0. -1.
          1   -1    0    0  501    0 -0.00000000000E+00 -0.00000000000E+00 -0.13252441673E+03  0.13252441673E+03  0.00000000000E+00 0. -1.
         25    2    1    2    0    0  0.25762542143E+03 -0.16002716771E+03  0.17990694017E+03  0.37412728004E+03  0.12500064950E+03 0.  0.
          2    1    1    2  501    0 -0.95893508381E+02 -0.71971355151E+02  0.15008299590E+03  0.19209462921E+03  0.00000000000E+00 0. -1.
          1    1    1    2  502    0 -0.16173191305E+03  0.23199852286E+03  0.13733299554E+04  0.14021468156E+04  0.00000000000E+00 0. -1.
         22    1    3    3    0    0  0.20437920815E+03 -0.15521978439E+03  0.19051175297E+03  0.31962285621E+03  0.00000000000E+00 0.  1.
         22    1    3    3    0    0  0.53246213281E+02 -0.48073833183E+01 -0.10604812796E+02  0.54504423835E+02  0.00000000000E+00 0.  1.
</event>
<event>
 7    1  0.9036454E-005  0.1311939E+04  0.7818608E-02  0.9475655E-01
          2   -1    0    0  502    0  0.00000000000E+00  0.00000000000E+00  0.24341475460E+04  0.24341475460E+04  0.00000000000E+00 0. -1.
          1   -1    0    0  501    0 -0.00000000000E+00 -0.00000000000E+00 -0.11840177340E+04  0.11840177340E+04  0.00000000000E+00 0. -1.
         25    2    1    2    0    0  0.10995843482E+04  0.25861622470E+03  0.50051071260E+03  0.12418146969E+04  0.12499870994E+03 0.  0.
          2    1    1    2  501    0  0.54708801011E+03 -0.14151161368E+03  0.39054930523E+03  0.68692036470E+03  0.00000000000E+00 0. -1.
          1    1    1    2  502    0 -0.16466723583E+04 -0.11710461101E+03  0.35906979425E+03  0.16894302184E+04  0.00000000000E+00 0. -1.
         22    1    3    3    0    0  0.57867310979E+03  0.17608966311E+03  0.32047431003E+03  0.68452459476E+03  0.00000000000E+00 0.  1.
         22    1    3    3    0    0  0.52091123844E+03  0.82526561589E+02  0.18003640257E+03  0.55729010214E+03  0.00000000000E+00 0.  1.
</event>
<event>
 7    1  0.9036454E-005  0.1932509E+03  0.7818608E-02  0.1202352E+00
          2   -1    0    0  502    0  0.00000000000E+00  0.00000000000E+00  0.49290741073E+03  0.49290741073E+03  0.00000000000E+00 0. -1.
          1   -1    0    0  501    0 -0.00000000000E+00 -0.00000000000E+00 -0.52137665190E+03  0.52137665190E+03  0.00000000000E+00 0. -1.
         25    2    1    2    0    0  0.12247025887E+03  0.15796399408E+03  0.96717164994E+02  0.25481553100E+03  0.12500062840E+03 0.  0.
          2    1    1    2  501    0 -0.14776563564E+02 -0.19560820655E+03 -0.40898601120E+03  0.45359726042E+03  0.00000000000E+00 0. -1.
          1    1    1    2  502    0 -0.10769369530E+03  0.37644212473E+02  0.28379960503E+03  0.30587127122E+03  0.00000000000E+00 0. -1.
         22    1    3    3    0    0  0.12687284332E+03  0.16533349786E+03  0.59656399296E+02  0.21677354511E+03  0.00000000000E+00 0. -1.
         22    1    3    3    0    0 -0.44025844529E+01 -0.73695037750E+01  0.37060765698E+02  0.38041985882E+02  0.00000000000E+00 0. -1.
</event>
<event>
 7    1  0.9036454E-005  0.8576775E+02  0.7818608E-02  0.1342105E+00
          2   -1    0    0  502    0  0.00000000000E+00  0.00000000000E+00  0.15919019209E+04  0.15919019209E+04  0.00000000000E+00 0. -1.
          1   -1    0    0  501    0 -0.00000000000E+00 -0.00000000000E+00 -0.10116810114E+04  0.10116810114E+04  0.00000000000E+00 0. -1.
         25    2    1    2    0    0  0.80789433534E+02  0.12537421555E+03  0.31490285153E+03  0.37018052533E+03  0.12499675570E+03 0.  0.
          2    1    1    2  501    0 -0.38026479094E+02 -0.54665314446E+02 -0.98154643381E+03  0.98380267912E+03  0.00000000000E+00 0. -1.
          1    1    1    2  502    0 -0.42762954439E+02 -0.70708901100E+02  0.12468644917E+04  0.12495997278E+04  0.00000000000E+00 0. -1.
         22    1    3    3    0    0  0.76842362724E+02  0.12069922538E+03  0.32682839728E+03  0.35677703540E+03  0.00000000000E+00 0. -1.
         22    1    3    3    0    0  0.39470708097E+01  0.46749901672E+01 -0.11925545748E+02  0.13403489935E+02  0.00000000000E+00 0. -1.
</event>
<event>
 7    1  0.9036454E-005  0.1135564E+03  0.7818608E-02  0.1311414E+00
          2   -1    0    0  502    0  0.00000000000E+00  0.00000000000E+00  0.77476125165E+02  0.77476125165E+02  0.00000000000E+00 0. -1.
          1   -1    0    0  501    0 -0.00000000000E+00 -0.00000000000E+00 -0.19476432848E+04  0.19476432848E+04  0.00000000000E+00 0. -1.
         25    2    1    2    0    0 -0.42509506754E+02 -0.96525929899E+02 -0.11820145153E+04  0.11932759775E+04  0.12499972308E+03 0.  0.
          2    1    1    2  501    0  0.63999364154E+02 -0.16023724153E+02 -0.71179571426E+03  0.71484670887E+03  0.00000000000E+00 0. -1.
          1    1    1    2  502    0 -0.21489857400E+02  0.11254965405E+03  0.23643069852E+02  0.11699672367E+03  0.00000000000E+00 0. -1.
         22    1    3    3    0    0 -0.58927948798E+02 -0.11880361282E+03 -0.10536043421E+04  0.10619175633E+04  0.00000000000E+00 0.  1.
         22    1    3    3    0    0  0.16418442044E+02  0.22277682923E+02 -0.12841017319E+03  0.13135841417E+03  0.00000000000E+00 0.  1.
</event>
<event>
 7    1  0.9036454E-005  0.1607244E+03  0.7818608E-02  0.1398107E+00
          2   -1    0    0  502    0  0.00000000000E+00  0.00000000000E+00  0.50716024773E+03  0.50716024773E+03  0.00000000000E+00 0. -1.
          1   -1    0    0  501    0 -0.00000000000E+00 -0.00000000000E+00 -0.27174739225E+03  0.27174739225E+03  0.00000000000E+00 0. -1.
         25    2    1    2    0    0  0.97140244481E+02 -0.12717719106E+03  0.44814432844E+03  0.49200385135E+03  0.12499674237E+03 0.  0.
          2    1    1    2  501    0 -0.11935303905E+02 -0.18896035491E+02 -0.16035630074E+02  0.27507327541E+02  0.00000000000E+00 0. -1.
          1    1    1    2  502    0 -0.85204940576E+02  0.14607322656E+03 -0.19669584289E+03  0.25939646109E+03  0.00000000000E+00 0. -1.
         22    1    3    3    0    0  0.41649463606E+02  0.11205514001E+02  0.45743818121E+02  0.62870806094E+02  0.00000000000E+00 0.  1.
         22    1    3    3    0    0  0.55490780875E+02 -0.13838270507E+03  0.40240051032E+03  0.42913304525E+03  0.00000000000E+00 0.  1.
</event>
<event>
 7    1  0.9036454E-005  0.2446786E+03  0.7818608E-02  0.1119094E+00
          2   -1    0    0  502    0  0.00000000000E+00  0.00000000000E+00  0.75897073927E+03  0.75897073927E+03  0.00000000000E+00 0. -1.
          1   -1    0    0  501    0 -0.00000000000E+00 -0.00000000000E+00 -0.12960169886E+04  0.12960169886E+04  0.00000000000E+00 0. -1.
         25    2    1    2    0    0  0.79306265785E+02 -0.29499954950E+03  0.19754074951E+02  0.33065020505E+03  0.12500046651E+03 0.  0.
          2    1    1    2  501    0  0.14013989641E+03  0.20422293538E+03 -0.11020899724E+04  0.11295789061E+04  0.00000000000E+00 0. -1.
          1    1    1    2  502    0 -0.21944616220E+03  0.90776614119E+02  0.54528964812E+03  0.59475861669E+03  0.00000000000E+00 0. -1.
         22    1    3    3    0    0 -0.31736213867E+02 -0.57735156714E+02  0.19424539859E+02  0.68686595054E+02  0.00000000000E+00 0. -1.
         22    1    3    3    0    0  0.11104247965E+03 -0.23726439278E+03  0.32953509192E+00  0.26196361000E+03  0.00000000000E+00 0. -1.
</event>
<event>
 7    1  0.9036454E-005  0.3858312E+03  0.7818608E-02  0.1054692E+00
          2   -1    0    0  502    0  0.00000000000E+00  0.00000000000E+00  0.21424908407E+04  0.21424908407E+04  0.00000000000E+00 0. -1.
          1   -1    0    0  501    0 -0.00000000000E+00 -0.00000000000E+00 -0.10250584915E+04  0.10250584915E+04  0.00000000000E+00 0. -1.
         25    2    1    2    0    0  0.39046380233E+03  0.28749283222E+03 -0.53089866980E+03  0.72978964606E+03  0.12500168158E+03 0.  0.
          2    1    1    2  501    0 -0.34141251958E+03  0.96630486931E+02 -0.29177605683E+03  0.45938352917E+03  0.00000000000E+00 0. -1.
          1    1    1    2  502    0 -0.49051282745E+02 -0.38412331915E+03  0.19401070758E+04  0.19783761569E+04  0.00000000000E+00 0. -1.
         22    1    3    3    0    0  0.38357719894E+03  0.26305004038E+03 -0.45866871391E+03  0.65322567342E+03  0.00000000000E+00 0.  1.
         22    1    3    3    0    0  0.68866033815E+01  0.24442791839E+02 -0.72229955885E+02  0.76563972639E+02  0.00000000000E+00 0.  1.
</event>
<event>
 7    1  0.9036454E-005  0.1025584E+03  0.7818608E-02  0.1424645E+00
          2   -1    0    0  502    0  0.00000000000E+00  0.00000000000E+00  0.45799684733E+03  0.45799684733E+03  0.00000000000E+00 0. -1.
          1   -1    0    0  501    0 -0.00000000000E+00 -0.00000000000E+00 -0.54188170335E+03  0.54188170335E+03  0.00000000000E+00 0. -1.
         25    2    1    2    0    0  0.50968512324E+02 -0.71525578517E+02 -0.52119631423E+03  0.54312740768E+03  0.12501234091E+03 0.  0.
          2    1    1    2  501    0  0.27924684649E+02  0.56241001280E+01  0.78672709411E+02  0.83670865425E+02  0.00000000000E+00 0. -1.
          1    1    1    2  502    0 -0.78893196973E+02  0.65901478389E+02  0.35863874879E+03  0.37308027757E+03  0.00000000000E+00 0. -1.
         22    1    3    3    0    0  0.24692160527E+02  0.35063011505E+02 -0.15607682164E+03  0.16186133516E+03  0.00000000000E+00 0.  1.
         22    1    3    3    0    0  0.26276351797E+02 -0.10658859002E+03 -0.36511949259E+03  0.38126607252E+03  0.00000000000E+00 0.  1.
</event>
<event>
 7    1  0.9036454E-005  0.2134847E+03  0.7818608E-02  0.1166688E+00
          2   -1    0    0  502    0  0.00000000000E+00  0.00000000000E+00  0.77530592365E+03  0.77530592365E+03  0.00000000000E+00 0. -1.
          1   -1    0    0  501    0 -0.00000000000E+00 -0.00000000000E+00 -0.58770076159E+03  0.58770076159E+03  0.00000000000E+00 0. -1.
         25    2    1    2    0    0 -0.25827885915E+03 -0.25177456794E+03  0.53750460359E+03  0.65926860741E+03  0.12500198274E+03 0.  0.
          2    1    1    2  501    0  0.15836624810E+03  0.13494750434E+03 -0.46649951122E+03  0.51079593913E+03  0.00000000000E+00 0. -1.
          1    1    1    2  502    0  0.99912611049E+02  0.11682706360E+03  0.11660006968E+03  0.19294213870E+03  0.00000000000E+00 0. -1.
         22    1    3    3    0    0 -0.13245237111E+02  0.17270668900E+01 -0.32341100891E+01  0.13743308708E+02  0.00000000000E+00 0. -1.
         22    1    3    3    0    0 -0.24503362204E+03 -0.25350163483E+03  0.54073871368E+03  0.64552529870E+03  0.00000000000E+00 0. -1.
</event>
<event>
 7    1  0.9036454E-005  0.2795107E+03  0.7818608E-02  0.1120774E+00
          2   -1    0    0  502    0  0.00000000000E+00  0.00000000000E+00  0.53146185335E+03  0.53146185335E+03  0.00000000000E+00 0. -1.
          1   -1    0    0  501    0 -0.00000000000E+00 -0.00000000000E+00 -0.54504518617E+03  0.54504518617E+03  0.00000000000E+00 0. -1.
         25    2    1    2    0    0  0.61146458995E+02  0.10635203399E+03 -0.20088268619E+03  0.26651462591E+03  0.12500619037E+03 0.  0.
          2    1    1    2  501    0  0.93218042529E+01  0.20334817936E+03 -0.21589098817E+03  0.29672596256E+03  0.00000000000E+00 0. -1.
          1    1    1    2  502    0 -0.70468263248E+02 -0.30970021335E+03  0.40319034154E+03  0.51326645106E+03  0.00000000000E+00 0. -1.
         22    1    3    3    0    0  0.83446179230E+02  0.49059520699E+02 -0.62859989404E+02  0.11541871454E+03  0.00000000000E+00 0.  1.
         22    1    3    3    0    0 -0.22299720236E+02  0.57292513288E+02 -0.13802269679E+03  0.15109591136E+03  0.00000000000E+00 0.  1.
</event>
<event>
 7    1  0.9036454E-005  0.6217640E+03  0.7818608E-02  0.1092033E+00
          2   -1    0    0  502    0  0.00000000000E+00  0.00000000000E+00  0.24929145599E+03  0.24929145599E+03  0.00000000000E+00 0. -1.
          1   -1    0    0  501    0 -0.00000000000E+00 -0.00000000000E+00 -0.23557450177E+04  0.23557450177E+04  0.00000000000E+00 0. -1.
         25    2    1    2    0    0  0.62090852237E+03  0.13370935835E+03 -0.14084397271E+04  0.15500755135E+04  0.12500418777E+03 0.  0.
          2    1    1    2  501    0 -0.60844477416E+03 -0.20074580796E+01 -0.69352090395E+03  0.92259434060E+03  0.00000000000E+00 0. -1.
          1    1    1    2  502    0 -0.12463748216E+02 -0.13170190027E+03 -0.44929306365E+01  0.13236661958E+03  0.00000000000E+00 0. -1.
         22    1    3    3    0    0  0.14761757105E+03  0.63926839000E+02 -0.25686159316E+03  0.30307666698E+03  0.00000000000E+00 0. -1.
         22    1    3    3    0    0  0.47329095133E+03  0.69782519346E+02 -0.11515781339E+04  0.12469988465E+04  0.00000000000E+00 0. -1.
</event>
<event>
 7    1  0.9036454E-005  0.2558476E+03  0.7818608E-02  0.1121111E+00
          2   -1    0    0  502    0  0.00000000000E+00  0.00000000000E+00  0.22725623908E+04  0.22725623908E+04  0.00000000000E+00 0. -1.
          1   -1    0    0  501    0 -0.00000000000E+00 -0.00000000000E+00 -0.59095493248E+03  0.59095493248E+03  0.00000000000E+00 0. -1.
         25    2    1    2    0    0 -0.24967978329E+03 -0.16706066574E+03 -0.15201264605E+03  0.35913981420E+03  0.12499720544E+03 0.  0.
          2    1    1    2  501    0  0.25776284394E+03 -0.54249224708E+02 -0.27695509107E+03  0.38221562575E+03  0.00000000000E+00 0. -1.
          1    1    1    2  502    0 -0.80830606496E+01  0.22130989045E+03  0.21105751954E+04  0.21221618833E+04  0.00000000000E+00 0. -1.
         22    1    3    3    0    0 -0.15125113806E+03 -0.33597046302E+02 -0.43390337662E+02  0.16089869386E+03  0.00000000000E+00 0. -1.
         22    1    3    3    0    0 -0.98428645229E+02 -0.13346361944E+03 -0.10862230839E+03  0.19824112034E+03  0.00000000000E+00 0. -1.
</event>
<event>
 7    1  0.9036454E-005  0.4909473E+02  0.7818608E-02  0.1490897E+00
          2   -1    0    0  502    0  0.00000000000E+00  0.00000000000E+00  0.18607886615E+03  0.18607886615E+03  0.00000000000E+00 0. -1.
          1   -1    0    0  501    0 -0.00000000000E+00 -0.00000000000E+00 -0.44276840096E+03  0.44276840096E+03  0.00000000000E+00 0. -1.
         25    2    1    2    0    0  0.43684176806E+02 -0.36040950039E+02 -0.99195270977E+02  0.16932885517E+03  0.12500120810E+03 0.  0.
          2    1    1    2  501    0 -0.91578357485E+01  0.48513573682E+02 -0.30425577448E+03  0.30823531448E+03  0.00000000000E+00 0. -1.
          1    1    1    2  502    0 -0.34526341057E+02 -0.12472623643E+02  0.14676151065E+03  0.15128309746E+03  0.00000000000E+00 0. -1.
         22    1    3    3    0    0  0.20538658348E+02 -0.43343675730E+02 -0.12501064552E+03  0.13389612468E+03  0.00000000000E+00 0.  1.
         22    1    3    3    0    0  0.23145518458E+02  0.73027256912E+01  0.25815374542E+02  0.35432730489E+02  0.00000000000E+00 0.  1.
</event>
<event>
 7    1  0.9036454E-005  0.2259578E+03  0.7818608E-02  0.1157336E+00
          2   -1    0    0  502    0  0.00000000000E+00  0.00000000000E+00  0.84964600931E+03  0.84964600931E+03  0.00000000000E+00 0. -1.
          1   -1    0    0  501    0 -0.00000000000E+00 -0.00000000000E+00 -0.11222089712E+04  0.11222089712E+04  0.00000000000E+00 0. -1.
         25    2    1    2    0    0  0.26820604602E+03 -0.18817760905E+03  0.20512235836E+03  0.40626504446E+03  0.12502323295E+03 0.  0.
          2    1    1    2  501    0 -0.10652197778E+03  0.19609947807E+03 -0.99697902514E+03  0.10216501914E+04  0.00000000000E+00 0. -1.
          1    1    1    2  502    0 -0.16168406824E+03 -0.79218690276E+01  0.51929370486E+03  0.54393974468E+03  0.00000000000E+00 0. -1.
         22    1    3    3    0    0  0.19277768824E+03 -0.19535621510E+03  0.15209874035E+03  0.31378545963E+03  0.00000000000E+00 0. -1.
         22    1    3    3    0    0  0.75428357780E+02  0.71786060501E+01  0.53023618008E+02  0.92479584823E+02  0.00000000000E+00 0. -1.
</event>
<event>
 7    1  0.9036454E-005  0.3035675E+03  0.7818608E-02  0.1227898E+00
          2   -1    0    0  502    0  0.00000000000E+00  0.00000000000E+00  0.31234562585E+03  0.31234562585E+03  0.00000000000E+00 0. -1.
          1   -1    0    0  501    0 -0.00000000000E+00 -0.00000000000E+00 -0.40790111640E+03  0.40790111640E+03  0.00000000000E+00 0. -1.
         25    2    1    2    0    0 -0.20619557005E+03  0.22740900336E+03 -0.54157721208E+02  0.33584174109E+03  0.12500059350E+03 0.  0.
          2    1    1    2  501    0  0.46419002721E+02  0.30270671623E+02 -0.58687506916E+02  0.80717165722E+02  0.00000000000E+00 0. -1.
          1    1    1    2  502    0  0.15977656733E+03 -0.25767967498E+03  0.17289737572E+02  0.30368783543E+03  0.00000000000E+00 0. -1.
         22    1    3    3    0    0 -0.16201541707E+03  0.18152522042E+03 -0.93857499264E+02  0.26078656251E+03  0.00000000000E+00 0.  1.
         22    1    3    3    0    0 -0.44180152980E+02  0.45883782936E+02  0.39699778057E+02  0.75055178579E+02  0.00000000000E+00 0.  1.
</event>
<event>
 7    1  0.9036454E-005  0.8946756E+02  0.7818608E-02  0.1418412E+00
          2   -1    0    0  502    0  0.00000000000E+00  0.00000000000E+00  0.72825781467E+03  0.72825781467E+03  0.00000000000E+00 0. -1.
          1   -1    0    0  501    0 -0.00000000000E+00 -0.00000000000E+00 -0.13670559852E+04  0.13670559852E+04  0.00000000000E+00 0. -1.
         25    2    1    2    0    0 -0.79705490134E+02  0.87600342329E+02  0.38177977478E+03  0.41881708159E+03  0.12500066506E+03 0.  0.
          2    1    1    2  501    0  0.70807456569E+02 -0.54523260033E+02 -0.13461573337E+04  0.13491204723E+04  0.00000000000E+00 0. -1.
          1    1    1    2  502    0  0.88980335653E+01 -0.33077082296E+02  0.32557938831E+03  0.32737624603E+03  0.00000000000E+00 0. -1.
         22    1    3    3    0    0 -0.52985869069E+02  0.58984681648E+02  0.73673904512E+02  0.10823372486E+03  0.00000000000E+00 0.  1.
         22    1    3    3    0    0 -0.26719621065E+02  0.28615660681E+02  0.30810587027E+03  0.31058335673E+03  0.00000000000E+00 0.  1.
</event>
<event>
 7    1  0.9036454E-005  0.5369077E+03  0.7818608E-02  0.1086684E+00
          2   -1    0    0  502    0  0.00000000000E+00  0.00000000000E+00  0.21791061509E+04  0.21791061509E+04  0.00000000000E+00 0. -1.
          1   -1    0    0  501    0 -0.00000000000E+00 -0.00000000000E+00 -0.13103294731E+04  0.13103294731E+04  0.00000000000E+00 0. -1.
         25    2    1    2    0    0  0.22537074679E+03  0.56781119097E+03  0.61097030507E+03  0.87298995232E+03  0.12500088428E+03 0.  0.
          2    1    1    2  501    0 -0.31442193777E+03 -0.42957693464E+03 -0.11140822849E+04  0.12347375573E+04  0.00000000000E+00 0. -1.
          1    1    1    2  502    0  0.89051190976E+02 -0.13823425633E+03  0.13718886577E+04  0.13817081144E+04  0.00000000000E+00 0. -1.
         22    1    3    3    0    0  0.22985572835E+03  0.57247876305E+03  0.60226686265E+03  0.86214323860E+03  0.00000000000E+00 0. -1.
         22    1    3    3    0    0 -0.44849815612E+01 -0.46675720812E+01  0.87034424147E+01  0.10846713724E+02  0.00000000000E+00 0. -1.
</event>
<event>
 7    1  0.9036454E-005  0.7419620E+03  0.7818608E-02  0.1017191E+00
          2   -1    0    0  502    0  0.00000000000E+00  0.00000000000E+00  0.16252686595E+04  0.16252686595E+04  0.00000000000E+00 0. -1.
          1   -1    0    0  501    0 -0.00000000000E+00 -0.00000000000E+00 -0.14003299053E+04  0.14003299053E+04  0.00000000000E+00 0. -1.
         25    2    1    2    0    0 -0.30863638209E+02 -0.79899831042E+03  0.10507246687E+04  0.13262724516E+04  0.12500168843E+03 0.  0.
          2    1    1    2  501    0 -0.27029000918E+03  0.69128470825E+03 -0.10662615096E+04  0.12991708293E+04  0.00000000000E+00 0. -1.
          1    1    1    2  502    0  0.30115364739E+03  0.10771360217E+03  0.24047559506E+03  0.40015528392E+03  0.00000000000E+00 0. -1.
         22    1    3    3    0    0  0.17750835277E+02 -0.43155668261E+02  0.30944135909E+02  0.55991458306E+02  0.00000000000E+00 0.  1.
         22    1    3    3    0    0 -0.48614473486E+02 -0.75584264216E+03  0.10197805328E+04  0.12702809932E+04  0.00000000000E+00 0.  1.
</event>
<event>
 7    1  0.9036454E-005  0.4354925E+03  0.7818608E-02  0.1172060E+00
          2   -1    0    0  502    0  0.00000000000E+00  0.00000000000E+00  0.67106901575E+03  0.67106901575E+03  0.00000000000E+00 0. -1.
          1   -1    0    0  501    0 -0.00000000000E+00 -0.00000000000E+00 -0.35403374563E+03  0.35403374563E+03  0.00000000000E+00 0. -1.
         25    2    1    2    0    0  0.43322365989E+03  0.83621348734E+02  0.73265042671E+02  0.46440141891E+03  0.12500256779E+03 0.  0.
          2    1    1    2  501    0 -0.26005656357E+02  0.65918223232E+02  0.40671382474E+02  0.81704759157E+02  0.00000000000E+00 0. -1.
          1    1    1    2  502    0 -0.40721800354E+03 -0.14953957197E+03  0.20309884498E+03  0.47899658331E+03  0.00000000000E+00 0. -1.
         22    1    3    3    0    0  0.23697600885E+02  0.29458400161E+02 -0.17174161099E+02  0.41524997739E+02  0.00000000000E+00 0. -1.
         22    1    3    3    0    0  0.40952605901E+03  0.54162948573E+02  0.90439203770E+02  0.42287642117E+03  0.00000000000E+00 0. -1.
</event>
<event>
 7    1  0.9036454E-005  0.1054402E+03  0.7818608E-02  0.1405308E+00
          2   -1    0    0  502    0  0.00000000000E+00  0.00000000000E+00  0.80925478651E+03  0.80925478651E+03  0.00000000000E+00 0. -1.
          1   -1    0    0  501    0 -0.00000000000E+00 -0.00000000000E+00 -0.35034229099E+02  0.35034229099E+02  0.00000000000E+00 0. -1.
         25    2    1    2    0    0 -0.94542330487E+02 -0.30936995297E+01  0.40627899718E+03  0.43547191050E+03  0.12500135221E+03 0.  0.
          2    1    1    2  501    0 -0.13971989441E+02 -0.28993468901E+02  0.10442062845E+02  0.33835992734E+02  0.00000000000E+00 0. -1.
          1    1    1    2  502    0  0.10851431993E+03  0.32087168431E+02  0.35749949738E+03  0.37498111237E+03  0.00000000000E+00 0. -1.
         22    1    3    3    0    0 -0.81571021660E+02  0.31574367182E+02  0.38035136791E+03  0.39027930423E+03  0.00000000000E+00 0. -1.
         22    1    3    3    0    0 -0.12971308827E+02 -0.34668066712E+02  0.25927629274E+02  0.45192606276E+02  0.00000000000E+00 0. -1.
</event>
<event>
 7    1  0.9036454E-005  0.1332287E+04  0.7818608E-02  0.1021778E+00
          2   -1    0    0  502    0  0.00000000000E+00  0.00000000000E+00  0.17685583764E+04  0.17685583764E+04  0.00000000000E+00 0. -1.
          1   -1    0    0  501    0 -0.00000000000E+00 -0.00000000000E+00 -0.16265880840E+04  0.16265880840E+04  0.00000000000E+00 0. -1.
         25    2    1    2    0    0 -0.11341101550E+04  0.59076136211E+03  0.81967642385E+02  0.12874551174E+04  0.12496861295E+03 0.  0.
          2    1    1    2  501    0  0.11438703595E+04 -0.75663648994E+03 -0.54836627798E+03  0.14770388458E+04  0.00000000000E+00 0. -1.
          1    1    1    2  502    0 -0.97602044333E+01  0.16587512783E+03  0.60836892804E+03  0.63065249721E+03  0.00000000000E+00 0. -1.
         22    1    3    3    0    0 -0.78288546037E+03  0.36001352308E+03  0.95666515809E+02  0.86698988639E+03  0.00000000000E+00 0. -1.
         22    1    3    3    0    0 -0.35122469468E+03  0.23074783903E+03 -0.13698873424E+02  0.42046523102E+03  0.00000000000E+00 0. -1.
</event>
<event>
 7    1  0.9036454E-005  0.3176683E+03  0.7818608E-02  0.1202281E+00
          2   -1    0    0  502    0  0.00000000000E+00  0.00000000000E+00  0.18554058948E+04  0.18554058948E+04  0.00000000000E+00 0. -1.
          1   -1    0    0  501    0 -0.00000000000E+00 -0.00000000000E+00 -0.14332263072E+03  0.14332263072E+03  0.00000000000E+00 0. -1.
         25    2    1    2    0    0  0.34868726302E+03 -0.10472692230E+03  0.65197361544E+03  0.75712947257E+03  0.12499962943E+03 0.  0.
          2    1    1    2  501    0 -0.27963789493E+03  0.11221855868E+03  0.16448730295E+03  0.34328767823E+03  0.00000000000E+00 0. -1.
          1    1    1    2  502    0 -0.69049368086E+02 -0.74916363810E+01  0.89562234567E+03  0.89831137469E+03  0.00000000000E+00 0. -1.
         22    1    3    3    0    0  0.13467106218E+03  0.20063977429E+02  0.25832153168E+03  0.29200834219E+03  0.00000000000E+00 0. -1.
         22    1    3    3    0    0  0.21401620083E+03 -0.12479089973E+03  0.39365208376E+03  0.46512113037E+03  0.00000000000E+00 0. -1.
</event>
<event>
 7    1  0.9036454E-005  0.5104147E+03  0.7818608E-02  0.1095185E+00
          2   -1    0    0  502    0  0.00000000000E+00  0.00000000000E+00  0.54274555422E+03  0.54274555422E+03  0.00000000000E+00 0. -1.
          1   -1    0    0  501    0 -0.00000000000E+00 -0.00000000000E+00 -0.10277219125E+04  0.10277219125E+04  0.00000000000E+00 0. -1.
         25    2    1    2    0    0 -0.38268626378E+03 -0.45321813848E+03 -0.21019269437E+03  0.64160901580E+03  0.12500281137E+03 0.  0.
          2    1    1    2  501    0  0.37001123989E+03  0.29912262199E+03 -0.47738274540E+03  0.67400070195E+03  0.00000000000E+00 0. -1.
          1    1    1    2  502    0  0.12675023897E+02  0.15409551649E+03  0.20259908144E+03  0.25485774901E+03  0.00000000000E+00 0. -1.
         22    1    3    3    0    0 -0.10882967230E+03 -0.78265942441E+02 -0.54570698121E+01  0.13416122737E+03  0.00000000000E+00 0. -1.
         22    1    3    3    0    0 -0.27385659148E+03 -0.37495219604E+03 -0.20473562456E+03  0.50744778842E+03  0.00000000000E+00 0. -1.
</event>
<event>
 7    1  0.9036454E-005  0.1172656E+03  0.7818608E-02  0.1292509E+00
          2   -1    0    0  502    0  0.00000000000E+00  0.00000000000E+00  0.30403681702E+03  0.30403681702E+03  0.00000000000E+00 0. -1.
          1   -1    0    0  501    0 -0.00000000000E+00 -0.00000000000E+00 -0.52177028429E+03  0.52177028429E+03  0.00000000000E+00 0. -1.
         25    2    1    2    0    0  0.66107624354E+02 -0.15633375855E+03 -0.31131298251E+03  0.37596691034E+03  0.12499953013E+03 0.  0.
          2    1    1    2  501    0 -0.49781538169E+02  0.82097928763E+02 -0.15918289270E+03  0.18589638183E+03  0.00000000000E+00 0. -1.
          1    1    1    2  502    0 -0.16326086185E+02  0.74235829785E+02  0.25276240794E+03  0.26394380913E+03  0.00000000000E+00 0. -1.
         22    1    3    3    0    0  0.24245272489E+02 -0.13644081569E+03 -0.13426735057E+03  0.19295504879E+03  0.00000000000E+00 0.  1.
         22    1    3    3    0    0  0.41862351866E+02 -0.19892942855E+02 -0.17704563194E+03  0.18301186155E+03  0.00000000000E+00 0.  1.
</event>
<event>
 7    1  0.9036454E-005  0.1044606E+03  0.7818608E-02  0.1417164E+00
          2   -1    0    0  502    0  0.00000000000E+00  0.00000000000E+00  0.12034346167E+04  0.12034346167E+04  0.00000000000E+00 0. -1.
          1   -1    0    0  501    0 -0.00000000000E+00 -0.00000000000E+00 -0.53986862534E+02  0.53986862534E+02  0.00000000000E+00 0. -1.
         25    2    1    2    0    0 -0.57944271392E+02  0.10763786374E+03  0.16481515649E+03  0.24027200138E+03  0.12499260195E+03 0.  0.
          2    1    1    2  501    0  0.45416787220E+02 -0.80796705302E+02  0.11818082223E+03  0.15019154068E+03  0.00000000000E+00 0. -1.
          1    1    1    2  502    0  0.12527484172E+02 -0.26841158442E+02  0.86645177550E+03  0.86695793722E+03  0.00000000000E+00 0. -1.
         22    1    3    3    0    0 -0.24507682213E+02  0.12956484136E+03  0.14378320302E+03  0.19509301390E+03  0.00000000000E+00 0.  1.
         22    1    3    3    0    0 -0.33436589178E+02 -0.21926977612E+02  0.21031953472E+02  0.45178987482E+02  0.00000000000E+00 0.  1.
</event>
<event>
 7    1  0.9036454E-005  0.2879171E+03  0.7818608E-02  0.1098946E+00
          2   -1    0    0  502    0  0.00000000000E+00  0.00000000000E+00  0.78982264732E+03  0.78982264732E+03  0.00000000000E+00 0. -1.
          1   -1    0    0  501    0 -0.00000000000E+00 -0.00000000000E+00 -0.31315820568E+03  0.31315820568E+03  0.00000000000E+00 0. -1.
         25    2    1    2    0    0 -0.11971855109E+03 -0.30448556410E+03 -0.46542424695E+02  0.35332001952E+03  0.12499939471E+03 0.  0.
          2    1    1    2  501    0 -0.13168643214E+03  0.23444919783E+03  0.32576475128E+03  0.42241024602E+03  0.00000000000E+00 0. -1.
          1    1    1    2  502    0  0.25140498323E+03  0.70036366274E+02  0.19744211505E+03  0.32725058746E+03  0.00000000000E+00 0. -1.
         22    1    3    3    0    0 -0.75365787667E+02 -0.13983543056E+03  0.37494975748E+02  0.16321710326E+03  0.00000000000E+00 0.  1.
         22    1    3    3    0    0 -0.44352763421E+02 -0.16465013354E+03 -0.84037400443E+02  0.19010291626E+03  0.00000000000E+00 0.  1.
</event>
<event>
 7    1  0.9036454E-005  0.2814957E+03  0.7818608E-02  0.1229968E+00
          2   -1    0    0  502    0  0.00000000000E+00  0.00000000000E+00  0.34910298492E+03  0.34910298492E+03  0.00000000000E+00 0. -1.
          1   -1    0    0  501    0 -0.00000000000E+00 -0.00000000000E+00 -0.34667149890E+04  0.34667149890E+04  0.00000000000E+00 0. -1.
         25    2    1    2    0    0  0.33375600714E+02  0.23557940953E+03  0.13659053056E+03  0.30148218744E+03  0.12499178930E+03 0.  0.
          2    1    1    2  501    0 -0.79724620636E+02 -0.27126576354E+03 -0.33714613740E+04  0.33832961629E+04  0.00000000000E+00 0. -1.
          1    1    1    2  502    0  0.46349019922E+02  0.35686354010E+02  0.11725883941E+03  0.13103962351E+03  0.00000000000E+00 0. -1.
         22    1    3    3    0    0 -0.11711001489E+02  0.21104846702E+03  0.82467772895E+02  0.22689102352E+03  0.00000000000E+00 0. -1.
         22    1    3    3    0    0  0.45086602203E+02  0.24530942505E+02  0.54122757663E+02  0.74591163924E+02  0.00000000000E+00 0. -1.
</event>
<event>
 7    1  0.9036454E-005  0.2000361E+03  0.7818608E-02  0.1187364E+00
          2   -1    0    0  502    0  0.00000000000E+00  0.00000000000E+00  0.13579226166E+04  0.13579226166E+04  0.00000000000E+00 0. -1.
          1   -1    0    0  501    0 -0.00000000000E+00 -0.00000000000E+00 -0.20257466780E+04  0.20257466780E+04  0.00000000000E+00 0. -1.
         25    2    1    2    0    0  0.34420575511E+02 -0.27731197043E+03  0.93889758642E+03  0.98754448254E+03  0.12501488808E+03 0.  0.
          2    1    1    2  501    0 -0.10629528108E+03  0.16913012389E+03 -0.19855894729E+04  0.19956124975E+04  0.00000000000E+00 0. -1.
          1    1    1    2  502    0  0.71874705572E+02  0.10818184654E+03  0.37886782505E+03  0.40051231451E+03  0.00000000000E+00 0. -1.
         22    1    3    3    0    0  0.36633338457E+02 -0.18413149295E+03  0.41595626158E+03  0.45636172027E+03  0.00000000000E+00 0. -1.
         22    1    3    3    0    0 -0.22127629458E+01 -0.93180477486E+02  0.52294132484E+03  0.53118276226E+03  0.00000000000E+00 0. -1.
</event>
<event>
 7    1  0.9036454E-005  0.5523512E+03  0.7818608E-02  0.1080918E+00
          2   -1    0    0  502    0  0.00000000000E+00  0.00000000000E+00  0.32258046023E+03  0.32258046023E+03  0.00000000000E+00 0. -1.
          1   -1    0    0  501    0 -0.00000000000E+00 -0.00000000000E+00 -0.15246969789E+04  0.15246969789E+04  0.00000000000E+00 0. -1.
         25    2    1    2    0    0 -0.59668921903E+03  0.10326274151E+03 -0.16750805258E+03  0.64061225853E+03  0.12499560075E+03 0.  0.
          2    1    1    2  501    0  0.16584251980E+03 -0.48005230597E+02 -0.18881436107E+03  0.25584977327E+03  0.00000000000E+00 0. -1.
          1    1    1    2  502    0  0.43084669923E+03 -0.55257510912E+02 -0.84579410504E+03  0.95081540735E+03  0.00000000000E+00 0. -1.
         22    1    3    3    0    0 -0.38499437533E+03  0.16657052365E+02 -0.14106897998E+03  0.41036396472E+03  0.00000000000E+00 0.  1.
         22    1    3    3    0    0 -0.21169484369E+03  0.86605689144E+02 -0.26439072603E+02  0.23024829380E+03  0.00000000000E+00 0.  1.
</event>
<event>
 7    1  0.9036454E-005  0.1520151E+03  0.7818608E-02  0.1251902E+00
          2   -1    0    0  502    0  0.00000000000E+00  0.00000000000E+00  0.34696392137E+04  0.34696392137E+04  0.00000000000E+00 0. -1.
          1   -1    0    0  501    0 -0.00000000000E+00 -0.00000000000E+00 -0.70028407945E+03  0.70028407945E+03  0.00000000000E+00 0. -1.
         25    2    1    2    0    0  0.20510852130E+03 -0.65319690202E+02  0.10548587828E+04  0.10838319757E+04  0.12501412864E+03 0.  0.
          2    1    1    2  501    0 -0.12198259000E+03  0.90028625247E+02 -0.67662294004E+03  0.69339996295E+03  0.00000000000E+00 0. -1.
          1    1    1    2  502    0 -0.83125931295E+02 -0.24708935046E+02  0.23911192915E+04  0.23926913545E+04  0.00000000000E+00 0. -1.
         22    1    3    3    0    0  0.48828598528E+02 -0.35914145451E+02  0.57772038949E+03  0.58089147550E+03  0.00000000000E+00 0. -1.
         22    1    3    3    0    0  0.15627992277E+03 -0.29405544750E+02  0.47713839335E+03  0.50294050019E+03  0.00000000000E+00 0. -1.
</event>
<event>
 7    1  0.9036454E-005  0.2579698E+03  0.7818608E-02  0.1220602E+00
          2   -1    0    0  502    0  0.00000000000E+00  0.00000000000E+00  0.49058196914E+03  0.49058196914E+03  0.00000000000E+00 0. -1.
          1   -1    0    0  501    0 -0.00000000000E+00 -0.00000000000E+00 -0.22230210096E+03  0.22230210096E+03  0.00000000000E+00 0. -1.
         25    2    1    2    0    0 -0.18843922269E+03 -0.14175607177E+03  0.20298083405E+03  0.33530548408E+03  0.12499769650E+03 0.  0.
          2    1    1    2  501    0 -0.34265534537E+02 -0.61458050822E+02  0.14504394451E+02  0.71844250475E+02  0.00000000000E+00 0. -1.
          1    1    1    2  502    0  0.22270475723E+03  0.20321412259E+03  0.50794639684E+02  0.30573433555E+03  0.00000000000E+00 0. -1.
         22    1    3    3    0    0 -0.14368877650E+03 -0.10793127946E+03  0.21261389684E+03  0.27838874745E+03  0.00000000000E+00 0.  1.
         22    1    3    3    0    0 -0.44750446190E+02 -0.33824792313E+02 -0.96330627941E+01  0.56916736625E+02  0.00000000000E+00 0.  1.
</event>
<event>
 7    1  0.9036454E-005  0.1703791E+03  0.7818608E-02  0.1194800E+00
          2   -1    0    0  502    0  0.00000000000E+00  0.00000000000E+00  0.29744824525E+03  0.29744824525E+03  0.00000000000E+00 0. -1.
          1   -1    0    0  501    0 -0.00000000000E+00 -0.00000000000E+00 -0.81763287305E+03  0.81763287305E+03  0.00000000000E+00 0. -1.
         25    2    1    2    0    0  0.20307645722E+03  0.31103412651E+02  0.10079016262E+03  0.26075065678E+03  0.12499911350E+03 0.  0.
          2    1    1    2  501    0 -0.14221997280E+03  0.95516277551E+02 -0.68051560332E+03  0.70174879145E+03  0.00000000000E+00 0. -1.
          1    1    1    2  502    0 -0.60856484413E+02 -0.12661969020E+03  0.59540812900E+02  0.15258167007E+03  0.00000000000E+00 0. -1.
         22    1    3    3    0    0  0.75434564859E+02  0.40591903435E+02 -0.16391495261E+02  0.87216726130E+02  0.00000000000E+00 0.  1.
         22    1    3    3    0    0  0.12764189236E+03 -0.94884907840E+01  0.11718165788E+03  0.17353393065E+03  0.00000000000E+00 0.  1.
</event>
<event>
 7    1  0.9036454E-005  0.4624640E+03  0.7818608E-02  0.1120501E+00
          2   -1    0    0  502    0  0.00000000000E+00  0.00000000000E+00  0.44905476985E+03  0.44905476985E+03  0.00000000000E+00 0. -1.
          1   -1    0    0  501    0 -0.00000000000E+00 -0.00000000000E+00 -0.13413913011E+04  0.13413913011E+04  0.00000000000E+00 0. -1.
         25    2    1    2    0    0  0.62186176729E+02  0.48917062145E+03  0.19061234636E+03  0.54324508825E+03  0.12500856716E+03 0.  0.
          2    1    1    2  501    0 -0.61234389521E+02 -0.10719582215E+03 -0.68331851855E+03  0.69438086994E+03  0.00000000000E+00 0. -1.
          1    1    1    2  502    0 -0.95178720842E+00 -0.38197479930E+03 -0.39963035908E+03  0.55282011279E+03  0.00000000000E+00 0. -1.
         22    1    3    3    0    0  0.28334385394E+02  0.67648315307E+02 -0.12025253469E+02  0.74321858699E+02  0.00000000000E+00 0. -1.
         22    1    3    3    0    0  0.33851791336E+02  0.42152230614E+03  0.20263759983E+03  0.46892322956E+03  0.00000000000E+00 0. -1.
</event>
<event>
 7    1  0.9036454E-005  0.1415382E+03  0.7818608E-02  0.1245360E+00
          2   -1    0    0  502    0  0.00000000000E+00  0.00000000000E+00  0.42139959140E+04  0.42139959140E+04  0.00000000000E+00 0. -1.
          1   -1    0    0  501    0 -0.00000000000E+00 -0.00000000000E+00 -0.14229084508E+02  0.14229084508E+02  0.00000000000E+00 0. -1.
         25    2    1    2    0    0  0.90643316869E+02 -0.15870002425E+03  0.17323935069E+04  0.17464861747E+04  0.12499914948E+03 0.  0.
          2    1    1    2  501    0  0.28083979692E+02  0.95396176848E+02  0.50138520888E+03  0.51115190321E+03  0.00000000000E+00 0. -1.
          1    1    1    2  502    0 -0.11872729656E+03  0.63303847402E+02  0.19659881137E+04  0.19705869205E+04  0.00000000000E+00 0. -1.
         22    1    3    3    0    0  0.48070172362E+02  0.85202384453E+01  0.36752926745E+03  0.37075746570E+03  0.00000000000E+00 0. -1.
         22    1    3    3    0    0  0.42573144508E+02 -0.16722026270E+03  0.13648642394E+04  0.13757287090E+04  0.00000000000E+00 0. -1.
</event>
<event>
 7    1  0.9036454E-005  0.3260279E+03  0.7818608E-02  0.1322615E+00
          2   -1    0    0  502    0  0.00000000000E+00  0.00000000000E+00  0.27281891259E+03  0.27281891259E+03  0.00000000000E+00 0. -1.
          1   -1    0    0  501    0 -0.00000000000E+00 -0.00000000000E+00 -0.49974652085E+03  0.49974652085E+03  0.00000000000E+00 0. -1.
         25    2    1    2    0    0  0.14138018484E+03 -0.29269236308E+03 -0.11501979957E+03  0.36675824673E+03  0.12499952474E+03 0.  0.
          2    1    1    2  501    0  0.19260469537E+02  0.78036245212E+01 -0.73642133159E+02  0.76518141762E+02  0.00000000000E+00 0. -1.
          1    1    1    2  502    0 -0.16064065438E+03  0.28488873855E+03 -0.38265675534E+02  0.32928904494E+03  0.00000000000E+00 0. -1.
         22    1    3    3    0    0  0.96660885859E+02 -0.28679224206E+03 -0.10662463161E+03  0.32087681286E+03  0.00000000000E+00 0. -1.
         22    1    3    3    0    0  0.44719298981E+02 -0.59001210111E+01 -0.83951679610E+01  0.45881433874E+02  0.00000000000E+00 0. -1.
</event>
<event>
 7    1  0.9036454E-005  0.3794979E+03  0.7818608E-02  0.1219664E+00
          2   -1    0    0  502    0  0.00000000000E+00  0.00000000000E+00  0.42450252713E+03  0.42450252713E+03  0.00000000000E+00 0. -1.
          1   -1    0    0  501    0 -0.00000000000E+00 -0.00000000000E+00 -0.12924976986E+04  0.12924976986E+04  0.00000000000E+00 0. -1.
         25    2    1    2    0    0 -0.20569191368E+03 -0.31321898335E+03  0.66064003742E+01  0.39506314318E+03  0.12496378554E+03 0.  0.
          2    1    1    2  501    0  0.35945701114E+02 -0.32268675612E+02 -0.93155878309E+03  0.93281033828E+03  0.00000000000E+00 0. -1.
          1    1    1    2  502    0  0.16974621256E+03  0.34548765896E+03  0.56957211267E+02  0.38912674425E+03  0.00000000000E+00 0. -1.
         22    1    3    3    0    0 -0.21615626475E+03 -0.24824457740E+03  0.73876493855E+01  0.32924683501E+03  0.00000000000E+00 0.  1.
         22    1    3    3    0    0  0.10464351077E+02 -0.64974405948E+02 -0.78124901128E+00  0.65816308175E+02  0.00000000000E+00 0.  1.
</event>
<event>
 7    1  0.9036454E-005  0.1129469E+03  0.7818608E-02  0.1274438E+00
          2   -1    0    0  502    0  0.00000000000E+00  0.00000000000E+00  0.30390248371E+02  0.30390248371E+02  0.00000000000E+00 0. -1.
          1   -1    0    0  501    0 -0.00000000000E+00 -0.00000000000E+00 -0.16589373750E+04  0.16589373750E+04  0.00000000000E+00 0. -1.
         25    2    1    2    0    0  0.55773967519E+02  0.12774936073E+03 -0.93912252769E+03  0.95760379903E+03  0.12499311692E+03 0.  0.
          2    1    1    2  501    0 -0.10032666698E+03 -0.45393739502E+02 -0.56701341525E+03  0.57760734480E+03  0.00000000000E+00 0. -1.
          1    1    1    2  502    0  0.44552699459E+02 -0.82355621224E+02 -0.12241118370E+03  0.15411647956E+03  0.00000000000E+00 0. -1.
         22    1    3    3    0    0 -0.77316298280E+01  0.15940185957E+02 -0.49304297463E+03  0.49336116838E+03  0.00000000000E+00 0.  1.
         22    1    3    3    0    0  0.63505597347E+02  0.11180917477E+03 -0.44607955306E+03  0.46424263065E+03  0.00000000000E+00 0.  1.
</event>
<event>
 7    1  0.9036454E-005  0.9225361E+02  0.7818608E-02  0.1339014E+00
          2   -1    0    0  502    0  0.00000000000E+00  0.00000000000E+00  0.19735125166E+03  0.19735125166E+03  0.00000000000E+00 0. -1.
          1   -1    0    0  501    0 -0.00000000000E+00 -0.00000000000E+00 -0.16360209126E+03  0.16360209126E+03  0.00000000000E+00 0. -1.
         25    2    1    2    0    0  0.82905793065E+02  0.51727963271E+02 -0.55650429700E+02  0.16813990341E+03  0.12499961634E+03 0.  0.
          2    1    1    2  501    0 -0.50557721076E+02  0.38565132714E+02  0.70711376222E+02  0.95097062778E+02  0.00000000000E+00 0. -1.
          1    1    1    2  502    0 -0.32348071989E+02 -0.90293095985E+02  0.18688213873E+02  0.97716376732E+02  0.00000000000E+00 0. -1.
         22    1    3    3    0    0  0.34340548937E+02  0.29933776944E+02  0.38722735652E+02  0.59789251206E+02  0.00000000000E+00 0. -1.
         22    1    3    3    0    0  0.48565244128E+02  0.21794186327E+02 -0.94373165352E+02  0.10835065221E+03  0.00000000000E+00 0. -1.
</event>
<event>
 7    1  0.9036454E-005  0.1984437E+03  0.7818608E-02  0.1180061E+00
          2   -1    0    0  502    0  0.00000000000E+00  0.00000000000E+00  0.84002599864E+03  0.84002599864E+03  0.00000000000E+00 0. -1.
          1   -1    0    0  501    0 -0.00000000000E+00 -0.00000000000E+00 -0.14672630971E+04  0.14672630971E+04  0.00000000000E+00 0. -1.
         25    2    1    2    0    0  0.64124788711E+02 -0.20367530843E+03  0.21559549217E+03  0.32817524285E+03  0.12498781535E+03 0.  0.
          2    1    1    2  501    0  0.10851592444E+03  0.91662389573E+02 -0.13885942021E+04  0.13958408067E+04  0.00000000000E+00 0. -1.
          1    1    1    2  502    0 -0.17264071315E+03  0.11201291886E+03  0.54576161149E+03  0.58327304618E+03  0.00000000000E+00 0. -1.
         22    1    3    3    0    0  0.27645197599E+02 -0.18042498085E+03  0.10771160502E+03  0.21194154977E+03  0.00000000000E+00 0.  1.
         22    1    3    3    0    0  0.36479591111E+02 -0.23250327581E+02  0.10788388715E+03  0.11623369308E+03  0.00000000000E+00 0.  1.
</event>
<event>
 7    1  0.1189269E-004  0.1400888E+03  0.7818608E-02  0.1221982E+00
          2   -1    0    0  502    0  0.00000000000E+00  0.00000000000E+00  0.86478550683E+03  0.86478550683E+03  0.00000000000E+00 0. -1.
          1   -1    0    0  501    0 -0.00000000000E+00 -0.00000000000E+00 -0.14705272061E+04  0.14705272061E+04  0.00000000000E+00 0. -1.
         25    2    1    2    0    0 -0.14193319394E+03 -0.10782768155E+03 -0.72486324205E+03  0.75685094103E+03  0.12499914726E+03 0.  0.
          2    1    1    2  501    0  0.12384520061E+03 -0.31202681350E+02 -0.71820827773E+03  0.72947540825E+03  0.00000000000E+00 0. -1.
          1    1    1    2  502    0  0.18087993330E+02  0.13903036289E+03  0.83732982052E+03  0.84898636363E+03  0.00000000000E+00 0. -1.
         22    1    3    3    0    0 -0.41120183127E+02 -0.10233600378E+03 -0.46889198729E+03  0.48168788948E+03  0.00000000000E+00 0.  1.
         22    1    3    3    0    0 -0.10081301081E+03 -0.54916777650E+01 -0.25597125476E+03  0.27516305155E+03  0.00000000000E+00 0.  1.
</event>
<event>
 7    1  0.9036454E-005  0.4901083E+03  0.7818608E-02  0.1049725E+00
          2   -1    0    0  502    0  0.00000000000E+00  0.00000000000E+00  0.18727054097E+04  0.18727054097E+04  0.00000000000E+00 0. -1.
          1   -1    0    0  501    0 -0.00000000000E+00 -0.00000000000E+00 -0.84079053054E+03  0.84079053054E+03  0.00000000000E+00 0. -1.
         25    2    1    2    0    0 -0.58746361015E+02  0.17345526283E+03  0.25216930552E+03  0.33578545538E+03  0.12499860104E+03 0.  0.
          2    1    1    2  501    0 -0.46868775052E+03 -0.14331079580E+03 -0.67262314926E+03  0.83224280868E+03  0.00000000000E+00 0. -1.
          1    1    1    2  502    0  0.52743411153E+03 -0.30144467030E+02  0.14523687229E+04  0.15454676762E+04  0.00000000000E+00 0. -1.
         22    1    3    3    0    0 -0.20584531095E+02  0.66856471089E+02  0.12974747743E+02  0.71146712685E+02  0.00000000000E+00 0. -1.
         22    1    3    3    0    0 -0.38161829920E+02  0.10659879174E+03  0.23919455778E+03  0.26463874269E+03  0.00000000000E+00 0. -1.
</event>
<event>
 7    1  0.9036454E-005  0.5100014E+03  0.7818608E-02  0.1278170E+00
          2   -1    0    0  502    0  0.00000000000E+00  0.00000000000E+00  0.44603965217E+03  0.44603965217E+03  0.00000000000E+00 0. -1.
          1   -1    0    0  501    0 -0.00000000000E+00 -0.00000000000E+00 -0.14259496230E+04  0.14259496230E+04  0.00000000000E+00 0. -1.
         25    2    1    2    0    0  0.26129700704E+03 -0.43255037475E+03 -0.83478204289E+03  0.98379924758E+03  0.12499579121E+03 0.  0.
          2    1    1    2  501    0 -0.28109944905E+03  0.43541798432E+03 -0.38616763928E+03  0.64632125677E+03  0.00000000000E+00 0. -1.
          1    1    1    2  502    0  0.19802442008E+02 -0.28676095683E+01  0.24103971130E+03  0.24186877086E+03  0.00000000000E+00 0. -1.
         22    1    3    3    0    0  0.24603768678E+03 -0.43530852133E+03 -0.82708540460E+03  0.96648761946E+03  0.00000000000E+00 0.  1.
         22    1    3    3    0    0  0.15259320258E+02  0.27581465818E+01 -0.76966382948E+01  0.17311628125E+02  0.00000000000E+00 0.  1.
</event>
<event>
 7    1  0.9036454E-005  0.2636450E+03  0.7818608E-02  0.1125574E+00
          2   -1    0    0  502    0  0.00000000000E+00  0.00000000000E+00  0.63664234757E+03  0.63664234757E+03  0.00000000000E+00 0. -1.
          1   -1    0    0  501    0 -0.00000000000E+00 -0.00000000000E+00 -0.39101325860E+03  0.39101325860E+03  0.00000000000E+00 0. -1.
         25    2    1    2    0    0  0.72572362032E+02 -0.24674687793E+03 -0.16123145598E+02  0.28641837209E+03  0.12499903419E+03 0.  0.
          2    1    1    2  501    0 -0.20327310112E+03 -0.38826058921E+01 -0.14227617529E+03  0.24814821845E+03  0.00000000000E+00 0. -1.
          1    1    1    2  502    0  0.13070073909E+03  0.25062948382E+03  0.40402840985E+03  0.49308901562E+03  0.00000000000E+00 0. -1.
         22    1    3    3    0    0  0.28132323753E+02 -0.13624661135E+03 -0.69952100674E+02  0.15571725381E+03  0.00000000000E+00 0. -1.
         22    1    3    3    0    0  0.44440038279E+02 -0.11050026658E+03  0.53828955076E+02  0.13070111829E+03  0.00000000000E+00 0. -1.
</event>
<event>
 7    1  0.9036454E-005  0.5989131E+03  0.7818608E-02  0.1169676E+00
          2   -1    0    0  502    0  0.00000000000E+00  0.00000000000E+00  0.28256820014E+04  0.28256820014E+04  0.00000000000E+00 0. -1.
          1   -1    0    0  501    0 -0.00000000000E+00 -0.00000000000E+00 -0.18612803373E+03  0.18612803373E+03  0.00000000000E+00 0. -1.
         25    2    1    2    0    0  0.31407457047E+02 -0.60025325390E+03  0.14568758635E+04  0.15809498670E+04  0.12499921271E+03 0.  0.
          2    1    1    2  501    0 -0.52869204260E+02  0.29031587206E+01 -0.42337026126E+02  0.67793840950E+02  0.00000000000E+00 0. -1.
          1    1    1    2  502    0  0.21461747212E+02  0.59735009518E+03  0.12250151304E+04  0.13630663272E+04  0.00000000000E+00 0. -1.
         22    1    3    3    0    0  0.80022124811E+02 -0.38746084373E+03  0.93259487138E+03  0.10130462181E+04  0.00000000000E+00 0.  1.
         22    1    3    3    0    0 -0.48614667763E+02 -0.21279241018E+03  0.52428099210E+03  0.56790364889E+03  0.00000000000E+00 0.  1.
</event>
<event>
 7    1  0.9036454E-005  0.9680873E+02  0.7818608E-02  0.1306698E+00
          2   -1    0    0  502    0  0.00000000000E+00  0.00000000000E+00  0.34180242356E+03  0.34180242356E+03  0.00000000000E+00 0. -1.
          1   -1    0    0  501    0 -0.00000000000E+00 -0.00000000000E+00 -0.35264416396E+03  0.35264416396E+03  0.00000000000E+00 0. -1.
         25    2    1    2    0    0 -0.15488087580E+03 -0.18642282015E+02  0.21825890911E+02  0.20108933000E+03  0.12499971502E+03 0.  0.
          2    1    1    2  501    0  0.75799464639E+02 -0.27917361802E+02 -0.24717752714E+03  0.26004166561E+03  0.00000000000E+00 0. -1.
          1    1    1    2  502    0  0.79081411165E+02  0.46559643817E+02  0.21450989582E+03  0.23331559191E+03  0.00000000000E+00 0. -1.
         22    1    3    3    0    0 -0.81317791983E+01 -0.46931114941E+02 -0.90496000817E+01  0.48482477702E+02  0.00000000000E+00 0. -1.
         22    1    3    3    0    0 -0.14674909661E+03  0.28288832926E+02  0.30875490992E+02  0.15260685229E+03  0.00000000000E+00 0. -1.
</event>
<event>
 7    1  0.9036454E-005  0.4499798E+03  0.7818608E-02  0.1049023E+00
          2   -1    0    0  502    0  0.00000000000E+00  0.00000000000E+00  0.27861268576E+04  0.27861268576E+04  0.00000000000E+00 0. -1.
          1   -1    0    0  501    0 -0.00000000000E+00 -0.00000000000E+00 -0.39356777693E+03  0.39356777693E+03  0.00000000000E+00 0. -1.
         25    2    1    2    0    0 -0.69156973981E+03 -0.33509913362E+02  0.13722320838E+04  0.15420908174E+04  0.12502630857E+03 0.  0.
          2    1    1    2  501    0  0.32732211304E+03 -0.40123351365E+02 -0.18373269995E+03  0.37750146230E+03  0.00000000000E+00 0. -1.
          1    1    1    2  502    0  0.36424762677E+03  0.73633264727E+02  0.12040596967E+04  0.12601023548E+04  0.00000000000E+00 0. -1.
         22    1    3    3    0    0 -0.43830008695E+02 -0.25251336407E+02  0.15751966890E+03  0.16544227314E+03  0.00000000000E+00 0.  1.
         22    1    3    3    0    0 -0.64773973112E+03 -0.82585769554E+01  0.12147124149E+04  0.13766485442E+04  0.00000000000E+00 0.  1.
</event>
<event>
 7    1  0.9036454E-005  0.7680114E+03  0.7818608E-02  0.9635495E-01
          2   -1    0    0  502    0  0.00000000000E+00  0.00000000000E+00  0.27185314094E+04  0.27185314094E+04  0.00000000000E+00 0. -1.
          1   -1    0    0  501    0 -0.00000000000E+00 -0.00000000000E+00 -0.15376072900E+04  0.15376072900E+04  0.00000000000E+00 0. -1.
         25    2    1    2    0    0 -0.62080468298E+03 -0.45655754993E+03 -0.38487732447E+03  0.87040104402E+03  0.12499668682E+03 0.  0.
          2    1    1    2  501    0  0.58105976184E+02  0.92509933743E+03 -0.59687068958E+03  0.11024698221E+04  0.00000000000E+00 0. -1.
          1    1    1    2  502    0  0.56269870680E+03 -0.46854178750E+03  0.21626721335E+04  0.22832678333E+04  0.00000000000E+00 0. -1.
         22    1    3    3    0    0 -0.56730420164E+03 -0.37440530750E+03 -0.31015508126E+03  0.74713423554E+03  0.00000000000E+00 0.  1.
         22    1    3    3    0    0 -0.53500481339E+02 -0.82152242439E+02 -0.74722243213E+02  0.12326680848E+03  0.00000000000E+00 0.  1.
</event>
<event>
 7    1  0.9036454E-005  0.8447174E+02  0.7818608E-02  0.1351646E+00
          2   -1    0    0  502    0  0.00000000000E+00  0.00000000000E+00  0.54867009277E+03  0.54867009277E+03  0.00000000000E+00 0. -1.
          1   -1    0    0  501    0 -0.00000000000E+00 -0.00000000000E+00 -0.42859947302E+02  0.42859947302E+02  0.00000000000E+00 0. -1.
         25    2    1    2    0    0  0.62160699600E+02  0.80554051843E+02  0.24298783718E+03  0.29158441481E+03  0.12500189639E+03 0.  0.
          2    1    1    2  501    0 -0.79315934654E+02 -0.20660301433E+02  0.14008712840E+03  0.16230301626E+03  0.00000000000E+00 0. -1.
          1    1    1    2  502    0  0.17155235054E+02 -0.59893750411E+02  0.12273517989E+03  0.13764260900E+03  0.00000000000E+00 0. -1.
         22    1    3    3    0    0  0.96588407131E+02  0.57025249145E+02  0.21124689609E+03  0.23917870002E+03  0.00000000000E+00 0.  1.
         22    1    3    3    0    0 -0.34427707531E+02  0.23528802698E+02  0.31740941081E+02  0.52405714793E+02  0.00000000000E+00 0.  1.
</event>
<event>
 7    1  0.9036454E-005  0.1044694E+03  0.7818608E-02  0.1325939E+00
          2   -1    0    0  502    0  0.00000000000E+00  0.00000000000E+00  0.25664628543E+04  0.25664628543E+04  0.00000000000E+00 0. -1.
          1   -1    0    0  501    0 -0.00000000000E+00 -0.00000000000E+00 -0.92695565341E+02  0.92695565341E+02  0.00000000000E+00 0. -1.
         25    2    1    2    0    0 -0.10557891784E+03 -0.93676501594E+02  0.20377828282E+03  0.27762215444E+03  0.12500510886E+03 0.  0.
          2    1    1    2  501    0  0.62963364973E+02 -0.84781031693E+00 -0.36456625604E+02  0.72761182381E+02  0.00000000000E+00 0. -1.
          1    1    1    2  502    0  0.42615552865E+02  0.94524311911E+02  0.23064456317E+04  0.23087750828E+04  0.00000000000E+00 0. -1.
         22    1    3    3    0    0 -0.10019927947E+03 -0.41780251496E+02  0.19710317963E+03  0.22502255096E+03  0.00000000000E+00 0. -1.
         22    1    3    3    0    0 -0.53796383680E+01 -0.51896250098E+02  0.66751031954E+01  0.52599603477E+02  0.00000000000E+00 0. -1.
</event>
<event>
 7    1  0.9036454E-005  0.1404225E+03  0.7818608E-02  0.1216209E+00
          2   -1    0    0  502    0  0.00000000000E+00  0.00000000000E+00  0.34807265628E+04  0.34807265628E+04  0.00000000000E+00 0. -1.
          1   -1    0    0  501    0 -0.00000000000E+00 -0.00000000000E+00 -0.24019724856E+03  0.24019724856E+03  0.00000000000E+00 0. -1.
         25    2    1    2    0    0  0.13171929970E+03 -0.14367502325E+02 -0.18991419327E+03  0.26315397927E+03  0.12500486777E+03 0.  0.
          2    1    1    2  501    0 -0.26230151327E+03  0.66008261319E+02  0.16728307735E+04  0.16945565707E+04  0.00000000000E+00 0. -1.
          1    1    1    2  502    0  0.13058221358E+03 -0.51640758994E+02  0.17576127340E+04  0.17632132614E+04  0.00000000000E+00 0. -1.
         22    1    3    3    0    0  0.43978645035E+02  0.12678744483E+02  0.66055922526E+01  0.46243979389E+02  0.00000000000E+00 0.  1.
         22    1    3    3    0    0  0.87740654662E+02 -0.27046246808E+02 -0.19651978552E+03  0.21690999988E+03  0.00000000000E+00 0.  1.
</event>
<event>
 7    1  0.9036454E-005  0.5527374E+03  0.7818608E-02  0.1166190E+00
          2   -1    0    0  502    0  0.00000000000E+00  0.00000000000E+00  0.18346666145E+04  0.18346666145E+04  0.00000000000E+00 0. -1.
          1   -1    0    0  501    0 -0.00000000000E+00 -0.00000000000E+00 -0.32210111047E+03  0.32210111047E+03  0.00000000000E+00 0. -1.
         25    2    1    2    0    0  0.15605355437E+03  0.54545131837E+03  0.13240531881E+04  0.14458949015E+04  0.12500147481E+03 0.  0.
          2    1    1    2  501    0 -0.43726742172E+02 -0.40667206615E+02 -0.10165469848E+03  0.11789625693E+03  0.00000000000E+00 0. -1.
          1    1    1    2  502    0 -0.11232681220E+03 -0.50478411175E+03  0.29016701440E+03  0.59297656654E+03  0.00000000000E+00 0. -1.
         22    1    3    3    0    0  0.91643735457E+01  0.26566757586E+02  0.16691178383E+03  0.16926110579E+03  0.00000000000E+00 0. -1.
         22    1    3    3    0    0  0.14688918083E+03  0.51888456078E+03  0.11571414043E+04  0.12766337957E+04  0.00000000000E+00 0. -1.
</event>
<event>
 7    1  0.9036454E-005  0.2020136E+03  0.7818608E-02  0.1176753E+00
          2   -1    0    0  502    0  0.00000000000E+00  0.00000000000E+00  0.16942012429E+04  0.16942012429E+04  0.00000000000E+00 0. -1.
          1   -1    0    0  501    0 -0.00000000000E+00 -0.00000000000E+00 -0.56930365235E+03  0.56930365235E+03  0.00000000000E+00 0. -1.
         25    2    1    2    0    0 -0.63302741994E+02  0.77906980003E+02  0.11798160520E+03  0.19908282731E+03  0.12505030303E+03 0.  0.
          2    1    1    2  501    0 -0.14459578602E+03  0.83818500364E+01 -0.51037315850E+03  0.53052705648E+03  0.00000000000E+00 0. -1.
          1    1    1    2  502    0  0.20789852801E+03 -0.86288830039E+02  0.15172891438E+04  0.15338950114E+04  0.00000000000E+00 0. -1.
         22    1    3    3    0    0 -0.56430934938E+02  0.35830740917E+02  0.13697066327E+03  0.15241146614E+03  0.00000000000E+00 0. -1.
         22    1    3    3    0    0 -0.68718070562E+01  0.42076239086E+02 -0.18989058072E+02  0.46671361179E+02  0.00000000000E+00 0. -1.
</event>
<event>
 7    1  0.9036454E-005  0.4935013E+02  0.7818608E-02  0.1536940E+00
          2   -1    0    0  502    0  0.00000000000E+00  0.00000000000E+00  0.40530206498E+03  0.40530206498E+03  0.00000000000E+00 0. -1.
          1   -1    0    0  501    0 -0.00000000000E+00 -0.00000000000E+00 -0.33108311263E+03  0.33108311263E+03  0.00000000000E+00 0. -1.
         25    2    1    2    0    0 -0.23823098417E+02  0.62873224651E+02 -0.53840405708E+02  0.15180301174E+03  0.12499913076E+03 0.  0.
          2    1    1    2  501    0  0.22964656542E+02 -0.13761838811E+02 -0.22577397279E+03  0.22735577944E+03  0.00000000000E+00 0. -1.
          1    1    1    2  502    0  0.85844187468E+00 -0.49111385840E+02  0.35383333085E+03  0.35722638643E+03  0.00000000000E+00 0. -1.
         22    1    3    3    0    0  0.25888597833E+02 -0.28125946792E+02 -0.13518545723E+02  0.40546756457E+02  0.00000000000E+00 0.  1.
         22    1    3    3    0    0 -0.49711696250E+02  0.90999171443E+02 -0.40321859985E+02  0.11125625528E+03  0.00000000000E+00 0.  1.
</event>
<event>
 7    1  0.9036454E-005  0.3486582E+03  0.7818608E-02  0.1165185E+00
          2   -1    0    0  502    0  0.00000000000E+00  0.00000000000E+00  0.74080451660E+03  0.74080451660E+03  0.00000000000E+00 0. -1.
          1   -1    0    0  501    0 -0.00000000000E+00 -0.00000000000E+00 -0.47366232097E+03  0.47366232097E+03  0.00000000000E+00 0. -1.
         25    2    1    2    0    0  0.18377251944E+03 -0.23627070117E+03 -0.20601460179E+02  0.32503233074E+03  0.12500165094E+03 0.  0.
          2    1    1    2  501    0  0.95760077115E+02 -0.13869549180E+01 -0.23328734151E+03  0.25218029210E+03  0.00000000000E+00 0. -1.
          1    1    1    2  502    0 -0.27953259655E+03  0.23765765608E+03  0.52103099732E+03  0.63725421474E+03  0.00000000000E+00 0. -1.
         22    1    3    3    0    0  0.70369292578E+02 -0.10054889135E+02 -0.97609743177E+01  0.71751060989E+02  0.00000000000E+00 0. -1.
         22    1    3    3    0    0  0.11340322686E+03 -0.22621581203E+03 -0.10840485861E+02  0.25328126976E+03  0.00000000000E+00 0. -1.
</event>
<event>
 7    1  0.9036454E-005  0.2319276E+03  0.7818608E-02  0.1236158E+00
          2   -1    0    0  502    0  0.00000000000E+00  0.00000000000E+00  0.28724264349E+04  0.28724264349E+04  0.00000000000E+00 0. -1.
          1   -1    0    0  501    0 -0.00000000000E+00 -0.00000000000E+00 -0.66081963198E+03  0.66081963198E+03  0.00000000000E+00 0. -1.
         25    2    1    2    0    0  0.95113333447E+02 -0.21423684359E+03  0.59855202597E+03  0.65485356497E+03  0.12499876965E+03 0.  0.
          2    1    1    2  501    0 -0.30419259149E+02  0.23015610848E+03 -0.61085564627E+03  0.65348434272E+03  0.00000000000E+00 0. -1.
          1    1    1    2  502    0 -0.64694074298E+02 -0.15919264892E+02  0.22239104233E+04  0.22249081592E+04  0.00000000000E+00 0. -1.
         22    1    3    3    0    0  0.61356870046E+02 -0.13260741091E+03  0.50699999348E+03  0.52763470728E+03  0.00000000000E+00 0. -1.
         22    1    3    3    0    0  0.33756463401E+02 -0.81629432678E+02  0.91552032482E+02  0.12721885769E+03  0.00000000000E+00 0. -1.
</event>
<event>
 7    1  0.9036454E-005  0.8902606E+03  0.7818608E-02  0.1001549E+00
          2   -1    0    0  502    0  0.00000000000E+00  0.00000000000E+00  0.19375944695E+04  0.19375944695E+04  0.00000000000E+00 0. -1.
          1   -1    0    0  501    0 -0.00000000000E+00 -0.00000000000E+00 -0.14563707517E+04  0.14563707517E+04  0.00000000000E+00 0. -1.
         25    2    1    2    0    0  0.41384977408E+03  0.97733354112E+03  0.59383163205E+03  0.12225848880E+04  0.12500125985E+03 0.  0.
          2    1    1    2  501    0 -0.55121979780E+03 -0.66687463070E+03 -0.93968955553E+03  0.12773337463E+04  0.00000000000E+00 0. -1.
          1    1    1    2  502    0  0.13737002372E+03 -0.31045891042E+03  0.82708164129E+03  0.89404658706E+03  0.00000000000E+00 0. -1.
         22    1    3    3    0    0  0.39616435506E+03  0.82491882230E+03  0.51512301206E+03  0.10501375992E+04  0.00000000000E+00 0. -1.
         22    1    3    3    0    0  0.17685419020E+02  0.15241471882E+03  0.78708619989E+02  0.17244728881E+03  0.00000000000E+00 0. -1.
</event>
<event>
 7    1  0.9036454E-005  0.5431120E+03  0.7818608E-02  0.1084791E+00
          2   -1    0    0  502    0  0.00000000000E+00  0.00000000000E+00  0.15597059226E+04  0.15597059226E+04  0.00000000000E+00 0. -1.
          1   -1    0    0  501    0 -0.00000000000E+00 -0.00000000000E+00 -0.26087280984E+04  0.26087280984E+04  0.00000000000E+00 0. -1.
         25    2    1    2    0    0  0.25782986478E+03 -0.45111518432E+03 -0.44400292875E+03  0.69479841195E+03  0.12500033527E+03 0.  0.
          2    1    1    2  501    0  0.14560509264E+03  0.81184941295E+02 -0.19834813389E+04  0.19904748327E+04  0.00000000000E+00 0. -1.
          1    1    1    2  502    0 -0.40343495742E+03  0.36993024302E+03  0.13784620919E+04  0.14831607763E+04  0.00000000000E+00 0. -1.
         22    1    3    3    0    0  0.52984259645E+02 -0.27714349999E+02 -0.24742700292E+02  0.64711808689E+02  0.00000000000E+00 0. -1.
         22    1    3    3    0    0  0.20484560513E+03 -0.42340083432E+03 -0.41926022846E+03  0.63008660327E+03  0.00000000000E+00 0. -1.
</event>
<event>
 7    1  0.9036454E-005  0.5685546E+02  0.7818608E-02  0.1455765E+00
          2   -1    0    0  502    0  0.00000000000E+00  0.00000000000E+00  0.19532858320E+04  0.19532858320E+04  0.00000000000E+00 0. -1.
          1   -1    0    0  501    0 -0.00000000000E+00 -0.00000000000E+00 -0.12613024805E+03  0.12613024805E+03  0.00000000000E+00 0. -1.
         25    2    1    2    0    0  0.72589795355E+02 -0.47173997807E+02  0.13208663808E+04  0.13295894635E+04  0.12500192455E+03 0.  0.
          2    1    1    2  501    0 -0.24197321165E+02  0.32754754637E+02 -0.11731463566E+03  0.12418175407E+03  0.00000000000E+00 0. -1.
          1    1    1    2  502    0 -0.48392474191E+02  0.14419243170E+02  0.62360383883E+03  0.62564486247E+03  0.00000000000E+00 0. -1.
         22    1    3    3    0    0  0.10366379562E+03 -0.16644880039E+02  0.79138478715E+03  0.79831893118E+03  0.00000000000E+00 0. -1.
         22    1    3    3    0    0 -0.31074000266E+02 -0.30529117769E+02  0.52948159363E+03  0.53127053232E+03  0.00000000000E+00 0. -1.
</event>
<event>
 7    1  0.9036454E-005  0.2152430E+03  0.7818608E-02  0.1281887E+00
          2   -1    0    0  502    0  0.00000000000E+00  0.00000000000E+00  0.77213547807E+02  0.77213547807E+02  0.00000000000E+00 0. -1.
          1   -1    0    0  501    0 -0.00000000000E+00 -0.00000000000E+00 -0.25203810038E+04  0.25203810038E+04  0.00000000000E+00 0. -1.
         25    2    1    2    0    0 -0.30537304448E+02 -0.15656335588E+02 -0.20501730069E+02  0.13123654259E+03  0.12500024547E+03 0.  0.
          2    1    1    2  501    0 -0.10669439111E+03 -0.18693810442E+03 -0.12555690031E+04  0.12738850300E+04  0.00000000000E+00 0. -1.
          1    1    1    2  502    0  0.13723169556E+03  0.20259444001E+03 -0.11670967228E+04  0.11924729791E+04  0.00000000000E+00 0. -1.
         22    1    3    3    0    0  0.17645128170E+01 -0.66098666369E+02  0.46195082646E+01  0.66283384478E+02  0.00000000000E+00 0.  1.
         22    1    3    3    0    0 -0.32301817265E+02  0.50442330781E+02 -0.25121238333E+02  0.64953158111E+02  0.00000000000E+00 0.  1.
</event>
<event>
 7    1  0.9036454E-005  0.6162603E+03  0.7818608E-02  0.1152248E+00
          2   -1    0    0  502    0  0.00000000000E+00  0.00000000000E+00  0.12093698329E+04  0.12093698329E+04  0.00000000000E+00 0. -1.
          1   -1    0    0  501    0 -0.00000000000E+00 -0.00000000000E+00 -0.95890120266E+03  0.95890120266E+03  0.00000000000E+00 0. -1.
         25    2    1    2    0    0  0.16134038563E+03  0.59283394719E+03 -0.49858044993E+03  0.80105555894E+03  0.12499893789E+03 0.  0.
          2    1    1    2  501    0 -0.22320404338E+03 -0.58086940906E+03  0.68182238348E+01  0.62231487492E+03  0.00000000000E+00 0. -1.
          1    1    1    2  502    0  0.61863657748E+02 -0.11964538132E+02  0.74223085632E+03  0.74490060169E+03  0.00000000000E+00 0. -1.
         22    1    3    3    0    0 -0.54017394485E+01 -0.41632073825E+01 -0.83466333953E+01  0.10778560842E+02  0.00000000000E+00 0.  1.
         22    1    3    3    0    0  0.16674212508E+03  0.59699715458E+03 -0.49023381654E+03  0.79027699810E+03  0.00000000000E+00 0.  1.
</event>
<event>
 7    1  0.9036454E-005  0.2558097E+03  0.7818608E-02  0.1230092E+00
          2   -1    0    0  502    0  0.00000000000E+00  0.00000000000E+00  0.27474481099E+03  0.27474481099E+03  0.00000000000E+00 0. -1.
          1   -1    0    0  501    0 -0.00000000000E+00 -0.00000000000E+00 -0.62911435879E+03  0.62911435879E+03  0.00000000000E+00 0. -1.
         25    2    1    2    0    0  0.67127122062E+02 -0.25237639594E+03  0.14094414556E+03  0.32201114009E+03  0.12500410566E+03 0.  0.
          2    1    1    2  501    0  0.47472926887E+02  0.43349695845E+02 -0.13900232487E+03  0.15314868996E+03  0.00000000000E+00 0. -1.
          1    1    1    2  502    0 -0.11460004895E+03  0.20902670009E+03 -0.35631136848E+03  0.42869933972E+03  0.00000000000E+00 0. -1.
         22    1    3    3    0    0  0.57079735402E+01 -0.11624514320E+03  0.12661606663E+03  0.17198006456E+03  0.00000000000E+00 0.  1.
         22    1    3    3    0    0  0.61419148522E+02 -0.13613125274E+03  0.14328078932E+02  0.15003107553E+03  0.00000000000E+00 0.  1.
</event>
<event>
 7    1  0.9036454E-005  0.2373577E+03  0.7818608E-02  0.1223248E+00
          2   -1    0    0  502    0  0.00000000000E+00  0.00000000000E+00  0.15880919396E+04  0.15880919396E+04  0.00000000000E+00 0. -1.
          1   -1    0    0  501    0 -0.00000000000E+00 -0.00000000000E+00 -0.26910090484E+03  0.26910090484E+03  0.00000000000E+00 0. -1.
         25    2    1    2    0    0  0.20152036753E+03  0.13374873612E+03 -0.14063544689E+03  0.30643395415E+03  0.12499702552E+03 0.  0.
          2    1    1    2  501    0 -0.14323783717E+03 -0.17997157718E+03  0.25334087897E+03  0.34218189249E+03  0.00000000000E+00 0. -1.
          1    1    1    2  502    0 -0.58282530360E+02  0.46222841057E+02  0.12062856027E+04  0.12085769978E+04  0.00000000000E+00 0. -1.
         22    1    3    3    0    0  0.22874833754E+01  0.99337415775E+01 -0.56217725720E+02  0.57134442213E+02  0.00000000000E+00 0. -1.
         22    1    3    3    0    0  0.19923288415E+03  0.12381499454E+03 -0.84417721174E+02  0.24929951193E+03  0.00000000000E+00 0. -1.
</event>
<event>
 7    1  0.9036454E-005  0.8071513E+03  0.7818608E-02  0.1113347E+00
          2   -1    0    0  502    0  0.00000000000E+00  0.00000000000E+00  0.21690946968E+04  0.21690946968E+04  0.00000000000E+00 0. -1.
          1   -1    0    0  501    0 -0.00000000000E+00 -0.00000000000E+00 -0.52711405277E+03  0.52711405277E+03  0.00000000000E+00 0. -1.
         25    2    1    2    0    0  0.82083823138E+03  0.26617283745E+03  0.41169668275E+03  0.96423173940E+03  0.12500122872E+03 0.  0.
          2    1    1    2  501    0 -0.75671917284E+02 -0.16222669594E+02 -0.13558260947E+03  0.15611552795E+03  0.00000000000E+00 0. -1.
          1    1    1    2  502    0 -0.74516631410E+03 -0.24995016786E+03  0.13658665708E+04  0.15758614823E+04  0.00000000000E+00 0. -1.
         22    1    3    3    0    0  0.52082776351E+03  0.20508806492E+03  0.21126483891E+03  0.59829382896E+03  0.00000000000E+00 0.  1.
         22    1    3    3    0    0  0.30001046787E+03  0.61084772531E+02  0.20043184385E+03  0.36593791043E+03  0.00000000000E+00 0.  1.
</event>
<event>
 7    1  0.9036454E-005  0.2355905E+03  0.7818608E-02  0.1269883E+00
          2   -1    0    0  502    0  0.00000000000E+00  0.00000000000E+00  0.73181953168E+03  0.73181953168E+03  0.00000000000E+00 0. -1.
          1   -1    0    0  501    0 -0.00000000000E+00 -0.00000000000E+00 -0.13862126963E+03  0.13862126963E+03  0.00000000000E+00 0. -1.
         25    2    1    2    0    0 -0.14093190727E+02 -0.22749158706E+03  0.47062112562E+03  0.53764312381E+03  0.12499937796E+03 0.  0.
          2    1    1    2  501    0  0.35535898251E+02 -0.30613959479E+02  0.37928811383E+02  0.60320886204E+02  0.00000000000E+00 0. -1.
          1    1    1    2  502    0 -0.21442707524E+02  0.25810554654E+03  0.84648325051E+02  0.27247679129E+03  0.00000000000E+00 0. -1.
         22    1    3    3    0    0 -0.25356693653E+02 -0.20259409140E+03  0.46749745792E+03  0.51013841352E+03  0.00000000000E+00 0. -1.
         22    1    3    3    0    0  0.11263502926E+02 -0.24897495661E+02  0.31236676986E+01  0.27504710291E+02  0.00000000000E+00 0. -1.
</event>
<event>
 7    1  0.9036454E-005  0.1878783E+03  0.7818608E-02  0.1233752E+00
          2   -1    0    0  502    0  0.00000000000E+00  0.00000000000E+00  0.80764390290E+03  0.80764390290E+03  0.00000000000E+00 0. -1.
          1   -1    0    0  501    0 -0.00000000000E+00 -0.00000000000E+00 -0.45700435750E+03  0.45700435750E+03  0.00000000000E+00 0. -1.
         25    2    1    2    0    0  0.17916462921E+03 -0.27747737117E+02  0.68987755775E+03  0.72417282814E+03  0.12500135619E+03 0.  0.
          2    1    1    2  501    0  0.79886029762E+02  0.26906936160E+02 -0.25421667985E+03  0.26782808157E+03  0.00000000000E+00 0. -1.
          1    1    1    2  502    0 -0.25905065898E+03  0.84080095674E+00 -0.85021332504E+02  0.27264735070E+03  0.00000000000E+00 0. -1.
         22    1    3    3    0    0  0.53860483115E+02 -0.43465340095E+02  0.10459204658E+03  0.12541803554E+03  0.00000000000E+00 0.  1.
         22    1    3    3    0    0  0.12530414610E+03  0.15717602978E+02  0.58528551117E+03  0.59875479260E+03  0.00000000000E+00 0.  1.
</event>
<event>
 7    1  0.9036454E-005  0.6054190E+02  0.7818608E-02  0.1444725E+00
          2   -1    0    0  502    0  0.00000000000E+00  0.00000000000E+00  0.30399055344E+02  0.30399055344E+02  0.00000000000E+00 0. -1.
          1   -1    0    0  501    0 -0.00000000000E+00 -0.00000000000E+00 -0.84951793234E+03  0.84951793234E+03  0.00000000000E+00 0. -1.
         25    2    1    2    0    0  0.22909509768E+02  0.12312139164E+02 -0.42589073325E+03  0.44461769875E+03  0.12500218783E+03 0.  0.
          2    1    1    2  501    0  0.41369863663E+02 -0.30632046525E+01 -0.35994151498E+03  0.36232408566E+03  0.00000000000E+00 0. -1.
          1    1    1    2  502    0 -0.64279373431E+02 -0.92489345118E+01 -0.33286628761E+02  0.72975203272E+02  0.00000000000E+00 0. -1.
         22    1    3    3    0    0  0.30887867264E+02  0.44502618517E+02 -0.76955759238E+02  0.94110213468E+02  0.00000000000E+00 0. -1.
         22    1    3    3    0    0 -0.79783574961E+01 -0.32190479352E+02 -0.34893497402E+03  0.35050748528E+03  0.00000000000E+00 0. -1.
</event>
<event>
 7    1  0.9036454E-005  0.9089420E+02  0.7818608E-02  0.1356298E+00
          2   -1    0    0  502    0  0.00000000000E+00  0.00000000000E+00  0.71476641959E+03  0.71476641959E+03  0.00000000000E+00 0. -1.
          1   -1    0    0  501    0 -0.00000000000E+00 -0.00000000000E+00 -0.84860177987E+02  0.84860177987E+02  0.00000000000E+00 0. -1.
         25    2    1    2    0    0 -0.32984590874E+02  0.11742513237E+03  0.14461295868E+03  0.22674685430E+03  0.12499833268E+03 0.  0.
          2    1    1    2  501    0 -0.24780275025E+02 -0.49840215114E+02 -0.20512162222E+02  0.59319961833E+02  0.00000000000E+00 0. -1.
          1    1    1    2  502    0  0.57764865899E+02 -0.67584917256E+02  0.50580544515E+03  0.51355978144E+03  0.00000000000E+00 0. -1.
         22    1    3    3    0    0  0.35649396398E+02  0.65001322379E+02  0.23065506636E+02  0.77640639944E+02  0.00000000000E+00 0.  1.
         22    1    3    3    0    0 -0.68633987272E+02  0.52423809991E+02  0.12154745204E+03  0.14910621436E+03  0.00000000000E+00 0.  1.
</event>
<event>
 7    1  0.9036454E-005  0.1147281E+03  0.7818608E-02  0.1277241E+00
          2   -1    0    0  502    0  0.00000000000E+00  0.00000000000E+00  0.11558145062E+04  0.11558145062E+04  0.00000000000E+00 0. -1.
          1   -1    0    0  501    0 -0.00000000000E+00 -0.00000000000E+00 -0.83756864179E+02  0.83756864179E+02  0.00000000000E+00 0. -1.
         25    2    1    2    0    0 -0.12299436545E+01 -0.46191949058E+02  0.77081757899E+03  0.78225282137E+03  0.12499811014E+03 0.  0.
          2    1    1    2  501    0 -0.75116866968E+02  0.93353714544E+02 -0.22023914344E+02  0.12182985072E+03  0.00000000000E+00 0. -1.
          1    1    1    2  502    0  0.76346810623E+02 -0.47161765486E+02  0.32326397736E+03  0.33548869828E+03  0.00000000000E+00 0. -1.
         22    1    3    3    0    0 -0.12466547087E+02  0.17919310424E+02  0.23380016582E+02  0.31986585590E+02  0.00000000000E+00 0. -1.
         22    1    3    3    0    0  0.11236603432E+02 -0.64111259482E+02  0.74743756241E+03  0.75026623578E+03  0.00000000000E+00 0. -1.
</event>
<event>
 7    1  0.9036454E-005  0.1509257E+03  0.7818608E-02  0.1294683E+00
          2   -1    0    0  502    0  0.00000000000E+00  0.00000000000E+00  0.35605238593E+03  0.35605238593E+03  0.00000000000E+00 0. -1.
          1   -1    0    0  501    0 -0.00000000000E+00 -0.00000000000E+00 -0.14176653292E+03  0.14176653292E+03  0.00000000000E+00 0. -1.
         25    2    1    2    0    0 -0.10581120567E+03 -0.12304774545E+02 -0.27688892678E+02  0.16653541183E+03  0.12497979794E+03 0.  0.
          2    1    1    2  501    0 -0.56239555912E+02 -0.13659014469E+02  0.36955980507E+02  0.68667319889E+02  0.00000000000E+00 0. -1.
          1    1    1    2  502    0  0.16205076158E+03  0.25963789015E+02  0.20501876518E+03  0.26261618713E+03  0.00000000000E+00 0. -1.
         22    1    3    3    0    0 -0.11977566017E+03 -0.28993025453E+02 -0.52133638666E+02  0.13380852205E+03  0.00000000000E+00 0. -1.
         22    1    3    3    0    0  0.13964454499E+02  0.16688250908E+02  0.24444745988E+02  0.32726889773E+02  0.00000000000E+00 0. -1.
</event>
<event>
 7    1  0.9036454E-005  0.4041871E+02  0.7818608E-02  0.1519933E+00
          2   -1    0    0  502    0  0.00000000000E+00  0.00000000000E+00  0.14127484580E+03  0.14127484580E+03  0.00000000000E+00 0. -1.
          1   -1    0    0  501    0 -0.00000000000E+00 -0.00000000000E+00 -0.13705788260E+04  0.13705788260E+04  0.00000000000E+00 0. -1.
         25    2    1    2    0    0  0.24519219346E+02 -0.61113146591E+02 -0.46378559706E+02  0.14870079535E+03  0.12499978774E+03 0.  0.
          2    1    1    2  501    0 -0.29380436860E+02  0.21789252680E+02 -0.12684071017E+04  0.12689344180E+04  0.00000000000E+00 0. -1.
          1    1    1    2  502    0  0.48612175144E+01  0.39323893911E+02  0.85481681251E+02  0.94218458370E+02  0.00000000000E+00 0. -1.
         22    1    3    3    0    0  0.26751003882E+02  0.26683201692E+02 -0.47718384478E+02  0.60865866283E+02  0.00000000000E+00 0.  1.
         22    1    3    3    0    0 -0.22317845363E+01 -0.87796348283E+02  0.13398247719E+01  0.87834929068E+02  0.00000000000E+00 0.  1.
</event>
<event>
 7    1  0.9036454E-005  0.8515126E+02  0.7818608E-02  0.1406121E+00
          2   -1    0    0  502    0  0.00000000000E+00  0.00000000000E+00  0.96770890828E+02  0.96770890828E+02  0.00000000000E+00 0. -1.
          1   -1    0    0  501    0 -0.00000000000E+00 -0.00000000000E+00 -0.13015782442E+04  0.13015782442E+04  0.00000000000E+00 0. -1.
         25    2    1    2    0    0  0.85393071573E+02 -0.41144381906E+02 -0.30080956581E+03  0.33923999056E+03  0.12495014796E+03 0.  0.
          2    1    1    2  501    0 -0.37332068783E+00  0.39597674148E+02 -0.95771242573E+03  0.95853075358E+03  0.00000000000E+00 0. -1.
          1    1    1    2  502    0 -0.85019750885E+02  0.15467077578E+01  0.53714638216E+02  0.10057839084E+03  0.00000000000E+00 0. -1.
         22    1    3    3    0    0  0.16989796619E+02 -0.16939229642E+02  0.53658259748E+01  0.24584197738E+02  0.00000000000E+00 0. -1.
         22    1    3    3    0    0  0.68403274954E+02 -0.24205152264E+02 -0.30617539179E+03  0.31465579282E+03  0.00000000000E+00 0. -1.
</event>
<event>
 7    1  0.9036454E-005  0.3395179E+03  0.7818608E-02  0.1086630E+00
          2   -1    0    0  502    0  0.00000000000E+00  0.00000000000E+00  0.86840054411E+03  0.86840054411E+03  0.00000000000E+00 0. -1.
          1   -1    0    0  501    0 -0.00000000000E+00 -0.00000000000E+00 -0.79432849934E+03  0.79432849934E+03  0.00000000000E+00 0. -1.
         25    2    1    2    0    0  0.16170301521E+03 -0.19591449741E+03 -0.38127152893E+03  0.47489296751E+03  0.12499998557E+03 0.  0.
          2    1    1    2  501    0 -0.39629063943E+03 -0.49525967025E+02 -0.20232620571E+03  0.44769966029E+03  0.00000000000E+00 0. -1.
          1    1    1    2  502    0  0.23458762422E+03  0.24544046443E+03  0.65766977941E+03  0.74013641565E+03  0.00000000000E+00 0. -1.
         22    1    3    3    0    0  0.27299367264E+00 -0.69572702839E+02 -0.51342948108E+02  0.86466952220E+02  0.00000000000E+00 0.  1.
         22    1    3    3    0    0  0.16143002154E+03 -0.12634179457E+03 -0.32992858082E+03  0.38842601529E+03  0.00000000000E+00 0.  1.
</event>
<event>
 7    1  0.9036454E-005  0.3390834E+03  0.7818608E-02  0.1174669E+00
          2   -1    0    0  502    0  0.00000000000E+00  0.00000000000E+00  0.27146552948E+04  0.27146552948E+04  0.00000000000E+00 0. -1.
          1   -1    0    0  501    0 -0.00000000000E+00 -0.00000000000E+00 -0.16779610647E+04  0.16779610647E+04  0.00000000000E+00 0. -1.
         25    2    1    2    0    0  0.26076048404E+03 -0.23508249565E+03 -0.12087354792E+04  0.12648820796E+04  0.12500162680E+03 0.  0.
          2    1    1    2  501    0 -0.17831603080E+03  0.26684266985E+03 -0.38194056075E+03  0.49887895249E+03  0.00000000000E+00 0. -1.
          1    1    1    2  502    0 -0.82444453243E+02 -0.31760174199E+02  0.26273702701E+04  0.26288553275E+04  0.00000000000E+00 0. -1.
         22    1    3    3    0    0 -0.24211844437E+01 -0.21018568897E+01 -0.13585174390E+03  0.13588957377E+03  0.00000000000E+00 0.  1.
         22    1    3    3    0    0  0.26318166848E+03 -0.23298063876E+03 -0.10728837353E+04  0.11289925058E+04  0.00000000000E+00 0.  1.
</event>
<event>
 7    1  0.9036454E-005  0.2479434E+03  0.7818608E-02  0.1147996E+00
          2   -1    0    0  502    0  0.00000000000E+00  0.00000000000E+00  0.13502273871E+04  0.13502273871E+04  0.00000000000E+00 0. -1.
          1   -1    0    0  501    0 -0.00000000000E+00 -0.00000000000E+00 -0.76039659695E+03  0.76039659695E+03  0.00000000000E+00 0. -1.
         25    2    1    2    0    0  0.37345760166E+02 -0.13873132407E+03 -0.57382259271E+03  0.60459728159E+03  0.12499767568E+03 0.  0.
          2    1    1    2  501    0  0.16438569218E+03 -0.10171057470E+02 -0.11637899020E+03  0.20166847935E+03  0.00000000000E+00 0. -1.
          1    1    1    2  502    0 -0.20173145235E+03  0.14890238154E+03  0.12800323731E+04  0.13043582232E+04  0.00000000000E+00 0. -1.
         22    1    3    3    0    0  0.73227419009E+02 -0.71954787742E+02 -0.22042032978E+03  0.24315605720E+03  0.00000000000E+00 0. -1.
         22    1    3    3    0    0 -0.35881658843E+02 -0.66776536331E+02 -0.35340226293E+03  0.36144122439E+03  0.00000000000E+00 0. -1.
</event>
<event>
 7    1  0.9036454E-005  0.1317714E+04  0.7818608E-02  0.1024476E+00
          2   -1    0    0  502    0  0.00000000000E+00  0.00000000000E+00  0.14385018463E+04  0.14385018463E+04  0.00000000000E+00 0. -1.
          1   -1    0    0  501    0 -0.00000000000E+00 -0.00000000000E+00 -0.29248003327E+04  0.29248003327E+04  0.00000000000E+00 0. -1.
         25    2    1    2    0    0  0.11624920784E+04  0.61466364840E+03 -0.15965176170E+04  0.20721227128E+04  0.12499921093E+03 0.  0.
          2    1    1    2  501    0 -0.12411961046E+04 -0.47384709587E+03 -0.67454713646E+03  0.14900042549E+04  0.00000000000E+00 0. -1.
          1    1    1    2  502    0  0.78704026255E+02 -0.14081655253E+03  0.78476626706E+03  0.80117521125E+03  0.00000000000E+00 0. -1.
         22    1    3    3    0    0  0.18983160373E+03  0.96576919704E+02 -0.33570482037E+03  0.39756869295E+03  0.00000000000E+00 0.  1.
         22    1    3    3    0    0  0.97266047466E+03  0.51808672869E+03 -0.12608127966E+04  0.16745540199E+04  0.00000000000E+00 0.  1.
</event>
<event>
 7    1  0.1309690E-004  0.1376741E+03  0.7818608E-02  0.1301620E+00
          2   -1    0    0  502    0  0.00000000000E+00  0.00000000000E+00  0.32349779399E+04  0.32349779399E+04  0.00000000000E+00 0. -1.
          1   -1    0    0  501    0 -0.00000000000E+00 -0.00000000000E+00 -0.11600972170E+04  0.11600972170E+04  0.00000000000E+00 0. -1.
         25    2    1    2    0    0 -0.68444521316E+02 -0.13958744925E+03 -0.76771737911E+02  0.21374976163E+03  0.12500300944E+03 0.  0.
          2    1    1    2  501    0  0.59460744714E+02  0.22708843373E+01 -0.10124674497E+04  0.10142145107E+04  0.00000000000E+00 0. -1.
          1    1    1    2  502    0  0.89837766022E+01  0.13731656491E+03  0.31641199105E+04  0.31671108846E+04  0.00000000000E+00 0. -1.
         22    1    3    3    0    0  0.14599013449E+02 -0.10776334815E+03 -0.27883971382E+02  0.11226569493E+03  0.00000000000E+00 0.  1.
         22    1    3    3    0    0 -0.83043534766E+02 -0.31824101097E+02 -0.48887766528E+02  0.10148406670E+03  0.00000000000E+00 0.  1.
</event>
<event>
 7    1  0.9036454E-005  0.2424894E+03  0.7818608E-02  0.1192925E+00
          2   -1    0    0  502    0  0.00000000000E+00  0.00000000000E+00  0.27754182091E+04  0.27754182091E+04  0.00000000000E+00 0. -1.
          1   -1    0    0  501    0 -0.00000000000E+00 -0.00000000000E+00 -0.20333084753E+03  0.20333084753E+03  0.00000000000E+00 0. -1.
         25    2    1    2    0    0 -0.67028669849E+02  0.13073977799E+03  0.22918387862E+04  0.22999426754E+04  0.12500222332E+03 0.  0.
          2    1    1    2  501    0  0.89105546696E+02 -0.22905151967E+03 -0.11469065354E+03  0.27121641382E+03  0.00000000000E+00 0. -1.
          1    1    1    2  502    0 -0.22076876847E+02  0.98311741677E+02  0.39493922895E+03  0.40758996750E+03  0.00000000000E+00 0. -1.
         22    1    3    3    0    0 -0.14036597637E+02  0.13801370386E+03  0.17374840857E+04  0.17430134126E+04  0.00000000000E+00 0. -1.
         22    1    3    3    0    0 -0.52992072212E+02 -0.72739258606E+01  0.55435470054E+03  0.55692926276E+03  0.00000000000E+00 0. -1.
</event>
<event>
 7    1  0.9036454E-005  0.7513314E+02  0.7818608E-02  0.1424784E+00
          2   -1    0    0  502    0  0.00000000000E+00  0.00000000000E+00  0.10219743954E+02  0.10219743954E+02  0.00000000000E+00 0. -1.
          1   -1    0    0  501    0 -0.00000000000E+00 -0.00000000000E+00 -0.17830174621E+04  0.17830174621E+04  0.00000000000E+00 0. -1.
         25    2    1    2    0    0  0.29937347884E+02 -0.40427815509E+02 -0.87362800377E+03  0.88395871230E+03  0.12500585190E+03 0.  0.
          2    1    1    2  501    0  0.30256871824E+02 -0.24355891152E+02 -0.43711862122E+03  0.43884094698E+03  0.00000000000E+00 0. -1.
          1    1    1    2  502    0 -0.60194219708E+02  0.64783706661E+02 -0.46205109319E+03  0.47043754682E+03  0.00000000000E+00 0. -1.
         22    1    3    3    0    0 -0.14048119725E+01 -0.79575048548E+02 -0.64524279804E+03  0.65013262514E+03  0.00000000000E+00 0. -1.
         22    1    3    3    0    0  0.31342159857E+02  0.39147233039E+02 -0.22838520573E+03  0.23382608716E+03  0.00000000000E+00 0. -1.
</event>
<event>
 7    1  0.9036454E-005  0.1257781E+03  0.7818608E-02  0.1238861E+00
          2   -1    0    0  502    0  0.00000000000E+00  0.00000000000E+00  0.11606981113E+04  0.11606981113E+04  0.00000000000E+00 0. -1.
          1   -1    0    0  501    0 -0.00000000000E+00 -0.00000000000E+00 -0.12091354786E+03  0.12091354786E+03  0.00000000000E+00 0. -1.
         25    2    1    2    0    0 -0.11791332249E+03 -0.11329824011E+03  0.69796721986E+02  0.21734048617E+03  0.12500104677E+03 0.  0.
          2    1    1    2  501    0  0.12099116174E+03 -0.61736035197E+01  0.41404300185E+02  0.12802847602E+03  0.00000000000E+00 0. -1.
          1    1    1    2  502    0 -0.30778392482E+01  0.11947184363E+03  0.92858354127E+03  0.93624269697E+03  0.00000000000E+00 0. -1.
         22    1    3    3    0    0 -0.12656320283E+03 -0.12308747280E+03  0.34744526687E+02  0.17993318873E+03  0.00000000000E+00 0.  1.
         22    1    3    3    0    0  0.86498803433E+01  0.97892326850E+01  0.35052195299E+02  0.37407297440E+02  0.00000000000E+00 0.  1.
</event>
<event>
 7    1  0.9036454E-005  0.1615840E+03  0.7818608E-02  0.1213283E+00
          2   -1    0    0  502    0  0.00000000000E+00  0.00000000000E+00  0.15726620732E+03  0.15726620732E+03  0.00000000000E+00 0. -1.
          1   -1    0    0  501    0 -0.00000000000E+00 -0.00000000000E+00 -0.15231198482E+04  0.15231198482E+04  0.00000000000E+00 0. -1.
         25    2    1    2    0    0  0.40974534880E+02 -0.26303936061E+03 -0.84946151260E+03  0.89893207979E+03  0.12500161985E+03 0.  0.
          2    1    1    2  501    0  0.20838966108E+02  0.11955595414E+03 -0.59451729374E+03  0.60677730777E+03  0.00000000000E+00 0. -1.
          1    1    1    2  502    0 -0.61813500987E+02  0.14348340647E+03  0.78125165480E+02  0.17467666793E+03  0.00000000000E+00 0. -1.
         22    1    3    3    0    0  0.27132656185E+02 -0.27173483593E+03 -0.82852379790E+03  0.87236900781E+03  0.00000000000E+00 0. -1.
         22    1    3    3    0    0  0.13841878695E+02  0.86954753237E+01 -0.20937714691E+02  0.26563071987E+02  0.00000000000E+00 0. -1.
</event>
<event>
 7    1  0.9036454E-005  0.1158597E+03  0.7818608E-02  0.1250634E+00
          2   -1    0    0  502    0  0.00000000000E+00  0.00000000000E+00  0.67242950988E+02  0.67242950988E+02  0.00000000000E+00 0. -1.
          1   -1    0    0  501    0 -0.00000000000E+00 -0.00000000000E+00 -0.12571796753E+04  0.12571796753E+04  0.00000000000E+00 0. -1.
         25    2    1    2    0    0  0.88492758704E+02 -0.45653762658E+02 -0.10990977060E+03  0.19395472414E+03  0.12499217157E+03 0.  0.
          2    1    1    2  501    0  0.85246564629E+02  0.78463372664E+02 -0.72117319200E+03  0.73042059835E+03  0.00000000000E+00 0. -1.
          1    1    1    2  502    0 -0.17373932333E+03 -0.32809610005E+02 -0.35885376166E+03  0.40004730375E+03  0.00000000000E+00 0. -1.
         22    1    3    3    0    0  0.73862822961E+02 -0.50274419765E+02 -0.66879046815E+01  0.89598894901E+02  0.00000000000E+00 0. -1.
         22    1    3    3    0    0  0.14629935743E+02  0.46206571064E+01 -0.10322186592E+03  0.10435582924E+03  0.00000000000E+00 0. -1.
</event>
<event>
 7    1  0.9036454E-005  0.1773853E+03  0.7818608E-02  0.1229476E+00
          2   -1    0    0  502    0  0.00000000000E+00  0.00000000000E+00  0.16911840948E+04  0.16911840948E+04  0.00000000000E+00 0. -1.
          1   -1    0    0  501    0 -0.00000000000E+00 -0.00000000000E+00 -0.90403340559E+02  0.90403340559E+02  0.00000000000E+00 0. -1.
         25    2    1    2    0    0 -0.24878013591E+03  0.78944699693E+02  0.92626851155E+03  0.97042325107E+03  0.12499643640E+03 0.  0.
          2    1    1    2  501    0  0.16107167962E+03 -0.47127672500E+02  0.43607114849E+02  0.17339747390E+03  0.00000000000E+00 0. -1.
          1    1    1    2  502    0  0.87708456288E+02 -0.31817027193E+02  0.63090512785E+03  0.63776671038E+03  0.00000000000E+00 0. -1.
         22    1    3    3    0    0 -0.11830312229E+03  0.54470744828E+02  0.66194290795E+03  0.67463405204E+03  0.00000000000E+00 0. -1.
         22    1    3    3    0    0 -0.13047701362E+03  0.24473954865E+02  0.26432560359E+03  0.29578919903E+03  0.00000000000E+00 0. -1.
</event>
<event>
 7    1  0.9036454E-005  0.2906245E+03  0.7818608E-02  0.1134685E+00
          2   -1    0    0  502    0  0.00000000000E+00  0.00000000000E+00  0.15385417945E+04  0.15385417945E+04  0.00000000000E+00 0. -1.
          1   -1    0    0  501    0 -0.00000000000E+00 -0.00000000000E+00 -0.47811021614E+03  0.47811021614E+03  0.00000000000E+00 0. -1.
         25    2    1    2    0    0  0.24422516319E+03 -0.11596176784E+03  0.87828616087E+03  0.92741813293E+03  0.12499900386E+03 0.  0.
          2    1    1    2  501    0  0.11136982417E+03  0.12163436762E+03 -0.38554926953E+03  0.41934043015E+03  0.00000000000E+00 0. -1.
          1    1    1    2  502    0 -0.35559498736E+03 -0.56725997882E+01  0.56769468704E+03  0.66989344759E+03  0.00000000000E+00 0. -1.
         22    1    3    3    0    0  0.12098366359E+03 -0.46640237789E+02  0.23133428580E+03  0.26519409952E+03  0.00000000000E+00 0. -1.
         22    1    3    3    0    0  0.12324149959E+03 -0.69321530048E+02  0.64695187508E+03  0.66222403340E+03  0.00000000000E+00 0. -1.
</event>
<event>
 7    1  0.9036454E-005  0.1148517E+03  0.7818608E-02  0.1278724E+00
          2   -1    0    0  502    0  0.00000000000E+00  0.00000000000E+00  0.51693018147E+03  0.51693018147E+03  0.00000000000E+00 0. -1.
          1   -1    0    0  501    0 -0.00000000000E+00 -0.00000000000E+00 -0.86005406921E+03  0.86005406921E+03  0.00000000000E+00 0. -1.
         25    2    1    2    0    0  0.13289320773E+02  0.11345743833E+03  0.48352894558E+03  0.51232257186E+03  0.12499992027E+03 0.  0.
          2    1    1    2  501    0 -0.81098444691E+02  0.35135320518E+02 -0.24250896712E+03  0.25811247086E+03  0.00000000000E+00 0. -1.
          1    1    1    2  502    0  0.67809123918E+02 -0.14859275884E+03 -0.58414386619E+03  0.60654920795E+03  0.00000000000E+00 0. -1.
         22    1    3    3    0    0 -0.38022419964E+02  0.97451107229E+02  0.22312123418E+03  0.24642546107E+03  0.00000000000E+00 0. -1.
         22    1    3    3    0    0  0.51311740736E+02  0.16006331097E+02  0.26040771140E+03  0.26589711079E+03  0.00000000000E+00 0. -1.
</event>
<event>
 7    1  0.9036454E-005  0.2687882E+03  0.7818608E-02  0.1123197E+00
          2   -1    0    0  502    0  0.00000000000E+00  0.00000000000E+00  0.15177166226E+04  0.15177166226E+04  0.00000000000E+00 0. -1.
          1   -1    0    0  501    0 -0.00000000000E+00 -0.00000000000E+00 -0.26604886887E+03  0.26604886887E+03  0.00000000000E+00 0. -1.
         25    2    1    2    0    0 -0.30127252868E+03  0.31576815210E+03  0.33006551232E+03  0.56128718093E+03  0.12500157854E+03 0.  0.
          2    1    1    2  501    0  0.14688837817E+03 -0.18030704234E+03 -0.42779877496E+02  0.23646763643E+03  0.00000000000E+00 0. -1.
          1    1    1    2  502    0  0.15438415050E+03 -0.13546110976E+03  0.96438211891E+03  0.98601067411E+03  0.00000000000E+00 0. -1.
         22    1    3    3    0    0 -0.12819183137E+03  0.52926496909E+02  0.88009734360E+02  0.16425612027E+03  0.00000000000E+00 0. -1.
         22    1    3    3    0    0 -0.17308069731E+03  0.26284165519E+03  0.24205577796E+03  0.39703106066E+03  0.00000000000E+00 0. -1.
</event>
<event>
 7    1  0.9036454E-005  0.3419949E+03  0.7818608E-02  0.1110786E+00
          2   -1    0    0  502    0  0.00000000000E+00  0.00000000000E+00  0.10448494039E+04  0.10448494039E+04  0.00000000000E+00 0. -1.
          1   -1    0    0  501    0 -0.00000000000E+00 -0.00000000000E+00 -0.36693047517E+04  0.36693047517E+04  0.00000000000E+00 0. -1.
         25    2    1    2    0    0  0.36678677348E+03  0.30136202846E+03 -0.16502477374E+03  0.51788978871E+03  0.12500019160E+03 0.  0.
          2    1    1    2  501    0 -0.18732767271E+03 -0.22601686437E+02 -0.32934066864E+04  0.32988073746E+04  0.00000000000E+00 0. -1.
          1    1    1    2  502    0 -0.17945910078E+03 -0.27876034203E+03  0.83397611228E+03  0.89745699228E+03  0.00000000000E+00 0. -1.
         22    1    3    3    0    0  0.31329714216E+02  0.64599260797E+02 -0.61278052587E+02  0.94390758113E+02  0.00000000000E+00 0.  1.
         22    1    3    3    0    0  0.33545705927E+03  0.23676276767E+03 -0.10374672115E+03  0.42349903060E+03  0.00000000000E+00 0.  1.
</event>
<event>
 7    1  0.9036454E-005  0.4733248E+03  0.7818608E-02  0.1030957E+00
          2   -1    0    0  502    0  0.00000000000E+00  0.00000000000E+00  0.16808738690E+04  0.16808738690E+04  0.00000000000E+00 0. -1.
          1   -1    0    0  501    0 -0.00000000000E+00 -0.00000000000E+00 -0.24075787843E+04  0.24075787843E+04  0.00000000000E+00 0. -1.
         25    2    1    2    0    0  0.20676090024E+03  0.25450066170E+03  0.32472842581E+03  0.47811614871E+03  0.12500337777E+03 0.  0.
          2    1    1    2  501    0 -0.71907624725E+02  0.40135684450E+03 -0.22234549660E+04  0.22605331250E+04  0.00000000000E+00 0. -1.
          1    1    1    2  502    0 -0.13485327552E+03 -0.65585750619E+03  0.11720216250E+04  0.13498033797E+04  0.00000000000E+00 0. -1.
         22    1    3    3    0    0  0.17048176424E+03  0.11363831113E+03  0.17629013229E+03  0.27028856512E+03  0.00000000000E+00 0.  1.
         22    1    3    3    0    0  0.36279136009E+02  0.14086235056E+03  0.14843829353E+03  0.20782758359E+03  0.00000000000E+00 0.  1.
</event>
<event>
 7    1  0.9036454E-005  0.1363318E+03  0.7818608E-02  0.1249558E+00
          2   -1    0    0  502    0  0.00000000000E+00  0.00000000000E+00  0.33227373885E+04  0.33227373885E+04  0.00000000000E+00 0. -1.
          1   -1    0    0  501    0 -0.00000000000E+00 -0.00000000000E+00 -0.57522263915E+02  0.57522263915E+02  0.00000000000E+00 0. -1.
         25    2    1    2    0    0  0.22565487256E+02 -0.13613748602E+03  0.38012141425E+03  0.42327275919E+03  0.12499969114E+03 0.  0.
          2    1    1    2  501    0  0.75663408940E+02  0.12393087195E+03  0.11526755756E+03  0.18539261663E+03  0.00000000000E+00 0. -1.
          1    1    1    2  502    0 -0.98228896196E+02  0.12206614075E+02  0.27698261528E+04  0.27715942766E+04  0.00000000000E+00 0. -1.
         22    1    3    3    0    0  0.50283989147E+02 -0.32837563338E+01  0.10874158940E+03  0.11984988897E+03  0.00000000000E+00 0. -1.
         22    1    3    3    0    0 -0.27718501891E+02 -0.13285372969E+03  0.27137982485E+03  0.30342287022E+03  0.00000000000E+00 0. -1.
</event>
<event>
 7    1  0.9036454E-005  0.8036046E+02  0.7818608E-02  0.1445607E+00
          2   -1    0    0  502    0  0.00000000000E+00  0.00000000000E+00  0.10440595864E+02  0.10440595864E+02  0.00000000000E+00 0. -1.
          1   -1    0    0  501    0 -0.00000000000E+00 -0.00000000000E+00 -0.32684616919E+04  0.32684616919E+04  0.00000000000E+00 0. -1.
         25    2    1    2    0    0  0.64134817339E+02 -0.81547174028E+02 -0.24815220808E+04  0.24868334251E+04  0.12500172119E+03 0.  0.
          2    1    1    2  501    0 -0.23282234566E+02  0.20541523805E+02 -0.34372774667E+02  0.46319588566E+02  0.00000000000E+00 0. -1.
          1    1    1    2  502    0 -0.40852582773E+02  0.61005650223E+02 -0.74212624059E+03  0.74574927412E+03  0.00000000000E+00 0. -1.
         22    1    3    3    0    0  0.25657607349E+02 -0.24922406447E+02 -0.20147560177E+04  0.20150735099E+04  0.00000000000E+00 0.  1.
         22    1    3    3    0    0  0.38477209990E+02 -0.56624767581E+02 -0.46676606305E+03  0.47175991522E+03  0.00000000000E+00 0.  1.
</event>
<event>
 7    1  0.9036454E-005  0.6714555E+03  0.7818608E-02  0.1048867E+00
          2   -1    0    0  502    0  0.00000000000E+00  0.00000000000E+00  0.12721229260E+04  0.12721229260E+04  0.00000000000E+00 0. -1.
          1   -1    0    0  501    0 -0.00000000000E+00 -0.00000000000E+00 -0.82109245331E+03  0.82109245331E+03  0.00000000000E+00 0. -1.
         25    2    1    2    0    0 -0.14656892933E+02 -0.59689250375E+03  0.98753466206E+01  0.61009752699E+03  0.12500393763E+03 0.  0.
          2    1    1    2  501    0  0.20156764066E+03 -0.91811873898E+02 -0.35218711268E+03  0.41604650737E+03  0.00000000000E+00 0. -1.
          1    1    1    2  502    0 -0.18691074773E+03  0.68870437765E+03  0.79334223875E+03  0.10670713449E+04  0.00000000000E+00 0. -1.
         22    1    3    3    0    0 -0.23355972687E+02 -0.26173241428E+03 -0.55350715152E+02  0.26853874918E+03  0.00000000000E+00 0.  1.
         22    1    3    3    0    0  0.86990797537E+01 -0.33516008948E+03  0.65226061772E+02  0.34155877781E+03  0.00000000000E+00 0.  1.
</event>
<event>
 7    1  0.9036454E-005  0.1196640E+03  0.7818608E-02  0.1362023E+00
          2   -1    0    0  502    0  0.00000000000E+00  0.00000000000E+00  0.79371070274E+02  0.79371070274E+02  0.00000000000E+00 0. -1.
          1   -1    0    0  501    0 -0.00000000000E+00 -0.00000000000E+00 -0.11513069866E+04  0.11513069866E+04  0.00000000000E+00 0. -1.
         25    2    1    2    0    0 -0.67653045354E+02 -0.11602000122E+03 -0.98235695229E+03  0.99934369442E+03  0.12500025057E+03 0.  0.
          2    1    1    2  501    0  0.42536562889E+02  0.84516556695E+02 -0.13864018164E+03  0.16784965744E+03  0.00000000000E+00 0. -1.
          1    1    1    2  502    0  0.25116482466E+02  0.31503444525E+02  0.49061217555E+02  0.63484705058E+02  0.00000000000E+00 0. -1.
         22    1    3    3    0    0 -0.93577907719E+02 -0.10774031818E+03 -0.92397365590E+03  0.93492893728E+03  0.00000000000E+00 0.  1.
         22    1    3    3    0    0  0.25924862364E+02 -0.82796830419E+01 -0.58383296388E+02  0.64414757137E+02  0.00000000000E+00 0.  1.
</event>
<event>
 7    1  0.9036454E-005  0.1178724E+03  0.7818608E-02  0.1308973E+00
          2   -1    0    0  502    0  0.00000000000E+00  0.00000000000E+00  0.13689923048E+04  0.13689923048E+04  0.00000000000E+00 0. -1.
          1   -1    0    0  501    0 -0.00000000000E+00 -0.00000000000E+00 -0.29577368395E+02  0.29577368395E+02  0.00000000000E+00 0. -1.
         25    2    1    2    0    0 -0.69271013747E+02  0.13903479836E+03  0.96197915650E+03  0.98242462628E+03  0.12500040115E+03 0.  0.
          2    1    1    2  501    0  0.11299670822E+02 -0.10967502961E+03  0.23370789661E+03  0.25840989845E+03  0.00000000000E+00 0. -1.
          1    1    1    2  502    0  0.57971342926E+02 -0.29359768747E+02  0.14372788325E+03  0.15773514841E+03  0.00000000000E+00 0. -1.
         22    1    3    3    0    0 -0.86699719582E+02  0.13403682592E+03  0.94206006088E+03  0.95548933557E+03  0.00000000000E+00 0.  1.
         22    1    3    3    0    0  0.17428705835E+02  0.49979724337E+01  0.19919095616E+02  0.26935290711E+02  0.00000000000E+00 0.  1.
</event>
<event>
 7    1  0.9036454E-005  0.7096138E+02  0.7818608E-02  0.1444645E+00
          2   -1    0    0  502    0  0.00000000000E+00  0.00000000000E+00  0.18155377435E+04  0.18155377435E+04  0.00000000000E+00 0. -1.
          1   -1    0    0  501    0 -0.00000000000E+00 -0.00000000000E+00 -0.12317796644E+03  0.12317796644E+03  0.00000000000E+00 0. -1.
         25    2    1    2    0    0  0.79332959107E+02  0.62288666705E+02  0.94615216694E+03  0.95968906989E+03  0.12500236586E+03 0.  0.
          2    1    1    2  501    0 -0.63728625685E+02 -0.30499036029E+02 -0.10528771551E+03  0.12679523638E+03  0.00000000000E+00 0. -1.
          1    1    1    2  502    0 -0.15604333423E+02 -0.31789630676E+02  0.85149532565E+03  0.85223140370E+03  0.00000000000E+00 0. -1.
         22    1    3    3    0    0 -0.18976905482E+02  0.56693361660E+02  0.44048147414E+03  0.44452017869E+03  0.00000000000E+00 0.  1.
         22    1    3    3    0    0  0.98309864589E+02  0.55953050450E+01  0.50567069280E+03  0.51516889121E+03  0.00000000000E+00 0.  1.
</event>
<event>
 7    1  0.9036454E-005  0.9855840E+02  0.7818608E-02  0.1317229E+00
          2   -1    0    0  502    0  0.00000000000E+00  0.00000000000E+00  0.31647555344E+04  0.31647555344E+04  0.00000000000E+00 0. -1.
          1   -1    0    0  501    0 -0.00000000000E+00 -0.00000000000E+00 -0.10925391319E+04  0.10925391319E+04  0.00000000000E+00 0. -1.
         25    2    1    2    0    0  0.24179909453E+02  0.24983487399E+02  0.52094387835E+03  0.53685760443E+03  0.12499888151E+03 0.  0.
          2    1    1    2  501    0 -0.96268617036E+02 -0.22459405297E+02 -0.10818348261E+04  0.10863418718E+04  0.00000000000E+00 0. -1.
          1    1    1    2  502    0  0.72088707583E+02 -0.25240821025E+01  0.26331073502E+04  0.26340951901E+04  0.00000000000E+00 0. -1.
         22    1    3    3    0    0  0.71840625747E+02 -0.95805560350E+00  0.35728652572E+03  0.36443882181E+03  0.00000000000E+00 0.  1.
         22    1    3    3    0    0 -0.47660716294E+02  0.25941543003E+02  0.16365735262E+03  0.17241878262E+03  0.00000000000E+00 0.  1.
</event>
<event>
 7    1  0.9036454E-005  0.3003845E+03  0.7818608E-02  0.1099549E+00
          2   -1    0    0  502    0  0.00000000000E+00  0.00000000000E+00  0.15939647389E+04  0.15939647389E+04  0.00000000000E+00 0. -1.
          1   -1    0    0  501    0 -0.00000000000E+00 -0.00000000000E+00 -0.33169748136E+03  0.33169748136E+03  0.00000000000E+00 0. -1.
         25    2    1    2    0    0 -0.19163011388E+03 -0.16316200985E+03  0.99323729640E+03  0.10322253509E+04  0.12499962453E+03 0.  0.
          2    1    1    2  501    0  0.23445637334E+03 -0.18777930245E+03 -0.15771101515E+03  0.33926924666E+03  0.00000000000E+00 0. -1.
          1    1    1    2  502    0 -0.42826259460E+02  0.35094131230E+03  0.42674097629E+03  0.55416762267E+03  0.00000000000E+00 0. -1.
         22    1    3    3    0    0 -0.88169470595E+02 -0.18161104605E+02  0.20144597057E+03  0.22064487377E+03  0.00000000000E+00 0. -1.
         22    1    3    3    0    0 -0.10346064328E+03 -0.14500090524E+03  0.79179132584E+03  0.81158047716E+03  0.00000000000E+00 0. -1.
</event>
<event>
 7    1  0.9036454E-005  0.2616846E+03  0.7818608E-02  0.1118805E+00
          2   -1    0    0  502    0  0.00000000000E+00  0.00000000000E+00  0.56647751445E+03  0.56647751445E+03  0.00000000000E+00 0. -1.
          1   -1    0    0  501    0 -0.00000000000E+00 -0.00000000000E+00 -0.93276095134E+03  0.93276095134E+03  0.00000000000E+00 0. -1.
         25    2    1    2    0    0 -0.30993101018E+03 -0.24946236335E+03 -0.70590081859E+02  0.42295527654E+03  0.12497801606E+03 0.  0.
          2    1    1    2  501    0  0.66391379249E+02  0.21273088471E+03 -0.62587177004E+03  0.66436263974E+03  0.00000000000E+00 0. -1.
          1    1    1    2  502    0  0.24353963093E+03  0.36731478642E+02  0.33017841501E+03  0.41192054950E+03  0.00000000000E+00 0. -1.
         22    1    3    3    0    0 -0.29653358146E+03 -0.26162774291E+03 -0.55368180152E+02  0.39930799662E+03  0.00000000000E+00 0.  1.
         22    1    3    3    0    0 -0.13397428718E+02  0.12165379558E+02 -0.15221901707E+02  0.23647279920E+02  0.00000000000E+00 0.  1.
</event>
<event>
 7    1  0.9036454E-005  0.9006231E+02  0.7818608E-02  0.1332683E+00
          2   -1    0    0  502    0  0.00000000000E+00  0.00000000000E+00  0.12893144477E+04  0.12893144477E+04  0.00000000000E+00 0. -1.
          1   -1    0    0  501    0 -0.00000000000E+00 -0.00000000000E+00 -0.51651814594E+02  0.51651814594E+02  0.00000000000E+00 0. -1.
         25    2    1    2    0    0 -0.12392231253E+03 -0.79021941468E+02  0.51238392386E+03  0.54750639166E+03  0.12499902681E+03 0.  0.
          2    1    1    2  501    0  0.80641293360E+02  0.25501686482E+02  0.22772329515E+02  0.87589572437E+02  0.00000000000E+00 0. -1.
          1    1    1    2  502    0  0.43281019166E+02  0.53520254986E+02  0.70250637971E+03  0.70587029817E+03  0.00000000000E+00 0. -1.
         22    1    3    3    0    0 -0.10081858352E+03 -0.56497483406E+02  0.49961110897E+03  0.51280367844E+03  0.00000000000E+00 0.  1.
         22    1    3    3    0    0 -0.23103729006E+02 -0.22524458062E+02  0.12772814896E+02  0.34702713227E+02  0.00000000000E+00 0.  1.
</event>
<event>
 7    1  0.9036454E-005  0.5567723E+03  0.7818608E-02  0.1245943E+00
          2   -1    0    0  502    0  0.00000000000E+00  0.00000000000E+00  0.60929616156E+03  0.60929616156E+03  0.00000000000E+00 0. -1.
          1   -1    0    0  501    0 -0.00000000000E+00 -0.00000000000E+00 -0.16954199195E+04  0.16954199195E+04  0.00000000000E+00 0. -1.
         25    2    1    2    0    0 -0.40464324704E+03 -0.35763230308E+03 -0.11187080521E+04  0.12485072615E+04  0.12500261771E+03 0.  0.
          2    1    1    2  501    0 -0.26509116037E+01 -0.24991863396E+02 -0.36785948787E+03  0.36871699633E+03  0.00000000000E+00 0. -1.
          1    1    1    2  502    0  0.40729415865E+03  0.38262416648E+03  0.40044378208E+03  0.68749182325E+03  0.00000000000E+00 0. -1.
         22    1    3    3    0    0 -0.19352629842E+03 -0.15880138165E+03 -0.65922050594E+03  0.70515387146E+03  0.00000000000E+00 0.  1.
         22    1    3    3    0    0 -0.21111694863E+03 -0.19883092143E+03 -0.45948754621E+03  0.54335339001E+03  0.00000000000E+00 0.  1.
</event>
<event>
 7    1  0.9036454E-005  0.4413162E+03  0.7818608E-02  0.1121813E+00
          2   -1    0    0  502    0  0.00000000000E+00  0.00000000000E+00  0.32215608063E+04  0.32215608063E+04  0.00000000000E+00 0. -1.
          1   -1    0    0  501    0 -0.00000000000E+00 -0.00000000000E+00 -0.10927532438E+04  0.10927532438E+04  0.00000000000E+00 0. -1.
         25    2    1    2    0    0 -0.27474358733E+03  0.41816090178E+03 -0.57187872356E+03  0.77007324298E+03  0.12499978613E+03 0.  0.
          2    1    1    2  501    0  0.16557846043E+03 -0.35273895523E+03 -0.33015526252E+03  0.51072839598E+03  0.00000000000E+00 0. -1.
          1    1    1    2  502    0  0.10916512690E+03 -0.65421946546E+02  0.30308415486E+04  0.30335124112E+04  0.00000000000E+00 0. -1.
         22    1    3    3    0    0 -0.18370230256E+03  0.32180239802E+03 -0.33958158995E+03  0.50261215223E+03  0.00000000000E+00 0. -1.
         22    1    3    3    0    0 -0.91041284777E+02  0.96358503753E+02 -0.23229713361E+03  0.26746109074E+03  0.00000000000E+00 0. -1.
</event>
<event>
 7    1  0.9036454E-005  0.2766848E+03  0.7818608E-02  0.1113653E+00
          2   -1    0    0  502    0  0.00000000000E+00  0.00000000000E+00  0.17106569113E+04  0.17106569113E+04  0.00000000000E+00 0. -1.
          1   -1    0    0  501    0 -0.00000000000E+00 -0.00000000000E+00 -0.11141860002E+04  0.11141860002E+04  0.00000000000E+00 0. -1.
         25    2    1    2    0    0  0.22637261242E+03  0.31109756029E+03 -0.57038474592E+02  0.40854044457E+03  0.12500262236E+03 0.  0.
          2    1    1    2  501    0 -0.22187863115E+03 -0.36712927539E+02 -0.85446299827E+03  0.88356379590E+03  0.00000000000E+00 0. -1.
          1    1    1    2  502    0 -0.44939812670E+01 -0.27438463275E+03  0.15079723841E+04  0.15327386710E+04  0.00000000000E+00 0. -1.
         22    1    3    3    0    0  0.70178020176E+01  0.85249352505E+02  0.11557008715E+02  0.86314923960E+02  0.00000000000E+00 0.  1.
         22    1    3    3    0    0  0.21935481040E+03  0.22584820779E+03 -0.68595483307E+02  0.32222552061E+03  0.00000000000E+00 0.  1.
</event>
<event>
 7    1  0.9036454E-005  0.5541873E+03  0.7818608E-02  0.1173841E+00
          2   -1    0    0  502    0  0.00000000000E+00  0.00000000000E+00  0.79125134295E+03  0.79125134295E+03  0.00000000000E+00 0. -1.
          1   -1    0    0  501    0 -0.00000000000E+00 -0.00000000000E+00 -0.21617356644E+04  0.21617356644E+04  0.00000000000E+00 0. -1.
         25    2    1    2    0    0 -0.37980539881E+03  0.37065369630E+03 -0.10761047876E+04  0.12063424705E+04  0.12499735515E+03 0.  0.
          2    1    1    2  501    0  0.42507396611E+03 -0.40112429673E+03 -0.93557731895E+03  0.11031289579E+04  0.00000000000E+00 0. -1.
          1    1    1    2  502    0 -0.45268567298E+02  0.30470600437E+02  0.64119778508E+03  0.64351557889E+03  0.00000000000E+00 0. -1.
         22    1    3    3    0    0 -0.27256063094E+03  0.32355694273E+03 -0.76953288113E+03  0.87815673309E+03  0.00000000000E+00 0.  1.
         22    1    3    3    0    0 -0.10724476787E+03  0.47096753571E+02 -0.30657190647E+03  0.32818573746E+03  0.00000000000E+00 0.  1.
</event>
<event>
 7    1  0.9036454E-005  0.5424771E+03  0.7818608E-02  0.1167290E+00
          2   -1    0    0  502    0  0.00000000000E+00  0.00000000000E+00  0.13158544066E+04  0.13158544066E+04  0.00000000000E+00 0. -1.
          1   -1    0    0  501    0 -0.00000000000E+00 -0.00000000000E+00 -0.36291404110E+03  0.36291404110E+03  0.00000000000E+00 0. -1.
         25    2    1    2    0    0  0.44688187516E+03 -0.31706116234E+03  0.51552682405E+03  0.76264263080E+03  0.12499873990E+03 0.  0.
          2    1    1    2  501    0 -0.40425054105E+03  0.35939413777E+03  0.71852290314E+02  0.54566051518E+03  0.00000000000E+00 0. -1.
          1    1    1    2  502    0 -0.42631334116E+02 -0.42332975427E+02  0.36556125113E+03  0.37046530173E+03  0.00000000000E+00 0. -1.
         22    1    3    3    0    0  0.26255676990E+03 -0.18870071051E+03  0.21845718458E+03  0.39021475762E+03  0.00000000000E+00 0.  1.
         22    1    3    3    0    0  0.18432510526E+03 -0.12836045183E+03  0.29706963947E+03  0.37242787317E+03  0.00000000000E+00 0.  1.
</event>
<event>
 7    1  0.9036454E-005  0.1100760E+03  0.7818608E-02  0.1363570E+00
          2   -1    0    0  502    0  0.00000000000E+00  0.00000000000E+00  0.18345910348E+04  0.18345910348E+04  0.00000000000E+00 0. -1.
          1   -1    0    0  501    0 -0.00000000000E+00 -0.00000000000E+00 -0.30769969876E+03  0.30769969876E+03  0.00000000000E+00 0. -1.
         25    2    1    2    0    0 -0.12233102968E+03  0.68845666464E+02 -0.10478638611E+03  0.21519794647E+03  0.12500145133E+03 0.  0.
          2    1    1    2  501    0  0.16385587964E+02 -0.40011219116E+02 -0.14280988774E+03  0.14921142445E+03  0.00000000000E+00 0. -1.
          1    1    1    2  502    0  0.10594544172E+03 -0.28834447347E+02  0.17744876099E+04  0.17778813627E+04  0.00000000000E+00 0. -1.
         22    1    3    3    0    0 -0.12018863065E+03  0.87819284644E+02 -0.49756924883E+02  0.15694994510E+03  0.00000000000E+00 0.  1.
         22    1    3    3    0    0 -0.21423990366E+01 -0.18973618180E+02 -0.55029461230E+02  0.58248001371E+02  0.00000000000E+00 0.  1.
</event>
<event>
 7    1  0.9036454E-005  0.2218831E+03  0.7818608E-02  0.1213315E+00
          2   -1    0    0  502    0  0.00000000000E+00  0.00000000000E+00  0.42069050968E+04  0.42069050968E+04  0.00000000000E+00 0. -1.
          1   -1    0    0  501    0 -0.00000000000E+00 -0.00000000000E+00 -0.64432750528E+02  0.64432750528E+02  0.00000000000E+00 0. -1.
         25    2    1    2    0    0 -0.11415724699E+03  0.20339335728E+03  0.22826148605E+03  0.34946948277E+03  0.12499951418E+03 0.  0.
          2    1    1    2  501    0  0.56348436850E+02 -0.13658391373E+03  0.19075210030E+04  0.19132346142E+04  0.00000000000E+00 0. -1.
          1    1    1    2  502    0  0.57808810142E+02 -0.66809443550E+02  0.20066898572E+04  0.20086337504E+04  0.00000000000E+00 0. -1.
         22    1    3    3    0    0 -0.93160668068E+02  0.45818352772E+02  0.70405378304E+02  0.12543982151E+03  0.00000000000E+00 0. -1.
         22    1    3    3    0    0 -0.20996578924E+02  0.15757500451E+03  0.15785610775E+03  0.22402966126E+03  0.00000000000E+00 0. -1.
</event>
<event>
 7    1  0.9036454E-005  0.1163618E+03  0.7818608E-02  0.1253848E+00
          2   -1    0    0  502    0  0.00000000000E+00  0.00000000000E+00  0.18880775859E+04  0.18880775859E+04  0.00000000000E+00 0. -1.
          1   -1    0    0  501    0 -0.00000000000E+00 -0.00000000000E+00 -0.55698465025E+03  0.55698465025E+03  0.00000000000E+00 0. -1.
         25    2    1    2    0    0 -0.60789005676E+02  0.16087612734E+03 -0.53053647846E+02  0.21912487141E+03  0.12499835264E+03 0.  0.
          2    1    1    2  501    0  0.99402058655E+02 -0.56679880738E+02 -0.41136880956E+03  0.42698673940E+03  0.00000000000E+00 0. -1.
          1    1    1    2  502    0 -0.38613052979E+02 -0.10419624660E+03  0.17955153931E+04  0.17989506254E+04  0.00000000000E+00 0. -1.
         22    1    3    3    0    0 -0.48607083039E+02  0.22215145765E+02 -0.59250256575E+02  0.79791942746E+02  0.00000000000E+00 0. -1.
         22    1    3    3    0    0 -0.12181922637E+02  0.13866098158E+03  0.61966087294E+01  0.13933292867E+03  0.00000000000E+00 0. -1.
</event>
<event>
 7    1  0.9036454E-005  0.4825769E+03  0.7818608E-02  0.1126818E+00
          2   -1    0    0  502    0  0.00000000000E+00  0.00000000000E+00  0.23843886140E+04  0.23843886140E+04  0.00000000000E+00 0. -1.
          1   -1    0    0  501    0 -0.00000000000E+00 -0.00000000000E+00 -0.16201620389E+04  0.16201620389E+04  0.00000000000E+00 0. -1.
         25    2    1    2    0    0 -0.46036221388E+03 -0.89682738929E+02  0.49440549093E+02  0.48789915688E+03  0.12499943106E+03 0.  0.
          2    1    1    2  501    0  0.48606493288E+03 -0.16632595044E+02 -0.13572363594E+04  0.14417441859E+04  0.00000000000E+00 0. -1.
          1    1    1    2  502    0 -0.25702719002E+02  0.10631533397E+03  0.20720223854E+04  0.20749073102E+04  0.00000000000E+00 0. -1.
         22    1    3    3    0    0 -0.17187381778E+03  0.27005325411E+02  0.10831260855E+02  0.17431928479E+03  0.00000000000E+00 0.  1.
         22    1    3    3    0    0 -0.28848839610E+03 -0.11668806434E+03  0.38609288239E+02  0.31357987209E+03  0.00000000000E+00 0.  1.
</event>
<event>
 7    1  0.9036454E-005  0.1023321E+03  0.7818608E-02  0.1331528E+00
          2   -1    0    0  502    0  0.00000000000E+00  0.00000000000E+00  0.51682190936E+03  0.51682190936E+03  0.00000000000E+00 0. -1.
          1   -1    0    0  501    0 -0.00000000000E+00 -0.00000000000E+00 -0.49284842870E+03  0.49284842870E+03  0.00000000000E+00 0. -1.
         25    2    1    2    0    0 -0.11113009980E+03  0.56373490428E+02  0.40239665733E+03  0.43940471705E+03  0.12500226411E+03 0.  0.
          2    1    1    2  501    0  0.60164326016E+02  0.11180968391E+02 -0.45321513193E+03  0.45732779928E+03  0.00000000000E+00 0. -1.
          1    1    1    2  502    0  0.50965773787E+02 -0.67554458819E+02  0.74791955267E+02  0.11293782173E+03  0.00000000000E+00 0. -1.
         22    1    3    3    0    0  0.10626389110E+02  0.51028402492E+02  0.88926559019E+02  0.10307643235E+03  0.00000000000E+00 0. -1.
         22    1    3    3    0    0 -0.12175648891E+03  0.53450879364E+01  0.31347009831E+03  0.33632828470E+03  0.00000000000E+00 0. -1.
</event>
<event>
 7    1  0.9036454E-005  0.2633497E+03  0.7818608E-02  0.1209482E+00
          2   -1    0    0  502    0  0.00000000000E+00  0.00000000000E+00  0.49800606956E+03  0.49800606956E+03  0.00000000000E+00 0. -1.
          1   -1    0    0  501    0 -0.00000000000E+00 -0.00000000000E+00 -0.13619393585E+04  0.13619393585E+04  0.00000000000E+00 0. -1.
         25    2    1    2    0    0  0.10399368536E+03  0.19404351028E+03  0.14756715607E+03  0.29303346715E+03  0.12499990737E+03 0.  0.
          2    1    1    2  501    0 -0.18152478523E+03 -0.19511137322E+03 -0.12696769724E+04  0.12973431735E+04  0.00000000000E+00 0. -1.
          1    1    1    2  502    0  0.77531099870E+02  0.10678629443E+01  0.25817652746E+03  0.26956878734E+03  0.00000000000E+00 0. -1.
         22    1    3    3    0    0  0.12266060240E+03  0.10424418675E+03  0.10253640577E+03  0.19085646010E+03  0.00000000000E+00 0.  1.
         22    1    3    3    0    0 -0.18666917040E+02  0.89799323524E+02  0.45030750301E+02  0.10217700705E+03  0.00000000000E+00 0.  1.
</event>
<event>
 7    1  0.9036454E-005  0.9454085E+02  0.7818608E-02  0.1368418E+00
          2   -1    0    0  502    0  0.00000000000E+00  0.00000000000E+00  0.23788920615E+04  0.23788920615E+04  0.00000000000E+00 0. -1.
          1   -1    0    0  501    0 -0.00000000000E+00 -0.00000000000E+00 -0.21573881233E+03  0.21573881233E+03  0.00000000000E+00 0. -1.
         25    2    1    2    0    0  0.46136379721E+02 -0.82586136082E+02  0.23438587487E+04  0.23490951468E+04  0.12500055757E+03 0.  0.
          2    1    1    2  501    0  0.40888010273E+02  0.25803649710E+02 -0.10912486138E+03  0.11935616069E+03  0.00000000000E+00 0. -1.
          1    1    1    2  502    0 -0.87024389994E+02  0.56782486372E+02 -0.71580638140E+02  0.12617956637E+03  0.00000000000E+00 0. -1.
         22    1    3    3    0    0  0.51006987284E+02 -0.35349389243E+02  0.41152515950E+03  0.41617814571E+03  0.00000000000E+00 0.  1.
         22    1    3    3    0    0 -0.48706075635E+01 -0.47236746839E+02  0.19323335892E+04  0.19329170010E+04  0.00000000000E+00 0.  1.
</event>
<event>
 7    1  0.9036454E-005  0.5756260E+02  0.7818608E-02  0.1469539E+00
          2   -1    0    0  502    0  0.00000000000E+00  0.00000000000E+00  0.22217963449E+04  0.22217963449E+04  0.00000000000E+00 0. -1.
          1   -1    0    0  501    0 -0.00000000000E+00 -0.00000000000E+00 -0.68455167399E+03  0.68455167399E+03  0.00000000000E+00 0. -1.
         25    2    1    2    0    0  0.33573891258E+01  0.60432879332E+02  0.87371916340E+02  0.16407998512E+03  0.12499993914E+03 0.  0.
          2    1    1    2  501    0  0.31060705766E+02 -0.48564667948E+02 -0.64475342779E+03  0.64732548001E+03  0.00000000000E+00 0. -1.
          1    1    1    2  502    0 -0.34418094892E+02 -0.11868211384E+02  0.20946261824E+04  0.20949425538E+04  0.00000000000E+00 0. -1.
         22    1    3    3    0    0  0.11077493691E+02 -0.85721236595E+01  0.93343124817E+02  0.94388193759E+02  0.00000000000E+00 0.  1.
         22    1    3    3    0    0 -0.77201045652E+01  0.69005002991E+02 -0.59712084771E+01  0.69691791360E+02  0.00000000000E+00 0.  1.
</event>
<event>
 7    1  0.9036454E-005  0.1286424E+03  0.7818608E-02  0.1297255E+00
          2   -1    0    0  502    0  0.00000000000E+00  0.00000000000E+00  0.44464363919E+03  0.44464363919E+03  0.00000000000E+00 0. -1.
          1   -1    0    0  501    0 -0.00000000000E+00 -0.00000000000E+00 -0.35280207713E+03  0.35280207713E+03  0.00000000000E+00 0. -1.
         25    2    1    2    0    0 -0.14122713608E+03  0.10318983113E+03 -0.71334815437E+02  0.22651042736E+03  0.12500029037E+03 0.  0.
          2    1    1    2  501    0  0.75937686981E+02 -0.91665399000E+02 -0.18308794606E+03  0.21838102864E+03  0.00000000000E+00 0. -1.
          1    1    1    2  502    0  0.65289449096E+02 -0.11524432133E+02  0.34626432356E+03  0.35255426032E+03  0.00000000000E+00 0. -1.
         22    1    3    3    0    0 -0.13149259226E+03  0.13000990809E+03 -0.52143109553E+02  0.19212439173E+03  0.00000000000E+00 0. -1.
         22    1    3    3    0    0 -0.97345438152E+01 -0.26820076961E+02 -0.19191705884E+02  0.34386035628E+02  0.00000000000E+00 0. -1.
</event>
<event>
 7    1  0.1336310E-004  0.1663300E+03  0.7818608E-02  0.1214292E+00
          2   -1    0    0  502    0  0.00000000000E+00  0.00000000000E+00  0.76075006101E+03  0.76075006101E+03  0.00000000000E+00 0. -1.
          1   -1    0    0  501    0 -0.00000000000E+00 -0.00000000000E+00 -0.17957010436E+04  0.17957010436E+04  0.00000000000E+00 0. -1.
         25    2    1    2    0    0 -0.23486678564E+03 -0.39890905639E+02 -0.51334574638E+03  0.57957150423E+03  0.12500232734E+03 0.  0.
          2    1    1    2  501    0  0.10128947980E+03 -0.57838842726E+02 -0.12370514521E+04  0.12425382028E+04  0.00000000000E+00 0. -1.
          1    1    1    2  502    0  0.13357730583E+03  0.97729748365E+02  0.71544621587E+03  0.73434139754E+03  0.00000000000E+00 0. -1.
         22    1    3    3    0    0 -0.16071646871E+03  0.24643885529E+02 -0.38484534088E+03  0.41778348556E+03  0.00000000000E+00 0. -1.
         22    1    3    3    0    0 -0.74150316933E+02 -0.64534791167E+02 -0.12850040550E+03  0.16178801867E+03  0.00000000000E+00 0. -1.
</event>
<event>
 7    1  0.9036454E-005  0.1898818E+03  0.7818608E-02  0.1181095E+00
          2   -1    0    0  502    0  0.00000000000E+00  0.00000000000E+00  0.14578401527E+04  0.14578401527E+04  0.00000000000E+00 0. -1.
          1   -1    0    0  501    0 -0.00000000000E+00 -0.00000000000E+00 -0.43573798985E+03  0.43573798985E+03  0.00000000000E+00 0. -1.
         25    2    1    2    0    0  0.23194410772E+03 -0.14083417449E+03  0.66048867081E+03  0.72491530715E+03  0.12499833782E+03 0.  0.
          2    1    1    2  501    0 -0.18845123759E+03  0.68795431060E+00 -0.37387191325E+03  0.41868191954E+03  0.00000000000E+00 0. -1.
          1    1    1    2  502    0 -0.43492870128E+02  0.14014622018E+03  0.73548540529E+03  0.74998091587E+03  0.00000000000E+00 0. -1.
         22    1    3    3    0    0  0.52953001093E+02  0.21313057607E+02  0.13589200526E+03  0.14739370354E+03  0.00000000000E+00 0.  1.
         22    1    3    3    0    0  0.17899110662E+03 -0.16214723210E+03  0.52459666555E+03  0.57752160361E+03  0.00000000000E+00 0.  1.
</event>
<event>
 7    1  0.9036454E-005  0.5170112E+03  0.7818608E-02  0.1122279E+00
          2   -1    0    0  502    0  0.00000000000E+00  0.00000000000E+00  0.21625482715E+04  0.21625482715E+04  0.00000000000E+00 0. -1.
          1   -1    0    0  501    0 -0.00000000000E+00 -0.00000000000E+00 -0.23688957793E+03  0.23688957793E+03  0.00000000000E+00 0. -1.
         25    2    1    2    0    0 -0.22424096061E+03 -0.46190064327E+03  0.35990636349E+03  0.63937055395E+03  0.12500360841E+03 0.  0.
          2    1    1    2  501    0 -0.95307401015E+02  0.50811541610E+02 -0.20913979631E+01  0.10802632732E+03  0.00000000000E+00 0. -1.
          1    1    1    2  502    0  0.31954836162E+03  0.41108910166E+03  0.15678437280E+04  0.16520409681E+04  0.00000000000E+00 0. -1.
         22    1    3    3    0    0 -0.14163641598E+03 -0.15212852217E+03  0.14129900013E+03  0.25133517268E+03  0.00000000000E+00 0.  1.
         22    1    3    3    0    0 -0.82604544630E+02 -0.30977212110E+03  0.21860736336E+03  0.38803538127E+03  0.00000000000E+00 0.  1.
</event>
<event>
 7    1  0.9036454E-005  0.6884183E+03  0.7818608E-02  0.9740856E-01
          2   -1    0    0  502    0  0.00000000000E+00  0.00000000000E+00  0.31432503685E+04  0.31432503685E+04  0.00000000000E+00 0. -1.
          1   -1    0    0  501    0 -0.00000000000E+00 -0.00000000000E+00 -0.68092841947E+03  0.68092841947E+03  0.00000000000E+00 0. -1.
         25    2    1    2    0    0 -0.23188704315E+03 -0.67463963134E+02  0.11263673716E+04  0.11587279491E+04  0.12499606796E+03 0.  0.
          2    1    1    2  501    0  0.68544234415E+03 -0.44493243963E+03 -0.31694712144E+03  0.87649960683E+03  0.00000000000E+00 0. -1.
          1    1    1    2  502    0 -0.45355530100E+03  0.51239640276E+03  0.16529016989E+04  0.17889512321E+04  0.00000000000E+00 0. -1.
         22    1    3    3    0    0 -0.16192686372E+03 -0.87123222855E+02  0.95578126513E+03  0.97330806630E+03  0.00000000000E+00 0.  1.
         22    1    3    3    0    0 -0.69960179432E+02  0.19659259721E+02  0.17058610650E+03  0.18541988278E+03  0.00000000000E+00 0.  1.
</event>
<event>
 7    1  0.9036454E-005  0.5296768E+03  0.7818608E-02  0.1157905E+00
          2   -1    0    0  502    0  0.00000000000E+00  0.00000000000E+00  0.75519979102E+03  0.75519979102E+03  0.00000000000E+00 0. -1.
          1   -1    0    0  501    0 -0.00000000000E+00 -0.00000000000E+00 -0.14635559749E+04  0.14635559749E+04  0.00000000000E+00 0. -1.
         25    2    1    2    0    0  0.51238508461E+03  0.10707362432E+03  0.29675599798E+02  0.53898957577E+03  0.12500354236E+03 0.  0.
          2    1    1    2  501    0 -0.69136956555E+01  0.68249537267E+02 -0.10554506289E+04  0.10576775636E+04  0.00000000000E+00 0. -1.
          1    1    1    2  502    0 -0.50547138896E+03 -0.17532316159E+03  0.31741884519E+03  0.62208862658E+03  0.00000000000E+00 0. -1.
         22    1    3    3    0    0  0.49651564270E+03  0.82717461396E+02  0.46330925414E+02  0.50548641576E+03  0.00000000000E+00 0.  1.
         22    1    3    3    0    0  0.15869441910E+02  0.24356162926E+02 -0.16655325616E+02  0.33503160006E+02  0.00000000000E+00 0.  1.
</event>
<event>
 7    1  0.9036454E-005  0.7828476E+02  0.7818608E-02  0.1336102E+00
          2   -1    0    0  502    0  0.00000000000E+00  0.00000000000E+00  0.20271646732E+04  0.20271646732E+04  0.00000000000E+00 0. -1.
          1   -1    0    0  501    0 -0.00000000000E+00 -0.00000000000E+00 -0.30659207221E+02  0.30659207221E+02  0.00000000000E+00 0. -1.
         25    2    1    2    0    0 -0.42281434007E+02 -0.64785122985E+02  0.17454424061E+03  0.22820008481E+03  0.12499901983E+03 0.  0.
          2    1    1    2  501    0 -0.36174148821E+02  0.69425745308E+02  0.59192707107E+03  0.59708136851E+03  0.00000000000E+00 0. -1.
          1    1    1    2  502    0  0.78455582828E+02 -0.46406223224E+01  0.12300341543E+04  0.12325424271E+04  0.00000000000E+00 0. -1.
         22    1    3    3    0    0 -0.21630826275E+01 -0.94086755463E+02  0.90466821030E+02  0.13054210887E+03  0.00000000000E+00 0. -1.
         22    1    3    3    0    0 -0.40118351380E+02  0.29301632478E+02  0.84077419579E+02  0.97657975948E+02  0.00000000000E+00 0. -1.
</event>
<event>
 7    1  0.9036454E-005  0.5581439E+03  0.7818608E-02  0.1124784E+00
          2   -1    0    0  502    0  0.00000000000E+00  0.00000000000E+00  0.20314530693E+04  0.20314530693E+04  0.00000000000E+00 0. -1.
          1   -1    0    0  501    0 -0.00000000000E+00 -0.00000000000E+00 -0.11239520474E+04  0.11239520474E+04  0.00000000000E+00 0. -1.
         25    2    1    2    0    0  0.55698135616E+03 -0.18205427119E+03  0.10707715033E+04  0.12270080518E+04  0.12500063254E+03 0.  0.
          2    1    1    2  501    0 -0.49439754355E+03  0.25613860760E+03 -0.96860575149E+03  0.11172434915E+04  0.00000000000E+00 0. -1.
          1    1    1    2  502    0 -0.62583812615E+02 -0.74084336414E+02  0.80533527010E+03  0.81115357348E+03  0.00000000000E+00 0. -1.
         22    1    3    3    0    0  0.19737114562E+03 -0.28703367530E+02  0.46590031399E+03  0.50679616712E+03  0.00000000000E+00 0. -1.
         22    1    3    3    0    0  0.35961021055E+03 -0.15335090366E+03  0.60487118931E+03  0.72021188469E+03  0.00000000000E+00 0. -1.
</event>
<event>
 7    1  0.9036454E-005  0.2497025E+03  0.7818608E-02  0.1154337E+00
          2   -1    0    0  502    0  0.00000000000E+00  0.00000000000E+00  0.16208839776E+04  0.16208839776E+04  0.00000000000E+00 0. -1.
          1   -1    0    0  501    0 -0.00000000000E+00 -0.00000000000E+00 -0.19874306189E+04  0.19874306189E+04  0.00000000000E+00 0. -1.
         25    2    1    2    0    0 -0.18950271679E+03 -0.20752824743E+03  0.14244829009E+04  0.14573114835E+04  0.12500388774E+03 0.  0.
          2    1    1    2  501    0  0.42755970439E+02  0.24608593640E+03 -0.19294932175E+04  0.19455925672E+04  0.00000000000E+00 0. -1.
          1    1    1    2  502    0  0.14674674635E+03 -0.38557688972E+02  0.13846367528E+03  0.20541054577E+03  0.00000000000E+00 0. -1.
         22    1    3    3    0    0 -0.11801179458E+03 -0.18857023164E+03  0.87324915943E+03  0.90113795301E+03  0.00000000000E+00 0.  1.
         22    1    3    3    0    0 -0.71490922209E+02 -0.18958015788E+02  0.55123374144E+03  0.55617353050E+03  0.00000000000E+00 0.  1.
</event>
<event>
 7    1  0.9036454E-005  0.6185185E+03  0.7818608E-02  0.1048571E+00
          2   -1    0    0  502    0  0.00000000000E+00  0.00000000000E+00  0.19426465919E+04  0.19426465919E+04  0.00000000000E+00 0. -1.
          1   -1    0    0  501    0 -0.00000000000E+00 -0.00000000000E+00 -0.48849158415E+03  0.48849158415E+03  0.00000000000E+00 0. -1.
         25    2    1    2    0    0  0.68375835770E+03 -0.39093435837E+03  0.54184422012E+03  0.96414338455E+03  0.12498857072E+03 0.  0.
          2    1    1    2  501    0 -0.45408633746E+03  0.31637934576E+03  0.32212320187E+02  0.55437164958E+03  0.00000000000E+00 0. -1.
          1    1    1    2  502    0 -0.22967202024E+03  0.74555012617E+02  0.88009846743E+03  0.91262314191E+03  0.00000000000E+00 0. -1.
         22    1    3    3    0    0  0.58097542379E+02 -0.42428447637E+02  0.98048375309E+02  0.12160995642E+03  0.00000000000E+00 0.  1.
         22    1    3    3    0    0  0.62566081532E+03 -0.34850591074E+03  0.44379584482E+03  0.84253342813E+03  0.00000000000E+00 0.  1.
</event>
<event>
 7    1  0.9036454E-005  0.1107866E+03  0.7818608E-02  0.1322860E+00
          2   -1    0    0  502    0  0.00000000000E+00  0.00000000000E+00  0.17906768773E+04  0.17906768773E+04  0.00000000000E+00 0. -1.
          1   -1    0    0  501    0 -0.00000000000E+00 -0.00000000000E+00 -0.30753240363E+03  0.30753240363E+03  0.00000000000E+00 0. -1.
         25    2    1    2    0    0  0.88070620130E+02  0.13140224515E+03 -0.86589073714E+02  0.21941826742E+03  0.12499489682E+03 0.  0.
          2    1    1    2  501    0 -0.66044011251E+02 -0.74492882663E+02 -0.13789274063E+03  0.17007471566E+03  0.00000000000E+00 0. -1.
          1    1    1    2  502    0 -0.22026608879E+02 -0.56909362484E+02  0.17076262880E+04  0.17087162978E+04  0.00000000000E+00 0. -1.
         22    1    3    3    0    0  0.11240076007E+03  0.11662578032E+03 -0.97360176251E+02  0.18898282308E+03  0.00000000000E+00 0.  1.
         22    1    3    3    0    0 -0.24330139939E+02  0.14776464825E+02  0.10771102537E+02  0.30435444338E+02  0.00000000000E+00 0.  1.
</event>
<event>
 7    1  0.9036454E-005  0.1649006E+03  0.7818608E-02  0.1214457E+00
          2   -1    0    0  502    0  0.00000000000E+00  0.00000000000E+00  0.62762419576E+03  0.62762419576E+03  0.00000000000E+00 0. -1.
          1   -1    0    0  501    0 -0.00000000000E+00 -0.00000000000E+00 -0.35379014785E+03  0.35379014785E+03  0.00000000000E+00 0. -1.
         25    2    1    2    0    0  0.67300842263E+01 -0.14032463003E+03 -0.13333455932E+03  0.23051916636E+03  0.12499874209E+03 0.  0.
          2    1    1    2  501    0 -0.11745748872E+03  0.17947650631E+03 -0.95423533102E+02  0.23476313306E+03  0.00000000000E+00 0. -1.
          1    1    1    2  502    0  0.11072740449E+03 -0.39151876277E+02  0.50259214033E+03  0.51613204420E+03  0.00000000000E+00 0. -1.
         22    1    3    3    0    0 -0.46442011007E+02 -0.10532850416E+02 -0.38022749571E+02  0.60938746371E+02  0.00000000000E+00 0.  1.
         22    1    3    3    0    0  0.53172095234E+02 -0.12979177962E+03 -0.95311809751E+02  0.16958041999E+03  0.00000000000E+00 0.  1.
</event>
<event>
 7    1  0.9036454E-005  0.1164677E+03  0.7818608E-02  0.1300587E+00
          2   -1    0    0  502    0  0.00000000000E+00  0.00000000000E+00  0.12568928008E+04  0.12568928008E+04  0.00000000000E+00 0. -1.
          1   -1    0    0  501    0 -0.00000000000E+00 -0.00000000000E+00 -0.31012085766E+02  0.31012085766E+02  0.00000000000E+00 0. -1.
         25    2    1    2    0    0  0.77008121312E+02  0.95091252053E+02  0.73122398053E+03  0.75185489771E+03  0.12499872214E+03 0.  0.
          2    1    1    2  501    0 -0.11440404056E+03 -0.34725636528E+02  0.20047172391E+03  0.23341608003E+03  0.00000000000E+00 0. -1.
          1    1    1    2  502    0  0.37395919251E+02 -0.60365615525E+02  0.29418501057E+03  0.30263390880E+03  0.00000000000E+00 0. -1.
         22    1    3    3    0    0  0.66769232186E+02  0.30157402020E+02  0.60611927922E+03  0.61053106383E+03  0.00000000000E+00 0. -1.
         22    1    3    3    0    0  0.10238889126E+02  0.64933850033E+02  0.12510470131E+03  0.14132383388E+03  0.00000000000E+00 0. -1.
</event>
<event>
 7    1  0.9036454E-005  0.1516015E+03  0.7818608E-02  0.1333251E+00
          2   -1    0    0  502    0  0.00000000000E+00  0.00000000000E+00  0.33853733381E+04  0.33853733381E+04  0.00000000000E+00 0. -1.
          1   -1    0    0  501    0 -0.00000000000E+00 -0.00000000000E+00 -0.38567085783E+03  0.38567085783E+03  0.00000000000E+00 0. -1.
         25    2    1    2    0    0 -0.28380145533E+02 -0.18231507523E+03  0.98022759674E+03  0.10052439592E+04  0.12500022746E+03 0.  0.
          2    1    1    2  501    0 -0.50662795212E+01  0.40370716922E+02 -0.36982380251E+03  0.37205524708E+03  0.00000000000E+00 0. -1.
          1    1    1    2  502    0  0.33446425054E+02  0.14194435831E+03  0.23892986861E+04  0.23937449897E+04  0.00000000000E+00 0. -1.
         22    1    3    3    0    0  0.39577566785E+02 -0.20014776811E+02  0.26535569105E+03  0.26903646194E+03  0.00000000000E+00 0. -1.
         22    1    3    3    0    0 -0.67957712318E+02 -0.16230029842E+03  0.71487190570E+03  0.73620749730E+03  0.00000000000E+00 0. -1.
</event>
<event>
 7    1  0.9036454E-005  0.4537817E+03  0.7818608E-02  0.1134924E+00
          2   -1    0    0  502    0  0.00000000000E+00  0.00000000000E+00  0.12836496744E+04  0.12836496744E+04  0.00000000000E+00 0. -1.
          1   -1    0    0  501    0 -0.00000000000E+00 -0.00000000000E+00 -0.47859105002E+03  0.47859105002E+03  0.00000000000E+00 0. -1.
         25    2    1    2    0    0 -0.40489037705E+03 -0.10400326764E+03  0.65766252436E+03  0.78923921602E+03  0.12500258817E+03 0.  0.
          2    1    1    2  501    0  0.46156361489E+03  0.15237727801E+02 -0.27512279356E+03  0.53755530922E+03  0.00000000000E+00 0. -1.
          1    1    1    2  502    0 -0.56673237836E+02  0.88765539837E+02  0.42251889360E+03  0.43544619920E+03  0.00000000000E+00 0. -1.
         22    1    3    3    0    0 -0.17097307314E+03  0.53433452321E+01  0.19495993215E+03  0.25936406501E+03  0.00000000000E+00 0.  1.
         22    1    3    3    0    0 -0.23391730391E+03 -0.10934661287E+03  0.46270259221E+03  0.52987515101E+03  0.00000000000E+00 0.  1.
</event>
<event>
 7    1  0.9036454E-005  0.1914116E+03  0.7818608E-02  0.1231686E+00
          2   -1    0    0  502    0  0.00000000000E+00  0.00000000000E+00  0.13537446890E+04  0.13537446890E+04  0.00000000000E+00 0. -1.
          1   -1    0    0  501    0 -0.00000000000E+00 -0.00000000000E+00 -0.15088588694E+03  0.15088588694E+03  0.00000000000E+00 0. -1.
         25    2    1    2    0    0  0.19029905075E+03  0.12745809664E+03  0.11666371875E+04  0.11954607809E+04  0.12499942453E+03 0.  0.
          2    1    1    2  501    0 -0.18490519266E+03 -0.43114560805E+02 -0.41502583529E+02  0.19434829577E+03  0.00000000000E+00 0. -1.
          1    1    1    2  502    0 -0.53938580903E+01 -0.84343535833E+02  0.77724198065E+02  0.11482149932E+03  0.00000000000E+00 0. -1.
         22    1    3    3    0    0  0.10777440036E+03  0.10682017120E+03  0.47592990657E+03  0.49953493003E+03  0.00000000000E+00 0. -1.
         22    1    3    3    0    0  0.82524650390E+02  0.20637925437E+02  0.69070728095E+03  0.69592585083E+03  0.00000000000E+00 0. -1.
</event>
<event>
 7    1  0.9036454E-005  0.1386197E+03  0.7818608E-02  0.1325814E+00
          2   -1    0    0  502    0  0.00000000000E+00  0.00000000000E+00  0.69023298586E+03  0.69023298586E+03  0.00000000000E+00 0. -1.
          1   -1    0    0  501    0 -0.00000000000E+00 -0.00000000000E+00 -0.17222524178E+04  0.17222524178E+04  0.00000000000E+00 0. -1.
         25    2    1    2    0    0 -0.24443859745E+02 -0.16305005119E+03 -0.78608358553E+03  0.81285633073E+03  0.12500075795E+03 0.  0.
          2    1    1    2  501    0  0.47598276492E+02  0.12156601013E+03 -0.91732133238E+03  0.92656479405E+03  0.00000000000E+00 0. -1.
          1    1    1    2  502    0 -0.23154416747E+02  0.41484041065E+02  0.67138548599E+03  0.67306427886E+03  0.00000000000E+00 0. -1.
         22    1    3    3    0    0  0.59113647865E+01 -0.13626456968E+03 -0.36195769578E+03  0.38680272843E+03  0.00000000000E+00 0.  1.
         22    1    3    3    0    0 -0.30355224532E+02 -0.26785481513E+02 -0.42412588975E+03  0.42605360230E+03  0.00000000000E+00 0.  1.
</event>
<event>
 7    1  0.9036454E-005  0.2727354E+03  0.7818608E-02  0.1257842E+00
          2   -1    0    0  502    0  0.00000000000E+00  0.00000000000E+00  0.43687685709E+03  0.43687685709E+03  0.00000000000E+00 0. -1.
          1   -1    0    0  501    0 -0.00000000000E+00 -0.00000000000E+00 -0.72985734846E+03  0.72985734846E+03  0.00000000000E+00 0. -1.
         25    2    1    2    0    0  0.23013156928E+03 -0.17520408583E+03  0.22724923054E+03  0.38849094181E+03  0.12500395280E+03 0.  0.
          2    1    1    2  501    0 -0.21496956726E+02  0.40183802716E+02 -0.52765468091E+03  0.52961903236E+03  0.00000000000E+00 0. -1.
          1    1    1    2  502    0 -0.20863461256E+03  0.13502028312E+03  0.74249590035E+01  0.24862423137E+03  0.00000000000E+00 0. -1.
         22    1    3    3    0    0  0.78645043201E+02 -0.23839238935E+02  0.89077835011E+01  0.82660152068E+02  0.00000000000E+00 0. -1.
         22    1    3    3    0    0  0.15148652608E+03 -0.15136484690E+03  0.21834144704E+03  0.30583078975E+03  0.00000000000E+00 0. -1.
</event>
<event>
 7    1  0.9036454E-005  0.1903230E+03  0.7818608E-02  0.1273905E+00
          2   -1    0    0  502    0  0.00000000000E+00  0.00000000000E+00  0.64846423126E+03  0.64846423126E+03  0.00000000000E+00 0. -1.
          1   -1    0    0  501    0 -0.00000000000E+00 -0.00000000000E+00 -0.90878283450E+02  0.90878283450E+02  0.00000000000E+00 0. -1.
         25    2    1    2    0    0 -0.22017450466E+03 -0.19088960174E+02  0.26343894450E+03  0.36587658440E+03  0.12499758649E+03 0.  0.
          2    1    1    2  501    0  0.51289753685E+02 -0.22110227471E+02  0.62030896055E+02  0.83470552036E+02  0.00000000000E+00 0. -1.
          1    1    1    2  502    0  0.16888475098E+03  0.41199187644E+02  0.23211610726E+03  0.28999537828E+03  0.00000000000E+00 0. -1.
         22    1    3    3    0    0 -0.54123452333E+01  0.24347322625E+02  0.23840995269E+01  0.25055329382E+02  0.00000000000E+00 0.  1.
         22    1    3    3    0    0 -0.21476215943E+03 -0.43436282798E+02  0.26105484498E+03  0.34082125502E+03  0.00000000000E+00 0.  1.
</event>
<event>
 7    1  0.9036454E-005  0.8783629E+03  0.7818608E-02  0.9728004E-01
          2   -1    0    0  502    0  0.00000000000E+00  0.00000000000E+00  0.85128287836E+03  0.85128287836E+03  0.00000000000E+00 0. -1.
          1   -1    0    0  501    0 -0.00000000000E+00 -0.00000000000E+00 -0.17726991565E+04  0.17726991565E+04  0.00000000000E+00 0. -1.
         25    2    1    2    0    0  0.43349287480E+03 -0.71138851284E+03 -0.57370092338E+03  0.10191895712E+04  0.12499977541E+03 0.  0.
          2    1    1    2  501    0  0.46416338616E+03  0.29114591060E+03  0.18276499141E+02  0.54822223663E+03  0.00000000000E+00 0. -1.
          1    1    1    2  502    0 -0.89765626096E+03  0.42024260224E+03 -0.36599185394E+03  0.10565702271E+04  0.00000000000E+00 0. -1.
         22    1    3    3    0    0  0.30171725573E+03 -0.58766440844E+03 -0.47083276518E+03  0.81121282788E+03  0.00000000000E+00 0. -1.
         22    1    3    3    0    0  0.13177561906E+03 -0.12372410441E+03 -0.10286815820E+03  0.20797674332E+03  0.00000000000E+00 0. -1.
</event>
<event>
 7    1  0.9036454E-005  0.5636165E+03  0.7818608E-02  0.1109760E+00
          2   -1    0    0  502    0  0.00000000000E+00  0.00000000000E+00  0.19237007084E+04  0.19237007084E+04  0.00000000000E+00 0. -1.
          1   -1    0    0  501    0 -0.00000000000E+00 -0.00000000000E+00 -0.69793435846E+03  0.69793435846E+03  0.00000000000E+00 0. -1.
         25    2    1    2    0    0  0.74619107289E+02  0.60991801762E+03  0.23686320379E+02  0.62749793262E+03  0.12499845709E+03 0.  0.
          2    1    1    2  501    0 -0.14473885405E+03 -0.51751390209E+03 -0.21025860213E+03  0.57704302656E+03  0.00000000000E+00 0. -1.
          1    1    1    2  502    0  0.70119746760E+02 -0.92404115536E+02  0.14123386317E+04  0.14170941076E+04  0.00000000000E+00 0. -1.
         22    1    3    3    0    0  0.46135691128E+02  0.15519676252E+03 -0.41763043582E+02  0.16720851922E+03  0.00000000000E+00 0. -1.
         22    1    3    3    0    0  0.28483416161E+02  0.45472125511E+03  0.65449363961E+02  0.46028941339E+03  0.00000000000E+00 0. -1.
</event>
<event>
 7    1  0.9036454E-005  0.1002928E+03  0.7818608E-02  0.1402240E+00
          2   -1    0    0  502    0  0.00000000000E+00  0.00000000000E+00  0.14401278290E+02  0.14401278290E+02  0.00000000000E+00 0. -1.
          1   -1    0    0  501    0 -0.00000000000E+00 -0.00000000000E+00 -0.16340006985E+04  0.16340006985E+04  0.00000000000E+00 0. -1.
         25    2    1    2    0    0 -0.11945013226E+03  0.11443366751E+02 -0.10746838160E+04  0.10885629927E+04  0.12499919968E+03 0.  0.
          2    1    1    2  501    0  0.26387404157E+02 -0.22478437992E+02 -0.15177747516E+03  0.15568550747E+03  0.00000000000E+00 0. -1.
          1    1    1    2  502    0  0.93062728104E+02  0.11035071241E+02 -0.39313812902E+03  0.40415347660E+03  0.00000000000E+00 0. -1.
         22    1    3    3    0    0 -0.12891089632E+02 -0.46417929073E+02 -0.21235610315E+03  0.21775196641E+03  0.00000000000E+00 0.  1.
         22    1    3    3    0    0 -0.10655904263E+03  0.57861295824E+02 -0.86232771285E+03  0.87081102627E+03  0.00000000000E+00 0.  1.
</event>
<event>
 7    1  0.9036454E-005  0.1902137E+03  0.7818608E-02  0.1354530E+00
          2   -1    0    0  502    0  0.00000000000E+00  0.00000000000E+00  0.67335081104E+03  0.67335081104E+03  0.00000000000E+00 0. -1.
          1   -1    0    0  501    0 -0.00000000000E+00 -0.00000000000E+00 -0.20743754965E+03  0.20743754965E+03  0.00000000000E+00 0. -1.
         25    2    1    2    0    0  0.19421692581E+03  0.85300739631E+02  0.21742270694E+00  0.24621598807E+03  0.12500334018E+03 0.  0.
          2    1    1    2  501    0 -0.26988384599E+02 -0.73905433778E+00 -0.65738582442E+02  0.71066731500E+02  0.00000000000E+00 0. -1.
          1    1    1    2  502    0 -0.16722854121E+03 -0.84561685293E+02  0.53143442112E+03  0.56350564111E+03  0.00000000000E+00 0. -1.
         22    1    3    3    0    0  0.79784432363E+02  0.88250141074E+02 -0.39024385572E+02  0.12520601310E+03  0.00000000000E+00 0.  1.
         22    1    3    3    0    0  0.11443249345E+03 -0.29494014432E+01  0.39241808279E+02  0.12100997497E+03  0.00000000000E+00 0.  1.
</event>
<event>
 7    1  0.9036454E-005  0.2915731E+03  0.7818608E-02  0.1090160E+00
          2   -1    0    0  502    0  0.00000000000E+00  0.00000000000E+00  0.16994495178E+04  0.16994495178E+04  0.00000000000E+00 0. -1.
          1   -1    0    0  501    0 -0.00000000000E+00 -0.00000000000E+00 -0.22851898613E+03  0.22851898613E+03  0.00000000000E+00 0. -1.
         25    2    1    2    0    0 -0.76930872263E+00 -0.30355209674E+03  0.14899307831E+03  0.36051076359E+03  0.12499842403E+03 0.  0.
          2    1    1    2  501    0  0.25850337414E+03  0.12957105355E+03  0.99048735041E+02  0.30565226037E+03  0.00000000000E+00 0. -1.
          1    1    1    2  502    0 -0.25773406542E+03  0.17398104319E+03  0.12228887183E+04  0.12618054799E+04  0.00000000000E+00 0. -1.
         22    1    3    3    0    0  0.53317932409E+02 -0.22568092473E+03  0.12148544130E+03  0.26178883504E+03  0.00000000000E+00 0. -1.
         22    1    3    3    0    0 -0.54087241132E+02 -0.77871172007E+02  0.27507637015E+02  0.98721928553E+02  0.00000000000E+00 0. -1.
</event>
<event>
 7    1  0.9036454E-005  0.4529108E+03  0.7818608E-02  0.1128963E+00
          2   -1    0    0  502    0  0.00000000000E+00  0.00000000000E+00  0.21667377741E+04  0.21667377741E+04  0.00000000000E+00 0. -1.
          1   -1    0    0  501    0 -0.00000000000E+00 -0.00000000000E+00 -0.14758259710E+04  0.14758259710E+04  0.00000000000E+00 0. -1.
         25    2    1    2    0    0 -0.37399229641E+03 -0.30953445109E+03  0.14076629123E+03  0.52069367804E+03  0.12499977369E+03 0.  0.
          2    1    1    2  501    0  0.10237766819E+03 -0.49004387996E+02 -0.12557147069E+04  0.12608338678E+04  0.00000000000E+00 0. -1.
          1    1    1    2  502    0  0.27161462821E+03  0.35853883909E+03  0.18058602188E+04  0.18610361993E+04  0.00000000000E+00 0. -1.
         22    1    3    3    0    0 -0.38129118846E+03 -0.30869613404E+03  0.12975606130E+03  0.50745729773E+03  0.00000000000E+00 0.  1.
         22    1    3    3    0    0  0.72988920587E+01 -0.83831705264E+00  0.11010229929E+02  0.13236380315E+02  0.00000000000E+00 0.  1.
</event>
<event>
 7    1  0.9036454E-005  0.2574248E+03  0.7818608E-02  0.1172301E+00
          2   -1    0    0  502    0  0.00000000000E+00  0.00000000000E+00  0.42731701205E+03  0.42731701205E+03  0.00000000000E+00 0. -1.
          1   -1    0    0  501    0 -0.00000000000E+00 -0.00000000000E+00 -0.10245279856E+04  0.10245279856E+04  0.00000000000E+00 0. -1.
         25    2    1    2    0    0 -0.34977673422E+03 -0.43213814204E+02 -0.46195526596E+03  0.59433923410E+03  0.12500103960E+03 0.  0.
          2    1    1    2  501    0  0.10065007694E+03  0.64515695098E+02 -0.44422952214E+03  0.46003541303E+03  0.00000000000E+00 0. -1.
          1    1    1    2  502    0  0.24912665728E+03 -0.21301880894E+02  0.30897381452E+03  0.39747035054E+03  0.00000000000E+00 0. -1.
         22    1    3    3    0    0 -0.35704888792E+03 -0.31873172301E+02 -0.43106926005E+03  0.56064294737E+03  0.00000000000E+00 0. -1.
         22    1    3    3    0    0  0.72721536974E+01 -0.11340641903E+02 -0.30886005911E+02  0.33696286728E+02  0.00000000000E+00 0. -1.
</event>
<event>
 7    1  0.9036454E-005  0.4556799E+03  0.7818608E-02  0.1083874E+00
          2   -1    0    0  502    0  0.00000000000E+00  0.00000000000E+00  0.11568531908E+04  0.11568531908E+04  0.00000000000E+00 0. -1.
          1   -1    0    0  501    0 -0.00000000000E+00 -0.00000000000E+00 -0.10584887404E+04  0.10584887404E+04  0.00000000000E+00 0. -1.
         25    2    1    2    0    0 -0.83689653735E+02  0.43475450676E+03 -0.81623629442E+03  0.93695396489E+03  0.12500241879E+03 0.  0.
          2    1    1    2  501    0 -0.49531000208E+02 -0.58545896770E+03  0.36151456141E+03  0.68986107367E+03  0.00000000000E+00 0. -1.
          1    1    1    2  502    0  0.13322065394E+03  0.15070446094E+03  0.55308618342E+03  0.58852689273E+03  0.00000000000E+00 0. -1.
         22    1    3    3    0    0  0.50141944355E+01  0.22777057835E+03 -0.49199597183E+03  0.54218503742E+03  0.00000000000E+00 0.  1.
         22    1    3    3    0    0 -0.88703848170E+02  0.20698392841E+03 -0.32424032259E+03  0.39476892747E+03  0.00000000000E+00 0.  1.
</event>
<event>
 7    1  0.9036454E-005  0.7289546E+03  0.7818608E-02  0.1089909E+00
          2   -1    0    0  502    0  0.00000000000E+00  0.00000000000E+00  0.46591426856E+03  0.46591426856E+03  0.00000000000E+00 0. -1.
          1   -1    0    0  501    0 -0.00000000000E+00 -0.00000000000E+00 -0.20978096726E+04  0.20978096726E+04  0.00000000000E+00 0. -1.
         25    2    1    2    0    0 -0.46562351435E+03  0.51183970036E+03  0.60006787146E+01  0.70316841985E+03  0.12499873015E+03 0.  0.
          2    1    1    2  501    0  0.57372561259E+03 -0.46964937755E+03 -0.12272865780E+04  0.14338632992E+04  0.00000000000E+00 0. -1.
          1    1    1    2  502    0 -0.10810209823E+03 -0.42190322807E+02 -0.41060950477E+03  0.42669222208E+03  0.00000000000E+00 0. -1.
         22    1    3    3    0    0 -0.32327924426E+03  0.43062292738E+03 -0.95266634424E+01  0.53855021370E+03  0.00000000000E+00 0. -1.
         22    1    3    3    0    0 -0.14234427009E+03  0.81216772979E+02  0.15527342157E+02  0.16461820615E+03  0.00000000000E+00 0. -1.
</event>
<event>
 7    1  0.9036454E-005  0.9637907E+02  0.7818608E-02  0.1329365E+00
          2   -1    0    0  502    0  0.00000000000E+00  0.00000000000E+00  0.45094312853E+03  0.45094312853E+03  0.00000000000E+00 0. -1.
          1   -1    0    0  501    0 -0.00000000000E+00 -0.00000000000E+00 -0.14461602431E+03  0.14461602431E+03  0.00000000000E+00 0. -1.
         25    2    1    2    0    0 -0.10567714070E+02 -0.11087080790E+03  0.18898330918E+03  0.25247311703E+03  0.12499588412E+03 0.  0.
          2    1    1    2  501    0  0.60083897742E+02  0.27842303785E+02 -0.91502092084E+02  0.11295088093E+03  0.00000000000E+00 0. -1.
          1    1    1    2  502    0 -0.49516183672E+02  0.83028504115E+02  0.20884588712E+03  0.23013515488E+03  0.00000000000E+00 0. -1.
         22    1    3    3    0    0  0.45122497408E+02 -0.80586291874E+02  0.64104924772E+02  0.11242611614E+03  0.00000000000E+00 0.  1.
         22    1    3    3    0    0 -0.55690211478E+02 -0.30284516026E+02  0.12487838441E+03  0.14004700089E+03  0.00000000000E+00 0.  1.
</event>
<event>
 7    1  0.1137525E-004  0.1349021E+03  0.7818608E-02  0.1378105E+00
          2   -1    0    0  502    0  0.00000000000E+00  0.00000000000E+00  0.93870535192E+03  0.93870535192E+03  0.00000000000E+00 0. -1.
          1   -1    0    0  501    0 -0.00000000000E+00 -0.00000000000E+00 -0.11964295847E+04  0.11964295847E+04  0.00000000000E+00 0. -1.
         25    2    1    2    0    0  0.49407721716E+02 -0.14133469429E+03 -0.30425439928E+03  0.36140230372E+03  0.12499706746E+03 0.  0.
          2    1    1    2  501    0  0.18687673779E+02  0.25089897706E+02 -0.85832919865E+03  0.85889914738E+03  0.00000000000E+00 0. -1.
          1    1    1    2  502    0 -0.68095395495E+02  0.11624479659E+03  0.90485936513E+03  0.91483348555E+03  0.00000000000E+00 0. -1.
         22    1    3    3    0    0 -0.26287075173E+02  0.17609049158E+01 -0.84145097895E+02  0.88173173965E+02  0.00000000000E+00 0. -1.
         22    1    3    3    0    0  0.75694796889E+02 -0.14309559921E+03 -0.22010930139E+03  0.27322912975E+03  0.00000000000E+00 0. -1.
</event>
<event>
 7    1  0.9036454E-005  0.2226127E+03  0.7818608E-02  0.1268197E+00
          2   -1    0    0  502    0  0.00000000000E+00  0.00000000000E+00  0.16503442368E+04  0.16503442368E+04  0.00000000000E+00 0. -1.
          1   -1    0    0  501    0 -0.00000000000E+00 -0.00000000000E+00 -0.87723781447E+02  0.87723781447E+02  0.00000000000E+00 0. -1.
         25    2    1    2    0    0  0.19788064723E+03  0.14406337832E+03  0.64443052168E+03  0.70059064087E+03  0.12500216507E+03 0.  0.
          2    1    1    2  501    0 -0.19567649699E+03 -0.93655255313E+02  0.14117545341E+03  0.25882640315E+03  0.00000000000E+00 0. -1.
          1    1    1    2  502    0 -0.22041502385E+01 -0.50408123005E+02  0.77701448024E+03  0.77865097421E+03  0.00000000000E+00 0. -1.
         22    1    3    3    0    0  0.18524207650E+03  0.90421209186E+02  0.39959980125E+03  0.44963387676E+03  0.00000000000E+00 0. -1.
         22    1    3    3    0    0  0.12638570726E+02  0.53642169133E+02  0.24483072044E+03  0.25095676410E+03  0.00000000000E+00 0. -1.
</event>
<event>
 7    1  0.9036454E-005  0.2360692E+03  0.7818608E-02  0.1145262E+00
          2   -1    0    0  502    0  0.00000000000E+00  0.00000000000E+00  0.10927379727E+04  0.10927379727E+04  0.00000000000E+00 0. -1.
          1   -1    0    0  501    0 -0.00000000000E+00 -0.00000000000E+00 -0.33341703114E+03  0.33341703114E+03  0.00000000000E+00 0. -1.
         25    2    1    2    0    0 -0.14668893803E+03  0.64425520253E+02 -0.11827941996E+03  0.23512279600E+03  0.12499766323E+03 0.  0.
          2    1    1    2  501    0  0.62129765601E+02  0.16756545338E+03 -0.84548897867E+02  0.19770383170E+03  0.00000000000E+00 0. -1.
          1    1    1    2  502    0  0.84559172425E+02 -0.23199097363E+03  0.96214925939E+03  0.99332837614E+03  0.00000000000E+00 0. -1.
         22    1    3    3    0    0 -0.50867600905E+02  0.90271623978E+02 -0.53581713428E+02  0.11665109914E+03  0.00000000000E+00 0. -1.
         22    1    3    3    0    0 -0.95821337121E+02 -0.25846103726E+02 -0.64697706534E+02  0.11847169686E+03  0.00000000000E+00 0. -1.
</event>
<event>
 7    1  0.9036454E-005  0.3395714E+03  0.7818608E-02  0.1153004E+00
          2   -1    0    0  502    0  0.00000000000E+00  0.00000000000E+00  0.18299136858E+04  0.18299136858E+04  0.00000000000E+00 0. -1.
          1   -1    0    0  501    0 -0.00000000000E+00 -0.00000000000E+00 -0.97223013739E+02  0.97223013739E+02  0.00000000000E+00 0. -1.
         25    2    1    2    0    0 -0.18405191451E+03  0.24968647820E+03  0.76660284270E+03  0.83637513722E+03  0.12500002839E+03 0.  0.
          2    1    1    2  501    0  0.13662775987E+03 -0.35262480218E+03  0.84012743391E+03  0.92131726408E+03  0.00000000000E+00 0. -1.
          1    1    1    2  502    0  0.47424154641E+02  0.10293832398E+03  0.12596039548E+03  0.16944429827E+03  0.00000000000E+00 0. -1.
         22    1    3    3    0    0 -0.91647456071E+02  0.10378383198E+03  0.49924332866E+03  0.51808709808E+03  0.00000000000E+00 0.  1.
         22    1    3    3    0    0 -0.92404458437E+02  0.14590264622E+03  0.26735951404E+03  0.31828803914E+03  0.00000000000E+00 0.  1.
</event>
<event>
 7    1  0.9036454E-005  0.1313686E+03  0.7818608E-02  0.1317232E+00
          2   -1    0    0  502    0  0.00000000000E+00  0.00000000000E+00  0.25815560945E+04  0.25815560945E+04  0.00000000000E+00 0. -1.
          1   -1    0    0  501    0 -0.00000000000E+00 -0.00000000000E+00 -0.69236173424E+02  0.69236173424E+02  0.00000000000E+00 0. -1.
         25    2    1    2    0    0  0.71621634345E+01  0.16272917090E+03  0.10998319638E+04  0.11188335060E+04  0.12500394339E+03 0.  0.
          2    1    1    2  501    0 -0.43205932055E+02 -0.12236391110E+03  0.11885173876E+02  0.13031092303E+03  0.00000000000E+00 0. -1.
          1    1    1    2  502    0  0.36043768620E+02 -0.40365259806E+02  0.14006027835E+04  0.14016478390E+04  0.00000000000E+00 0. -1.
         22    1    3    3    0    0 -0.41777863618E+02  0.12251296527E+03  0.89838689624E+03  0.90766394215E+03  0.00000000000E+00 0. -1.
         22    1    3    3    0    0  0.48940027053E+02  0.40216205630E+02  0.20144506754E+03  0.21116956381E+03  0.00000000000E+00 0. -1.
</event>
<event>
 7    1  0.9036454E-005  0.3121545E+03  0.7818608E-02  0.1129174E+00
          2   -1    0    0  502    0  0.00000000000E+00  0.00000000000E+00  0.13725447239E+04  0.13725447239E+04  0.00000000000E+00 0. -1.
          1   -1    0    0  501    0 -0.00000000000E+00 -0.00000000000E+00 -0.17381539990E+03  0.17381539990E+03  0.00000000000E+00 0. -1.
         25    2    1    2    0    0 -0.22521791067E+03  0.25817121024E+03  0.24586677799E+03  0.43983237726E+03  0.12500626575E+03 0.  0.
          2    1    1    2  501    0  0.65088310458E+02 -0.29475381830E+03  0.27263830905E+03  0.40675293376E+03  0.00000000000E+00 0. -1.
          1    1    1    2  502    0  0.16012960021E+03  0.36582608056E+02  0.68022423695E+03  0.69977481279E+03  0.00000000000E+00 0. -1.
         22    1    3    3    0    0 -0.51436043107E+02  0.51133974729E+02  0.12327275351E+03  0.14302629709E+03  0.00000000000E+00 0. -1.
         22    1    3    3    0    0 -0.17378186756E+03  0.20703723552E+03  0.12259402448E+03  0.29680608016E+03  0.00000000000E+00 0. -1.
</event>
<event>
 7    1  0.9036454E-005  0.6627898E+02  0.7818608E-02  0.1409166E+00
          2   -1    0    0  502    0  0.00000000000E+00  0.00000000000E+00  0.60395581098E+02  0.60395581098E+02  0.00000000000E+00 0. -1.
          1   -1    0    0  501    0 -0.00000000000E+00 -0.00000000000E+00 -0.10816062204E+04  0.10816062204E+04  0.00000000000E+00 0. -1.
         25    2    1    2    0    0  0.47051630888E+02 -0.77798642123E+01 -0.58796330003E+03  0.60299101339E+03  0.12499175092E+03 0.  0.
          2    1    1    2  501    0 -0.52494345705E+02  0.57157261824E+02 -0.47053828516E+03  0.47689504790E+03  0.00000000000E+00 0. -1.
          1    1    1    2  502    0  0.54427148176E+01 -0.49377397612E+02  0.37290945868E+02  0.62115740222E+02  0.00000000000E+00 0. -1.
         22    1    3    3    0    0  0.28981292479E+02 -0.65477647320E+02 -0.36610643319E+03  0.37304310480E+03  0.00000000000E+00 0.  1.
         22    1    3    3    0    0  0.18070338409E+02  0.57697783108E+02 -0.22185686683E+03  0.22994790859E+03  0.00000000000E+00 0.  1.
</event>
<event>
 7    1  0.9036454E-005  0.8833542E+02  0.7818608E-02  0.1449471E+00
          2   -1    0    0  502    0  0.00000000000E+00  0.00000000000E+00  0.35983908776E+03  0.35983908776E+03  0.00000000000E+00 0. -1.
          1   -1    0    0  501    0 -0.00000000000E+00 -0.00000000000E+00 -0.73968266030E+02  0.73968266030E+02  0.00000000000E+00 0. -1.
         25    2    1    2    0    0  0.11031357999E+03  0.20622552590E+02  0.25579911337E+03  0.30603246020E+03  0.12501321806E+03 0.  0.
          2    1    1    2  501    0 -0.83061538142E+02 -0.17330945764E+02 -0.28654781098E+01  0.84898714739E+02  0.00000000000E+00 0. -1.
          1    1    1    2  502    0 -0.27252041849E+02 -0.32916068263E+01  0.32937186469E+02  0.42876178851E+02  0.00000000000E+00 0. -1.
         22    1    3    3    0    0  0.64513972461E+02 -0.30110928733E+02  0.44509646682E+02  0.83963261726E+02  0.00000000000E+00 0.  1.
         22    1    3    3    0    0  0.45799607529E+02  0.50733481323E+02  0.21128946668E+03  0.22206919847E+03  0.00000000000E+00 0.  1.
</event>
<event>
 7    1  0.9036454E-005  0.5255986E+02  0.7818608E-02  0.1437242E+00
          2   -1    0    0  502    0  0.00000000000E+00  0.00000000000E+00  0.98051945418E+03  0.98051945418E+03  0.00000000000E+00 0. -1.
          1   -1    0    0  501    0 -0.00000000000E+00 -0.00000000000E+00 -0.10187066341E+03  0.10187066341E+03  0.00000000000E+00 0. -1.
         25    2    1    2    0    0 -0.14304766319E+02 -0.71406468004E+01  0.17348218615E+03  0.21441922161E+03  0.12499567396E+03 0.  0.
          2    1    1    2  501    0  0.30216631035E+02 -0.43005744155E+02 -0.71934766579E+02  0.89090681130E+02  0.00000000000E+00 0. -1.
          1    1    1    2  502    0 -0.15911864716E+02  0.50146390955E+02  0.77710137119E+03  0.77888021484E+03  0.00000000000E+00 0. -1.
         22    1    3    3    0    0 -0.61608454755E+02  0.23533151011E+02  0.67472259398E+02  0.94349969168E+02  0.00000000000E+00 0. -1.
         22    1    3    3    0    0  0.47303688435E+02 -0.30673797812E+02  0.10600992676E+03  0.12006925245E+03  0.00000000000E+00 0. -1.
</event>
<event>
 7    1  0.9036454E-005  0.3434159E+03  0.7818608E-02  0.1072584E+00
          2   -1    0    0  502    0  0.00000000000E+00  0.00000000000E+00  0.27049493814E+04  0.27049493814E+04  0.00000000000E+00 0. -1.
          1   -1    0    0  501    0 -0.00000000000E+00 -0.00000000000E+00 -0.13971146826E+03  0.13971146826E+03  0.00000000000E+00 0. -1.
         25    2    1    2    0    0  0.39050170856E+03 -0.27733311928E+03  0.78866835432E+03  0.93114337339E+03  0.12499986110E+03 0.  0.
          2    1    1    2  501    0 -0.63270410498E+02  0.30438757987E+03  0.45023254164E+03  0.54714192416E+03  0.00000000000E+00 0. -1.
          1    1    1    2  502    0 -0.32723129806E+03 -0.27054460586E+02  0.13263370172E+04  0.13663755521E+04  0.00000000000E+00 0. -1.
         22    1    3    3    0    0  0.53219941834E+02 -0.92490410119E+02  0.22152102380E+03  0.24588290335E+03  0.00000000000E+00 0. -1.
         22    1    3    3    0    0  0.33728176672E+03 -0.18484270916E+03  0.56714733052E+03  0.68526047005E+03  0.00000000000E+00 0. -1.
</event>
<event>
 7    1  0.9036454E-005  0.1401136E+03  0.7818608E-02  0.1339215E+00
          2   -1    0    0  502    0  0.00000000000E+00  0.00000000000E+00  0.65475463566E+03  0.65475463566E+03  0.00000000000E+00 0. -1.
          1   -1    0    0  501    0 -0.00000000000E+00 -0.00000000000E+00 -0.78653449914E+03  0.78653449914E+03  0.00000000000E+00 0. -1.
         25    2    1    2    0    0 -0.10909283937E+03  0.19992958430E+02  0.17371902007E+03  0.24105191838E+03  0.12500705353E+03 0.  0.
          2    1    1    2  501    0  0.12930255971E+03 -0.56576256093E+02 -0.74525381621E+03  0.75850067586E+03  0.00000000000E+00 0. -1.
          1    1    1    2  502    0 -0.20209720350E+02  0.36583297663E+02  0.43975493266E+03  0.44173654056E+03  0.00000000000E+00 0. -1.
         22    1    3    3    0    0  0.28066343549E+02 -0.20686898630E+01  0.27062823420E+02  0.39043508160E+02  0.00000000000E+00 0. -1.
         22    1    3    3    0    0 -0.13715918291E+03  0.22061648293E+02  0.14665619665E+03  0.20200841022E+03  0.00000000000E+00 0. -1.
</event>
<event>
 7    1  0.9036454E-005  0.2585517E+03  0.7818608E-02  0.1175947E+00
          2   -1    0    0  502    0  0.00000000000E+00  0.00000000000E+00  0.10709833559E+04  0.10709833559E+04  0.00000000000E+00 0. -1.
          1   -1    0    0  501    0 -0.00000000000E+00 -0.00000000000E+00 -0.15324141143E+03  0.15324141143E+03  0.00000000000E+00 0. -1.
         25    2    1    2    0    0 -0.26202743957E+03 -0.12958321298E+03  0.74414424747E+02  0.32651718713E+03  0.12500311479E+03 0.  0.
          2    1    1    2  501    0  0.14928915790E+03  0.11134818731E+03  0.42386736899E+03  0.46297863663E+03  0.00000000000E+00 0. -1.
          1    1    1    2  502    0  0.11273828168E+03  0.18235025677E+02  0.41946015069E+03  0.43472894352E+03  0.00000000000E+00 0. -1.
         22    1    3    3    0    0 -0.39199903829E+02 -0.17311065500E+02  0.63701357160E+02  0.76773487305E+02  0.00000000000E+00 0.  1.
         22    1    3    3    0    0 -0.22282753575E+03 -0.11227214748E+03  0.10713067587E+02  0.24974369983E+03  0.00000000000E+00 0.  1.
</event>
<event>
 7    1  0.9036454E-005  0.3200713E+03  0.7818608E-02  0.1127439E+00
          2   -1    0    0  502    0  0.00000000000E+00  0.00000000000E+00  0.17932452310E+03  0.17932452310E+03  0.00000000000E+00 0. -1.
          1   -1    0    0  501    0 -0.00000000000E+00 -0.00000000000E+00 -0.13266012514E+04  0.13266012514E+04  0.00000000000E+00 0. -1.
         25    2    1    2    0    0  0.28485712155E+03  0.10160694570E+03 -0.40213692170E+03  0.51846471252E+03  0.12499601281E+03 0.  0.
          2    1    1    2  501    0 -0.34302533854E+03  0.51360019292E+02 -0.74721691633E+03  0.82379448560E+03  0.00000000000E+00 0. -1.
          1    1    1    2  502    0  0.58168216987E+02 -0.15296696499E+03  0.20771097059E+01  0.16366657640E+03  0.00000000000E+00 0. -1.
         22    1    3    3    0    0  0.13143927592E+03  0.13490116567E+02 -0.90641529327E+02  0.16023156162E+03  0.00000000000E+00 0. -1.
         22    1    3    3    0    0  0.15341784563E+03  0.88116829135E+02 -0.31149539238E+03  0.35823315090E+03  0.00000000000E+00 0. -1.
</event>
<event>
 7    1  0.9036454E-005  0.3089436E+03  0.7818608E-02  0.1115988E+00
          2   -1    0    0  502    0  0.00000000000E+00  0.00000000000E+00  0.19019605189E+04  0.19019605189E+04  0.00000000000E+00 0. -1.
          1   -1    0    0  501    0 -0.00000000000E+00 -0.00000000000E+00 -0.34577296436E+03  0.34577296436E+03  0.00000000000E+00 0. -1.
         25    2    1    2    0    0 -0.43102979853E+02 -0.41211701232E+03  0.20841754457E+03  0.48037553235E+03  0.12499792189E+03 0.  0.
          2    1    1    2  501    0  0.14612107275E+03  0.24588811033E+03 -0.10259199297E+03  0.30387077471E+03  0.00000000000E+00 0. -1.
          1    1    1    2  502    0 -0.10301809290E+03  0.16622890199E+03  0.14503620029E+04  0.14634871762E+04  0.00000000000E+00 0. -1.
         22    1    3    3    0    0 -0.86512482474E+02 -0.28609921843E+03  0.15599238881E+03  0.33715100145E+03  0.00000000000E+00 0.  1.
         22    1    3    3    0    0  0.43409502622E+02 -0.12601779389E+03  0.52425155764E+02  0.14322453090E+03  0.00000000000E+00 0.  1.
</event>
<event>
 7    1  0.9036454E-005  0.2395279E+03  0.7818608E-02  0.1248823E+00
          2   -1    0    0  502    0  0.00000000000E+00  0.00000000000E+00  0.17934011362E+04  0.17934011362E+04  0.00000000000E+00 0. -1.
          1   -1    0    0  501    0 -0.00000000000E+00 -0.00000000000E+00 -0.62262402155E+03  0.62262402155E+03  0.00000000000E+00 0. -1.
         25    2    1    2    0    0 -0.28198941769E+03  0.52271505948E+02  0.12481411649E+03  0.33682887577E+03  0.12499914339E+03 0.  0.
          2    1    1    2  501    0  0.22598110694E+03 -0.61444696225E+02 -0.48952596072E+03  0.54265880404E+03  0.00000000000E+00 0. -1.
          1    1    1    2  502    0  0.56008310760E+02  0.91731902769E+01  0.15354889589E+04  0.15365374779E+04  0.00000000000E+00 0. -1.
         22    1    3    3    0    0 -0.71636461487E+02  0.31480280240E+02 -0.19801660839E+02  0.80714908353E+02  0.00000000000E+00 0. -1.
         22    1    3    3    0    0 -0.21035295621E+03  0.20791225709E+02  0.14461577733E+03  0.25611396742E+03  0.00000000000E+00 0. -1.
</event>
<event>
 7    1  0.9036454E-005  0.1653808E+03  0.7818608E-02  0.1215827E+00
          2   -1    0    0  502    0  0.00000000000E+00  0.00000000000E+00  0.96429708069E+03  0.96429708069E+03  0.00000000000E+00 0. -1.
          1   -1    0    0  501    0 -0.00000000000E+00 -0.00000000000E+00 -0.46756208713E+03  0.46756208713E+03  0.00000000000E+00 0. -1.
         25    2    1    2    0    0  0.91635255027E+02  0.14867932252E+03  0.32360573546E+03  0.38839203221E+03  0.12500055103E+03 0.  0.
          2    1    1    2  501    0 -0.11316470384E+03  0.22701057630E+02 -0.41486849147E+03  0.43062449237E+03  0.00000000000E+00 0. -1.
          1    1    1    2  502    0  0.21529448817E+02 -0.17138038015E+03  0.58799774958E+03  0.61284264324E+03  0.00000000000E+00 0. -1.
         22    1    3    3    0    0  0.92114138831E+01  0.61798758894E+01  0.14526579282E+03  0.14568868032E+03  0.00000000000E+00 0.  1.
         22    1    3    3    0    0  0.82423841144E+02  0.14249944663E+03  0.17833994264E+03  0.24270335189E+03  0.00000000000E+00 0.  1.
</event>
<event>
 7    1  0.9036454E-005  0.1532135E+03  0.7818608E-02  0.1242092E+00
          2   -1    0    0  502    0  0.00000000000E+00  0.00000000000E+00  0.27676269863E+04  0.27676269863E+04  0.00000000000E+00 0. -1.
          1   -1    0    0  501    0 -0.00000000000E+00 -0.00000000000E+00 -0.53595528798E+03  0.53595528798E+03  0.00000000000E+00 0. -1.
         25    2    1    2    0    0  0.10436388321E+03  0.21216497155E+03 -0.21612670853E+01  0.26747211636E+03  0.12502346451E+03 0.  0.
          2    1    1    2  501    0 -0.70001678347E+02 -0.64144914260E+02 -0.39329391756E+03  0.40459227698E+03  0.00000000000E+00 0. -1.
          1    1    1    2  502    0 -0.34362204867E+02 -0.14802005729E+03  0.26271268830E+04  0.26315178810E+04  0.00000000000E+00 0. -1.
         22    1    3    3    0    0  0.41679053393E+02  0.66832294195E+02  0.58351750417E+02  0.98023598260E+02  0.00000000000E+00 0.  1.
         22    1    3    3    0    0  0.62684829821E+02  0.14533267736E+03 -0.60513017502E+02  0.16944851810E+03  0.00000000000E+00 0.  1.
</event>
<event>
 7    1  0.9036454E-005  0.8508931E+02  0.7818608E-02  0.1316045E+00
          2   -1    0    0  502    0  0.00000000000E+00  0.00000000000E+00  0.44321613561E+03  0.44321613561E+03  0.00000000000E+00 0. -1.
          1   -1    0    0  501    0 -0.00000000000E+00 -0.00000000000E+00 -0.48506292770E+03  0.48506292770E+03  0.00000000000E+00 0. -1.
         25    2    1    2    0    0 -0.64096725401E+01  0.10934347801E+03 -0.14844845837E+03  0.22284266811E+03  0.12499931941E+03 0.  0.
          2    1    1    2  501    0 -0.61633359940E+02 -0.57725253550E+02 -0.28881209919E+03  0.30090414520E+03  0.00000000000E+00 0. -1.
          1    1    1    2  502    0  0.68043032480E+02 -0.51618224462E+02  0.39541376548E+03  0.40453225001E+03  0.00000000000E+00 0. -1.
         22    1    3    3    0    0  0.44522081562E+02  0.30866104901E+02 -0.10818290119E+03  0.12098955446E+03  0.00000000000E+00 0.  1.
         22    1    3    3    0    0 -0.50931754102E+02  0.78477373111E+02 -0.40265557182E+02  0.10185311366E+03  0.00000000000E+00 0.  1.
</event>
<event>
 7    1  0.9036454E-005  0.3165453E+03  0.7818608E-02  0.1244489E+00
          2   -1    0    0  502    0  0.00000000000E+00  0.00000000000E+00  0.30259499299E+04  0.30259499299E+04  0.00000000000E+00 0. -1.
          1   -1    0    0  501    0 -0.00000000000E+00 -0.00000000000E+00 -0.76347765312E+03  0.76347765312E+03  0.00000000000E+00 0. -1.
         25    2    1    2    0    0 -0.12652079806E+03 -0.33340160226E+03  0.34842649893E+03  0.51399438024E+03  0.12500022811E+03 0.  0.
          2    1    1    2  501    0  0.11571739080E+02  0.43338423378E+02 -0.67056212920E+03  0.67206078088E+03  0.00000000000E+00 0. -1.
          1    1    1    2  502    0  0.11494905898E+03  0.29006317888E+03  0.25846079071E+04  0.26033724219E+04  0.00000000000E+00 0. -1.
         22    1    3    3    0    0 -0.28952089888E+02 -0.10758302030E+03  0.37561769045E+02  0.11757217468E+03  0.00000000000E+00 0.  1.
         22    1    3    3    0    0 -0.97568708170E+02 -0.22581858197E+03  0.31086472988E+03  0.39642220556E+03  0.00000000000E+00 0.  1.
</event>
<event>
 7    1  0.9036454E-005  0.8263090E+02  0.7818608E-02  0.1345606E+00
          2   -1    0    0  502    0  0.00000000000E+00  0.00000000000E+00  0.14909109299E+04  0.14909109299E+04  0.00000000000E+00 0. -1.
          1   -1    0    0  501    0 -0.00000000000E+00 -0.00000000000E+00 -0.31383696242E+03  0.31383696242E+03  0.00000000000E+00 0. -1.
         25    2    1    2    0    0 -0.84793128408E+02 -0.11319105556E+03  0.35014124575E+02  0.19197134528E+03  0.12499967521E+03 0.  0.
          2    1    1    2  501    0  0.56243999200E+02  0.36529518611E+02 -0.22933703177E+03  0.23894197479E+03  0.00000000000E+00 0. -1.
          1    1    1    2  502    0  0.28549129208E+02  0.76661536952E+02  0.13713968747E+04  0.13738345723E+04  0.00000000000E+00 0. -1.
         22    1    3    3    0    0  0.51503499730E+01 -0.91106075632E+01 -0.35769253208E+02  0.37268871060E+02  0.00000000000E+00 0.  1.
         22    1    3    3    0    0 -0.89943478381E+02 -0.10408044800E+03  0.70783377783E+02  0.15470247422E+03  0.00000000000E+00 0.  1.
</event>
<event>
 7    1  0.9036454E-005  0.1550127E+03  0.7818608E-02  0.1281611E+00
          2   -1    0    0  502    0  0.00000000000E+00  0.00000000000E+00  0.45581891061E+03  0.45581891061E+03  0.00000000000E+00 0. -1.
          1   -1    0    0  501    0 -0.00000000000E+00 -0.00000000000E+00 -0.53892669528E+03  0.53892669528E+03  0.00000000000E+00 0. -1.
         25    2    1    2    0    0 -0.13926567209E+03  0.11738837670E+03  0.30178287447E+03  0.37399539651E+03  0.12499877951E+03 0.  0.
          2    1    1    2  501    0  0.23160720742E+02 -0.59350953723E+02 -0.46425594487E+03  0.46860701771E+03  0.00000000000E+00 0. -1.
          1    1    1    2  502    0  0.11610495134E+03 -0.58037422973E+02  0.79365285733E+02  0.15214319167E+03  0.00000000000E+00 0. -1.
         22    1    3    3    0    0 -0.13547459775E+03  0.96035039914E+02  0.16012212636E+03  0.23068417995E+03  0.00000000000E+00 0.  1.
         22    1    3    3    0    0 -0.37910743312E+01  0.21353336782E+02  0.14166074811E+03  0.14331121656E+03  0.00000000000E+00 0.  1.
</event>
<event>
 7    1  0.9036454E-005  0.8137122E+02  0.7818608E-02  0.1455304E+00
          2   -1    0    0  502    0  0.00000000000E+00  0.00000000000E+00  0.23999414272E+04  0.23999414272E+04  0.00000000000E+00 0. -1.
          1   -1    0    0  501    0 -0.00000000000E+00 -0.00000000000E+00 -0.76420064918E+03  0.76420064918E+03  0.00000000000E+00 0. -1.
         25    2    1    2    0    0  0.58857204303E+02 -0.29803712501E+02  0.73584669547E+02  0.15934173545E+03  0.12499061279E+03 0.  0.
          2    1    1    2  501    0  0.22005166909E+02  0.18190111582E+02 -0.72030859493E+03  0.72087417727E+03  0.00000000000E+00 0. -1.
          1    1    1    2  502    0 -0.80862371211E+02  0.11613600920E+02  0.22824647034E+04  0.22839261637E+04  0.00000000000E+00 0. -1.
         22    1    3    3    0    0  0.18557142721E+02 -0.68814910425E+02  0.60159349384E+01  0.71526574894E+02  0.00000000000E+00 0. -1.
         22    1    3    3    0    0  0.40300061581E+02  0.39011197924E+02  0.67568734608E+02  0.87815160556E+02  0.00000000000E+00 0. -1.
</event>
<event>
 7    1  0.9036454E-005  0.2386837E+03  0.7818608E-02  0.1281766E+00
          2   -1    0    0  502    0  0.00000000000E+00  0.00000000000E+00  0.28836007865E+04  0.28836007865E+04  0.00000000000E+00 0. -1.
          1   -1    0    0  501    0 -0.00000000000E+00 -0.00000000000E+00 -0.10081327474E+04  0.10081327474E+04  0.00000000000E+00 0. -1.
         25    2    1    2    0    0 -0.27337485118E+03 -0.24399699816E+01  0.18953761292E+03  0.35537273770E+03  0.12500205311E+03 0.  0.
          2    1    1    2  501    0  0.23627098292E+03 -0.15733187315E+02 -0.90989717071E+03  0.94020443087E+03  0.00000000000E+00 0. -1.
          1    1    1    2  502    0  0.37103868261E+02  0.18173157296E+02  0.25958275969E+04  0.25961563654E+04  0.00000000000E+00 0. -1.
         22    1    3    3    0    0 -0.89702181763E+02  0.47794898688E+02  0.27379355573E+02  0.10526377756E+03  0.00000000000E+00 0.  1.
         22    1    3    3    0    0 -0.18367266942E+03 -0.50234868670E+02  0.16215825735E+03  0.25010896015E+03  0.00000000000E+00 0.  1.
</event>
<event>
 7    1  0.9036454E-005  0.3839734E+03  0.7818608E-02  0.1128873E+00
          2   -1    0    0  502    0  0.00000000000E+00  0.00000000000E+00  0.22962672950E+03  0.22962672950E+03  0.00000000000E+00 0. -1.
          1   -1    0    0  501    0 -0.00000000000E+00 -0.00000000000E+00 -0.23665458756E+04  0.23665458756E+04  0.00000000000E+00 0. -1.
         25    2    1    2    0    0  0.23223338821E+03 -0.27199300699E+03 -0.55202846532E+02  0.38286396404E+03  0.12499967296E+03 0.  0.
          2    1    1    2  501    0 -0.13553819280E+03  0.36480259537E+03 -0.20342230850E+04  0.20711144572E+04  0.00000000000E+00 0. -1.
          1    1    1    2  502    0 -0.96695195410E+02 -0.92809588377E+02 -0.47493214667E+02  0.14219418395E+03  0.00000000000E+00 0. -1.
         22    1    3    3    0    0  0.74954178136E+02 -0.18390411405E+03 -0.28100813255E+02  0.20057045568E+03  0.00000000000E+00 0. -1.
         22    1    3    3    0    0  0.15727921008E+03 -0.88088892937E+02 -0.27102033276E+02  0.18229350836E+03  0.00000000000E+00 0. -1.
</event>
<event>
 7    1  0.9036454E-005  0.1706154E+03  0.7818608E-02  0.1390413E+00
          2   -1    0    0  502    0  0.00000000000E+00  0.00000000000E+00  0.13851415808E+03  0.13851415808E+03  0.00000000000E+00 0. -1.
          1   -1    0    0  501    0 -0.00000000000E+00 -0.00000000000E+00 -0.55608937676E+03  0.55608937676E+03  0.00000000000E+00 0. -1.
         25    2    1    2    0    0 -0.15977569346E+03 -0.96319664443E+02 -0.94311909521E+02  0.24356846058E+03  0.12500043492E+03 0.  0.
          2    1    1    2  501    0  0.14774928035E+03  0.77435956828E+02 -0.36631603057E+03  0.40250914463E+03  0.00000000000E+00 0. -1.
          1    1    1    2  502    0  0.12026413111E+02  0.18883707615E+02  0.43052721417E+02  0.48525929636E+02  0.00000000000E+00 0. -1.
         22    1    3    3    0    0 -0.15102449200E+03 -0.85394036420E+02 -0.12230450143E+03  0.21227088757E+03  0.00000000000E+00 0. -1.
         22    1    3    3    0    0 -0.87512014633E+01 -0.10925628023E+02  0.27992591905E+02  0.31297573010E+02  0.00000000000E+00 0. -1.
</event>
<event>
 7    1  0.9036454E-005  0.1636127E+03  0.7818608E-02  0.1265354E+00
          2   -1    0    0  502    0  0.00000000000E+00  0.00000000000E+00  0.24025718214E+03  0.24025718214E+03  0.00000000000E+00 0. -1.
          1   -1    0    0  501    0 -0.00000000000E+00 -0.00000000000E+00 -0.29495802549E+03  0.29495802549E+03  0.00000000000E+00 0. -1.
         25    2    1    2    0    0  0.17741013423E+03  0.18013536916E+02 -0.78747766831E+02  0.23156471788E+03  0.12498865767E+03 0.  0.
          2    1    1    2  501    0 -0.15223957560E+03  0.47919614865E+02 -0.79525896117E+02  0.17831866425E+03  0.00000000000E+00 0. -1.
          1    1    1    2  502    0 -0.25170558627E+02 -0.65933151781E+02  0.10357281959E+03  0.12533182550E+03  0.00000000000E+00 0. -1.
         22    1    3    3    0    0  0.67928672519E+02  0.36509243159E+02  0.23505528183E+02  0.80620960311E+02  0.00000000000E+00 0.  1.
         22    1    3    3    0    0  0.10948146171E+03 -0.18495706243E+02 -0.10225329501E+03  0.15094375757E+03  0.00000000000E+00 0.  1.
</event>
<event>
 7    1  0.9036454E-005  0.1372195E+03  0.7818608E-02  0.1268731E+00
          2   -1    0    0  502    0  0.00000000000E+00  0.00000000000E+00  0.15351587349E+03  0.15351587349E+03  0.00000000000E+00 0. -1.
          1   -1    0    0  501    0 -0.00000000000E+00 -0.00000000000E+00 -0.10876586623E+04  0.10876586623E+04  0.00000000000E+00 0. -1.
         25    2    1    2    0    0 -0.13640972977E+03  0.20073092638E+02 -0.35704378245E+03  0.40263679424E+03  0.12500232824E+03 0.  0.
          2    1    1    2  501    0  0.10602628751E+03 -0.95625658940E+02 -0.68704195568E+03  0.70172109071E+03  0.00000000000E+00 0. -1.
          1    1    1    2  502    0  0.30383442266E+02  0.75552566302E+02  0.10994294932E+03  0.13681665083E+03  0.00000000000E+00 0. -1.
         22    1    3    3    0    0 -0.42844693950E+02 -0.51655937636E+02 -0.15112167884E+03  0.16535345629E+03  0.00000000000E+00 0. -1.
         22    1    3    3    0    0 -0.93565035824E+02  0.71729030274E+02 -0.20592210362E+03  0.23728333795E+03  0.00000000000E+00 0. -1.
</event>
<event>
 7    1  0.9036454E-005  0.9414943E+02  0.7818608E-02  0.1332710E+00
          2   -1    0    0  502    0  0.00000000000E+00  0.00000000000E+00  0.12191061480E+04  0.12191061480E+04  0.00000000000E+00 0. -1.
          1   -1    0    0  501    0 -0.00000000000E+00 -0.00000000000E+00 -0.32224063436E+03  0.32224063436E+03  0.00000000000E+00 0. -1.
         25    2    1    2    0    0 -0.96327151576E+02  0.12534385663E+03  0.68534814512E+02  0.21286642336E+03  0.12500036348E+03 0.  0.
          2    1    1    2  501    0  0.42630961965E+02 -0.50157761188E+02 -0.24372128618E+03  0.25245448157E+03  0.00000000000E+00 0. -1.
          1    1    1    2  502    0  0.53696189612E+02 -0.75186095437E+02  0.10720519853E+04  0.10760258774E+04  0.00000000000E+00 0. -1.
         22    1    3    3    0    0 -0.11318953004E+03  0.13694759007E+03  0.48377331381E+02  0.18413820442E+03  0.00000000000E+00 0. -1.
         22    1    3    3    0    0  0.16862378465E+02 -0.11603733440E+02  0.20157483130E+02  0.28728218939E+02  0.00000000000E+00 0. -1.
</event>
<event>
 7    1  0.9036454E-005  0.2318964E+03  0.7818608E-02  0.1140856E+00
          2   -1    0    0  502    0  0.00000000000E+00  0.00000000000E+00  0.70295131053E+03  0.70295131053E+03  0.00000000000E+00 0. -1.
          1   -1    0    0  501    0 -0.00000000000E+00 -0.00000000000E+00 -0.76581912469E+03  0.76581912469E+03  0.00000000000E+00 0. -1.
         25    2    1    2    0    0  0.91851422884E+02 -0.14391307330E+03  0.52628228853E+03  0.56722901118E+03  0.12501218881E+03 0.  0.
          2    1    1    2  501    0 -0.23609822783E+03  0.17496732378E+02 -0.65679443596E+03  0.69816003892E+03  0.00000000000E+00 0. -1.
          1    1    1    2  502    0  0.14424680495E+03  0.12641634092E+03  0.67644333272E+02  0.20338138512E+03  0.00000000000E+00 0. -1.
         22    1    3    3    0    0 -0.19837405894E+02 -0.27926054228E+02  0.30191876713E+02  0.45661105952E+02  0.00000000000E+00 0.  1.
         22    1    3    3    0    0  0.11168882878E+03 -0.11598701907E+03  0.49609041181E+03  0.52156790523E+03  0.00000000000E+00 0.  1.
</event>
<event>
 7    1  0.9036454E-005  0.5975548E+03  0.7818608E-02  0.1052600E+00
          2   -1    0    0  502    0  0.00000000000E+00  0.00000000000E+00  0.35917987035E+04  0.35917987035E+04  0.00000000000E+00 0. -1.
          1   -1    0    0  501    0 -0.00000000000E+00 -0.00000000000E+00 -0.15013028507E+03  0.15013028507E+03  0.00000000000E+00 0. -1.
         25    2    1    2    0    0  0.20464872644E+03  0.59266713320E+03  0.14760079878E+04  0.16085268000E+04  0.12499381676E+03 0.  0.
          2    1    1    2  501    0  0.18465294488E+03 -0.14695981376E+03  0.61831521822E+03  0.66182143060E+03  0.00000000000E+00 0. -1.
          1    1    1    2  502    0 -0.38930167132E+03 -0.44570731943E+03  0.13473452125E+04  0.14715807580E+04  0.00000000000E+00 0. -1.
         22    1    3    3    0    0 -0.12448983283E+02  0.60770816999E+01  0.30453078759E+02  0.33455912970E+02  0.00000000000E+00 0. -1.
         22    1    3    3    0    0  0.21709770973E+03  0.58659005150E+03  0.14455549090E+04  0.15750708870E+04  0.00000000000E+00 0. -1.
</event>
<event>
 7    1  0.9036454E-005  0.4633853E+02  0.7818608E-02  0.1501754E+00
          2   -1    0    0  502    0  0.00000000000E+00  0.00000000000E+00  0.78260628449E+03  0.78260628449E+03  0.00000000000E+00 0. -1.
          1   -1    0    0  501    0 -0.00000000000E+00 -0.00000000000E+00 -0.79419506928E+03  0.79419506928E+03  0.00000000000E+00 0. -1.
         25    2    1    2    0    0  0.62818759528E+02 -0.48639315208E+02  0.95610146261E+02  0.17629126117E+03  0.12500131665E+03 0.  0.
          2    1    1    2  501    0 -0.21581767649E+02  0.28918817454E+02 -0.75261393688E+03  0.75347847261E+03  0.00000000000E+00 0. -1.
          1    1    1    2  502    0 -0.41236991878E+02  0.19720497754E+02  0.64541500582E+03  0.64703161999E+03  0.00000000000E+00 0. -1.
         22    1    3    3    0    0  0.90908981489E+01 -0.71987632633E+02  0.11012389738E+02  0.73390301872E+02  0.00000000000E+00 0.  1.
         22    1    3    3    0    0  0.53727861379E+02  0.23348317424E+02  0.84597756523E+02  0.10290095929E+03  0.00000000000E+00 0.  1.
</event>
<event>
 7    1  0.9036454E-005  0.1054514E+04  0.7818608E-02  0.9530911E-01
          2   -1    0    0  502    0  0.00000000000E+00  0.00000000000E+00  0.43584476637E+04  0.43584476637E+04  0.00000000000E+00 0. -1.
          1   -1    0    0  501    0 -0.00000000000E+00 -0.00000000000E+00 -0.15824677694E+04  0.15824677694E+04  0.00000000000E+00 0. -1.
         25    2    1    2    0    0  0.12252960342E+04  0.49576109127E+03  0.32288141778E+04  0.34911309612E+04  0.12499984917E+03 0.  0.
          2    1    1    2  501    0 -0.63812593050E+03 -0.15094927150E+02 -0.12161403815E+04  0.13734736938E+04  0.00000000000E+00 0. -1.
          1    1    1    2  502    0 -0.58717010369E+03 -0.48066616412E+03  0.76330609793E+03  0.10763107781E+04  0.00000000000E+00 0. -1.
         22    1    3    3    0    0  0.73970575785E+03  0.31946806863E+03  0.18119110899E+04  0.19829892216E+04  0.00000000000E+00 0. -1.
         22    1    3    3    0    0  0.48559027634E+03  0.17629302264E+03  0.14169030879E+04  0.15081417396E+04  0.00000000000E+00 0. -1.
</event>
<event>
 7    1  0.9036454E-005  0.1680917E+03  0.7818608E-02  0.1195944E+00
          2   -1    0    0  502    0  0.00000000000E+00  0.00000000000E+00  0.46117193546E+03  0.46117193546E+03  0.00000000000E+00 0. -1.
          1   -1    0    0  501    0 -0.00000000000E+00 -0.00000000000E+00 -0.66223468639E+03  0.66223468639E+03  0.00000000000E+00 0. -1.
         25    2    1    2    0    0  0.13391120340E+03  0.15185137044E+02  0.20686683184E+03  0.27673277810E+03  0.12499738228E+03 0.  0.
          2    1    1    2  501    0 -0.11911154354E+03  0.12465846703E+03 -0.59110894366E+03  0.61574107909E+03  0.00000000000E+00 0. -1.
          1    1    1    2  502    0 -0.14799659864E+02 -0.13984360407E+03  0.18317936089E+03  0.23093276465E+03  0.00000000000E+00 0. -1.
         22    1    3    3    0    0 -0.22661368941E+02 -0.70519908359E+00  0.10232090045E+02  0.24874296266E+02  0.00000000000E+00 0.  1.
         22    1    3    3    0    0  0.15657257234E+03  0.15890336128E+02  0.19663474179E+03  0.25185848183E+03  0.00000000000E+00 0.  1.
</event>
<event>
 7    1  0.9036454E-005  0.3112230E+03  0.7818608E-02  0.1153657E+00
          2   -1    0    0  502    0  0.00000000000E+00  0.00000000000E+00  0.57416441449E+03  0.57416441449E+03  0.00000000000E+00 0. -1.
          1   -1    0    0  501    0 -0.00000000000E+00 -0.00000000000E+00 -0.20058088293E+04  0.20058088293E+04  0.00000000000E+00 0. -1.
         25    2    1    2    0    0 -0.34446216485E+03  0.11437302621E+03 -0.15310130081E+04  0.15784046554E+04  0.12500021149E+03 0.  0.
          2    1    1    2  501    0  0.22835783253E+03 -0.74644073961E+02 -0.41131994481E+03  0.47634350468E+03  0.00000000000E+00 0. -1.
          1    1    1    2  502    0  0.11610433232E+03 -0.39728952245E+02  0.51068853812E+03  0.52522508375E+03  0.00000000000E+00 0. -1.
         22    1    3    3    0    0 -0.30041143335E+03  0.68924342141E+02 -0.13911858553E+04  0.14249195339E+04  0.00000000000E+00 0.  1.
         22    1    3    3    0    0 -0.44050731500E+02  0.45448684066E+02 -0.13982715284E+03  0.15348512143E+03  0.00000000000E+00 0.  1.
</event>
<event>
 7    1  0.9036454E-005  0.1580742E+03  0.7818608E-02  0.1388643E+00
          2   -1    0    0  502    0  0.00000000000E+00  0.00000000000E+00  0.72348311283E+03  0.72348311283E+03  0.00000000000E+00 0. -1.
          1   -1    0    0  501    0 -0.00000000000E+00 -0.00000000000E+00 -0.69771124962E+03  0.69771124962E+03  0.00000000000E+00 0. -1.
         25    2    1    2    0    0  0.14951480228E+03 -0.32015123075E+02  0.69380822491E+03  0.72137010396E+03  0.12500131890E+03 0.  0.
          2    1    1    2  501    0 -0.15791174224E+03  0.89877893565E+01 -0.65108914190E+03  0.67002534981E+03  0.00000000000E+00 0. -1.
          1    1    1    2  502    0  0.83969399582E+01  0.23027333718E+02 -0.16947219809E+02  0.29798908673E+02  0.00000000000E+00 0. -1.
         22    1    3    3    0    0  0.14844884195E+03 -0.10667284677E+02  0.40009859666E+03  0.42688375079E+03  0.00000000000E+00 0. -1.
         22    1    3    3    0    0  0.10659603283E+01 -0.21347838398E+02  0.29370962825E+03  0.29448635317E+03  0.00000000000E+00 0. -1.
</event>
<event>
 7    1  0.9036454E-005  0.3784313E+03  0.7818608E-02  0.1104958E+00
          2   -1    0    0  502    0  0.00000000000E+00  0.00000000000E+00  0.90930510250E+03  0.90930510250E+03  0.00000000000E+00 0. -1.
          1   -1    0    0  501    0 -0.00000000000E+00 -0.00000000000E+00 -0.29219505977E+03  0.29219505977E+03  0.00000000000E+00 0. -1.
         25    2    1    2    0    0 -0.25452490977E+03  0.33907904179E+03  0.68711953241E+02  0.44732929159E+03  0.12499854526E+03 0.  0.
          2    1    1    2  501    0  0.75353664957E+02 -0.29849423009E+03  0.45150694501E+03  0.54647552700E+03  0.00000000000E+00 0. -1.
          1    1    1    2  502    0  0.17917124481E+03 -0.40584811702E+02  0.96891144481E+02  0.20769534368E+03  0.00000000000E+00 0. -1.
         22    1    3    3    0    0 -0.22215994177E+03  0.30039537316E+03  0.10151121998E+03  0.38716527185E+03  0.00000000000E+00 0.  1.
         22    1    3    3    0    0 -0.32364967998E+02  0.38683668635E+02 -0.32799266739E+02  0.60164019740E+02  0.00000000000E+00 0.  1.
</event>
<event>
 7    1  0.9036454E-005  0.2040466E+03  0.7818608E-02  0.1190724E+00
          2   -1    0    0  502    0  0.00000000000E+00  0.00000000000E+00  0.45352803194E+03  0.45352803194E+03  0.00000000000E+00 0. -1.
          1   -1    0    0  501    0 -0.00000000000E+00 -0.00000000000E+00 -0.21886294741E+03  0.21886294741E+03  0.00000000000E+00 0. -1.
         25    2    1    2    0    0 -0.17526070253E+03 -0.18158473047E+03 -0.46750311049E+02  0.28547302637E+03  0.12497971439E+03 0.  0.
          2    1    1    2  501    0  0.66253869813E+02  0.12529740698E+03  0.13304515597E+03  0.19439657658E+03  0.00000000000E+00 0. -1.
          1    1    1    2  502    0  0.10900683272E+03  0.56287323490E+02  0.14837023961E+03  0.19252137639E+03  0.00000000000E+00 0. -1.
         22    1    3    3    0    0 -0.15597539155E+03 -0.15662307691E+03  0.92121126425E+01  0.22123285021E+03  0.00000000000E+00 0.  1.
         22    1    3    3    0    0 -0.19285310977E+02 -0.24961653557E+02 -0.55962423692E+02  0.64240176162E+02  0.00000000000E+00 0.  1.
</event>
<event>
 7    1  0.9036454E-005  0.1551234E+03  0.7818608E-02  0.1313418E+00
          2   -1    0    0  502    0  0.00000000000E+00  0.00000000000E+00  0.39352654665E+03  0.39352654665E+03  0.00000000000E+00 0. -1.
          1   -1    0    0  501    0 -0.00000000000E+00 -0.00000000000E+00 -0.19397474807E+03  0.19397474807E+03  0.00000000000E+00 0. -1.
         25    2    1    2    0    0  0.15671470898E+03 -0.87874067212E+02 -0.43734770779E+02  0.22320131937E+03  0.12499898836E+03 0.  0.
          2    1    1    2  501    0 -0.10439101827E+02  0.46266178976E+02 -0.26700032217E+02  0.54428171790E+02  0.00000000000E+00 0. -1.
          1    1    1    2  502    0 -0.14627560716E+03  0.41607888236E+02  0.26998660157E+03  0.30987180356E+03  0.00000000000E+00 0. -1.
         22    1    3    3    0    0  0.50033641792E+02 -0.89262098340E+02 -0.54557274496E+02  0.11596371722E+03  0.00000000000E+00 0. -1.
         22    1    3    3    0    0  0.10668106719E+03  0.13880311279E+01  0.10822503717E+02  0.10723760215E+03  0.00000000000E+00 0. -1.
</event>
<event>
 7    1  0.9036454E-005  0.2333081E+03  0.7818608E-02  0.1134955E+00
          2   -1    0    0  502    0  0.00000000000E+00  0.00000000000E+00  0.14565261884E+04  0.14565261884E+04  0.00000000000E+00 0. -1.
          1   -1    0    0  501    0 -0.00000000000E+00 -0.00000000000E+00 -0.49885132940E+03  0.49885132940E+03  0.00000000000E+00 0. -1.
         25    2    1    2    0    0 -0.15503518117E+03  0.10784172448E+03  0.60512801318E+02  0.23441540849E+03  0.12499215846E+03 0.  0.
          2    1    1    2  501    0  0.14808440508E+03  0.14141212990E+03 -0.37356504002E+03  0.42600143267E+03  0.00000000000E+00 0. -1.
          1    1    1    2  502    0  0.69507760838E+01 -0.24925385439E+03  0.12707270977E+04  0.12949606767E+04  0.00000000000E+00 0. -1.
         22    1    3    3    0    0 -0.93532431869E+01 -0.35028389506E+01 -0.28783948192E+02  0.30467502562E+02  0.00000000000E+00 0. -1.
         22    1    3    3    0    0 -0.14568193798E+03  0.11134456343E+03  0.89296749511E+02  0.20394790593E+03  0.00000000000E+00 0. -1.
</event>
<event>
 7    1  0.9036454E-005  0.4714595E+03  0.7818608E-02  0.1084708E+00
          2   -1    0    0  502    0  0.00000000000E+00  0.00000000000E+00  0.20515297733E+04  0.20515297733E+04  0.00000000000E+00 0. -1.
          1   -1    0    0  501    0 -0.00000000000E+00 -0.00000000000E+00 -0.32189191644E+03  0.32189191644E+03  0.00000000000E+00 0. -1.
         25    2    1    2    0    0  0.45733530838E+03 -0.41433949455E+03  0.64040814375E+03  0.89809802139E+03  0.12499865765E+03 0.  0.
          2    1    1    2  501    0 -0.31035716946E+03  0.29040140505E+03  0.61137469031E+02  0.42940929055E+03  0.00000000000E+00 0. -1.
          1    1    1    2  502    0 -0.14697813892E+03  0.12393808950E+03  0.10280922441E+04  0.10459143778E+04  0.00000000000E+00 0. -1.
         22    1    3    3    0    0  0.31449841061E+03 -0.28039675761E+03  0.34952951526E+03  0.54745088729E+03  0.00000000000E+00 0. -1.
         22    1    3    3    0    0  0.14283689777E+03 -0.13394273694E+03  0.29087862849E+03  0.35064713410E+03  0.00000000000E+00 0. -1.
</event>
<event>
 7    1  0.9036454E-005  0.1747085E+03  0.7818608E-02  0.1194489E+00
          2   -1    0    0  502    0  0.00000000000E+00  0.00000000000E+00  0.86125890833E+03  0.86125890833E+03  0.00000000000E+00 0. -1.
          1   -1    0    0  501    0 -0.00000000000E+00 -0.00000000000E+00 -0.53060398331E+03  0.53060398331E+03  0.00000000000E+00 0. -1.
         25    2    1    2    0    0  0.63857231151E+02  0.13409944594E+03 -0.14627998305E+03  0.24307011794E+03  0.12499936569E+03 0.  0.
          2    1    1    2  501    0 -0.19213348206E+03 -0.84666524156E+02 -0.29645735156E+03  0.36327765764E+03  0.00000000000E+00 0. -1.
          1    1    1    2  502    0  0.12827625091E+03 -0.49432921782E+02  0.77339225964E+03  0.78551511607E+03  0.00000000000E+00 0. -1.
         22    1    3    3    0    0 -0.24256318806E+02  0.87829029537E+02 -0.92937636950E+02  0.13015264805E+03  0.00000000000E+00 0.  1.
         22    1    3    3    0    0  0.88113549957E+02  0.46270416401E+02 -0.53342346096E+02  0.11291746989E+03  0.00000000000E+00 0.  1.
</event>
<event>
 7    1  0.9036454E-005  0.6067579E+03  0.7818608E-02  0.1225744E+00
          2   -1    0    0  502    0  0.00000000000E+00  0.00000000000E+00  0.23458305095E+04  0.23458305095E+04  0.00000000000E+00 0. -1.
          1   -1    0    0  501    0 -0.00000000000E+00 -0.00000000000E+00 -0.10506546187E+04  0.10506546187E+04  0.00000000000E+00 0. -1.
         25    2    1    2    0    0  0.55784059704E+03  0.28601152021E+03 -0.10791343685E+02  0.63931194865E+03  0.12495836583E+03 0.  0.
          2    1    1    2  501    0 -0.53100877770E+03 -0.27685095381E+03 -0.60192151167E+03  0.84907377702E+03  0.00000000000E+00 0. -1.
          1    1    1    2  502    0 -0.26831819342E+02 -0.91605664011E+01  0.19078887461E+04  0.19080994025E+04  0.00000000000E+00 0. -1.
         22    1    3    3    0    0  0.38730701505E+03  0.24466702785E+03  0.30217805733E+02  0.45910978449E+03  0.00000000000E+00 0.  1.
         22    1    3    3    0    0  0.17053358199E+03  0.41344492354E+02 -0.41009149418E+02  0.18020216417E+03  0.00000000000E+00 0.  1.
</event>
<event>
 7    1  0.9036454E-005  0.9706187E+03  0.7818608E-02  0.1029314E+00
          2   -1    0    0  502    0  0.00000000000E+00  0.00000000000E+00  0.35940961086E+04  0.35940961086E+04  0.00000000000E+00 0. -1.
          1   -1    0    0  501    0 -0.00000000000E+00 -0.00000000000E+00 -0.71829118214E+03  0.71829118214E+03  0.00000000000E+00 0. -1.
         25    2    1    2    0    0 -0.46670596118E+03  0.84740544549E+03  0.25197493924E+04  0.27019753482E+04  0.12499335540E+03 0.  0.
          2    1    1    2  501    0 -0.18161518408E+03 -0.92347374610E+02 -0.33970141111E+03  0.39611761056E+03  0.00000000000E+00 0. -1.
          1    1    1    2  502    0  0.64832114526E+03 -0.75505807088E+03  0.69575694519E+03  0.12142943319E+04  0.00000000000E+00 0. -1.
         22    1    3    3    0    0 -0.31823256398E+03  0.62846343424E+03  0.19630901951E+04  0.20856560999E+04  0.00000000000E+00 0.  1.
         22    1    3    3    0    0 -0.14847339720E+03  0.21894201125E+03  0.55665919725E+03  0.61631924832E+03  0.00000000000E+00 0.  1.
</event>
<event>
 7    1  0.9036454E-005  0.2812239E+03  0.7818608E-02  0.1127941E+00
          2   -1    0    0  502    0  0.00000000000E+00  0.00000000000E+00  0.54532313476E+03  0.54532313476E+03  0.00000000000E+00 0. -1.
          1   -1    0    0  501    0 -0.00000000000E+00 -0.00000000000E+00 -0.42413540491E+03  0.42413540491E+03  0.00000000000E+00 0. -1.
         25    2    1    2    0    0  0.15490005209E+03 -0.32555791327E+03  0.28824540051E+03  0.47821962359E+03  0.12500646558E+03 0.  0.
          2    1    1    2  501    0 -0.22088636363E+03  0.15260737580E+03 -0.52542652048E+02  0.27356996742E+03  0.00000000000E+00 0. -1.
          1    1    1    2  502    0  0.65986311543E+02  0.17295053747E+03 -0.11451501862E+03  0.21766894866E+03  0.00000000000E+00 0. -1.
         22    1    3    3    0    0 -0.41539776648E+01 -0.12385904540E+03  0.79590061296E+02  0.14728508585E+03  0.00000000000E+00 0. -1.
         22    1    3    3    0    0  0.15905402975E+03 -0.20169886788E+03  0.20865533922E+03  0.33093453774E+03  0.00000000000E+00 0. -1.
</event>
<event>
 7    1  0.9036454E-005  0.1762669E+03  0.7818608E-02  0.1331094E+00
          2   -1    0    0  502    0  0.00000000000E+00  0.00000000000E+00  0.11198168433E+04  0.11198168433E+04  0.00000000000E+00 0. -1.
          1   -1    0    0  501    0 -0.00000000000E+00 -0.00000000000E+00 -0.77271346407E+03  0.77271346407E+03  0.00000000000E+00 0. -1.
         25    2    1    2    0    0  0.19645091809E+03 -0.40618041344E+02 -0.93675508076E+02  0.25425163263E+03  0.12500401346E+03 0.  0.
          2    1    1    2  501    0 -0.21572013988E+02  0.28397745419E+02 -0.59081757193E+03  0.59189288477E+03  0.00000000000E+00 0. -1.
          1    1    1    2  502    0 -0.17487890410E+03  0.12220295925E+02  0.10315964592E+04  0.10463857899E+04  0.00000000000E+00 0. -1.
         22    1    3    3    0    0  0.16813385001E+03  0.17015339647E+02 -0.48754984862E+02  0.17588508138E+03  0.00000000000E+00 0. -1.
         22    1    3    3    0    0  0.28317068073E+02 -0.57633380991E+02 -0.44920523214E+02  0.78366551248E+02  0.00000000000E+00 0. -1.
</event>
<event>
 7    1  0.9036454E-005  0.6276523E+03  0.7818608E-02  0.9958955E-01
          2   -1    0    0  502    0  0.00000000000E+00  0.00000000000E+00  0.19318508165E+04  0.19318508165E+04  0.00000000000E+00 0. -1.
          1   -1    0    0  501    0 -0.00000000000E+00 -0.00000000000E+00 -0.11772613247E+04  0.11772613247E+04  0.00000000000E+00 0. -1.
         25    2    1    2    0    0 -0.25806090572E+03  0.41666473855E+03  0.48993132379E+02  0.50816376454E+03  0.12500059663E+03 0.  0.
          2    1    1    2  501    0  0.63280978679E+03  0.86833649566E+02 -0.76820470361E+03  0.99906294877E+03  0.00000000000E+00 0. -1.
          1    1    1    2  502    0 -0.37474888107E+03 -0.50349838812E+03  0.14738010630E+04  0.16018854279E+04  0.00000000000E+00 0. -1.
         22    1    3    3    0    0 -0.21666786829E+03  0.27698219625E+03 -0.79374830774E+01  0.35174864012E+03  0.00000000000E+00 0. -1.
         22    1    3    3    0    0 -0.41393037435E+02  0.13968254230E+03  0.56930615456E+02  0.15641512442E+03  0.00000000000E+00 0. -1.
</event>
<event>
 7    1  0.9036454E-005  0.7035364E+03  0.7818608E-02  0.1071234E+00
          2   -1    0    0  502    0  0.00000000000E+00  0.00000000000E+00  0.73703370058E+03  0.73703370058E+03  0.00000000000E+00 0. -1.
          1   -1    0    0  501    0 -0.00000000000E+00 -0.00000000000E+00 -0.95317275695E+03  0.95317275695E+03  0.00000000000E+00 0. -1.
         25    2    1    2    0    0  0.72300457401E+03  0.22170394763E+03 -0.42441323030E+03  0.87615066452E+03  0.12500056977E+03 0.  0.
          2    1    1    2  501    0 -0.60878736195E+03 -0.11753785596E+03  0.10685019617E+03  0.62916942399E+03  0.00000000000E+00 0. -1.
          1    1    1    2  502    0 -0.11421721206E+03 -0.10416609168E+03  0.10142397777E+03  0.18488636903E+03  0.00000000000E+00 0. -1.
         22    1    3    3    0    0  0.20497746959E+02 -0.14149864284E+02 -0.81944412418E+01  0.26220700923E+02  0.00000000000E+00 0.  1.
         22    1    3    3    0    0  0.70250682706E+03  0.23585381192E+03 -0.41621878906E+03  0.84992996360E+03  0.00000000000E+00 0.  1.
</event>
<event>
 7    1  0.9036454E-005  0.4404020E+03  0.7818608E-02  0.1087174E+00
          2   -1    0    0  502    0  0.00000000000E+00  0.00000000000E+00  0.49307335707E+03  0.49307335707E+03  0.00000000000E+00 0. -1.
          1   -1    0    0  501    0 -0.00000000000E+00 -0.00000000000E+00 -0.94243427610E+03  0.94243427610E+03  0.00000000000E+00 0. -1.
         25    2    1    2    0    0  0.46223798088E+03  0.33183401054E+03 -0.20777781110E+03  0.61852610994E+03  0.12500067346E+03 0.  0.
          2    1    1    2  501    0 -0.35792980803E+03 -0.16216582400E+03 -0.40132351263E+03  0.56166899838E+03  0.00000000000E+00 0. -1.
          1    1    1    2  502    0 -0.10430817285E+03 -0.16966818654E+03  0.15974040471E+03  0.25531252485E+03  0.00000000000E+00 0. -1.
         22    1    3    3    0    0  0.41696387016E+03  0.26503866398E+03 -0.21220207013E+03  0.53771189404E+03  0.00000000000E+00 0.  1.
         22    1    3    3    0    0  0.45274110725E+02  0.66795346559E+02  0.44242590215E+01  0.80814215901E+02  0.00000000000E+00 0.  1.
</event>
<event>
 7    1  0.9036454E-005  0.1703025E+03  0.7818608E-02  0.1306151E+00
          2   -1    0    0  502    0  0.00000000000E+00  0.00000000000E+00  0.52799846585E+03  0.52799846585E+03  0.00000000000E+00 0. -1.
          1   -1    0    0  501    0 -0.00000000000E+00 -0.00000000000E+00 -0.52915439791E+03  0.52915439791E+03  0.00000000000E+00 0. -1.
         25    2    1    2    0    0 -0.14661076925E+03  0.58700168854E+02 -0.42716033451E+03  0.47226374602E+03  0.12500666761E+03 0.  0.
          2    1    1    2  501    0  0.10699324130E+02  0.44890269739E+02 -0.56538190751E+02  0.72980674617E+02  0.00000000000E+00 0. -1.
          1    1    1    2  502    0  0.13591144512E+03 -0.10359043859E+03  0.48254259320E+03  0.51190844312E+03  0.00000000000E+00 0. -1.
         22    1    3    3    0    0 -0.13355635151E+03  0.68740488316E+02 -0.23181805901E+03  0.27622846748E+03  0.00000000000E+00 0.  1.
         22    1    3    3    0    0 -0.13054417738E+02 -0.10040319462E+02 -0.19534227549E+03  0.19603527854E+03  0.00000000000E+00 0.  1.
</event>
<event>
 7    1  0.9036454E-005  0.1572374E+03  0.7818608E-02  0.1271034E+00
          2   -1    0    0  502    0  0.00000000000E+00  0.00000000000E+00  0.69917951415E+03  0.69917951415E+03  0.00000000000E+00 0. -1.
          1   -1    0    0  501    0 -0.00000000000E+00 -0.00000000000E+00 -0.29243622056E+03  0.29243622056E+03  0.00000000000E+00 0. -1.
         25    2    1    2    0    0 -0.61713347531E+02 -0.10517938402E+03  0.13508938074E+03  0.22078467464E+03  0.12500196671E+03 0.  0.
          2    1    1    2  501    0  0.13090648687E+03  0.98651086144E+02 -0.21996540476E+03  0.27432339381E+03  0.00000000000E+00 0. -1.
          1    1    1    2  502    0 -0.69193139340E+02  0.65282978730E+01  0.49161931761E+03  0.49650766626E+03  0.00000000000E+00 0. -1.
         22    1    3    3    0    0 -0.67899209713E+02 -0.37486628916E+02  0.97114563077E+01  0.78165608875E+02  0.00000000000E+00 0.  1.
         22    1    3    3    0    0  0.61858621825E+01 -0.67692755101E+02  0.12537792443E+03  0.14261906577E+03  0.00000000000E+00 0.  1.
</event>
<event>
 7    1  0.9036454E-005  0.4323674E+03  0.7818608E-02  0.1082369E+00
          2   -1    0    0  502    0  0.00000000000E+00  0.00000000000E+00  0.43104714602E+03  0.43104714602E+03  0.00000000000E+00 0. -1.
          1   -1    0    0  501    0 -0.00000000000E+00 -0.00000000000E+00 -0.12761077375E+04  0.12761077375E+04  0.00000000000E+00 0. -1.
         25    2    1    2    0    0  0.50453578066E+03 -0.25227660500E+03 -0.58982950387E+02  0.58077930941E+03  0.12500311360E+03 0.  0.
          2    1    1    2  501    0 -0.17861099727E+03  0.12200750907E+03 -0.74168760386E+03  0.77258541426E+03  0.00000000000E+00 0. -1.
          1    1    1    2  502    0 -0.32592478339E+03  0.13026909592E+03 -0.44390037197E+02  0.35379015981E+03  0.00000000000E+00 0. -1.
         22    1    3    3    0    0  0.40467441981E+03 -0.16363562559E+03 -0.85092861943E+02  0.44472328381E+03  0.00000000000E+00 0. -1.
         22    1    3    3    0    0  0.99861360854E+02 -0.88640979401E+02  0.26109911556E+02  0.13605602560E+03  0.00000000000E+00 0. -1.
</event>
<event>
 7    1  0.9036454E-005  0.2086505E+03  0.7818608E-02  0.1229259E+00
          2   -1    0    0  502    0  0.00000000000E+00  0.00000000000E+00  0.16742569781E+04  0.16742569781E+04  0.00000000000E+00 0. -1.
          1   -1    0    0  501    0 -0.00000000000E+00 -0.00000000000E+00 -0.35059772404E+03  0.35059772404E+03  0.00000000000E+00 0. -1.
         25    2    1    2    0    0  0.16147553278E+03 -0.97773644953E+02  0.10855495572E+04  0.11089080805E+04  0.12500102543E+03 0.  0.
          2    1    1    2  501    0 -0.20709052487E+03  0.32664068597E+02 -0.30331389366E+03  0.36871770361E+03  0.00000000000E+00 0. -1.
          1    1    1    2  502    0  0.45614992092E+02  0.65109576355E+02  0.54142359053E+03  0.54722891811E+03  0.00000000000E+00 0. -1.
         22    1    3    3    0    0 -0.99944905239E+01 -0.11228127885E+02  0.14897135614E+02  0.21163301872E+02  0.00000000000E+00 0. -1.
         22    1    3    3    0    0  0.17147002330E+03 -0.86545517068E+02  0.10706524216E+04  0.10877447786E+04  0.00000000000E+00 0. -1.
</event>
<event>
 7    1  0.9036454E-005  0.1438289E+03  0.7818608E-02  0.1295885E+00
          2   -1    0    0  502    0  0.00000000000E+00  0.00000000000E+00  0.12522909298E+04  0.12522909298E+04  0.00000000000E+00 0. -1.
          1   -1    0    0  501    0 -0.00000000000E+00 -0.00000000000E+00 -0.37090685669E+02  0.37090685669E+02  0.00000000000E+00 0. -1.
         25    2    1    2    0    0  0.50016559506E+01 -0.18781146494E+03  0.50071989823E+03  0.54922180884E+03  0.12500406352E+03 0.  0.
          2    1    1    2  501    0 -0.15342498562E+02  0.58063213233E+02  0.16861475057E+03  0.17899067882E+03  0.00000000000E+00 0. -1.
          1    1    1    2  502    0  0.10340842612E+02  0.12974825171E+03  0.54586559537E+03  0.56116912786E+03  0.00000000000E+00 0. -1.
         22    1    3    3    0    0 -0.42600255007E+02 -0.45057341982E+02  0.24298909628E+03  0.25077608878E+03  0.00000000000E+00 0.  1.
         22    1    3    3    0    0  0.47601910958E+02 -0.14275412296E+03  0.25773080196E+03  0.29844572006E+03  0.00000000000E+00 0.  1.
</event>
<event>
 7    1  0.9036454E-005  0.3494152E+03  0.7818608E-02  0.1249112E+00
          2   -1    0    0  502    0  0.00000000000E+00  0.00000000000E+00  0.22254073536E+04  0.22254073536E+04  0.00000000000E+00 0. -1.
          1   -1    0    0  501    0 -0.00000000000E+00 -0.00000000000E+00 -0.64704437866E+03  0.64704437866E+03  0.00000000000E+00 0. -1.
         25    2    1    2    0    0 -0.24041483034E+03 -0.22395492554E+03 -0.36473513396E+03  0.50656854841E+03  0.12499950791E+03 0.  0.
          2    1    1    2  501    0  0.80266121008E+01 -0.37954127210E+02 -0.19524541559E+03  0.19906208726E+03  0.00000000000E+00 0. -1.
          1    1    1    2  502    0  0.23238821824E+03  0.26190905275E+03  0.21383435244E+04  0.21668210965E+04  0.00000000000E+00 0. -1.
         22    1    3    3    0    0 -0.77307432882E+02 -0.54169846631E+01 -0.99914928090E+02  0.12644673091E+03  0.00000000000E+00 0.  1.
         22    1    3    3    0    0 -0.16310739746E+03 -0.21853794088E+03 -0.26482020587E+03  0.38012181751E+03  0.00000000000E+00 0.  1.
</event>
<event>
 7    1  0.9036454E-005  0.2919113E+03  0.7818608E-02  0.1259079E+00
          2   -1    0    0  502    0  0.00000000000E+00  0.00000000000E+00  0.12018114069E+03  0.12018114069E+03  0.00000000000E+00 0. -1.
          1   -1    0    0  501    0 -0.00000000000E+00 -0.00000000000E+00 -0.32906507909E+04  0.32906507909E+04  0.00000000000E+00 0. -1.
         25    2    1    2    0    0 -0.25513360692E+03  0.14939707152E+03 -0.10670782023E+04  0.11143130026E+04  0.12499974206E+03 0.  0.
          2    1    1    2  501    0 -0.14952948131E+02 -0.39315582020E+02 -0.19789914687E+04  0.19794384402E+04  0.00000000000E+00 0. -1.
          1    1    1    2  502    0  0.27008655505E+03 -0.11008148950E+03 -0.12439997930E+03  0.31708048883E+03  0.00000000000E+00 0. -1.
         22    1    3    3    0    0 -0.14082791412E+03  0.16069449164E+02 -0.56099864635E+03  0.57862786815E+03  0.00000000000E+00 0.  1.
         22    1    3    3    0    0 -0.11430569280E+03  0.13332762236E+03 -0.50607955594E+03  0.53568513441E+03  0.00000000000E+00 0.  1.
</event>
<event>
 7    1  0.9036454E-005  0.1744489E+03  0.7818608E-02  0.1223640E+00
          2   -1    0    0  502    0  0.00000000000E+00  0.00000000000E+00  0.21077044549E+03  0.21077044549E+03  0.00000000000E+00 0. -1.
          1   -1    0    0  501    0 -0.00000000000E+00 -0.00000000000E+00 -0.17720649761E+04  0.17720649761E+04  0.00000000000E+00 0. -1.
         25    2    1    2    0    0  0.20927323864E+03  0.17247597365E+03 -0.14183054679E+02  0.29894890882E+03  0.12500416451E+03 0.  0.
          2    1    1    2  501    0 -0.13876768052E+03 -0.10043880490E+03 -0.15709868733E+04  0.15802987625E+04  0.00000000000E+00 0. -1.
          1    1    1    2  502    0 -0.70505558124E+02 -0.72037168746E+02  0.23875397367E+02  0.10358775027E+03  0.00000000000E+00 0. -1.
         22    1    3    3    0    0  0.11253343422E+03  0.10174454779E+03 -0.69604383983E+02  0.16691464013E+03  0.00000000000E+00 0.  1.
         22    1    3    3    0    0  0.96739804423E+02  0.70731425863E+02  0.55421329304E+02  0.13203426868E+03  0.00000000000E+00 0.  1.
</event>
<event>
 7    1  0.9036454E-005  0.5634568E+03  0.7818608E-02  0.1202157E+00
          2   -1    0    0  502    0  0.00000000000E+00  0.00000000000E+00  0.16849885241E+04  0.16849885241E+04  0.00000000000E+00 0. -1.
          1   -1    0    0  501    0 -0.00000000000E+00 -0.00000000000E+00 -0.10683216735E+04  0.10683216735E+04  0.00000000000E+00 0. -1.
         25    2    1    2    0    0 -0.46506298901E+03 -0.37655570314E+03  0.15339937895E+04  0.16513144492E+04  0.12499873044E+03 0.  0.
          2    1    1    2  501    0  0.44482455227E+03  0.34297222662E+03 -0.89560851894E+03  0.10571723841E+04  0.00000000000E+00 0. -1.
          1    1    1    2  502    0  0.20238436740E+02  0.33583476521E+02 -0.21718419961E+02  0.44823364248E+02  0.00000000000E+00 0. -1.
         22    1    3    3    0    0 -0.21022039911E+03 -0.14527208629E+03  0.81654807437E+03  0.85559765837E+03  0.00000000000E+00 0.  1.
         22    1    3    3    0    0 -0.25484258990E+03 -0.23128361685E+03  0.71744571512E+03  0.79571679082E+03  0.00000000000E+00 0.  1.
</event>
<event>
 7    1  0.9036454E-005  0.5845923E+03  0.7818608E-02  0.1132588E+00
          2   -1    0    0  502    0  0.00000000000E+00  0.00000000000E+00  0.16200639710E+04  0.16200639710E+04  0.00000000000E+00 0. -1.
          1   -1    0    0  501    0 -0.00000000000E+00 -0.00000000000E+00 -0.57078078624E+03  0.57078078624E+03  0.00000000000E+00 0. -1.
         25    2    1    2    0    0 -0.17520659082E+03 -0.50380727099E+03  0.33110903894E+03  0.64013780296E+03  0.12499638135E+03 0.  0.
          2    1    1    2  501    0  0.36945786126E+01 -0.84031325982E+02 -0.32793700933E+03  0.33855220535E+03  0.00000000000E+00 0. -1.
          1    1    1    2  502    0  0.17151201220E+03  0.58783859697E+03  0.10461111551E+04  0.12121547489E+04  0.00000000000E+00 0. -1.
         22    1    3    3    0    0 -0.11296428661E+03 -0.24280407932E+03  0.23129057895E+03  0.35385036795E+03  0.00000000000E+00 0. -1.
         22    1    3    3    0    0 -0.62242304207E+02 -0.26100319167E+03  0.99818459982E+02  0.28628743501E+03  0.00000000000E+00 0. -1.
</event>
<event>
 7    1  0.9036454E-005  0.4129909E+03  0.7818608E-02  0.1108169E+00
          2   -1    0    0  502    0  0.00000000000E+00  0.00000000000E+00  0.87344478853E+03  0.87344478853E+03  0.00000000000E+00 0. -1.
          1   -1    0    0  501    0 -0.00000000000E+00 -0.00000000000E+00 -0.86084813600E+03  0.86084813600E+03  0.00000000000E+00 0. -1.
         25    2    1    2    0    0 -0.28889363022E+03  0.15607947122E+03 -0.36723208739E+03  0.50823718047E+03  0.12500117874E+03 0.  0.
          2    1    1    2  501    0 -0.13278257890E+03 -0.92018124628E+02 -0.34731777700E+03  0.38305115421E+03  0.00000000000E+00 0. -1.
          1    1    1    2  502    0  0.42167620912E+03 -0.64061346589E+02  0.72714651692E+03  0.84300458986E+03  0.00000000000E+00 0. -1.
         22    1    3    3    0    0 -0.55963889158E+02  0.59421006150E+02 -0.29621213979E+02  0.86834493026E+02  0.00000000000E+00 0.  1.
         22    1    3    3    0    0 -0.23292974106E+03  0.96658465068E+02 -0.33761087341E+03  0.42140268744E+03  0.00000000000E+00 0.  1.
</event>
<event>
 7    1  0.9036454E-005  0.8058502E+02  0.7818608E-02  0.1375134E+00
          2   -1    0    0  502    0  0.00000000000E+00  0.00000000000E+00  0.13692239829E+04  0.13692239829E+04  0.00000000000E+00 0. -1.
          1   -1    0    0  501    0 -0.00000000000E+00 -0.00000000000E+00 -0.68964811052E+02  0.68964811052E+02  0.00000000000E+00 0. -1.
         25    2    1    2    0    0  0.24778422666E+02  0.77577710090E+02  0.70544735217E+03  0.72105013147E+03  0.12500021634E+03 0.  0.
          2    1    1    2  501    0 -0.53615426752E+02  0.22533742210E+01 -0.46030223133E+02  0.70699880642E+02  0.00000000000E+00 0. -1.
          1    1    1    2  502    0  0.28837004086E+02 -0.79831084311E+02  0.64084204281E+03  0.64643878183E+03  0.00000000000E+00 0. -1.
         22    1    3    3    0    0 -0.14228162162E+02 -0.27730493939E+02  0.85278135538E+02  0.90795271317E+02  0.00000000000E+00 0.  1.
         22    1    3    3    0    0  0.39006584828E+02  0.10530820403E+03  0.62016921663E+03  0.63025486016E+03  0.00000000000E+00 0.  1.
</event>
<event>
 7    1  0.9036454E-005  0.1755654E+03  0.7818608E-02  0.1284089E+00
          2   -1    0    0  502    0  0.00000000000E+00  0.00000000000E+00  0.44972593572E+03  0.44972593572E+03  0.00000000000E+00 0. -1.
          1   -1    0    0  501    0 -0.00000000000E+00 -0.00000000000E+00 -0.23728260967E+03  0.23728260967E+03  0.00000000000E+00 0. -1.
         25    2    1    2    0    0 -0.16347970067E+03  0.18695340881E+02  0.28522502695E+03  0.35221179520E+03  0.12499881749E+03 0.  0.
          2    1    1    2  501    0 -0.42102580085E+02 -0.35305756949E+02 -0.11208918911E+03  0.12483232770E+03  0.00000000000E+00 0. -1.
          1    1    1    2  502    0  0.20558228076E+03  0.16610416068E+02  0.39307488214E+02  0.20996442249E+03  0.00000000000E+00 0. -1.
         22    1    3    3    0    0  0.56032663310E+01  0.32605626524E+02  0.24576991805E+02  0.41213492946E+02  0.00000000000E+00 0.  1.
         22    1    3    3    0    0 -0.16908296700E+03 -0.13910285643E+02  0.26064803514E+03  0.31099830225E+03  0.00000000000E+00 0.  1.
</event>
<event>
 7    1  0.9036454E-005  0.2228637E+03  0.7818608E-02  0.1150095E+00
          2   -1    0    0  502    0  0.00000000000E+00  0.00000000000E+00  0.10253716995E+04  0.10253716995E+04  0.00000000000E+00 0. -1.
          1   -1    0    0  501    0 -0.00000000000E+00 -0.00000000000E+00 -0.12558884132E+04  0.12558884132E+04  0.00000000000E+00 0. -1.
         25    2    1    2    0    0  0.21535042979E+03  0.39327094355E+02  0.49909951546E+02  0.25698025582E+03  0.12500168261E+03 0.  0.
          2    1    1    2  501    0 -0.88155964091E+02  0.15547239240E+03 -0.11296829730E+04  0.11437336920E+04  0.00000000000E+00 0. -1.
          1    1    1    2  502    0 -0.12719446570E+03 -0.19479948675E+03  0.84925630774E+03  0.88054616482E+03  0.00000000000E+00 0. -1.
         22    1    3    3    0    0  0.13556841948E+03 -0.34313406233E+02  0.63275409436E+01  0.13998658501E+03  0.00000000000E+00 0. -1.
         22    1    3    3    0    0  0.79782010307E+02  0.73640500588E+02  0.43582410602E+02  0.11699367081E+03  0.00000000000E+00 0. -1.
</event>
<event>
 7    1  0.9036454E-005  0.1721609E+03  0.7818608E-02  0.1183301E+00
          2   -1    0    0  502    0  0.00000000000E+00  0.00000000000E+00  0.13204776833E+04  0.13204776833E+04  0.00000000000E+00 0. -1.
          1   -1    0    0  501    0 -0.00000000000E+00 -0.00000000000E+00 -0.84416535544E+02  0.84416535544E+02  0.00000000000E+00 0. -1.
         25    2    1    2    0    0  0.36128425734E+01  0.18538968733E+03  0.50282457137E+03  0.55031019753E+03  0.12500550044E+03 0.  0.
          2    1    1    2  501    0 -0.14485585288E+03 -0.11480903850E+03  0.11772500634E+03  0.21914267169E+03  0.00000000000E+00 0. -1.
          1    1    1    2  502    0  0.14124301031E+03 -0.70580648827E+02  0.61551157005E+03  0.63544134963E+03  0.00000000000E+00 0. -1.
         22    1    3    3    0    0  0.48975143126E+02  0.10834738907E+03  0.38151615960E+03  0.39961519165E+03  0.00000000000E+00 0. -1.
         22    1    3    3    0    0 -0.45362300553E+02  0.77042298255E+02  0.12130841176E+03  0.15069500588E+03  0.00000000000E+00 0. -1.
</event>
<event>
 7    1  0.9036454E-005  0.1612619E+03  0.7818608E-02  0.1312899E+00
          2   -1    0    0  502    0  0.00000000000E+00  0.00000000000E+00  0.18161100428E+04  0.18161100428E+04  0.00000000000E+00 0. -1.
          1   -1    0    0  501    0 -0.00000000000E+00 -0.00000000000E+00 -0.76169940129E+03  0.76169940129E+03  0.00000000000E+00 0. -1.
         25    2    1    2    0    0 -0.30326070249E+02 -0.18475363643E+03 -0.68022091590E+03  0.71650510607E+03  0.12500198351E+03 0.  0.
          2    1    1    2  501    0 -0.29470469914E+02  0.35108635496E+02 -0.50910174906E+02  0.68505261056E+02  0.00000000000E+00 0. -1.
          1    1    1    2  502    0  0.59796540163E+02  0.14964500093E+03  0.17855417323E+04  0.17927990769E+04  0.00000000000E+00 0. -1.
         22    1    3    3    0    0 -0.48250183351E+01 -0.19241282286E+03 -0.63962120453E+03  0.66795303764E+03  0.00000000000E+00 0. -1.
         22    1    3    3    0    0 -0.25501051914E+02  0.76591864334E+01 -0.40599711373E+02  0.48552068432E+02  0.00000000000E+00 0. -1.
</event>
<event>
 7    1  0.9036454E-005  0.5241024E+02  0.7818608E-02  0.1510644E+00
          2   -1    0    0  502    0  0.00000000000E+00  0.00000000000E+00  0.17305079745E+04  0.17305079745E+04  0.00000000000E+00 0. -1.
          1   -1    0    0  501    0 -0.00000000000E+00 -0.00000000000E+00 -0.23457111278E+02  0.23457111278E+02  0.00000000000E+00 0. -1.
         25    2    1    2    0    0 -0.70352893900E+01  0.28474572554E+02  0.24120640151E+03  0.27324996272E+03  0.12499886966E+03 0.  0.
          2    1    1    2  501    0 -0.27537350241E+02  0.11975952905E+02  0.25520172745E+02  0.39408226593E+02  0.00000000000E+00 0. -1.
          1    1    1    2  502    0  0.34572639631E+02 -0.40450525459E+02  0.14403242890E+04  0.14413068965E+04  0.00000000000E+00 0. -1.
         22    1    3    3    0    0  0.32108585968E+01  0.69086332700E+02  0.20978019024E+03  0.22088675650E+03  0.00000000000E+00 0.  1.
         22    1    3    3    0    0 -0.10246147987E+02 -0.40611760146E+02  0.31426211269E+02  0.52363206218E+02  0.00000000000E+00 0.  1.
</event>
<event>
 7    1  0.9036454E-005  0.2388453E+03  0.7818608E-02  0.1144894E+00
          2   -1    0    0  502    0  0.00000000000E+00  0.00000000000E+00  0.45732597968E+03  0.45732597968E+03  0.00000000000E+00 0. -1.
          1   -1    0    0  501    0 -0.00000000000E+00 -0.00000000000E+00 -0.10417834476E+04  0.10417834476E+04  0.00000000000E+00 0. -1.
         25    2    1    2    0    0 -0.17961718690E+03  0.18331869473E+03  0.35720136648E+03  0.45725891397E+03  0.12499928207E+03 0.  0.
          2    1    1    2  501    0 -0.18627508059E+02 -0.17643451161E+03 -0.73212569616E+03  0.75331544251E+03  0.00000000000E+00 0. -1.
          1    1    1    2  502    0  0.19824469496E+03 -0.68841831254E+01 -0.20953313819E+03  0.28853507075E+03  0.00000000000E+00 0. -1.
         22    1    3    3    0    0 -0.10627980125E+03  0.22975712744E+02  0.14836864243E+03  0.18394709454E+03  0.00000000000E+00 0. -1.
         22    1    3    3    0    0 -0.73337385643E+02  0.16034298199E+03  0.20883272405E+03  0.27331181943E+03  0.00000000000E+00 0. -1.
</event>
<event>
 7    1  0.9036454E-005  0.8947533E+02  0.7818608E-02  0.1315626E+00
          2   -1    0    0  502    0  0.00000000000E+00  0.00000000000E+00  0.40469437852E+02  0.40469437852E+02  0.00000000000E+00 0. -1.
          1   -1    0    0  501    0 -0.00000000000E+00 -0.00000000000E+00 -0.15746604525E+04  0.15746604525E+04  0.00000000000E+00 0. -1.
         25    2    1    2    0    0 -0.13630241108E+03 -0.55979312096E+02 -0.45236349846E+03  0.49190434029E+03  0.12500045845E+03 0.  0.
          2    1    1    2  501    0  0.80569862977E+02 -0.24712391059E+01 -0.10155644367E+04  0.10187584281E+04  0.00000000000E+00 0. -1.
          1    1    1    2  502    0  0.55732548102E+02  0.58450551202E+02 -0.66263079459E+02  0.10446712188E+03  0.00000000000E+00 0. -1.
         22    1    3    3    0    0 -0.89319665102E+02 -0.48367330796E+02 -0.42507188212E+03  0.43703947904E+03  0.00000000000E+00 0. -1.
         22    1    3    3    0    0 -0.46982745977E+02 -0.76119813000E+01 -0.27291616336E+02  0.54864861260E+02  0.00000000000E+00 0. -1.
</event>
<event>
 7    1  0.9036454E-005  0.1627781E+03  0.7818608E-02  0.1282068E+00
          2   -1    0    0  502    0  0.00000000000E+00  0.00000000000E+00  0.12626114356E+04  0.12626114356E+04  0.00000000000E+00 0. -1.
          1   -1    0    0  501    0 -0.00000000000E+00 -0.00000000000E+00 -0.35751932703E+03  0.35751932703E+03  0.00000000000E+00 0. -1.
         25    2    1    2    0    0 -0.18398486132E+01 -0.12017590695E+03  0.15190046415E+03  0.23052950920E+03  0.12499787979E+03 0.  0.
          2    1    1    2  501    0  0.45532143597E+02  0.16189058304E+03 -0.29505458466E+03  0.33961587846E+03  0.00000000000E+00 0. -1.
          1    1    1    2  502    0 -0.43692294984E+02 -0.41714676089E+02  0.10482462291E+04  0.10499853750E+04  0.00000000000E+00 0. -1.
         22    1    3    3    0    0 -0.19099155445E+02 -0.14071239484E+03  0.14473439640E+03  0.20276291895E+03  0.00000000000E+00 0. -1.
         22    1    3    3    0    0  0.17259306832E+02  0.20536487892E+02  0.71660677453E+01  0.27766590252E+02  0.00000000000E+00 0. -1.
</event>
<event>
 7    1  0.9036454E-005  0.1087183E+03  0.7818608E-02  0.1394807E+00
          2   -1    0    0  502    0  0.00000000000E+00  0.00000000000E+00  0.32037296391E+03  0.32037296391E+03  0.00000000000E+00 0. -1.
          1   -1    0    0  501    0 -0.00000000000E+00 -0.00000000000E+00 -0.88067807108E+03  0.88067807108E+03  0.00000000000E+00 0. -1.
         25    2    1    2    0    0 -0.11827337145E+03  0.65838737750E+02  0.11188786020E+03  0.21558064634E+03  0.12503116426E+03 0.  0.
          2    1    1    2  501    0  0.84402794624E+02 -0.67673050646E+02 -0.82341474738E+03  0.83049101122E+03  0.00000000000E+00 0. -1.
          1    1    1    2  502    0  0.33870576822E+02  0.18343128953E+01  0.15122178001E+03  0.15497937742E+03  0.00000000000E+00 0. -1.
         22    1    3    3    0    0 -0.13683296065E+03  0.67600811441E+02  0.66435783701E+02  0.16645372385E+03  0.00000000000E+00 0. -1.
         22    1    3    3    0    0  0.18559589207E+02 -0.17620736903E+01  0.45452076497E+02  0.49126922488E+02  0.00000000000E+00 0. -1.
</event>
<event>
 7    1  0.9036454E-005  0.1927493E+03  0.7818608E-02  0.1263574E+00
          2   -1    0    0  502    0  0.00000000000E+00  0.00000000000E+00  0.27576914589E+04  0.27576914589E+04  0.00000000000E+00 0. -1.
          1   -1    0    0  501    0 -0.00000000000E+00 -0.00000000000E+00 -0.41981964563E+03  0.41981964563E+03  0.00000000000E+00 0. -1.
         25    2    1    2    0    0 -0.13386641678E+03 -0.19107844690E+03 -0.11832905268E+03  0.28993242562E+03  0.12501142469E+03 0.  0.
          2    1    1    2  501    0  0.11539586878E+03  0.13298827549E+03 -0.17934389313E+03  0.25132910685E+03  0.00000000000E+00 0. -1.
          1    1    1    2  502    0  0.18470548006E+02  0.58090171412E+02  0.26355447590E+04  0.26362495720E+04  0.00000000000E+00 0. -1.
         22    1    3    3    0    0  0.22277985066E+02 -0.36658416867E+02 -0.33827923223E+02  0.54630362761E+02  0.00000000000E+00 0.  1.
         22    1    3    3    0    0 -0.15614440185E+03 -0.15442003003E+03 -0.84501129452E+02  0.23530206286E+03  0.00000000000E+00 0.  1.
</event>
<event>
 7    1  0.9036454E-005  0.5501186E+03  0.7818608E-02  0.1118889E+00
          2   -1    0    0  502    0  0.00000000000E+00  0.00000000000E+00  0.67767478121E+03  0.67767478121E+03  0.00000000000E+00 0. -1.
          1   -1    0    0  501    0 -0.00000000000E+00 -0.00000000000E+00 -0.87907076942E+03  0.87907076942E+03  0.00000000000E+00 0. -1.
         25    2    1    2    0    0 -0.53669467211E+03  0.23192339546E+03 -0.48578287842E+03  0.77035049441E+03  0.12500098734E+03 0.  0.
          2    1    1    2  501    0  0.78134188064E+01 -0.10560760322E+03 -0.79237144797E+02  0.13225936824E+03  0.00000000000E+00 0. -1.
          1    1    1    2  502    0  0.52888125330E+03 -0.12631579224E+03  0.36362403500E+03  0.65413568799E+03  0.00000000000E+00 0. -1.
         22    1    3    3    0    0 -0.39026838789E+03  0.10671245179E+03 -0.31251653528E+03  0.51123727052E+03  0.00000000000E+00 0. -1.
         22    1    3    3    0    0 -0.14642628422E+03  0.12521094366E+03 -0.17326634315E+03  0.25911322388E+03  0.00000000000E+00 0. -1.
</event>
<event>
 7    1  0.9036454E-005  0.2791481E+03  0.7818608E-02  0.1228124E+00
          2   -1    0    0  502    0  0.00000000000E+00  0.00000000000E+00  0.32022129353E+04  0.32022129353E+04  0.00000000000E+00 0. -1.
          1   -1    0    0  501    0 -0.00000000000E+00 -0.00000000000E+00 -0.73259174376E+02  0.73259174376E+02  0.00000000000E+00 0. -1.
         25    2    1    2    0    0 -0.27108656034E+03  0.16417199861E+03  0.13619650830E+04  0.14039284186E+04  0.12500299525E+03 0.  0.
          2    1    1    2  501    0  0.21110945844E+03 -0.16836379313E+03  0.30118341484E+03  0.40450589570E+03  0.00000000000E+00 0. -1.
          1    1    1    2  502    0  0.59977101903E+02  0.41917945171E+01  0.14658052631E+04  0.14670377954E+04  0.00000000000E+00 0. -1.
         22    1    3    3    0    0 -0.95456632665E+02 -0.24231268784E+01  0.47627027723E+03  0.48574810060E+03  0.00000000000E+00 0.  1.
         22    1    3    3    0    0 -0.17562992767E+03  0.16659512549E+03  0.88569480578E+03  0.91818031798E+03  0.00000000000E+00 0.  1.
</event>
<event>
 7    1  0.9036454E-005  0.1705553E+03  0.7818608E-02  0.1215374E+00
          2   -1    0    0  502    0  0.00000000000E+00  0.00000000000E+00  0.18308769376E+03  0.18308769376E+03  0.00000000000E+00 0. -1.
          1   -1    0    0  501    0 -0.00000000000E+00 -0.00000000000E+00 -0.15787612931E+04  0.15787612931E+04  0.00000000000E+00 0. -1.
         25    2    1    2    0    0 -0.67849438844E+02 -0.94744787251E+02 -0.69117218301E+03  0.71198709246E+03  0.12500604868E+03 0.  0.
          2    1    1    2  501    0  0.78372082842E+02 -0.80646474981E+02 -0.82767652728E+03  0.83528107312E+03  0.00000000000E+00 0. -1.
          1    1    1    2  502    0 -0.10522643999E+02  0.17539126223E+03  0.12317511095E+03  0.21458082128E+03  0.00000000000E+00 0. -1.
         22    1    3    3    0    0 -0.58509414034E+02 -0.38315984112E+02 -0.12751783891E+03  0.14543818415E+03  0.00000000000E+00 0.  1.
         22    1    3    3    0    0 -0.93400248094E+01 -0.56428803139E+02 -0.56365434410E+03  0.56654890832E+03  0.00000000000E+00 0.  1.
</event>
<event>
 7    1  0.9036454E-005  0.9548539E+02  0.7818608E-02  0.1341229E+00
          2   -1    0    0  502    0  0.00000000000E+00  0.00000000000E+00  0.74150408576E+03  0.74150408576E+03  0.00000000000E+00 0. -1.
          1   -1    0    0  501    0 -0.00000000000E+00 -0.00000000000E+00 -0.90737997623E+02  0.90737997623E+02  0.00000000000E+00 0. -1.
         25    2    1    2    0    0 -0.40605224577E+02  0.71327587926E+02  0.12683890066E+02  0.15008183193E+03  0.12500906426E+03 0.  0.
          2    1    1    2  501    0  0.37215388632E+02 -0.13150027190E+03  0.21467385564E+03  0.25448412712E+03  0.00000000000E+00 0. -1.
          1    1    1    2  502    0  0.33898359456E+01  0.60172683972E+02  0.42340834243E+03  0.42767612433E+03  0.00000000000E+00 0. -1.
         22    1    3    3    0    0  0.29201136186E+02  0.53286162092E+02  0.40257699228E+02  0.72888982516E+02  0.00000000000E+00 0.  1.
         22    1    3    3    0    0 -0.69806360764E+02  0.18041425833E+02 -0.27573809162E+02  0.77192849415E+02  0.00000000000E+00 0.  1.
</event>
<event>
 7    1  0.9036454E-005  0.6043060E+03  0.7818608E-02  0.1177393E+00
          2   -1    0    0  502    0  0.00000000000E+00  0.00000000000E+00  0.93712036222E+03  0.93712036222E+03  0.00000000000E+00 0. -1.
          1   -1    0    0  501    0 -0.00000000000E+00 -0.00000000000E+00 -0.95213226701E+03  0.95213226701E+03  0.00000000000E+00 0. -1.
         25    2    1    2    0    0 -0.44045873674E+03  0.37725949856E+03 -0.57223104380E+02  0.59600989596E+03  0.12499873751E+03 0.  0.
          2    1    1    2  501    0 -0.47959004065E+02 -0.32617966269E+01 -0.48238277229E+03  0.48477195092E+03  0.00000000000E+00 0. -1.
          1    1    1    2  502    0  0.48841774080E+03 -0.37399770194E+03  0.52459397189E+03  0.80847078236E+03  0.00000000000E+00 0. -1.
         22    1    3    3    0    0 -0.36400558112E+03  0.36561279345E+03 -0.49243041087E+02  0.51826407836E+03  0.00000000000E+00 0.  1.
         22    1    3    3    0    0 -0.76453155618E+02  0.11646705114E+02 -0.79800632924E+01  0.77745817599E+02  0.00000000000E+00 0.  1.
</event>
<event>
 7    1  0.9036454E-005  0.1160854E+03  0.7818608E-02  0.1395041E+00
          2   -1    0    0  502    0  0.00000000000E+00  0.00000000000E+00  0.23412477104E+04  0.23412477104E+04  0.00000000000E+00 0. -1.
          1   -1    0    0  501    0 -0.00000000000E+00 -0.00000000000E+00 -0.10692964765E+03  0.10692964765E+03  0.00000000000E+00 0. -1.
         25    2    1    2    0    0  0.10513806996E+03 -0.44282443582E+01  0.21249902795E+02  0.16477404460E+03  0.12500121720E+03 0.  0.
          2    1    1    2  501    0  0.82711752127E+01  0.30610311924E+02 -0.26187931056E+02  0.41124339125E+02  0.00000000000E+00 0. -1.
          1    1    1    2  502    0 -0.11340924517E+03 -0.26182067566E+02  0.22392560910E+04  0.22422789744E+04  0.00000000000E+00 0. -1.
         22    1    3    3    0    0 -0.19523850692E+02 -0.26639144054E+02 -0.96976842730E+01  0.34421938093E+02  0.00000000000E+00 0. -1.
         22    1    3    3    0    0  0.12466192065E+03  0.22210899696E+02  0.30947587068E+02  0.13035210650E+03  0.00000000000E+00 0. -1.
</event>
<event>
 7    1  0.9036454E-005  0.1997174E+03  0.7818608E-02  0.1180270E+00
          2   -1    0    0  502    0  0.00000000000E+00  0.00000000000E+00  0.26030582805E+04  0.26030582805E+04  0.00000000000E+00 0. -1.
          1   -1    0    0  501    0 -0.00000000000E+00 -0.00000000000E+00 -0.17598861336E+03  0.17598861336E+03  0.00000000000E+00 0. -1.
         25    2    1    2    0    0  0.62255896875E+02  0.14298061547E+03  0.98122337727E+02  0.22264573425E+03  0.12499550681E+03 0.  0.
          2    1    1    2  501    0 -0.20301053313E+03 -0.14698157579E+03  0.29178670691E+02  0.25232569232E+03  0.00000000000E+00 0. -1.
          1    1    1    2  502    0  0.14075463625E+03  0.40009603198E+01  0.22997686587E+04  0.23040754673E+04  0.00000000000E+00 0. -1.
         22    1    3    3    0    0  0.70044850403E+02  0.19322245927E+02  0.56142646035E+02  0.91823891006E+02  0.00000000000E+00 0.  1.
         22    1    3    3    0    0 -0.77889535273E+01  0.12365836955E+03  0.41979691692E+02  0.13082184325E+03  0.00000000000E+00 0.  1.
</event>
<event>
 7    1  0.9036454E-005  0.1252641E+03  0.7818608E-02  0.1367748E+00
          2   -1    0    0  502    0  0.00000000000E+00  0.00000000000E+00  0.11830281752E+04  0.11830281752E+04  0.00000000000E+00 0. -1.
          1   -1    0    0  501    0 -0.00000000000E+00 -0.00000000000E+00 -0.60560600652E+03  0.60560600652E+03  0.00000000000E+00 0. -1.
         25    2    1    2    0    0 -0.73096346209E+02 -0.89056521183E+02  0.67884206719E+03  0.69980374407E+03  0.12499835294E+03 0.  0.
          2    1    1    2  501    0  0.14573768614E+02 -0.33676101910E+02 -0.58517762410E+03  0.58632697901E+03  0.00000000000E+00 0. -1.
          1    1    1    2  502    0  0.58522577595E+02  0.12273262309E+03  0.48375772556E+03  0.50250345859E+03  0.00000000000E+00 0. -1.
         22    1    3    3    0    0 -0.61715829689E+02 -0.70624730085E+02  0.20466452898E+03  0.22513166272E+03  0.00000000000E+00 0.  1.
         22    1    3    3    0    0 -0.11380516521E+02 -0.18431791098E+02  0.47417753820E+03  0.47467208135E+03  0.00000000000E+00 0.  1.
</event>
<event>
 7    1  0.9036454E-005  0.3420771E+03  0.7818608E-02  0.1081710E+00
          2   -1    0    0  502    0  0.00000000000E+00  0.00000000000E+00  0.26294735457E+04  0.26294735457E+04  0.00000000000E+00 0. -1.
          1   -1    0    0  501    0 -0.00000000000E+00 -0.00000000000E+00 -0.11774160536E+03  0.11774160536E+03  0.00000000000E+00 0. -1.
         25    2    1    2    0    0 -0.43050442184E+03  0.30941318228E+03  0.11191991542E+04  0.12447098316E+04  0.12500097410E+03 0.  0.
          2    1    1    2  501    0  0.26171509761E+03 -0.87094137522E+02  0.55651428822E+03  0.62111861516E+03  0.00000000000E+00 0. -1.
          1    1    1    2  502    0  0.16878932423E+03 -0.22231904476E+03  0.83601849793E+03  0.88138670430E+03  0.00000000000E+00 0. -1.
         22    1    3    3    0    0 -0.34399382027E+03  0.29458565470E+03  0.87584117128E+03  0.98600720770E+03  0.00000000000E+00 0. -1.
         22    1    3    3    0    0 -0.86510601574E+02  0.14827527583E+02  0.24335798296E+03  0.25870262393E+03  0.00000000000E+00 0. -1.
</event>
<event>
 7    1  0.9036454E-005  0.7648663E+02  0.7818608E-02  0.1457155E+00
          2   -1    0    0  502    0  0.00000000000E+00  0.00000000000E+00  0.15541999925E+04  0.15541999925E+04  0.00000000000E+00 0. -1.
          1   -1    0    0  501    0 -0.00000000000E+00 -0.00000000000E+00 -0.26633995975E+02  0.26633995975E+02  0.00000000000E+00 0. -1.
         25    2    1    2    0    0  0.46909854853E+02 -0.35837818276E+02  0.39854029120E+03  0.42183457717E+03  0.12500065232E+03 0.  0.
          2    1    1    2  501    0 -0.48742079551E+02  0.65747396510E+02  0.98618682089E+02  0.12815675918E+03  0.00000000000E+00 0. -1.
          1    1    1    2  502    0  0.18322246978E+01 -0.29909578235E+02  0.10304070232E+04  0.10308426521E+04  0.00000000000E+00 0. -1.
         22    1    3    3    0    0  0.39558262403E+02 -0.78891124380E+02  0.20096736372E+03  0.21949156455E+03  0.00000000000E+00 0. -1.
         22    1    3    3    0    0  0.73515924506E+01  0.43053306104E+02  0.19757292749E+03  0.20234301261E+03  0.00000000000E+00 0. -1.
</event>
<event>
 7    1  0.9036454E-005  0.6786910E+02  0.7818608E-02  0.1508878E+00
          2   -1    0    0  502    0  0.00000000000E+00  0.00000000000E+00  0.27760700549E+03  0.27760700549E+03  0.00000000000E+00 0. -1.
          1   -1    0    0  501    0 -0.00000000000E+00 -0.00000000000E+00 -0.32648245194E+03  0.32648245194E+03  0.00000000000E+00 0. -1.
         25    2    1    2    0    0 -0.54975476048E+02  0.20827615422E+02 -0.19286557629E+02  0.13947523701E+03  0.12500111161E+03 0.  0.
          2    1    1    2  501    0 -0.13706311421E+02 -0.19049911155E+02 -0.24109216912E+03  0.24223169920E+03  0.00000000000E+00 0. -1.
          1    1    1    2  502    0  0.68681787469E+02 -0.17777042665E+01  0.21150328030E+03  0.22238252121E+03  0.00000000000E+00 0. -1.
         22    1    3    3    0    0  0.31055192965E+02  0.39284718066E+02 -0.91319327156E+01  0.50902910317E+02  0.00000000000E+00 0. -1.
         22    1    3    3    0    0 -0.86030669012E+02 -0.18457102644E+02 -0.10154624913E+02  0.88572326693E+02  0.00000000000E+00 0. -1.
</event>
<event>
 7    1  0.9036454E-005  0.1328358E+03  0.7818608E-02  0.1224649E+00
          2   -1    0    0  502    0  0.00000000000E+00  0.00000000000E+00  0.33293682608E+03  0.33293682608E+03  0.00000000000E+00 0. -1.
          1   -1    0    0  501    0 -0.00000000000E+00 -0.00000000000E+00 -0.13594790609E+04  0.13594790609E+04  0.00000000000E+00 0. -1.
         25    2    1    2    0    0 -0.86011770822E+02 -0.13367659535E+03 -0.29045133254E+03  0.35391362555E+03  0.12500168363E+03 0.  0.
          2    1    1    2  501    0  0.13618903174E+03  0.12677098484E+02 -0.10182627965E+04  0.10274080416E+04  0.00000000000E+00 0. -1.
          1    1    1    2  502    0 -0.50177260922E+02  0.12099949687E+03  0.28217189420E+03  0.31109421986E+03  0.00000000000E+00 0. -1.
         22    1    3    3    0    0 -0.50632752743E+02 -0.15216445652E+03 -0.21128748240E+03  0.26525477884E+03  0.00000000000E+00 0.  1.
         22    1    3    3    0    0 -0.35379018079E+02  0.18487861169E+02 -0.79163850138E+02  0.88658846708E+02  0.00000000000E+00 0.  1.
</event>
<event>
 7    1  0.9036454E-005  0.2531164E+03  0.7818608E-02  0.1157867E+00
          2   -1    0    0  502    0  0.00000000000E+00  0.00000000000E+00  0.19225752991E+03  0.19225752991E+03  0.00000000000E+00 0. -1.
          1   -1    0    0  501    0 -0.00000000000E+00 -0.00000000000E+00 -0.14094497592E+04  0.14094497592E+04  0.00000000000E+00 0. -1.
         25    2    1    2    0    0  0.29153637035E+03  0.13137544346E+03 -0.10291065298E+04  0.10848686243E+04  0.12500687958E+03 0.  0.
          2    1    1    2  501    0 -0.42462041343E+02 -0.13719509377E+03 -0.22301794584E+03  0.26525935021E+03  0.00000000000E+00 0. -1.
          1    1    1    2  502    0 -0.24907432900E+03  0.58196503103E+01  0.34932246352E+02  0.25157931460E+03  0.00000000000E+00 0. -1.
         22    1    3    3    0    0  0.52152769053E+02  0.80792882268E+02 -0.35256280632E+03  0.36544210696E+03  0.00000000000E+00 0. -1.
         22    1    3    3    0    0  0.23938360129E+03  0.50582561190E+02 -0.67654372349E+03  0.71942651734E+03  0.00000000000E+00 0. -1.
</event>
<event>
 7    1  0.9036454E-005  0.5302460E+02  0.7818608E-02  0.1446625E+00
          2   -1    0    0  502    0  0.00000000000E+00  0.00000000000E+00  0.43468945066E+04  0.43468945066E+04  0.00000000000E+00 0. -1.
          1   -1    0    0  501    0 -0.00000000000E+00 -0.00000000000E+00 -0.49948474781E+02  0.49948474781E+02  0.00000000000E+00 0. -1.
         25    2    1    2    0    0  0.10742310561E+02  0.34026258733E+02  0.13467948078E+04  0.13530535195E+04  0.12499755560E+03 0.  0.
          2    1    1    2  501    0 -0.45757460591E+02  0.93428723887E+01 -0.34847778162E+02  0.58270079004E+02  0.00000000000E+00 0. -1.
          1    1    1    2  502    0  0.35015150030E+02 -0.43369131122E+02  0.29849990022E+04  0.29855193829E+04  0.00000000000E+00 0. -1.
         22    1    3    3    0    0 -0.48953157435E+01  0.79596703524E+02  0.71782973327E+03  0.72224588977E+03  0.00000000000E+00 0. -1.
         22    1    3    3    0    0  0.15637626305E+02 -0.45570444790E+02  0.62896507452E+03  0.63080762976E+03  0.00000000000E+00 0. -1.
</event>
<event>
 7    1  0.9036454E-005  0.6851459E+03  0.7818608E-02  0.1130929E+00
          2   -1    0    0  502    0  0.00000000000E+00  0.00000000000E+00  0.15024772960E+04  0.15024772960E+04  0.00000000000E+00 0. -1.
          1   -1    0    0  501    0 -0.00000000000E+00 -0.00000000000E+00 -0.47961935998E+03  0.47961935998E+03  0.00000000000E+00 0. -1.
         25    2    1    2    0    0  0.22749911330E+03 -0.66992507257E+03  0.96776678576E+03  0.12053022288E+04  0.12500184725E+03 0.  0.
          2    1    1    2  501    0 -0.18138668913E+01  0.73217269824E+02 -0.96426675337E+02  0.12108741648E+03  0.00000000000E+00 0. -1.
          1    1    1    2  502    0 -0.22568524641E+03  0.59670780275E+03  0.15151782555E+03  0.65570701061E+03  0.00000000000E+00 0. -1.
         22    1    3    3    0    0  0.45947802761E+02 -0.11101810444E+03  0.95179019533E+02  0.15328165530E+03  0.00000000000E+00 0.  1.
         22    1    3    3    0    0  0.18155131054E+03 -0.55890696813E+03  0.87258776623E+03  0.10520205735E+04  0.00000000000E+00 0.  1.
</event>
<event>
 7    1  0.9036454E-005  0.6465051E+02  0.7818608E-02  0.1455713E+00
          2   -1    0    0  502    0  0.00000000000E+00  0.00000000000E+00  0.97453850790E+02  0.97453850790E+02  0.00000000000E+00 0. -1.
          1   -1    0    0  501    0 -0.00000000000E+00 -0.00000000000E+00 -0.19645479956E+03  0.19645479956E+03  0.00000000000E+00 0. -1.
         25    2    1    2    0    0 -0.24193849740E+02 -0.55614702955E+02 -0.66033971569E+02  0.15382634410E+03  0.12499488464E+03 0.  0.
          2    1    1    2  501    0  0.56036947873E+02  0.39195989563E+02 -0.63265846198E+02  0.93161324700E+02  0.00000000000E+00 0. -1.
          1    1    1    2  502    0 -0.31843098133E+02  0.16418713392E+02  0.30298868993E+02  0.46920981558E+02  0.00000000000E+00 0. -1.
         22    1    3    3    0    0  0.25406195384E+02 -0.64909094072E+02 -0.75201027536E+02  0.10253711425E+03  0.00000000000E+00 0. -1.
         22    1    3    3    0    0 -0.49600045124E+02  0.92943911176E+01  0.91670559675E+01  0.51289229841E+02  0.00000000000E+00 0. -1.
</event>
<event>
 7    1  0.9036454E-005  0.1625954E+03  0.7818608E-02  0.1318805E+00
          2   -1    0    0  502    0  0.00000000000E+00  0.00000000000E+00  0.64703303234E+03  0.64703303234E+03  0.00000000000E+00 0. -1.
          1   -1    0    0  501    0 -0.00000000000E+00 -0.00000000000E+00 -0.13185338320E+04  0.13185338320E+04  0.00000000000E+00 0. -1.
         25    2    1    2    0    0  0.10924897783E+03  0.17291687427E+03  0.37187409558E+03  0.44244034808E+03  0.12501013591E+03 0.  0.
          2    1    1    2  501    0 -0.80912964751E+02 -0.14042666169E+03 -0.12761463364E+04  0.12863965279E+04  0.00000000000E+00 0. -1.
          1    1    1    2  502    0 -0.28336013083E+02 -0.32490212582E+02  0.23277144117E+03  0.23672998833E+03  0.00000000000E+00 0. -1.
         22    1    3    3    0    0 -0.63221676296E-01 -0.71828612277E+01  0.91260917173E+02  0.91543172851E+02  0.00000000000E+00 0.  1.
         22    1    3    3    0    0  0.10931219951E+03  0.18009973550E+03  0.28061317841E+03  0.35089717523E+03  0.00000000000E+00 0.  1.
</event>
<event>
 7    1  0.2763428E-004  0.1846617E+03  0.7818608E-02  0.1180580E+00
          2   -1    0    0  502    0  0.00000000000E+00  0.00000000000E+00  0.19153338687E+04  0.19153338687E+04  0.00000000000E+00 0. -1.
          1   -1    0    0  501    0 -0.00000000000E+00 -0.00000000000E+00 -0.21456750852E+04  0.21456750852E+04  0.00000000000E+00 0. -1.
         25    2    1    2    0    0 -0.18702881385E+03  0.27782528000E+02 -0.38468675609E+03  0.44649874336E+03  0.12500232574E+03 0.  0.
          2    1    1    2  501    0  0.43783380473E+02 -0.14530994500E+03 -0.17221826038E+04  0.17288565254E+04  0.00000000000E+00 0. -1.
          1    1    1    2  502    0  0.14324543338E+03  0.11752741700E+03  0.18765281433E+04  0.18856536852E+04  0.00000000000E+00 0. -1.
         22    1    3    3    0    0 -0.40952347974E+02 -0.88261343495E+01 -0.10563616509E+02  0.43203998031E+02  0.00000000000E+00 0.  1.
         22    1    3    3    0    0 -0.14607646588E+03  0.36608662349E+02 -0.37412313958E+03  0.40329474533E+03  0.00000000000E+00 0.  1.
</event>
<event>
 7    1  0.9036454E-005  0.1561937E+03  0.7818608E-02  0.1401060E+00
          2   -1    0    0  502    0  0.00000000000E+00  0.00000000000E+00  0.46159517153E+03  0.46159517153E+03  0.00000000000E+00 0. -1.
          1   -1    0    0  501    0 -0.00000000000E+00 -0.00000000000E+00 -0.89210959358E+02  0.89210959358E+02  0.00000000000E+00 0. -1.
         25    2    1    2    0    0  0.85171610440E+02 -0.11569382398E+03  0.17404213099E+03  0.25798118467E+03  0.12499745657E+03 0.  0.
          2    1    1    2  501    0 -0.91146554604E+02  0.13735092169E+03  0.10188776988E+03  0.19378877098E+03  0.00000000000E+00 0. -1.
          1    1    1    2  502    0  0.59749441635E+01 -0.21657097713E+02  0.96454311301E+02  0.99036175247E+02  0.00000000000E+00 0. -1.
         22    1    3    3    0    0  0.95041906008E+02 -0.40034922880E+02  0.55798355447E+02  0.11725704848E+03  0.00000000000E+00 0.  1.
         22    1    3    3    0    0 -0.98702955683E+01 -0.75658901098E+02  0.11824377555E+03  0.14072413619E+03  0.00000000000E+00 0.  1.
</event>
<event>
 7    1  0.9036454E-005  0.9138163E+02  0.7818608E-02  0.1381142E+00
          2   -1    0    0  502    0  0.00000000000E+00  0.00000000000E+00  0.17568015630E+03  0.17568015630E+03  0.00000000000E+00 0. -1.
          1   -1    0    0  501    0 -0.00000000000E+00 -0.00000000000E+00 -0.26901135043E+03  0.26901135043E+03  0.00000000000E+00 0. -1.
         25    2    1    2    0    0  0.73164318347E+02 -0.51102373485E+01 -0.52377991622E+02  0.15410174242E+03  0.12499904402E+03 0.  0.
          2    1    1    2  501    0  0.15281630021E+02  0.42383125738E+02 -0.14333823167E+03  0.15025214216E+03  0.00000000000E+00 0. -1.
          1    1    1    2  502    0 -0.88445948368E+02 -0.37272888390E+02  0.10238502916E+03  0.14033762214E+03  0.00000000000E+00 0. -1.
         22    1    3    3    0    0  0.55977722923E+02 -0.62615465335E+02 -0.21947628435E+02  0.86809563740E+02  0.00000000000E+00 0. -1.
         22    1    3    3    0    0  0.17186595424E+02  0.57505227987E+02 -0.30430363187E+02  0.67292178682E+02  0.00000000000E+00 0. -1.
</event>
<event>
 7    1  0.9036454E-005  0.6508939E+02  0.7818608E-02  0.1407454E+00
          2   -1    0    0  502    0  0.00000000000E+00  0.00000000000E+00  0.22128122592E+03  0.22128122592E+03  0.00000000000E+00 0. -1.
          1   -1    0    0  501    0 -0.00000000000E+00 -0.00000000000E+00 -0.55579352454E+03  0.55579352454E+03  0.00000000000E+00 0. -1.
         25    2    1    2    0    0 -0.17438695767E+02 -0.25192003769E+02 -0.11697106629E+03  0.17391347002E+03  0.12499967816E+03 0.  0.
          2    1    1    2  501    0  0.67759432975E+02  0.15392105677E+02 -0.40392366747E+03  0.40985678818E+03  0.00000000000E+00 0. -1.
          1    1    1    2  502    0 -0.50320737208E+02  0.97998980918E+01  0.18638243514E+03  0.19330449226E+03  0.00000000000E+00 0. -1.
         22    1    3    3    0    0  0.54883329650E+01  0.45632727964E+02 -0.16424951881E+02  0.48808264715E+02  0.00000000000E+00 0.  1.
         22    1    3    3    0    0 -0.22927028732E+02 -0.70824731733E+02 -0.10054611441E+03  0.12510520531E+03  0.00000000000E+00 0.  1.
</event>
<event>
 7    1  0.9036454E-005  0.8656914E+02  0.7818608E-02  0.1383737E+00
          2   -1    0    0  502    0  0.00000000000E+00  0.00000000000E+00  0.14539978927E+04  0.14539978927E+04  0.00000000000E+00 0. -1.
          1   -1    0    0  501    0 -0.00000000000E+00 -0.00000000000E+00 -0.77903186286E+02  0.77903186286E+02  0.00000000000E+00 0. -1.
         25    2    1    2    0    0  0.10823755218E+03  0.19457312147E+02  0.90696489917E+03  0.92211933026E+03  0.12499910486E+03 0.  0.
          2    1    1    2  501    0 -0.83755716718E+02  0.20153976984E+02 -0.42484394721E+02  0.96052728572E+02  0.00000000000E+00 0. -1.
          1    1    1    2  502    0 -0.24481835464E+02 -0.39611289131E+02  0.51161420196E+03  0.51372902015E+03  0.00000000000E+00 0. -1.
         22    1    3    3    0    0  0.50573782897E+02  0.66758921315E+02  0.33492618714E+03  0.34523906488E+03  0.00000000000E+00 0.  1.
         22    1    3    3    0    0  0.57663769285E+02 -0.47301609168E+02  0.57203871203E+03  0.57688026538E+03  0.00000000000E+00 0.  1.
</event>
<event>
 7    1  0.9036454E-005  0.1242390E+03  0.7818608E-02  0.1353935E+00
          2   -1    0    0  502    0  0.00000000000E+00  0.00000000000E+00  0.69200422271E+02  0.69200422271E+02  0.00000000000E+00 0. -1.
          1   -1    0    0  501    0 -0.00000000000E+00 -0.00000000000E+00 -0.76411944480E+03  0.76411944480E+03  0.00000000000E+00 0. -1.
         25    2    1    2    0    0 -0.47526867628E+02  0.79305395543E+02 -0.34237980116E+03  0.37602793083E+03  0.12499971046E+03 0.  0.
          2    1    1    2  501    0 -0.33113215729E+02  0.25089120877E+02 -0.31831089046E+03  0.32101054815E+03  0.00000000000E+00 0. -1.
          1    1    1    2  502    0  0.80640083357E+02 -0.10439451642E+03 -0.34228330917E+02  0.13628138809E+03  0.00000000000E+00 0. -1.
         22    1    3    3    0    0 -0.62761311231E+02  0.87227832142E+02 -0.15937196707E+03  0.19221628645E+03  0.00000000000E+00 0.  1.
         22    1    3    3    0    0  0.15234443604E+02 -0.79224365994E+01 -0.18300783409E+03  0.18381164438E+03  0.00000000000E+00 0.  1.
</event>
<event>
 7    1  0.9036454E-005  0.5259556E+03  0.7818608E-02  0.1055666E+00
          2   -1    0    0  502    0  0.00000000000E+00  0.00000000000E+00  0.12635254295E+04  0.12635254295E+04  0.00000000000E+00 0. -1.
          1   -1    0    0  501    0 -0.00000000000E+00 -0.00000000000E+00 -0.19617984061E+04  0.19617984061E+04  0.00000000000E+00 0. -1.
         25    2    1    2    0    0  0.47242293092E+03 -0.15499103323E+03  0.21724042488E+03  0.55679782848E+03  0.12499909422E+03 0.  0.
          2    1    1    2  501    0 -0.36685417764E+03  0.38901670700E+03 -0.17319821715E+04  0.18126439883E+04  0.00000000000E+00 0. -1.
          1    1    1    2  502    0 -0.10556875328E+03 -0.23402567377E+03  0.81646877002E+03  0.85588201878E+03  0.00000000000E+00 0. -1.
         22    1    3    3    0    0  0.14459840600E+03 -0.62923810337E+02  0.96291857407E+01  0.15798995583E+03  0.00000000000E+00 0. -1.
         22    1    3    3    0    0  0.32782452492E+03 -0.92067222897E+02  0.20761123914E+03  0.39880787265E+03  0.00000000000E+00 0. -1.
</event>
<event>
 7    1  0.9036454E-005  0.1149880E+03  0.7818608E-02  0.1331712E+00
          2   -1    0    0  502    0  0.00000000000E+00  0.00000000000E+00  0.62869767418E+02  0.62869767418E+02  0.00000000000E+00 0. -1.
          1   -1    0    0  501    0 -0.00000000000E+00 -0.00000000000E+00 -0.89454988039E+03  0.89454988039E+03  0.00000000000E+00 0. -1.
         25    2    1    2    0    0  0.85710478161E+02  0.10597580503E+03 -0.45387561790E+03  0.49010755609E+03  0.12500073078E+03 0.  0.
          2    1    1    2  501    0 -0.54308275400E+02  0.26106933388E+01 -0.34549803852E+03  0.34975005235E+03  0.00000000000E+00 0. -1.
          1    1    1    2  502    0 -0.31402202761E+02 -0.10858649836E+03 -0.32306456549E+02  0.11756203937E+03  0.00000000000E+00 0. -1.
         22    1    3    3    0    0  0.96096175430E+02  0.20650317283E+02 -0.26317307900E+03  0.28092878110E+03  0.00000000000E+00 0.  1.
         22    1    3    3    0    0 -0.10385697269E+02  0.85325487743E+02 -0.19070253890E+03  0.20917877500E+03  0.00000000000E+00 0.  1.
</event>
<event>
 7    1  0.9036454E-005  0.7269792E+02  0.7818608E-02  0.1482816E+00
          2   -1    0    0  502    0  0.00000000000E+00  0.00000000000E+00  0.10463207393E+04  0.10463207393E+04  0.00000000000E+00 0. -1.
          1   -1    0    0  501    0 -0.00000000000E+00 -0.00000000000E+00 -0.12135162361E+03  0.12135162361E+03  0.00000000000E+00 0. -1.
         25    2    1    2    0    0  0.26420637648E+02 -0.75661805703E+02  0.44225149668E+03  0.46651538879E+03  0.12500985052E+03 0.  0.
          2    1    1    2  501    0  0.18052407590E+02  0.19034198699E+02 -0.10541650734E+03  0.10863162596E+03  0.00000000000E+00 0. -1.
          1    1    1    2  502    0 -0.44473045237E+02  0.56627607004E+02  0.58813412634E+03  0.59252534815E+03  0.00000000000E+00 0. -1.
         22    1    3    3    0    0 -0.29254115353E+02 -0.29306369664E+02  0.39252412957E+02  0.57056274772E+02  0.00000000000E+00 0. -1.
         22    1    3    3    0    0  0.55674753001E+02 -0.46355436040E+02  0.40299908373E+03  0.40945911402E+03  0.00000000000E+00 0. -1.
</event>
<event>
 7    1  0.9036454E-005  0.3670569E+03  0.7818608E-02  0.1105794E+00
          2   -1    0    0  502    0  0.00000000000E+00  0.00000000000E+00  0.44132533685E+03  0.44132533685E+03  0.00000000000E+00 0. -1.
          1   -1    0    0  501    0 -0.00000000000E+00 -0.00000000000E+00 -0.89672078043E+03  0.89672078043E+03  0.00000000000E+00 0. -1.
         25    2    1    2    0    0  0.42591272364E+03  0.75216535492E+02 -0.47736885561E+03  0.65617317219E+03  0.12499212864E+03 0.  0.
          2    1    1    2  501    0 -0.77411082871E+02 -0.17064281776E+03 -0.18678270613E+03  0.26457366898E+03  0.00000000000E+00 0. -1.
          1    1    1    2  502    0 -0.34850164077E+03  0.95426282273E+02  0.20875611816E+03  0.41729927611E+03  0.00000000000E+00 0. -1.
         22    1    3    3    0    0  0.41305824711E+03  0.97363911676E+02 -0.44527497201E+03  0.61511514979E+03  0.00000000000E+00 0. -1.
         22    1    3    3    0    0  0.12854476532E+02 -0.22147376185E+02 -0.32093883604E+02  0.41058022402E+02  0.00000000000E+00 0. -1.
</event>
<event>
 7    1  0.9036454E-005  0.1736809E+03  0.7818608E-02  0.1176855E+00
          2   -1    0    0  502    0  0.00000000000E+00  0.00000000000E+00  0.41113722004E+03  0.41113722004E+03  0.00000000000E+00 0. -1.
          1   -1    0    0  501    0 -0.00000000000E+00 -0.00000000000E+00 -0.62924094117E+03  0.62924094117E+03  0.00000000000E+00 0. -1.
         25    2    1    2    0    0 -0.12731149520E+03 -0.56284857527E+02  0.12956558720E+03  0.22757020208E+03  0.12499901396E+03 0.  0.
          2    1    1    2  501    0  0.14743700672E+02 -0.16762578963E+03 -0.49450121933E+03  0.52234781322E+03  0.00000000000E+00 0. -1.
          1    1    1    2  502    0  0.11256779453E+03  0.22391064715E+03  0.14683191100E+03  0.29046014591E+03  0.00000000000E+00 0. -1.
         22    1    3    3    0    0 -0.34390832038E+02 -0.71563475214E+02  0.17702493320E+02  0.81347640302E+02  0.00000000000E+00 0.  1.
         22    1    3    3    0    0 -0.92920663164E+02  0.15278617687E+02  0.11186309388E+03  0.14622256178E+03  0.00000000000E+00 0.  1.
</event>
<event>
 7    1  0.9036454E-005  0.2896139E+03  0.7818608E-02  0.1274864E+00
          2   -1    0    0  502    0  0.00000000000E+00  0.00000000000E+00  0.45815935335E+03  0.45815935335E+03  0.00000000000E+00 0. -1.
          1   -1    0    0  501    0 -0.00000000000E+00 -0.00000000000E+00 -0.41010582838E+03  0.41010582838E+03  0.00000000000E+00 0. -1.
         25    2    1    2    0    0 -0.21555213119E+03 -0.19731874092E+03 -0.14845644334E+03  0.35080098053E+03  0.12499842237E+03 0.  0.
          2    1    1    2  501    0  0.23454105578E+03  0.16630209507E+03 -0.29059732996E+02  0.28898159414E+03  0.00000000000E+00 0. -1.
          1    1    1    2  502    0 -0.18988924595E+02  0.31016645854E+02  0.22556970131E+03  0.22848260705E+03  0.00000000000E+00 0. -1.
         22    1    3    3    0    0 -0.20251551452E+03 -0.11472604243E+03 -0.12377682207E+03  0.26361961254E+03  0.00000000000E+00 0.  1.
         22    1    3    3    0    0 -0.13036616664E+02 -0.82592698497E+02 -0.24679621272E+02  0.87181367994E+02  0.00000000000E+00 0.  1.
</event>
<event>
 7    1  0.9036454E-005  0.1006085E+03  0.7818608E-02  0.1279419E+00
          2   -1    0    0  502    0  0.00000000000E+00  0.00000000000E+00  0.77432704091E+03  0.77432704091E+03  0.00000000000E+00 0. -1.
          1   -1    0    0  501    0 -0.00000000000E+00 -0.00000000000E+00 -0.12186275503E+03  0.12186275503E+03  0.00000000000E+00 0. -1.
         25    2    1    2    0    0 -0.11094315232E+03 -0.39402622940E+02  0.33734101750E+03  0.37853019452E+03  0.12500078533E+03 0.  0.
          2    1    1    2  501    0  0.79071180796E+02 -0.62207883586E+02 -0.67065019423E+02  0.12091232048E+03  0.00000000000E+00 0. -1.
          1    1    1    2  502    0  0.31871971523E+02  0.10161050653E+03  0.38218828780E+03  0.39674728094E+03  0.00000000000E+00 0. -1.
         22    1    3    3    0    0 -0.65218905693E+02  0.24254314934E+02  0.65303122942E+02  0.95426806080E+02  0.00000000000E+00 0.  1.
         22    1    3    3    0    0 -0.45724246625E+02 -0.63656937874E+02  0.27203789456E+03  0.28310338844E+03  0.00000000000E+00 0.  1.
</event>
<event>
 7    1  0.9036454E-005  0.3751592E+03  0.7818608E-02  0.1095190E+00
          2   -1    0    0  502    0  0.00000000000E+00  0.00000000000E+00  0.69139870885E+03  0.69139870885E+03  0.00000000000E+00 0. -1.
          1   -1    0    0  501    0 -0.00000000000E+00 -0.00000000000E+00 -0.16278146871E+04  0.16278146871E+04  0.00000000000E+00 0. -1.
         25    2    1    2    0    0  0.35458101571E+03  0.74912479256E+02 -0.26788490450E+03  0.46768104374E+03  0.12499464133E+03 0.  0.
          2    1    1    2  501    0 -0.78787998021E+02  0.19503474018E+03 -0.11868365669E+04  0.12053327901E+04  0.00000000000E+00 0. -1.
          1    1    1    2  502    0 -0.27579301769E+03 -0.26994721944E+03  0.51830549310E+03  0.64619956211E+03  0.00000000000E+00 0. -1.
         22    1    3    3    0    0  0.33231976987E+03  0.10192289652E+03 -0.25145135997E+03  0.42901339456E+03  0.00000000000E+00 0. -1.
         22    1    3    3    0    0  0.22261245843E+02 -0.27010417264E+02 -0.16433544533E+02  0.38667649181E+02  0.00000000000E+00 0. -1.
</event>
<event>
 7    1  0.9036454E-005  0.7456904E+02  0.7818608E-02  0.1350127E+00
          2   -1    0    0  502    0  0.00000000000E+00  0.00000000000E+00  0.16866144622E+04  0.16866144622E+04  0.00000000000E+00 0. -1.
          1   -1    0    0  501    0 -0.00000000000E+00 -0.00000000000E+00 -0.31539308416E+03  0.31539308416E+03  0.00000000000E+00 0. -1.
         25    2    1    2    0    0 -0.13678587815E+03  0.41633955290E+01  0.14444877375E+03  0.23498307169E+03  0.12499554160E+03 0.  0.
          2    1    1    2  501    0  0.66620999336E+02 -0.25946398417E+02 -0.26447497970E+03  0.27396822449E+03  0.00000000000E+00 0. -1.
          1    1    1    2  502    0  0.70164878816E+02  0.21783002888E+02  0.14912475840E+04  0.14930562502E+04  0.00000000000E+00 0. -1.
         22    1    3    3    0    0  0.21405973207E+02  0.43527134550E+01  0.39518980072E+02  0.45154308645E+02  0.00000000000E+00 0.  1.
         22    1    3    3    0    0 -0.15819185136E+03 -0.18931792592E+00  0.10492979368E+03  0.18982876305E+03  0.00000000000E+00 0.  1.
</event>
<event>
 7    1  0.9036454E-005  0.5736898E+02  0.7818608E-02  0.1426252E+00
          2   -1    0    0  502    0  0.00000000000E+00  0.00000000000E+00  0.59173470577E+03  0.59173470577E+03  0.00000000000E+00 0. -1.
          1   -1    0    0  501    0 -0.00000000000E+00 -0.00000000000E+00 -0.81534144746E+03  0.81534144746E+03  0.00000000000E+00 0. -1.
         25    2    1    2    0    0  0.24512388480E+02  0.52455456804E+02 -0.43247906757E+03  0.45389055887E+03  0.12500425358E+03 0.  0.
          2    1    1    2  501    0 -0.59196840463E+02 -0.16022629310E+02 -0.36852919441E+03  0.37359705259E+03  0.00000000000E+00 0. -1.
          1    1    1    2  502    0  0.34684451983E+02 -0.36432827494E+02  0.57740152028E+03  0.57958854177E+03  0.00000000000E+00 0. -1.
         22    1    3    3    0    0 -0.12051506804E+02 -0.17108330557E+02 -0.29338771166E+03  0.29413310447E+03  0.00000000000E+00 0. -1.
         22    1    3    3    0    0  0.36563895284E+02  0.69563787361E+02 -0.13909135591E+03  0.15975745441E+03  0.00000000000E+00 0. -1.
</event>
<event>
 7    1  0.9036454E-005  0.8045208E+03  0.7818608E-02  0.1146409E+00
          2   -1    0    0  502    0  0.00000000000E+00  0.00000000000E+00  0.18368717146E+04  0.18368717146E+04  0.00000000000E+00 0. -1.
          1   -1    0    0  501    0 -0.00000000000E+00 -0.00000000000E+00 -0.33116596815E+04  0.33116596815E+04  0.00000000000E+00 0. -1.
         25    2    1    2    0    0 -0.71300528880E+03  0.34567202146E+03  0.42782515842E+03  0.90913413193E+03  0.12499926158E+03 0.  0.
          2    1    1    2  501    0 -0.37607109024E+02 -0.35515998018E+02 -0.29296117997E+04  0.29300684254E+04  0.00000000000E+00 0. -1.
          1    1    1    2  502    0  0.75061239782E+03 -0.31015602344E+03  0.10269986745E+04  0.13093288387E+04  0.00000000000E+00 0. -1.
         22    1    3    3    0    0 -0.95182515332E+02  0.32634465033E+02  0.12106533171E+02  0.10134736148E+03  0.00000000000E+00 0. -1.
         22    1    3    3    0    0 -0.61782277346E+03  0.31303755642E+03  0.41571862525E+03  0.80778677045E+03  0.00000000000E+00 0. -1.
</event>
<event>
 7    1  0.9036454E-005  0.9704949E+03  0.7818608E-02  0.1140048E+00
          2   -1    0    0  502    0  0.00000000000E+00  0.00000000000E+00  0.17192736488E+04  0.17192736488E+04  0.00000000000E+00 0. -1.
          1   -1    0    0  501    0 -0.00000000000E+00 -0.00000000000E+00 -0.99576831988E+03  0.99576831988E+03  0.00000000000E+00 0. -1.
         25    2    1    2    0    0 -0.41031368474E+03 -0.88336134257E+03 -0.36396195064E+03  0.10472719462E+04  0.12500258559E+03 0.  0.
          2    1    1    2  501    0  0.44576125837E+03  0.85360886809E+03  0.51236976667E+03  0.10908134474E+04  0.00000000000E+00 0. -1.
          1    1    1    2  502    0 -0.35447573639E+02  0.29752474481E+02  0.57509751288E+03  0.57695657509E+03  0.00000000000E+00 0. -1.
         22    1    3    3    0    0 -0.21862724662E+03 -0.32576030476E+03 -0.14076654777E+03  0.41681275183E+03  0.00000000000E+00 0.  1.
         22    1    3    3    0    0 -0.19168643811E+03 -0.55760103781E+03 -0.22319540287E+03  0.63045919439E+03  0.00000000000E+00 0.  1.
</event>
<event>
 7    1  0.9036454E-005  0.1447758E+03  0.7818608E-02  0.1223318E+00
          2   -1    0    0  502    0  0.00000000000E+00  0.00000000000E+00  0.24738416219E+04  0.24738416219E+04  0.00000000000E+00 0. -1.
          1   -1    0    0  501    0 -0.00000000000E+00 -0.00000000000E+00 -0.68596114741E+03  0.68596114741E+03  0.00000000000E+00 0. -1.
         25    2    1    2    0    0 -0.16532656424E+03 -0.51418205063E+02 -0.39897469626E+03  0.45252913912E+03  0.12500043539E+03 0.  0.
          2    1    1    2  501    0  0.95601735221E+02 -0.75576493037E+02 -0.24366414794E+03  0.27244029634E+03  0.00000000000E+00 0. -1.
          1    1    1    2  502    0  0.69724829015E+02  0.12699469810E+03  0.24305193187E+04  0.24348333339E+04  0.00000000000E+00 0. -1.
         22    1    3    3    0    0 -0.88585312234E+02  0.36695984512E+02 -0.16034689061E+03  0.18682900779E+03  0.00000000000E+00 0.  1.
         22    1    3    3    0    0 -0.76741252003E+02 -0.88114189576E+02 -0.23862780565E+03  0.26570013134E+03  0.00000000000E+00 0.  1.
</event>
<event>
 7    1  0.9036454E-005  0.6473213E+02  0.7818608E-02  0.1427264E+00
          2   -1    0    0  502    0  0.00000000000E+00  0.00000000000E+00  0.91915907952E+02  0.91915907952E+02  0.00000000000E+00 0. -1.
          1   -1    0    0  501    0 -0.00000000000E+00 -0.00000000000E+00 -0.31700592463E+03  0.31700592463E+03  0.00000000000E+00 0. -1.
         25    2    1    2    0    0  0.71152092576E+01  0.34135520723E+02 -0.93948678124E+02  0.16020922115E+03  0.12499912176E+03 0.  0.
          2    1    1    2  501    0 -0.29440500136E+02  0.33019620852E+02 -0.16459404901E+03  0.17043544050E+03  0.00000000000E+00 0. -1.
          1    1    1    2  502    0  0.22325290879E+02 -0.67155141575E+02  0.33452710455E+02  0.78277170935E+02  0.00000000000E+00 0. -1.
         22    1    3    3    0    0  0.11476452466E+02 -0.46495955032E+02 -0.45392089550E+02  0.65985033070E+02  0.00000000000E+00 0. -1.
         22    1    3    3    0    0 -0.43612432080E+01  0.80631475756E+02 -0.48556588574E+02  0.94224188077E+02  0.00000000000E+00 0. -1.
</event>
<event>
 7    1  0.9036454E-005  0.1501434E+03  0.7818608E-02  0.1284511E+00
          2   -1    0    0  502    0  0.00000000000E+00  0.00000000000E+00  0.17763636002E+03  0.17763636002E+03  0.00000000000E+00 0. -1.
          1   -1    0    0  501    0 -0.00000000000E+00 -0.00000000000E+00 -0.53276006074E+03  0.53276006074E+03  0.00000000000E+00 0. -1.
         25    2    1    2    0    0  0.88733931402E+01 -0.14573669267E+03 -0.21067045657E+03  0.28517608509E+03  0.12500175015E+03 0.  0.
          2    1    1    2  501    0  0.55093638123E+02  0.14760644524E+03 -0.25368179316E+03  0.29862589274E+03  0.00000000000E+00 0. -1.
          1    1    1    2  502    0 -0.63967031263E+02 -0.18697525671E+01  0.10922854900E+03  0.12659444293E+03  0.00000000000E+00 0. -1.
         22    1    3    3    0    0  0.34410504725E+02 -0.10669534843E+03 -0.21053708636E+03  0.23852430682E+03  0.00000000000E+00 0. -1.
         22    1    3    3    0    0 -0.25537111585E+02 -0.39041344241E+02 -0.13337021047E+00  0.46651778271E+02  0.00000000000E+00 0. -1.
</event>
<event>
 7    1  0.9036454E-005  0.6533768E+03  0.7818608E-02  0.1118270E+00
          2   -1    0    0  502    0  0.00000000000E+00  0.00000000000E+00  0.71339815908E+03  0.71339815908E+03  0.00000000000E+00 0. -1.
          1   -1    0    0  501    0 -0.00000000000E+00 -0.00000000000E+00 -0.30383929003E+04  0.30383929003E+04  0.00000000000E+00 0. -1.
         25    2    1    2    0    0 -0.58428655901E+03  0.40002476068E+03 -0.84792915935E+03  0.11117641155E+04  0.12499998823E+03 0.  0.
          2    1    1    2  501    0  0.21492716770E+02 -0.87246382194E+02 -0.18789051397E+04  0.18810524692E+04  0.00000000000E+00 0. -1.
          1    1    1    2  502    0  0.56279384224E+03 -0.31277837848E+03  0.40183955782E+03  0.75897447463E+03  0.00000000000E+00 0. -1.
         22    1    3    3    0    0 -0.23354079602E+03  0.21148163093E+03 -0.30548229040E+03  0.43884531828E+03  0.00000000000E+00 0.  1.
         22    1    3    3    0    0 -0.35074576299E+03  0.18854312975E+03 -0.54244686895E+03  0.67291879723E+03  0.00000000000E+00 0.  1.
</event>
<event>
 7    1  0.9036454E-005  0.5042500E+03  0.7818608E-02  0.1044629E+00
          2   -1    0    0  502    0  0.00000000000E+00  0.00000000000E+00  0.44111805679E+03  0.44111805679E+03  0.00000000000E+00 0. -1.
          1   -1    0    0  501    0 -0.00000000000E+00 -0.00000000000E+00 -0.26140418620E+04  0.26140418620E+04  0.00000000000E+00 0. -1.
         25    2    1    2    0    0 -0.61703497239E+03  0.51659319714E+02 -0.21652673305E+04  0.22555291429E+04  0.12501303645E+03 0.  0.
          2    1    1    2  501    0  0.31360595569E+03  0.26913209365E+02 -0.25119055056E+03  0.40270300343E+03  0.00000000000E+00 0. -1.
          1    1    1    2  502    0  0.30342901670E+03 -0.78572529079E+02  0.24353407583E+03  0.39692777251E+03  0.00000000000E+00 0. -1.
         22    1    3    3    0    0 -0.46315857158E+02 -0.14811775303E+02 -0.91299780392E+02  0.10344175758E+03  0.00000000000E+00 0.  1.
         22    1    3    3    0    0 -0.57071911523E+03  0.66471095017E+02 -0.20739675501E+04  0.21520873853E+04  0.00000000000E+00 0.  1.
</event>
<event>
 7    1  0.9036454E-005  0.4927220E+02  0.7818608E-02  0.1499811E+00
          2   -1    0    0  502    0  0.00000000000E+00  0.00000000000E+00  0.10278157740E+04  0.10278157740E+04  0.00000000000E+00 0. -1.
          1   -1    0    0  501    0 -0.00000000000E+00 -0.00000000000E+00 -0.12201164011E+03  0.12201164011E+03  0.00000000000E+00 0. -1.
         25    2    1    2    0    0 -0.46116018948E+01 -0.36562891102E+02  0.15194026585E+03  0.20017229005E+03  0.12499995777E+03 0.  0.
          2    1    1    2  501    0 -0.29561642284E+02  0.40430029401E+02 -0.91116861667E+02  0.10397480681E+03  0.00000000000E+00 0. -1.
          1    1    1    2  502    0  0.34173244179E+02 -0.38671382992E+01  0.84498072968E+03  0.84568031721E+03  0.00000000000E+00 0. -1.
         22    1    3    3    0    0 -0.56646966513E+02 -0.97658117645E+01  0.12101767201E+03  0.13397584422E+03  0.00000000000E+00 0.  1.
         22    1    3    3    0    0  0.52035364618E+02 -0.26797079337E+02  0.30922593836E+02  0.66196445837E+02  0.00000000000E+00 0.  1.
</event>
<event>
 7    1  0.9036454E-005  0.3925846E+03  0.7818608E-02  0.1061896E+00
          2   -1    0    0  502    0  0.00000000000E+00  0.00000000000E+00  0.57141629392E+03  0.57141629392E+03  0.00000000000E+00 0. -1.
          1   -1    0    0  501    0 -0.00000000000E+00 -0.00000000000E+00 -0.15426660783E+04  0.15426660783E+04  0.00000000000E+00 0. -1.
         25    2    1    2    0    0 -0.43765927278E+03  0.28804999126E+03 -0.91714544621E+03  0.10636261352E+04  0.12500539804E+03 0.  0.
          2    1    1    2  501    0  0.30532470747E+03  0.78176678630E+02 -0.41392791451E+03  0.52026059671E+03  0.00000000000E+00 0. -1.
          1    1    1    2  502    0  0.13233456530E+03 -0.36622666989E+03  0.35982357632E+03  0.53019564029E+03  0.00000000000E+00 0. -1.
         22    1    3    3    0    0 -0.35417847890E+03  0.24061673831E+03 -0.63743174217E+03  0.76789194266E+03  0.00000000000E+00 0.  1.
         22    1    3    3    0    0 -0.83480793874E+02  0.47433252947E+02 -0.27971370404E+03  0.29573419258E+03  0.00000000000E+00 0.  1.
</event>
<event>
 7    1  0.9036454E-005  0.3121219E+03  0.7818608E-02  0.1221913E+00
          2   -1    0    0  502    0  0.00000000000E+00  0.00000000000E+00  0.14886130544E+04  0.14886130544E+04  0.00000000000E+00 0. -1.
          1   -1    0    0  501    0 -0.00000000000E+00 -0.00000000000E+00 -0.33875986482E+03  0.33875986482E+03  0.00000000000E+00 0. -1.
         25    2    1    2    0    0  0.31142306737E+03  0.15365873249E+03  0.59222328277E+03  0.69781844312E+03  0.12500731955E+03 0.  0.
          2    1    1    2  501    0 -0.57251989393E+02 -0.35780523015E+01 -0.25688132709E+03  0.26320829956E+03  0.00000000000E+00 0. -1.
          1    1    1    2  502    0 -0.25417107798E+03 -0.15008068019E+03  0.81451123393E+03  0.86634617657E+03  0.00000000000E+00 0. -1.
         22    1    3    3    0    0  0.12804880350E+02 -0.13198240118E+02  0.64659053413E+01  0.19492727744E+02  0.00000000000E+00 0. -1.
         22    1    3    3    0    0  0.29861818702E+03  0.16685697261E+03  0.58575737743E+03  0.67832571538E+03  0.00000000000E+00 0. -1.
</event>
<event>
 7    1  0.9036454E-005  0.1545743E+03  0.7818608E-02  0.1297339E+00
          2   -1    0    0  502    0  0.00000000000E+00  0.00000000000E+00  0.13977531069E+04  0.13977531069E+04  0.00000000000E+00 0. -1.
          1   -1    0    0  501    0 -0.00000000000E+00 -0.00000000000E+00 -0.13299308177E+03  0.13299308177E+03  0.00000000000E+00 0. -1.
         25    2    1    2    0    0  0.17707867941E+03  0.10429067477E+03  0.62632504105E+03  0.67092569039E+03  0.12499928572E+03 0.  0.
          2    1    1    2  501    0 -0.13140445214E+03 -0.73410933674E+02 -0.57925177897E+02  0.16128118755E+03  0.00000000000E+00 0. -1.
          1    1    1    2  502    0 -0.45674227273E+02 -0.30879741096E+02  0.69636016197E+03  0.69853931073E+03  0.00000000000E+00 0. -1.
         22    1    3    3    0    0  0.17888772503E+03  0.49998264289E+02  0.46634753249E+03  0.50197675809E+03  0.00000000000E+00 0. -1.
         22    1    3    3    0    0 -0.18090456157E+01  0.54292410480E+02  0.15997750856E+03  0.16894893230E+03  0.00000000000E+00 0. -1.
</event>
<event>
 7    1  0.9036454E-005  0.2686923E+03  0.7818608E-02  0.1204691E+00
          2   -1    0    0  502    0  0.00000000000E+00  0.00000000000E+00  0.17010782100E+04  0.17010782100E+04  0.00000000000E+00 0. -1.
          1   -1    0    0  501    0 -0.00000000000E+00 -0.00000000000E+00 -0.87099849090E+02  0.87099849090E+02  0.00000000000E+00 0. -1.
         25    2    1    2    0    0 -0.23050904761E+03  0.17173647003E+03  0.89229818188E+03  0.94575297124E+03  0.12499920418E+03 0.  0.
          2    1    1    2  501    0 -0.99778872474E+01 -0.79381551963E+02  0.42196241509E+01  0.80117377978E+02  0.00000000000E+00 0. -1.
          1    1    1    2  502    0  0.24048693485E+03 -0.92354918068E+02  0.71746055483E+03  0.76230770982E+03  0.00000000000E+00 0. -1.
         22    1    3    3    0    0 -0.13140654531E+03  0.36625206635E+02  0.28832745326E+03  0.31896991428E+03  0.00000000000E+00 0. -1.
         22    1    3    3    0    0 -0.99102502297E+02  0.13511126340E+03  0.60397072862E+03  0.62678305696E+03  0.00000000000E+00 0. -1.
</event>
<event>
 7    1  0.9036454E-005  0.2264760E+03  0.7818608E-02  0.1210320E+00
          2   -1    0    0  502    0  0.00000000000E+00  0.00000000000E+00  0.18496184896E+04  0.18496184896E+04  0.00000000000E+00 0. -1.
          1   -1    0    0  501    0 -0.00000000000E+00 -0.00000000000E+00 -0.39638504189E+03  0.39638504189E+03  0.00000000000E+00 0. -1.
         25    2    1    2    0    0  0.24874240401E+02 -0.26981984099E+03  0.40371917140E+03  0.50203163076E+03  0.12500045800E+03 0.  0.
          2    1    1    2  501    0  0.59831373820E+02  0.66373239901E+02 -0.33260180849E+03  0.34439681078E+03  0.00000000000E+00 0. -1.
          1    1    1    2  502    0 -0.84705614220E+02  0.20344660109E+03  0.13821160848E+04  0.13995750899E+04  0.00000000000E+00 0. -1.
         22    1    3    3    0    0  0.64671171913E+02 -0.73234502874E+02  0.13930297651E+03  0.17014985205E+03  0.00000000000E+00 0. -1.
         22    1    3    3    0    0 -0.39796931513E+02 -0.19658533811E+03  0.26441619489E+03  0.33188177871E+03  0.00000000000E+00 0. -1.
</event>
<event>
 7    1  0.9036454E-005  0.1808298E+03  0.7818608E-02  0.1381615E+00
          2   -1    0    0  502    0  0.00000000000E+00  0.00000000000E+00  0.10893294734E+04  0.10893294734E+04  0.00000000000E+00 0. -1.
          1   -1    0    0  501    0 -0.00000000000E+00 -0.00000000000E+00 -0.10558206434E+03  0.10558206434E+03  0.00000000000E+00 0. -1.
         25    2    1    2    0    0 -0.84455574976E+02  0.18050109580E+03  0.59984863560E+03  0.64432528424E+03  0.12499318602E+03 0.  0.
          2    1    1    2  501    0  0.68619453771E+02 -0.16426483300E+03  0.12461163654E+02  0.17845684463E+03  0.00000000000E+00 0. -1.
          1    1    1    2  502    0  0.15836121206E+02 -0.16236262807E+02  0.37143760980E+03  0.37212940886E+03  0.00000000000E+00 0. -1.
         22    1    3    3    0    0  0.73900947334E+01 -0.15670952959E+02  0.65244533767E+02  0.67505862362E+02  0.00000000000E+00 0.  1.
         22    1    3    3    0    0 -0.91845669710E+02  0.19617204876E+03  0.53460410183E+03  0.57681942188E+03  0.00000000000E+00 0.  1.
</event>
<event>
 7    1  0.9036454E-005  0.1853123E+03  0.7818608E-02  0.1237459E+00
          2   -1    0    0  502    0  0.00000000000E+00  0.00000000000E+00  0.57572510974E+03  0.57572510974E+03  0.00000000000E+00 0. -1.
          1   -1    0    0  501    0 -0.00000000000E+00 -0.00000000000E+00 -0.57767537716E+03  0.57767537716E+03  0.00000000000E+00 0. -1.
         25    2    1    2    0    0  0.18334371077E+03 -0.18424739878E+03  0.15348982356E+03  0.32672205883E+03  0.12500463012E+03 0.  0.
          2    1    1    2  501    0 -0.11456291420E+03  0.13908414055E+03 -0.46904095853E+03  0.50246241675E+03  0.00000000000E+00 0. -1.
          1    1    1    2  502    0 -0.68780796564E+02  0.45163258228E+02  0.31360086755E+03  0.32421601132E+03  0.00000000000E+00 0. -1.
         22    1    3    3    0    0 -0.14132581457E+02 -0.38871896311E+02  0.35904697169E+02  0.54771356202E+02  0.00000000000E+00 0.  1.
         22    1    3    3    0    0  0.19747629223E+03 -0.14537550247E+03  0.11758512639E+03  0.27195070262E+03  0.00000000000E+00 0.  1.
</event>
<event>
 7    1  0.9036454E-005  0.1925552E+03  0.7818608E-02  0.1202994E+00
          2   -1    0    0  502    0  0.00000000000E+00  0.00000000000E+00  0.63394942446E+03  0.63394942446E+03  0.00000000000E+00 0. -1.
          1   -1    0    0  501    0 -0.00000000000E+00 -0.00000000000E+00 -0.11458480364E+04  0.11458480364E+04  0.00000000000E+00 0. -1.
         25    2    1    2    0    0 -0.28729430681E+03  0.72619515824E+02 -0.59722673420E+03  0.67831832557E+03  0.12499746378E+03 0.  0.
          2    1    1    2  501    0  0.97693521327E+02 -0.58176258608E+02 -0.48611190611E+03  0.49923269768E+03  0.00000000000E+00 0. -1.
          1    1    1    2  502    0  0.18960078549E+03 -0.14443257216E+02  0.57144002839E+03  0.60224643759E+03  0.00000000000E+00 0. -1.
         22    1    3    3    0    0 -0.28030917689E+03  0.46288332234E+02 -0.47833414041E+03  0.55634467215E+03  0.00000000000E+00 0. -1.
         22    1    3    3    0    0 -0.69851299210E+01  0.26331183590E+02 -0.11889259379E+03  0.12197365342E+03  0.00000000000E+00 0. -1.
</event>
<event>
 7    1  0.9036454E-005  0.2268740E+03  0.7818608E-02  0.1202851E+00
          2   -1    0    0  502    0  0.00000000000E+00  0.00000000000E+00  0.13244822210E+04  0.13244822210E+04  0.00000000000E+00 0. -1.
          1   -1    0    0  501    0 -0.00000000000E+00 -0.00000000000E+00 -0.83146977982E+02  0.83146977982E+02  0.00000000000E+00 0. -1.
         25    2    1    2    0    0  0.67448770426E+02  0.18421955528E+03  0.67585962450E+03  0.71477128119E+03  0.12500228481E+03 0.  0.
          2    1    1    2  501    0 -0.16393599722E+03 -0.17856534718E+03  0.19832570588E+03  0.31319910602E+03  0.00000000000E+00 0. -1.
          1    1    1    2  502    0  0.96487226797E+02 -0.56542081059E+01  0.36714991264E+03  0.37965881177E+03  0.00000000000E+00 0. -1.
         22    1    3    3    0    0  0.25217586594E+01 -0.16163171253E+02  0.19566769946E+02  0.25504232154E+02  0.00000000000E+00 0. -1.
         22    1    3    3    0    0  0.64927011767E+02  0.20038272654E+03  0.65629285455E+03  0.68926704904E+03  0.00000000000E+00 0. -1.
</event>
<event>
 7    1  0.1082670E-004  0.1827864E+03  0.7818608E-02  0.1258688E+00
          2   -1    0    0  502    0  0.00000000000E+00  0.00000000000E+00  0.17211466192E+04  0.17211466192E+04  0.00000000000E+00 0. -1.
          1   -1    0    0  501    0 -0.00000000000E+00 -0.00000000000E+00 -0.95922018769E+03  0.95922018769E+03  0.00000000000E+00 0. -1.
         25    2    1    2    0    0  0.12237861918E+03  0.56843606535E+02 -0.62971255196E+03  0.65602584550E+03  0.12499715929E+03 0.  0.
          2    1    1    2  501    0  0.13460970436E+02  0.66076899131E+02 -0.30777758449E+03  0.31507839634E+03  0.00000000000E+00 0. -1.
          1    1    1    2  502    0 -0.13583958961E+03 -0.12292050567E+03  0.16994165680E+04  0.17092625650E+04  0.00000000000E+00 0. -1.
         22    1    3    3    0    0  0.14840396197E+03  0.43439987400E+02 -0.53371075465E+03  0.55565991224E+03  0.00000000000E+00 0. -1.
         22    1    3    3    0    0 -0.26025342795E+02  0.13403619135E+02 -0.96001797308E+02  0.10036593326E+03  0.00000000000E+00 0. -1.
</event>
<event>
 7    1  0.9036454E-005  0.1323643E+03  0.7818608E-02  0.1273494E+00
          2   -1    0    0  502    0  0.00000000000E+00  0.00000000000E+00  0.66738365098E+03  0.66738365098E+03  0.00000000000E+00 0. -1.
          1   -1    0    0  501    0 -0.00000000000E+00 -0.00000000000E+00 -0.25817489205E+03  0.25817489205E+03  0.00000000000E+00 0. -1.
         25    2    1    2    0    0 -0.11475084988E+03  0.12135334710E+03  0.44685920582E+02  0.21333645579E+03  0.12498487696E+03 0.  0.
          2    1    1    2  501    0 -0.93116402832E+01 -0.80087418208E+02 -0.15596027065E+03  0.17556852571E+03  0.00000000000E+00 0. -1.
          1    1    1    2  502    0  0.12406249016E+03 -0.41265928895E+02  0.52048310900E+03  0.53665356153E+03  0.00000000000E+00 0. -1.
         22    1    3    3    0    0 -0.12352645669E+03  0.10340680956E+03  0.74468115166E+02  0.17747465719E+03  0.00000000000E+00 0.  1.
         22    1    3    3    0    0  0.87756068160E+01  0.17946537544E+02 -0.29782194584E+02  0.35861798603E+02  0.00000000000E+00 0.  1.
</event>
<event>
 7    1  0.9036454E-005  0.8282591E+02  0.7818608E-02  0.1388400E+00
          2   -1    0    0  502    0  0.00000000000E+00  0.00000000000E+00  0.11250195230E+03  0.11250195230E+03  0.00000000000E+00 0. -1.
          1   -1    0    0  501    0 -0.00000000000E+00 -0.00000000000E+00 -0.22549426647E+03  0.22549426647E+03  0.00000000000E+00 0. -1.
         25    2    1    2    0    0 -0.75262041315E+02  0.83652073799E+02 -0.69947955513E+01  0.16833097703E+03  0.12499738537E+03 0.  0.
          2    1    1    2  501    0  0.21709802596E+02 -0.41539620668E+02 -0.87190171294E+02  0.98989805456E+02  0.00000000000E+00 0. -1.
          1    1    1    2  502    0  0.53552238719E+02 -0.42112453131E+02 -0.18807347318E+02  0.70675436282E+02  0.00000000000E+00 0. -1.
         22    1    3    3    0    0 -0.91627919530E+02  0.71228822997E+02 -0.45523413692E+02  0.12466596190E+03  0.00000000000E+00 0. -1.
         22    1    3    3    0    0  0.16365878215E+02  0.12423250802E+02  0.38528618141E+02  0.43665015127E+02  0.00000000000E+00 0. -1.
</event>
<event>
 7    1  0.9036454E-005  0.6404275E+03  0.7818608E-02  0.1059956E+00
          2   -1    0    0  502    0  0.00000000000E+00  0.00000000000E+00  0.23127123147E+04  0.23127123147E+04  0.00000000000E+00 0. -1.
          1   -1    0    0  501    0 -0.00000000000E+00 -0.00000000000E+00 -0.17717067359E+04  0.17717067359E+04  0.00000000000E+00 0. -1.
         25    2    1    2    0    0 -0.57301279691E+03 -0.15549035248E+03 -0.52891332132E+03  0.80491929142E+03  0.12499939638E+03 0.  0.
          2    1    1    2  501    0  0.31349077514E+02 -0.19602116855E+03 -0.10473276344E+04  0.10659747825E+04  0.00000000000E+00 0. -1.
          1    1    1    2  502    0  0.54166371940E+03  0.35151152102E+03  0.21172465346E+04  0.22135249767E+04  0.00000000000E+00 0. -1.
         22    1    3    3    0    0  0.47250512647E+01 -0.96843251410E+01 -0.11634814707E+02  0.15858158032E+02  0.00000000000E+00 0.  1.
         22    1    3    3    0    0 -0.57773784818E+03 -0.14580602734E+03 -0.51727850661E+03  0.78906113339E+03  0.00000000000E+00 0.  1.
</event>
<event>
 7    1  0.9036454E-005  0.1124316E+03  0.7818608E-02  0.1452366E+00
          2   -1    0    0  502    0  0.00000000000E+00  0.00000000000E+00  0.81848616390E+03  0.81848616390E+03  0.00000000000E+00 0. -1.
          1   -1    0    0  501    0 -0.00000000000E+00 -0.00000000000E+00 -0.47637685925E+03  0.47637685925E+03  0.00000000000E+00 0. -1.
         25    2    1    2    0    0 -0.47826335563E+02 -0.12242827760E+03  0.48688940921E+02  0.18778068177E+03  0.12495971329E+03 0.  0.
          2    1    1    2  501    0  0.35213823903E+02  0.10549722581E+03 -0.39906586156E+03  0.41427435343E+03  0.00000000000E+00 0. -1.
          1    1    1    2  502    0  0.12612511659E+02  0.16931051797E+02  0.69248622528E+03  0.69280798795E+03  0.00000000000E+00 0. -1.
         22    1    3    3    0    0  0.22171336656E+02 -0.56304798853E+02  0.66440035850E+02  0.89866995647E+02  0.00000000000E+00 0.  1.
         22    1    3    3    0    0 -0.69997672219E+02 -0.66123478752E+02 -0.17751094929E+02  0.97913686120E+02  0.00000000000E+00 0.  1.
</event>
<event>
 7    1  0.9036454E-005  0.2786476E+03  0.7818608E-02  0.1151083E+00
          2   -1    0    0  502    0  0.00000000000E+00  0.00000000000E+00  0.12975703577E+04  0.12975703577E+04  0.00000000000E+00 0. -1.
          1   -1    0    0  501    0 -0.00000000000E+00 -0.00000000000E+00 -0.62662869652E+03  0.62662869652E+03  0.00000000000E+00 0. -1.
         25    2    1    2    0    0 -0.31542272893E+03 -0.17802235585E+03  0.27540664916E+03  0.47186548330E+03  0.12499901929E+03 0.  0.
          2    1    1    2  501    0  0.13973612633E+03 -0.20859543225E+02 -0.49933917778E+03  0.51894211624E+03  0.00000000000E+00 0. -1.
          1    1    1    2  502    0  0.17568660259E+03  0.19888189908E+03  0.89487418982E+03  0.93339145471E+03  0.00000000000E+00 0. -1.
         22    1    3    3    0    0 -0.10897862429E+03 -0.86057531927E+02  0.37737573048E+02  0.14389705964E+03  0.00000000000E+00 0.  1.
         22    1    3    3    0    0 -0.20644410463E+03 -0.91964823925E+02  0.23766907611E+03  0.32796842365E+03  0.00000000000E+00 0.  1.
</event>
<event>
 7    1  0.9036454E-005  0.1973032E+03  0.7818608E-02  0.1246240E+00
          2   -1    0    0  502    0  0.00000000000E+00  0.00000000000E+00  0.16701060359E+03  0.16701060359E+03  0.00000000000E+00 0. -1.
          1   -1    0    0  501    0 -0.00000000000E+00 -0.00000000000E+00 -0.61830875426E+03  0.61830875426E+03  0.00000000000E+00 0. -1.
         25    2    1    2    0    0  0.20940929309E+03  0.44138665688E+02 -0.50054219428E+03  0.55854963979E+03  0.12503894601E+03 0.  0.
          2    1    1    2  501    0 -0.14906790438E+03 -0.72793165198E+01  0.21380338441E+02  0.15076918597E+03  0.00000000000E+00 0. -1.
          1    1    1    2  502    0 -0.60341388710E+02 -0.36859349168E+02  0.27863705164E+02  0.76000532090E+02  0.00000000000E+00 0. -1.
         22    1    3    3    0    0  0.60265260339E+02  0.24103440206E+02 -0.45489212000E+02  0.79259988909E+02  0.00000000000E+00 0. -1.
         22    1    3    3    0    0  0.14914403276E+03  0.20035225482E+02 -0.45505298228E+03  0.47928965088E+03  0.00000000000E+00 0. -1.
</event>
<event>
 7    1  0.9036454E-005  0.3917579E+03  0.7818608E-02  0.1069672E+00
          2   -1    0    0  502    0  0.00000000000E+00  0.00000000000E+00  0.63826108188E+03  0.63826108188E+03  0.00000000000E+00 0. -1.
          1   -1    0    0  501    0 -0.00000000000E+00 -0.00000000000E+00 -0.12919277184E+04  0.12919277184E+04  0.00000000000E+00 0. -1.
         25    2    1    2    0    0  0.13968232222E+03 -0.55861939987E+03  0.20701186436E+03  0.62453669379E+03  0.12500153938E+03 0.  0.
          2    1    1    2  501    0 -0.24079271226E+03  0.29363593276E+03 -0.93777325840E+03  0.10117420004E+04  0.00000000000E+00 0. -1.
          1    1    1    2  502    0  0.10111039004E+03  0.26498346712E+03  0.77094757503E+02  0.29391010608E+03  0.00000000000E+00 0. -1.
         22    1    3    3    0    0  0.40742860248E+02 -0.23446165770E+03  0.14876301796E+03  0.28064690468E+03  0.00000000000E+00 0. -1.
         22    1    3    3    0    0  0.98939461971E+02 -0.32415774217E+03  0.58248846395E+02  0.34388978911E+03  0.00000000000E+00 0. -1.
</event>
<event>
 7    1  0.9036454E-005  0.1879303E+03  0.7818608E-02  0.1274904E+00
          2   -1    0    0  502    0  0.00000000000E+00  0.00000000000E+00  0.58235905553E+03  0.58235905553E+03  0.00000000000E+00 0. -1.
          1   -1    0    0  501    0 -0.00000000000E+00 -0.00000000000E+00 -0.23702188597E+04  0.23702188597E+04  0.00000000000E+00 0. -1.
         25    2    1    2    0    0 -0.19269560439E+03 -0.67601831811E+02  0.24185985422E+03  0.34032791981E+03  0.12500120119E+03 0.  0.
          2    1    1    2  501    0  0.18744338828E+03  0.11825187111E+02 -0.23144511922E+04  0.23220592542E+04  0.00000000000E+00 0. -1.
          1    1    1    2  502    0  0.52522161157E+01  0.55776644700E+02  0.28473153389E+03  0.29019074116E+03  0.00000000000E+00 0. -1.
         22    1    3    3    0    0 -0.69885793968E+02 -0.70209395920E+02  0.17339823146E+03  0.19970060127E+03  0.00000000000E+00 0. -1.
         22    1    3    3    0    0 -0.12280981043E+03  0.26075641091E+01  0.68461622754E+02  0.14062731853E+03  0.00000000000E+00 0. -1.
</event>
<event>
 7    1  0.9036454E-005  0.2006220E+03  0.7818608E-02  0.1229768E+00
          2   -1    0    0  502    0  0.00000000000E+00  0.00000000000E+00  0.23186647703E+03  0.23186647703E+03  0.00000000000E+00 0. -1.
          1   -1    0    0  501    0 -0.00000000000E+00 -0.00000000000E+00 -0.31605404343E+04  0.31605404343E+04  0.00000000000E+00 0. -1.
         25    2    1    2    0    0 -0.22290540420E+03  0.82978582819E+02 -0.21153290353E+03  0.34196299299E+03  0.12498101805E+03 0.  0.
          2    1    1    2  501    0  0.27969874848E+02 -0.77344425023E+02 -0.28259359989E+04  0.28271326011E+04  0.00000000000E+00 0. -1.
          1    1    1    2  502    0  0.19493552935E+03 -0.56341577956E+01  0.10879494517E+03  0.22331131729E+03  0.00000000000E+00 0. -1.
         22    1    3    3    0    0 -0.88185133046E+01 -0.14850869176E+02 -0.59011981182E+02  0.61487628147E+02  0.00000000000E+00 0.  1.
         22    1    3    3    0    0 -0.21408689089E+03  0.97829451995E+02 -0.15252092234E+03  0.28047536484E+03  0.00000000000E+00 0.  1.
</event>
<event>
 7    1  0.9036454E-005  0.1621672E+03  0.7818608E-02  0.1247990E+00
          2   -1    0    0  502    0  0.00000000000E+00  0.00000000000E+00  0.50996919149E+03  0.50996919149E+03  0.00000000000E+00 0. -1.
          1   -1    0    0  501    0 -0.00000000000E+00 -0.00000000000E+00 -0.12457432342E+03  0.12457432342E+03  0.00000000000E+00 0. -1.
         25    2    1    2    0    0  0.12830633905E+03 -0.51771210810E+02  0.18062653960E+03  0.25960280864E+03  0.12499958614E+03 0.  0.
          2    1    1    2  501    0 -0.11710410030E+03  0.13555665824E+03  0.31128816392E+02  0.18181853896E+03  0.00000000000E+00 0. -1.
          1    1    1    2  502    0 -0.11202238757E+02 -0.83785447430E+02  0.17363951207E+03  0.19312216731E+03  0.00000000000E+00 0. -1.
         22    1    3    3    0    0 -0.19454535051E+02 -0.26643316690E+02  0.15040657985E+02  0.36256953139E+02  0.00000000000E+00 0. -1.
         22    1    3    3    0    0  0.14776087410E+03 -0.25127894119E+02  0.16558588162E+03  0.22334585550E+03  0.00000000000E+00 0. -1.
</event>
<event>
 7    1  0.9036454E-005  0.3848275E+03  0.7818608E-02  0.1179080E+00
          2   -1    0    0  502    0  0.00000000000E+00  0.00000000000E+00  0.20528350069E+04  0.20528350069E+04  0.00000000000E+00 0. -1.
          1   -1    0    0  501    0 -0.00000000000E+00 -0.00000000000E+00 -0.65837158009E+03  0.65837158009E+03  0.00000000000E+00 0. -1.
         25    2    1    2    0    0  0.14197428314E+02 -0.40843962136E+03  0.21926595187E+03  0.48033895449E+03  0.12499384897E+03 0.  0.
          2    1    1    2  501    0  0.53059488110E+02  0.37742539865E+03 -0.45808394245E+03  0.59590782774E+03  0.00000000000E+00 0. -1.
          1    1    1    2  502    0 -0.67256916424E+02  0.31014222709E+02  0.16332814174E+04  0.16349598048E+04  0.00000000000E+00 0. -1.
         22    1    3    3    0    0  0.37214662287E+02 -0.83476868218E+02  0.94557604800E+02  0.13150839989E+03  0.00000000000E+00 0.  1.
         22    1    3    3    0    0 -0.23017233973E+02 -0.32496275314E+03  0.12470834707E+03  0.34883055459E+03  0.00000000000E+00 0.  1.
</event>
<event>
 7    1  0.9036454E-005  0.6012637E+03  0.7818608E-02  0.1129506E+00
          2   -1    0    0  502    0  0.00000000000E+00  0.00000000000E+00  0.21468589376E+04  0.21468589376E+04  0.00000000000E+00 0. -1.
          1   -1    0    0  501    0 -0.00000000000E+00 -0.00000000000E+00 -0.30965255027E+03  0.30965255027E+03  0.00000000000E+00 0. -1.
         25    2    1    2    0    0  0.11993138623E+03  0.64046842517E+03  0.63622040759E+03  0.91923096088E+03  0.12500324545E+03 0.  0.
          2    1    1    2  501    0 -0.12579435572E+03 -0.55574331513E+03  0.32257664622E+03  0.65477518656E+03  0.00000000000E+00 0. -1.
          1    1    1    2  502    0  0.58629694900E+01 -0.84725110036E+02  0.87840933349E+03  0.88250534040E+03  0.00000000000E+00 0. -1.
         22    1    3    3    0    0  0.39558705278E+02  0.11090816146E+03  0.18288337523E+03  0.21751285106E+03  0.00000000000E+00 0. -1.
         22    1    3    3    0    0  0.80372680952E+02  0.52956026371E+03  0.45333703236E+03  0.70171810982E+03  0.00000000000E+00 0. -1.
</event>
<event>
 7    1  0.9036454E-005  0.4404782E+03  0.7818608E-02  0.1223646E+00
          2   -1    0    0  502    0  0.00000000000E+00  0.00000000000E+00  0.16638011632E+04  0.16638011632E+04  0.00000000000E+00 0. -1.
          1   -1    0    0  501    0 -0.00000000000E+00 -0.00000000000E+00 -0.74247641809E+03  0.74247641809E+03  0.00000000000E+00 0. -1.
         25    2    1    2    0    0  0.26760629741E+03  0.39594213761E+03  0.10599300939E+04  0.11693842285E+04  0.12499745292E+03 0.  0.
          2    1    1    2  501    0 -0.24252511785E+03 -0.36488750104E+03 -0.61705493944E+03  0.75678142121E+03  0.00000000000E+00 0. -1.
          1    1    1    2  502    0 -0.25081179563E+02 -0.31054636567E+02  0.47844959065E+03  0.48011193155E+03  0.00000000000E+00 0. -1.
         22    1    3    3    0    0  0.14185960657E+03  0.14140685344E+03  0.55608393970E+03  0.59105786025E+03  0.00000000000E+00 0.  1.
         22    1    3    3    0    0  0.12574669084E+03  0.25453528417E+03  0.50384615422E+03  0.57832636830E+03  0.00000000000E+00 0.  1.
</event>
<event>
 7    1  0.9590380E-005  0.1998946E+03  0.7818608E-02  0.1261412E+00
          2   -1    0    0  502    0  0.00000000000E+00  0.00000000000E+00  0.15923676960E+04  0.15923676960E+04  0.00000000000E+00 0. -1.
          1   -1    0    0  501    0 -0.00000000000E+00 -0.00000000000E+00 -0.80082363014E+03  0.80082363014E+03  0.00000000000E+00 0. -1.
         25    2    1    2    0    0  0.70931991402E+02  0.14443404678E+03 -0.95839860845E+02  0.22517149459E+03  0.12499752708E+03 0.  0.
          2    1    1    2  501    0 -0.12542357359E+03 -0.16962778700E+03 -0.62232917250E+03  0.65711358066E+03  0.00000000000E+00 0. -1.
          1    1    1    2  502    0  0.54491582189E+02  0.25193740215E+02  0.15097130992E+04  0.15109062509E+04  0.00000000000E+00 0. -1.
         22    1    3    3    0    0  0.43140689518E+02 -0.11714825043E+02 -0.14982257726E+02  0.47146837268E+02  0.00000000000E+00 0.  1.
         22    1    3    3    0    0  0.27791301884E+02  0.15614887182E+03 -0.80857603119E+02  0.17802465732E+03  0.00000000000E+00 0.  1.
</event>
<event>
 7    1  0.9036454E-005  0.3196950E+03  0.7818608E-02  0.1277912E+00
          2   -1    0    0  502    0  0.00000000000E+00  0.00000000000E+00  0.23430609332E+04  0.23430609332E+04  0.00000000000E+00 0. -1.
          1   -1    0    0  501    0 -0.00000000000E+00 -0.00000000000E+00 -0.23752211194E+03  0.23752211194E+03  0.00000000000E+00 0. -1.
         25    2    1    2    0    0  0.28455790386E+03  0.20376823021E+03  0.20661954340E+04  0.20993528723E+04  0.12499687544E+03 0.  0.
          2    1    1    2  501    0 -0.25923300985E+03 -0.18420939503E+03 -0.10381977769E+03  0.33453460338E+03  0.00000000000E+00 0. -1.
          1    1    1    2  502    0 -0.25324894006E+02 -0.19558835179E+02  0.14316316497E+03  0.14669556944E+03  0.00000000000E+00 0. -1.
         22    1    3    3    0    0  0.21681439324E+03  0.13271887823E+03  0.11416384449E+04  0.11695987007E+04  0.00000000000E+00 0.  1.
         22    1    3    3    0    0  0.67743510622E+02  0.71049351981E+02  0.92455698908E+03  0.92975417165E+03  0.00000000000E+00 0.  1.
</event>
<event>
 7    1  0.9036454E-005  0.6168029E+02  0.7818608E-02  0.1427095E+00
          2   -1    0    0  502    0  0.00000000000E+00  0.00000000000E+00  0.17295429895E+04  0.17295429895E+04  0.00000000000E+00 0. -1.
          1   -1    0    0  501    0 -0.00000000000E+00 -0.00000000000E+00 -0.51995031408E+03  0.51995031408E+03  0.00000000000E+00 0. -1.
         25    2    1    2    0    0 -0.13097151155E+02 -0.10262544821E+03  0.15519923193E+03  0.22453369412E+03  0.12500024086E+03 0.  0.
          2    1    1    2  501    0  0.19913621186E+02  0.42006068306E+02 -0.48356374312E+03  0.48579312031E+03  0.00000000000E+00 0. -1.
          1    1    1    2  502    0 -0.68164700315E+01  0.60619379902E+02  0.15379571866E+04  0.15391664891E+04  0.00000000000E+00 0. -1.
         22    1    3    3    0    0  0.28208431091E+00 -0.94359914751E+02  0.30969587359E+02  0.99312579388E+02  0.00000000000E+00 0.  1.
         22    1    3    3    0    0 -0.13379235466E+02 -0.82655334560E+01  0.12422964457E+03  0.12522111473E+03  0.00000000000E+00 0.  1.
</event>
<event>
 7    1  0.9036454E-005  0.6537790E+02  0.7818608E-02  0.1388159E+00
          2   -1    0    0  502    0  0.00000000000E+00  0.00000000000E+00  0.28374812797E+04  0.28374812797E+04  0.00000000000E+00 0. -1.
          1   -1    0    0  501    0 -0.00000000000E+00 -0.00000000000E+00 -0.35875440906E+03  0.35875440906E+03  0.00000000000E+00 0. -1.
         25    2    1    2    0    0 -0.17354375380E+02 -0.70210119946E+02  0.24921994130E+04  0.24963800900E+04  0.12500001761E+03 0.  0.
          2    1    1    2  501    0  0.57958110063E+02  0.13434035589E+02 -0.35058260717E+03  0.35559496662E+03  0.00000000000E+00 0. -1.
          1    1    1    2  502    0 -0.40603734683E+02  0.56776084357E+02  0.33711006486E+03  0.34426063216E+03  0.00000000000E+00 0. -1.
         22    1    3    3    0    0 -0.17914971746E+02 -0.50973771662E+02  0.24423107336E+04  0.24429083059E+04  0.00000000000E+00 0. -1.
         22    1    3    3    0    0  0.56059636659E+00 -0.19236348284E+02  0.49888679343E+02  0.53471784057E+02  0.00000000000E+00 0. -1.
</event>
<event>
 7    1  0.9036454E-005  0.3689642E+03  0.7818608E-02  0.1157110E+00
          2   -1    0    0  502    0  0.00000000000E+00  0.00000000000E+00  0.63723950609E+03  0.63723950609E+03  0.00000000000E+00 0. -1.
          1   -1    0    0  501    0 -0.00000000000E+00 -0.00000000000E+00 -0.33897278139E+03  0.33897278139E+03  0.00000000000E+00 0. -1.
         25    2    1    2    0    0  0.32613814499E+03  0.10042055164E+03  0.81497493213E+02  0.37244767524E+03  0.12500021031E+03 0.  0.
          2    1    1    2  501    0 -0.34837076065E+03 -0.19730076970E+03  0.41807262710E+02  0.40253897677E+03  0.00000000000E+00 0. -1.
          1    1    1    2  502    0  0.22232615663E+02  0.96880218058E+02  0.17496196878E+03  0.20122563547E+03  0.00000000000E+00 0. -1.
         22    1    3    3    0    0  0.27192981038E+03  0.59547413098E+02  0.17139763187E+02  0.27890049778E+03  0.00000000000E+00 0.  1.
         22    1    3    3    0    0  0.54208334613E+02  0.40873138546E+02  0.64357730026E+02  0.93547177457E+02  0.00000000000E+00 0.  1.
</event>
<event>
 7    1  0.9036454E-005  0.8369301E+02  0.7818608E-02  0.1397537E+00
          2   -1    0    0  502    0  0.00000000000E+00  0.00000000000E+00  0.20482253419E+04  0.20482253419E+04  0.00000000000E+00 0. -1.
          1   -1    0    0  501    0 -0.00000000000E+00 -0.00000000000E+00 -0.31716893962E+03  0.31716893962E+03  0.00000000000E+00 0. -1.
         25    2    1    2    0    0  0.83701613856E+02  0.88199765735E+02  0.18457552486E+03  0.25392575875E+03  0.12500003097E+03 0.  0.
          2    1    1    2  501    0 -0.67032563417E+02 -0.48437051304E+02 -0.27618061795E+03  0.28829714919E+03  0.00000000000E+00 0. -1.
          1    1    1    2  502    0 -0.16669050439E+02 -0.39762714431E+02  0.18226614954E+04  0.18231713736E+04  0.00000000000E+00 0. -1.
         22    1    3    3    0    0  0.11213039537E+03  0.75293879309E+02  0.17541524348E+03  0.22138857575E+03  0.00000000000E+00 0.  1.
         22    1    3    3    0    0 -0.28428781513E+02  0.12905886426E+02  0.91602813784E+01  0.32537183002E+02  0.00000000000E+00 0.  1.
</event>
<event>
 7    1  0.9036454E-005  0.1487010E+03  0.7818608E-02  0.1236793E+00
          2   -1    0    0  502    0  0.00000000000E+00  0.00000000000E+00  0.76723601025E+03  0.76723601025E+03  0.00000000000E+00 0. -1.
          1   -1    0    0  501    0 -0.00000000000E+00 -0.00000000000E+00 -0.38476995685E+04  0.38476995685E+04  0.00000000000E+00 0. -1.
         25    2    1    2    0    0  0.14762194161E+03 -0.13904193721E+03 -0.96011489628E+03  0.98922766065E+03  0.12500341034E+03 0.  0.
          2    1    1    2  501    0 -0.44390607496E+02  0.13764825972E+03 -0.28676570441E+04  0.28713018810E+04  0.00000000000E+00 0. -1.
          1    1    1    2  502    0 -0.10323133411E+03  0.13936774945E+01  0.74730838216E+03  0.75440603704E+03  0.00000000000E+00 0. -1.
         22    1    3    3    0    0  0.44196898455E+02 -0.57441977801E+02 -0.13100919538E+03  0.14972092680E+03  0.00000000000E+00 0. -1.
         22    1    3    3    0    0  0.10342504315E+03 -0.81599959409E+02 -0.82910570089E+03  0.83950673385E+03  0.00000000000E+00 0. -1.
</event>
<event>
 7    1  0.9036454E-005  0.1412457E+03  0.7818608E-02  0.1268219E+00
          2   -1    0    0  502    0  0.00000000000E+00  0.00000000000E+00  0.98142019148E+02  0.98142019148E+02  0.00000000000E+00 0. -1.
          1   -1    0    0  501    0 -0.00000000000E+00 -0.00000000000E+00 -0.95096221356E+03  0.95096221356E+03  0.00000000000E+00 0. -1.
         25    2    1    2    0    0  0.10233101224E+03 -0.16223866987E+03 -0.41119830678E+03  0.47063930464E+03  0.12499714197E+03 0.  0.
          2    1    1    2  501    0 -0.98284164538E+02  0.82836173181E+02 -0.47511322966E+03  0.49219324415E+03  0.00000000000E+00 0. -1.
          1    1    1    2  502    0 -0.40468476996E+01  0.79402496690E+02  0.33491342028E+02  0.86271683928E+02  0.00000000000E+00 0. -1.
         22    1    3    3    0    0  0.60566990987E+02 -0.17326560523E+03 -0.35617173340E+03  0.40068395779E+03  0.00000000000E+00 0.  1.
         22    1    3    3    0    0  0.41764021250E+02  0.11026935363E+02 -0.55026573380E+02  0.69955346847E+02  0.00000000000E+00 0.  1.
</event>
<event>
 7    1  0.9036454E-005  0.7554174E+03  0.7818608E-02  0.1170798E+00
          2   -1    0    0  502    0  0.00000000000E+00  0.00000000000E+00  0.17502148932E+04  0.17502148932E+04  0.00000000000E+00 0. -1.
          1   -1    0    0  501    0 -0.00000000000E+00 -0.00000000000E+00 -0.44267826537E+03  0.44267826537E+03  0.00000000000E+00 0. -1.
         25    2    1    2    0    0  0.71753801374E+03 -0.14572343322E+03  0.94541787423E+03  0.12023045591E+04  0.12500070311E+03 0.  0.
          2    1    1    2  501    0 -0.75494180021E+03  0.12787443614E+03  0.15738561310E+03  0.78170277237E+03  0.00000000000E+00 0. -1.
          1    1    1    2  502    0  0.37403786471E+02  0.17848997080E+02  0.20473314049E+03  0.20888582708E+03  0.00000000000E+00 0. -1.
         22    1    3    3    0    0  0.66995784762E+02 -0.33666757812E+02  0.15727152838E+03  0.17423036301E+03  0.00000000000E+00 0.  1.
         22    1    3    3    0    0  0.65054222898E+03 -0.11205667541E+03  0.78814634585E+03  0.10280741961E+04  0.00000000000E+00 0.  1.
</event>
<event>
 7    1  0.9036454E-005  0.2276603E+03  0.7818608E-02  0.1185358E+00
          2   -1    0    0  502    0  0.00000000000E+00  0.00000000000E+00  0.92652723762E+03  0.92652723762E+03  0.00000000000E+00 0. -1.
          1   -1    0    0  501    0 -0.00000000000E+00 -0.00000000000E+00 -0.88858939657E+03  0.88858939657E+03  0.00000000000E+00 0. -1.
         25    2    1    2    0    0  0.17436291345E+03 -0.19319590480E+03 -0.24474674333E+03  0.37848729406E+03  0.12499832069E+03 0.  0.
          2    1    1    2  501    0 -0.59808157936E+02  0.21544272704E+03 -0.55109381079E+03  0.59472428291E+03  0.00000000000E+00 0. -1.
          1    1    1    2  502    0 -0.11455475552E+03 -0.22246822241E+02  0.83377839517E+03  0.84190505721E+03  0.00000000000E+00 0. -1.
         22    1    3    3    0    0  0.18517944091E+03 -0.19319007107E+03 -0.25021918233E+03  0.36636521137E+03  0.00000000000E+00 0. -1.
         22    1    3    3    0    0 -0.10816527457E+02 -0.58337307002E-02  0.54724389954E+01  0.12122082693E+02  0.00000000000E+00 0. -1.
</event>
<event>
 7    1  0.9036454E-005  0.1415724E+03  0.7818608E-02  0.1240924E+00
          2   -1    0    0  502    0  0.00000000000E+00  0.00000000000E+00  0.16283269485E+04  0.16283269485E+04  0.00000000000E+00 0. -1.
          1   -1    0    0  501    0 -0.00000000000E+00 -0.00000000000E+00 -0.93587260821E+02  0.93587260821E+02  0.00000000000E+00 0. -1.
         25    2    1    2    0    0  0.11671423249E+03 -0.65210076249E+02  0.56661307007E+02  0.19159951256E+03  0.12500121356E+03 0.  0.
          2    1    1    2  501    0 -0.85827391790E+02  0.16449265910E+03  0.33859073932E+03  0.38609307793E+03  0.00000000000E+00 0. -1.
          1    1    1    2  502    0 -0.30886840704E+02 -0.99282582848E+02  0.11394876414E+04  0.11442216189E+04  0.00000000000E+00 0. -1.
         22    1    3    3    0    0  0.10488192143E+03  0.11295896004E+02  0.36180688877E+02  0.11152065708E+03  0.00000000000E+00 0. -1.
         22    1    3    3    0    0  0.11832311069E+02 -0.76505972253E+02  0.20480618130E+02  0.80078855478E+02  0.00000000000E+00 0. -1.
</event>
<event>
 7    1  0.9036454E-005  0.1464074E+03  0.7818608E-02  0.1280710E+00
          2   -1    0    0  502    0  0.00000000000E+00  0.00000000000E+00  0.28393020919E+03  0.28393020919E+03  0.00000000000E+00 0. -1.
          1   -1    0    0  501    0 -0.00000000000E+00 -0.00000000000E+00 -0.10346157357E+04  0.10346157357E+04  0.00000000000E+00 0. -1.
         25    2    1    2    0    0  0.45405264477E+02 -0.18798362564E+03 -0.29828093835E+03  0.37682350205E+03  0.12499980786E+03 0.  0.
          2    1    1    2  501    0  0.17177092299E+01  0.13891126391E+03 -0.68522477443E+03  0.69916541767E+03  0.00000000000E+00 0. -1.
          1    1    1    2  502    0 -0.47122973707E+02  0.49072361729E+02  0.23282018626E+03  0.24255702519E+03  0.00000000000E+00 0. -1.
         22    1    3    3    0    0  0.57208830502E+02 -0.19386815319E+02 -0.64745891008E+02  0.88547892680E+02  0.00000000000E+00 0. -1.
         22    1    3    3    0    0 -0.11803566025E+02 -0.16859681032E+03 -0.23353504734E+03  0.28827560937E+03  0.00000000000E+00 0. -1.
</event>
<event>
 7    1  0.9036454E-005  0.1621883E+03  0.7818608E-02  0.1278535E+00
          2   -1    0    0  502    0  0.00000000000E+00  0.00000000000E+00  0.39240998705E+02  0.39240998705E+02  0.00000000000E+00 0. -1.
          1   -1    0    0  501    0 -0.00000000000E+00 -0.00000000000E+00 -0.25869697888E+04  0.25869697888E+04  0.00000000000E+00 0. -1.
         25    2    1    2    0    0 -0.18931517562E+03 -0.69819290587E+02 -0.13085479394E+04  0.13299012091E+04  0.12499818919E+03 0.  0.
          2    1    1    2  501    0  0.14439436324E+03  0.26077167896E+02 -0.12227098978E+04  0.12314825395E+04  0.00000000000E+00 0. -1.
          1    1    1    2  502    0  0.44920812381E+02  0.43742122690E+02 -0.16470952878E+02  0.64827038889E+02  0.00000000000E+00 0. -1.
         22    1    3    3    0    0 -0.37969532352E+02 -0.76823882812E+02 -0.49621912835E+03  0.50356431336E+03  0.00000000000E+00 0.  1.
         22    1    3    3    0    0 -0.15134564327E+03  0.70045922254E+01 -0.81232881103E+03  0.82633689575E+03  0.00000000000E+00 0.  1.
</event>
<event>
 7    1  0.9036454E-005  0.1893907E+03  0.7818608E-02  0.1313201E+00
          2   -1    0    0  502    0  0.00000000000E+00  0.00000000000E+00  0.33031324944E+04  0.33031324944E+04  0.00000000000E+00 0. -1.
          1   -1    0    0  501    0 -0.00000000000E+00 -0.00000000000E+00 -0.62370396771E+03  0.62370396771E+03  0.00000000000E+00 0. -1.
         25    2    1    2    0    0  0.13379014806E+03  0.75234131829E+02  0.76746838804E+03  0.79258578442E+03  0.12499808281E+03 0.  0.
          2    1    1    2  501    0 -0.17241974543E+03 -0.80010760879E+02 -0.59621086601E+03  0.62577766596E+03  0.00000000000E+00 0. -1.
          1    1    1    2  502    0  0.38629597370E+02  0.47766290500E+01  0.25081710047E+04  0.25084730118E+04  0.00000000000E+00 0. -1.
         22    1    3    3    0    0  0.11412023636E+03 -0.52608743685E+01  0.48043528099E+03  0.49383110916E+03  0.00000000000E+00 0.  1.
         22    1    3    3    0    0  0.19669911699E+02  0.80495006198E+02  0.28703310705E+03  0.29875467526E+03  0.00000000000E+00 0.  1.
</event>
<event>
 7    1  0.9036454E-005  0.2809921E+03  0.7818608E-02  0.1186978E+00
          2   -1    0    0  502    0  0.00000000000E+00  0.00000000000E+00  0.13800876100E+03  0.13800876100E+03  0.00000000000E+00 0. -1.
          1   -1    0    0  501    0 -0.00000000000E+00 -0.00000000000E+00 -0.13349108675E+04  0.13349108675E+04  0.00000000000E+00 0. -1.
         25    2    1    2    0    0  0.84270418778E+02 -0.21569579489E+03 -0.15495042276E+03  0.30538804442E+03  0.12500417893E+03 0.  0.
          2    1    1    2  501    0 -0.34886200759E+02  0.29433369252E+03 -0.10324921010E+04  0.10741923981E+04  0.00000000000E+00 0. -1.
          1    1    1    2  502    0 -0.49384218018E+02 -0.78637897635E+02 -0.94595827540E+01  0.93339185981E+02  0.00000000000E+00 0. -1.
         22    1    3    3    0    0 -0.13403460050E+02 -0.93740718240E+01 -0.52846805972E+02  0.55320076512E+02  0.00000000000E+00 0.  1.
         22    1    3    3    0    0  0.97673878828E+02 -0.20632172306E+03 -0.10210361679E+03  0.25006796791E+03  0.00000000000E+00 0.  1.
</event>
<event>
 7    1  0.9036454E-005  0.8055957E+02  0.7818608E-02  0.1338977E+00
          2   -1    0    0  502    0  0.00000000000E+00  0.00000000000E+00  0.12654004760E+04  0.12654004760E+04  0.00000000000E+00 0. -1.
          1   -1    0    0  501    0 -0.00000000000E+00 -0.00000000000E+00 -0.14999947635E+03  0.14999947635E+03  0.00000000000E+00 0. -1.
         25    2    1    2    0    0  0.23187244770E+02  0.60821064060E+02 -0.55686313965E+02  0.15153131836E+03  0.12499569884E+03 0.  0.
          2    1    1    2  501    0 -0.72758924925E+02  0.34652456235E+01 -0.15529342171E+02  0.74478383117E+02  0.00000000000E+00 0. -1.
          1    1    1    2  502    0  0.49571680154E+02 -0.64286309683E+02  0.11866166558E+04  0.11893902509E+04  0.00000000000E+00 0. -1.
         22    1    3    3    0    0  0.23389897443E+02  0.18189015431E+02  0.38243877028E+02  0.48378938753E+02  0.00000000000E+00 0. -1.
         22    1    3    3    0    0 -0.20265267256E+00  0.42632048629E+02 -0.93930190993E+02  0.10315237961E+03  0.00000000000E+00 0. -1.
</event>
<event>
 7    1  0.9036454E-005  0.2170192E+03  0.7818608E-02  0.1187492E+00
          2   -1    0    0  502    0  0.00000000000E+00  0.00000000000E+00  0.14090016051E+04  0.14090016051E+04  0.00000000000E+00 0. -1.
          1   -1    0    0  501    0 -0.00000000000E+00 -0.00000000000E+00 -0.34195093552E+04  0.34195093552E+04  0.00000000000E+00 0. -1.
         25    2    1    2    0    0  0.21847167448E+03  0.21667363698E+03 -0.43557419619E+03  0.54774777551E+03  0.12500163071E+03 0.  0.
          2    1    1    2  501    0 -0.18549503191E+03 -0.10176453328E+03 -0.29213742391E+04  0.29290257548E+04  0.00000000000E+00 0. -1.
          1    1    1    2  502    0 -0.32976642569E+02 -0.11490910370E+03  0.13464406852E+04  0.13517374301E+04  0.00000000000E+00 0. -1.
         22    1    3    3    0    0 -0.10918288444E+02  0.15516683948E+02 -0.65137355737E+02  0.67844318964E+02  0.00000000000E+00 0.  1.
         22    1    3    3    0    0  0.22938996292E+03  0.20115695303E+03 -0.37043684045E+03  0.47990345655E+03  0.00000000000E+00 0.  1.
</event>
<event>
 7    1  0.9036454E-005  0.1064124E+04  0.7818608E-02  0.9697965E-01
          2   -1    0    0  502    0  0.00000000000E+00  0.00000000000E+00  0.10582812377E+04  0.10582812377E+04  0.00000000000E+00 0. -1.
          1   -1    0    0  501    0 -0.00000000000E+00 -0.00000000000E+00 -0.25728561655E+04  0.25728561655E+04  0.00000000000E+00 0. -1.
         25    2    1    2    0    0  0.11756887148E+04 -0.45992206671E+03  0.27943886101E+03  0.12990319701E+04  0.12500288255E+03 0.  0.
          2    1    1    2  501    0 -0.41102869679E+03  0.23920553683E+03 -0.13262707000E+04  0.14089562975E+04  0.00000000000E+00 0. -1.
          1    1    1    2  502    0 -0.76466001801E+03  0.22071652987E+03 -0.46774308874E+03  0.92314913572E+03  0.00000000000E+00 0. -1.
         22    1    3    3    0    0  0.22040990435E+03 -0.92322871871E+02  0.37702444461E+01  0.23899425380E+03  0.00000000000E+00 0.  1.
         22    1    3    3    0    0  0.95527881045E+03 -0.36759919483E+03  0.27566861656E+03  0.10600377163E+04  0.00000000000E+00 0.  1.
</event>
<event>
 7    1  0.9036454E-005  0.2965458E+03  0.7818608E-02  0.1199361E+00
          2   -1    0    0  502    0  0.00000000000E+00  0.00000000000E+00  0.39458982759E+03  0.39458982759E+03  0.00000000000E+00 0. -1.
          1   -1    0    0  501    0 -0.00000000000E+00 -0.00000000000E+00 -0.12067631996E+04  0.12067631996E+04  0.00000000000E+00 0. -1.
         25    2    1    2    0    0 -0.20853804984E+03  0.82767848835E+02  0.30599755397E+03  0.39949775913E+03  0.12500128592E+03 0.  0.
          2    1    1    2  501    0  0.28264227044E+03 -0.10291862093E+03 -0.10693620935E+04  0.11108619098E+04  0.00000000000E+00 0. -1.
          1    1    1    2  502    0 -0.74104220603E+02  0.20150772092E+02 -0.48808832541E+02  0.90993358335E+02  0.00000000000E+00 0. -1.
         22    1    3    3    0    0 -0.55345738208E+01  0.32047264831E+02  0.10281831526E+03  0.10783906826E+03  0.00000000000E+00 0.  1.
         22    1    3    3    0    0 -0.20300347602E+03  0.50720584004E+02  0.20317923872E+03  0.29165869087E+03  0.00000000000E+00 0.  1.
</event>
<event>
 7    1  0.9036454E-005  0.2185704E+03  0.7818608E-02  0.1227474E+00
          2   -1    0    0  502    0  0.00000000000E+00  0.00000000000E+00  0.18921523731E+04  0.18921523731E+04  0.00000000000E+00 0. -1.
          1   -1    0    0  501    0 -0.00000000000E+00 -0.00000000000E+00 -0.22219887166E+03  0.22219887166E+03  0.00000000000E+00 0. -1.
         25    2    1    2    0    0  0.19171541667E+03 -0.13627000158E+03 -0.32697982080E+02  0.26836467212E+03  0.12500449948E+03 0.  0.
          2    1    1    2  501    0 -0.65114597182E+02 -0.41669058806E+02 -0.41824473643E+02  0.87894868015E+02  0.00000000000E+00 0. -1.
          1    1    1    2  502    0 -0.12660081949E+03  0.17793906039E+03  0.17444759572E+04  0.17580917046E+04  0.00000000000E+00 0. -1.
         22    1    3    3    0    0 -0.14023416203E+02  0.59809579438E+01  0.34705802215E+01  0.15635631967E+02  0.00000000000E+00 0.  1.
         22    1    3    3    0    0  0.20573883287E+03 -0.14225095953E+03 -0.36168562302E+02  0.25272904016E+03  0.00000000000E+00 0.  1.
</event>
<event>
 7    1  0.9036454E-005  0.9701425E+02  0.7818608E-02  0.1314032E+00
          2   -1    0    0  502    0  0.00000000000E+00  0.00000000000E+00  0.13011032139E+04  0.13011032139E+04  0.00000000000E+00 0. -1.
          1   -1    0    0  501    0 -0.00000000000E+00 -0.00000000000E+00 -0.87412439889E+02  0.87412439889E+02  0.00000000000E+00 0. -1.
         25    2    1    2    0    0 -0.10320701436E+03  0.75553804767E+02  0.60938560326E+02  0.18895430010E+03  0.12502061496E+03 0.  0.
          2    1    1    2  501    0  0.27908508969E+02 -0.79819035123E+02  0.58752680265E+02  0.10296524015E+03  0.00000000000E+00 0. -1.
          1    1    1    2  502    0  0.75298505387E+02  0.42652303563E+01  0.10939995334E+04  0.10965961135E+04  0.00000000000E+00 0. -1.
         22    1    3    3    0    0 -0.77893656076E+02  0.82873804389E+02  0.93381540052E+02  0.14715842189E+03  0.00000000000E+00 0. -1.
         22    1    3    3    0    0 -0.25313358280E+02 -0.73199996222E+01 -0.32442979726E+02  0.41795878210E+02  0.00000000000E+00 0. -1.
</event>
<event>
 7    1  0.9036454E-005  0.1557604E+03  0.7818608E-02  0.1211579E+00
          2   -1    0    0  502    0  0.00000000000E+00  0.00000000000E+00  0.30611418318E+04  0.30611418318E+04  0.00000000000E+00 0. -1.
          1   -1    0    0  501    0 -0.00000000000E+00 -0.00000000000E+00 -0.57312658739E+03  0.57312658739E+03  0.00000000000E+00 0. -1.
         25    2    1    2    0    0  0.10698983451E+03  0.65527282040E+02  0.29095109188E+04  0.29148961995E+04  0.12500167174E+03 0.  0.
          2    1    1    2  501    0  0.15156133121E+03  0.35923144197E+02 -0.41311482697E+03  0.44150330652E+03  0.00000000000E+00 0. -1.
          1    1    1    2  502    0 -0.25855116572E+03 -0.10145042624E+03 -0.83808474468E+01  0.27786891312E+03  0.00000000000E+00 0. -1.
         22    1    3    3    0    0 -0.18181103387E+02  0.42933050276E+02  0.55633996829E+03  0.55829021095E+03  0.00000000000E+00 0. -1.
         22    1    3    3    0    0  0.12517093790E+03  0.22594231764E+02  0.23531709505E+04  0.23566059886E+04  0.00000000000E+00 0. -1.
</event>
<event>
 7    1  0.9036454E-005  0.4375365E+03  0.7818608E-02  0.1065267E+00
          2   -1    0    0  502    0  0.00000000000E+00  0.00000000000E+00  0.77888704537E+03  0.77888704537E+03  0.00000000000E+00 0. -1.
          1   -1    0    0  501    0 -0.00000000000E+00 -0.00000000000E+00 -0.83476708268E+03  0.83476708268E+03  0.00000000000E+00 0. -1.
         25    2    1    2    0    0  0.51697660262E+03 -0.41175821939E+03 -0.25490758706E+03  0.71931379272E+03  0.12499926224E+03 0.  0.
          2    1    1    2  501    0 -0.17373516980E+03  0.20648607533E+03 -0.19497746457E+03  0.33292134240E+03  0.00000000000E+00 0. -1.
          1    1    1    2  502    0 -0.34324143281E+03  0.20527214406E+03  0.39400501431E+03  0.56141899293E+03  0.00000000000E+00 0. -1.
         22    1    3    3    0    0  0.19464005117E+03 -0.23371755538E+03 -0.10571197950E+03  0.32199948420E+03  0.00000000000E+00 0.  1.
         22    1    3    3    0    0  0.32233655145E+03 -0.17804066401E+03 -0.14919560756E+03  0.39731430852E+03  0.00000000000E+00 0.  1.
</event>
<event>
 7    1  0.9036454E-005  0.2011796E+03  0.7818608E-02  0.1280145E+00
          2   -1    0    0  502    0  0.00000000000E+00  0.00000000000E+00  0.14071164401E+04  0.14071164401E+04  0.00000000000E+00 0. -1.
          1   -1    0    0  501    0 -0.00000000000E+00 -0.00000000000E+00 -0.12914061844E+03  0.12914061844E+03  0.00000000000E+00 0. -1.
         25    2    1    2    0    0 -0.10811967300E+03  0.20917511057E+03  0.25907814973E+03  0.37173972459E+03  0.12499937840E+03 0.  0.
          2    1    1    2  501    0  0.74155455167E+02 -0.17278436154E+03  0.50294024419E+02  0.19463544389E+03  0.00000000000E+00 0. -1.
          1    1    1    2  502    0  0.33964217828E+02 -0.36390749032E+02  0.96860364756E+03  0.96988189012E+03  0.00000000000E+00 0. -1.
         22    1    3    3    0    0 -0.76529801500E+02  0.51795894234E+02  0.15492351900E+03  0.18039102504E+03  0.00000000000E+00 0.  1.
         22    1    3    3    0    0 -0.31589871495E+02  0.15737921634E+03  0.10415463073E+03  0.19134869955E+03  0.00000000000E+00 0.  1.
</event>
<event>
 7    1  0.9036454E-005  0.1495983E+03  0.7818608E-02  0.1251425E+00
          2   -1    0    0  502    0  0.00000000000E+00  0.00000000000E+00  0.30078545805E+04  0.30078545805E+04  0.00000000000E+00 0. -1.
          1   -1    0    0  501    0 -0.00000000000E+00 -0.00000000000E+00 -0.46306874694E+02  0.46306874694E+02  0.00000000000E+00 0. -1.
         25    2    1    2    0    0  0.42876263761E+02  0.21082509827E+03  0.22347310373E+04  0.22485404060E+04  0.12500220898E+03 0.  0.
          2    1    1    2  501    0  0.16350006676E+02 -0.14500947119E+03  0.11067530227E+03  0.18315046269E+03  0.00000000000E+00 0. -1.
          1    1    1    2  502    0 -0.59226270437E+02 -0.65815627077E+02  0.61614136632E+03  0.62247058659E+03  0.00000000000E+00 0. -1.
         22    1    3    3    0    0  0.47089966990E+01  0.19731517709E+03  0.20469872643E+04  0.20564805649E+04  0.00000000000E+00 0.  1.
         22    1    3    3    0    0  0.38167267063E+02  0.13509921178E+02  0.18774377299E+03  0.19205984104E+03  0.00000000000E+00 0.  1.
</event>
<event>
 7    1  0.9036454E-005  0.7819399E+02  0.7818608E-02  0.1445775E+00
          2   -1    0    0  502    0  0.00000000000E+00  0.00000000000E+00  0.83631360909E+03  0.83631360909E+03  0.00000000000E+00 0. -1.
          1   -1    0    0  501    0 -0.00000000000E+00 -0.00000000000E+00 -0.36831803412E+02  0.36831803412E+02  0.00000000000E+00 0. -1.
         25    2    1    2    0    0 -0.32375785953E+02 -0.61563691051E+02  0.22423295860E+03  0.26597111709E+03  0.12498774273E+03 0.  0.
          2    1    1    2  501    0  0.63505737597E+02  0.54739625759E+02  0.98455317601E+02  0.12931687786E+03  0.00000000000E+00 0. -1.
          1    1    1    2  502    0 -0.31129951644E+02  0.68240652914E+01  0.47679352947E+03  0.47785741754E+03  0.00000000000E+00 0. -1.
         22    1    3    3    0    0  0.71871480026E+01 -0.25154557952E+02 -0.81876986161E+01  0.27412502455E+02  0.00000000000E+00 0.  1.
         22    1    3    3    0    0 -0.39562933955E+02 -0.36409133098E+02  0.23242065722E+03  0.23855861464E+03  0.00000000000E+00 0.  1.
</event>
<event>
 7    1  0.9036454E-005  0.4393332E+03  0.7818608E-02  0.1124267E+00
          2   -1    0    0  502    0  0.00000000000E+00  0.00000000000E+00  0.11397704060E+04  0.11397704060E+04  0.00000000000E+00 0. -1.
          1   -1    0    0  501    0 -0.00000000000E+00 -0.00000000000E+00 -0.22056755362E+04  0.22056755362E+04  0.00000000000E+00 0. -1.
         25    2    1    2    0    0 -0.41529933740E+02 -0.52057844389E+03 -0.54547708350E+03  0.76544107871E+03  0.12501257820E+03 0.  0.
          2    1    1    2  501    0  0.86529657747E+02  0.88818318038E+02 -0.15017997020E+04  0.15069102230E+04  0.00000000000E+00 0. -1.
          1    1    1    2  502    0 -0.44999724007E+02  0.43176012585E+03  0.98137165535E+03  0.10730946404E+04  0.00000000000E+00 0. -1.
         22    1    3    3    0    0 -0.44149813171E+02 -0.47896403490E+03 -0.43947158056E+03  0.65152975592E+03  0.00000000000E+00 0.  1.
         22    1    3    3    0    0  0.26198794314E+01 -0.41614408981E+02 -0.10600550295E+03  0.11391132278E+03  0.00000000000E+00 0.  1.
</event>
<event>
 7    1  0.9036454E-005  0.1745324E+03  0.7818608E-02  0.1182315E+00
          2   -1    0    0  502    0  0.00000000000E+00  0.00000000000E+00  0.66863409603E+02  0.66863409603E+02  0.00000000000E+00 0. -1.
          1   -1    0    0  501    0 -0.00000000000E+00 -0.00000000000E+00 -0.21363618581E+04  0.21363618581E+04  0.00000000000E+00 0. -1.
         25    2    1    2    0    0 -0.40507478959E+02  0.30418433229E+03 -0.14663019117E+04  0.15032748474E+04  0.12500002768E+03 0.  0.
          2    1    1    2  501    0 -0.19038622272E+02 -0.15632196717E+03 -0.45805695498E+03  0.48437093282E+03  0.00000000000E+00 0. -1.
          1    1    1    2  502    0  0.59546101231E+02 -0.14786236512E+03 -0.14513958187E+03  0.21557948747E+03  0.00000000000E+00 0. -1.
         22    1    3    3    0    0  0.31794727631E+02  0.20650973282E+03 -0.97902288261E+03  0.10010709161E+04  0.00000000000E+00 0.  1.
         22    1    3    3    0    0 -0.72302206590E+02  0.97674599473E+02 -0.48727902907E+03  0.50220393132E+03  0.00000000000E+00 0.  1.
</event>
<event>
 7    1  0.9036454E-005  0.5040648E+02  0.7818608E-02  0.1464038E+00
          2   -1    0    0  502    0  0.00000000000E+00  0.00000000000E+00  0.77560951861E+03  0.77560951861E+03  0.00000000000E+00 0. -1.
          1   -1    0    0  501    0 -0.00000000000E+00 -0.00000000000E+00 -0.45612902733E+02  0.45612902733E+02  0.00000000000E+00 0. -1.
         25    2    1    2    0    0  0.19898675882E+02  0.43834681674E+02  0.32907572102E+03  0.35529315328E+03  0.12499983193E+03 0.  0.
          2    1    1    2  501    0 -0.50006560280E+02 -0.12779441999E+02 -0.10138856520E+02  0.52600062931E+02  0.00000000000E+00 0. -1.
          1    1    1    2  502    0  0.30107884398E+02 -0.31055239675E+02  0.41105975138E+03  0.41332920513E+03  0.00000000000E+00 0. -1.
         22    1    3    3    0    0  0.65953332477E+02 -0.80260909189E+00  0.20901544602E+03  0.21917559837E+03  0.00000000000E+00 0. -1.
         22    1    3    3    0    0 -0.46054656595E+02  0.44637290766E+02  0.12006027500E+03  0.13611755491E+03  0.00000000000E+00 0. -1.
</event>
<event>
 7    1  0.9036454E-005  0.2595867E+03  0.7818608E-02  0.1219329E+00
          2   -1    0    0  502    0  0.00000000000E+00  0.00000000000E+00  0.37011485334E+03  0.37011485334E+03  0.00000000000E+00 0. -1.
          1   -1    0    0  501    0 -0.00000000000E+00 -0.00000000000E+00 -0.13476043085E+04  0.13476043085E+04  0.00000000000E+00 0. -1.
         25    2    1    2    0    0 -0.22438517645E+03 -0.20828259576E+03 -0.20264307630E+03  0.38783931853E+03  0.12499909408E+03 0.  0.
          2    1    1    2  501    0  0.70159494554E+02  0.99950804833E+01 -0.99399539564E+03  0.99651849098E+03  0.00000000000E+00 0. -1.
          1    1    1    2  502    0  0.15422568190E+03  0.19828751528E+03  0.21914901677E+03  0.33336135233E+03  0.00000000000E+00 0. -1.
         22    1    3    3    0    0 -0.48357627259E+02 -0.98506186602E+01 -0.83634234151E+02  0.97109113497E+02  0.00000000000E+00 0. -1.
         22    1    3    3    0    0 -0.17602754919E+03 -0.19843197710E+03 -0.11900884215E+03  0.29073020503E+03  0.00000000000E+00 0. -1.
</event>
<event>
 7    1  0.9036454E-005  0.3197604E+03  0.7818608E-02  0.1208742E+00
          2   -1    0    0  502    0  0.00000000000E+00  0.00000000000E+00  0.14312438506E+04  0.14312438506E+04  0.00000000000E+00 0. -1.
          1   -1    0    0  501    0 -0.00000000000E+00 -0.00000000000E+00 -0.68482373995E+03  0.68482373995E+03  0.00000000000E+00 0. -1.
         25    2    1    2    0    0  0.27774603527E+03  0.15061717745E+03  0.77636478929E+03  0.84746438791E+03  0.12500083390E+03 0.  0.
          2    1    1    2  501    0 -0.25679173766E+02  0.59022455837E+02 -0.60405571256E+03  0.60747541031E+03  0.00000000000E+00 0. -1.
          1    1    1    2  502    0 -0.25206686150E+03 -0.20963963329E+03  0.57411103395E+03  0.66112779234E+03  0.00000000000E+00 0. -1.
         22    1    3    3    0    0  0.74171829048E+01 -0.14240987870E+02  0.11792815080E+02  0.19922118995E+02  0.00000000000E+00 0.  1.
         22    1    3    3    0    0  0.27032885236E+03  0.16485816532E+03  0.76457197421E+03  0.82754226892E+03  0.00000000000E+00 0.  1.
</event>
<event>
 7    1  0.9036454E-005  0.2905993E+03  0.7818608E-02  0.1199080E+00
          2   -1    0    0  502    0  0.00000000000E+00  0.00000000000E+00  0.67637506864E+03  0.67637506864E+03  0.00000000000E+00 0. -1.
          1   -1    0    0  501    0 -0.00000000000E+00 -0.00000000000E+00 -0.63237714028E+03  0.63237714028E+03  0.00000000000E+00 0. -1.
         25    2    1    2    0    0  0.13857862582E+03  0.26053563205E+03  0.58277644270E+03  0.66508380427E+03  0.12500093377E+03 0.  0.
          2    1    1    2  501    0 -0.78014837423E+02 -0.96296882813E+01 -0.21923324492E+03  0.23289968105E+03  0.00000000000E+00 0. -1.
          1    1    1    2  502    0 -0.60563788398E+02 -0.25090594376E+03 -0.31954526941E+03  0.41076872359E+03  0.00000000000E+00 0. -1.
         22    1    3    3    0    0  0.25798614460E+01 -0.11485782894E+02  0.64156918086E+01  0.13406714555E+02  0.00000000000E+00 0. -1.
         22    1    3    3    0    0  0.13599876438E+03  0.27202141494E+03  0.57636075089E+03  0.65167708972E+03  0.00000000000E+00 0. -1.
</event>
<event>
 7    1  0.9036454E-005  0.3344311E+03  0.7818608E-02  0.1203819E+00
          2   -1    0    0  502    0  0.00000000000E+00  0.00000000000E+00  0.22419065555E+03  0.22419065555E+03  0.00000000000E+00 0. -1.
          1   -1    0    0  501    0 -0.00000000000E+00 -0.00000000000E+00 -0.18412441043E+04  0.18412441043E+04  0.00000000000E+00 0. -1.
         25    2    1    2    0    0  0.29778992266E+03  0.21425902205E+03 -0.18901161280E+03  0.43120266379E+03  0.12499832368E+03 0.  0.
          2    1    1    2  501    0 -0.64137601189E+02 -0.98284992153E+01 -0.12947390963E+04  0.12963639762E+04  0.00000000000E+00 0. -1.
          1    1    1    2  502    0 -0.23365232147E+03 -0.20443052284E+03 -0.13330273959E+03  0.33786811980E+03  0.00000000000E+00 0. -1.
         22    1    3    3    0    0  0.77049820564E+02  0.32690847376E+02  0.79732660557E+01  0.84076984500E+02  0.00000000000E+00 0.  1.
         22    1    3    3    0    0  0.22074010209E+03  0.18156817468E+03 -0.19698487885E+03  0.34712567929E+03  0.00000000000E+00 0.  1.
</event>
<event>
 7    1  0.9036454E-005  0.1025021E+03  0.7818608E-02  0.1349836E+00
          2   -1    0    0  502    0  0.00000000000E+00  0.00000000000E+00  0.14794027881E+04  0.14794027881E+04  0.00000000000E+00 0. -1.
          1   -1    0    0  501    0 -0.00000000000E+00 -0.00000000000E+00 -0.16427943821E+03  0.16427943821E+03  0.00000000000E+00 0. -1.
         25    2    1    2    0    0  0.30324791913E+02  0.69145337390E+02  0.50111892597E+03  0.52196050081E+03  0.12498766239E+03 0.  0.
          2    1    1    2  501    0 -0.82144289784E+02 -0.63358671046E+02 -0.13557490444E+03  0.17071192183E+03  0.00000000000E+00 0. -1.
          1    1    1    2  502    0  0.51819497871E+02 -0.57866663434E+01  0.94957932830E+03  0.95100980363E+03  0.00000000000E+00 0. -1.
         22    1    3    3    0    0  0.70464937510E+02  0.23823962833E+02  0.17315797926E+03  0.18845841559E+03  0.00000000000E+00 0. -1.
         22    1    3    3    0    0 -0.40140145597E+02  0.45321374557E+02  0.32796094671E+03  0.33350208522E+03  0.00000000000E+00 0. -1.
</event>
<event>
 7    1  0.9036454E-005  0.8876999E+02  0.7818608E-02  0.1425580E+00
          2   -1    0    0  502    0  0.00000000000E+00  0.00000000000E+00  0.14746973014E+04  0.14746973014E+04  0.00000000000E+00 0. -1.
          1   -1    0    0  501    0 -0.00000000000E+00 -0.00000000000E+00 -0.13766422345E+03  0.13766422345E+03  0.00000000000E+00 0. -1.
         25    2    1    2    0    0  0.80515172903E+01  0.88535513144E+02  0.95133914353E+03  0.96362338848E+03  0.12498201789E+03 0.  0.
          2    1    1    2  501    0 -0.32663747527E+02 -0.89062351332E+00 -0.12540649814E+03  0.12959360860E+03  0.00000000000E+00 0. -1.
          1    1    1    2  502    0  0.24612230237E+02 -0.87644889630E+02  0.51110043252E+03  0.51914452773E+03  0.00000000000E+00 0. -1.
         22    1    3    3    0    0  0.37452246064E+01  0.78409231222E+02  0.94916657891E+03  0.95240707094E+03  0.00000000000E+00 0.  1.
         22    1    3    3    0    0  0.43062926839E+01  0.10126281922E+02  0.21725646195E+01  0.11216317545E+02  0.00000000000E+00 0.  1.
</event>
<event>
 7    1  0.9036454E-005  0.2672318E+03  0.7818608E-02  0.1143445E+00
          2   -1    0    0  502    0  0.00000000000E+00  0.00000000000E+00  0.43389714652E+03  0.43389714652E+03  0.00000000000E+00 0. -1.
          1   -1    0    0  501    0 -0.00000000000E+00 -0.00000000000E+00 -0.12550857674E+04  0.12550857674E+04  0.00000000000E+00 0. -1.
         25    2    1    2    0    0 -0.43661032083E+02 -0.24456067067E+03 -0.53175717039E+03  0.60008932103E+03  0.12500119035E+03 0.  0.
          2    1    1    2  501    0  0.16133892066E+03 -0.12087863361E+01 -0.63137077235E+03  0.65166000388E+03  0.00000000000E+00 0. -1.
          1    1    1    2  502    0 -0.11767788858E+03  0.24576945701E+03  0.34193932190E+03  0.43723358897E+03  0.00000000000E+00 0. -1.
         22    1    3    3    0    0  0.17961727423E+02 -0.10526927036E+03 -0.11780251576E+03  0.15900212468E+03  0.00000000000E+00 0. -1.
         22    1    3    3    0    0 -0.61622759507E+02 -0.13929140031E+03 -0.41395465463E+03  0.44108719635E+03  0.00000000000E+00 0. -1.
</event>
<event>
 7    1  0.9036454E-005  0.2161184E+03  0.7818608E-02  0.1141461E+00
          2   -1    0    0  502    0  0.00000000000E+00  0.00000000000E+00  0.36362281332E+03  0.36362281332E+03  0.00000000000E+00 0. -1.
          1   -1    0    0  501    0 -0.00000000000E+00 -0.00000000000E+00 -0.57647484953E+03  0.57647484953E+03  0.00000000000E+00 0. -1.
         25    2    1    2    0    0  0.30884233915E+03 -0.84472900401E+02 -0.22447232679E+03  0.41052618758E+03  0.12499865536E+03 0.  0.
          2    1    1    2  501    0 -0.11710732936E+03  0.16742047765E+03 -0.15976156498E+03  0.25935978981E+03  0.00000000000E+00 0. -1.
          1    1    1    2  502    0 -0.19173500979E+03 -0.82947577246E+02  0.17138185555E+03  0.27021168546E+03  0.00000000000E+00 0. -1.
         22    1    3    3    0    0  0.24550135297E+03 -0.11662955427E+03 -0.18959047427E+03  0.33138786214E+03  0.00000000000E+00 0.  1.
         22    1    3    3    0    0  0.63340986176E+02  0.32156653869E+02 -0.34881852513E+02  0.79138325434E+02  0.00000000000E+00 0.  1.
</event>
<event>
 7    1  0.9036454E-005  0.1815527E+03  0.7818608E-02  0.1279607E+00
          2   -1    0    0  502    0  0.00000000000E+00  0.00000000000E+00  0.30297713465E+03  0.30297713465E+03  0.00000000000E+00 0. -1.
          1   -1    0    0  501    0 -0.00000000000E+00 -0.00000000000E+00 -0.30728959816E+04  0.30728959816E+04  0.00000000000E+00 0. -1.
         25    2    1    2    0    0 -0.17622258722E+03 -0.90648007844E+02  0.92166319341E+02  0.25178748435E+03  0.12502337893E+03 0.  0.
          2    1    1    2  501    0  0.17795354584E+03  0.35232296168E+02 -0.29843389612E+04  0.29898474567E+04  0.00000000000E+00 0. -1.
          1    1    1    2  502    0 -0.17309586192E+01  0.55415711677E+02  0.12225379489E+03  0.13423817521E+03  0.00000000000E+00 0. -1.
         22    1    3    3    0    0 -0.14229643582E+02  0.29410293058E+02  0.12134285746E+02  0.34852388509E+02  0.00000000000E+00 0.  1.
         22    1    3    3    0    0 -0.16199294364E+03 -0.12005830090E+03  0.80032033594E+02  0.21693509584E+03  0.00000000000E+00 0.  1.
</event>
<event>
 7    1  0.9036454E-005  0.2242155E+03  0.7818608E-02  0.1136970E+00
          2   -1    0    0  502    0  0.00000000000E+00  0.00000000000E+00  0.32611512796E+04  0.32611512796E+04  0.00000000000E+00 0. -1.
          1   -1    0    0  501    0 -0.00000000000E+00 -0.00000000000E+00 -0.12652261815E+03  0.12652261815E+03  0.00000000000E+00 0. -1.
         25    2    1    2    0    0  0.13429675989E+03  0.12790307147E+03  0.59397084878E+03  0.63468773989E+03  0.12502936681E+03 0.  0.
          2    1    1    2  501    0 -0.16484555546E+03  0.12669868434E+03  0.87164213770E+01  0.20809274320E+03  0.00000000000E+00 0. -1.
          1    1    1    2  502    0  0.30548795576E+02 -0.25460175582E+03  0.25319413913E+04  0.25448934146E+04  0.00000000000E+00 0. -1.
         22    1    3    3    0    0  0.55419910178E+02  0.12684172831E+03  0.44623435137E+03  0.46721010994E+03  0.00000000000E+00 0. -1.
         22    1    3    3    0    0  0.78876849708E+02  0.10613431574E+01  0.14773649741E+03  0.16747762995E+03  0.00000000000E+00 0. -1.
</event>
<event>
 7    1  0.9036454E-005  0.4436877E+02  0.7818608E-02  0.1537610E+00
          2   -1    0    0  502    0  0.00000000000E+00  0.00000000000E+00  0.15708434332E+04  0.15708434332E+04  0.00000000000E+00 0. -1.
          1   -1    0    0  501    0 -0.00000000000E+00 -0.00000000000E+00 -0.23938132966E+02  0.23938132966E+02  0.00000000000E+00 0. -1.
         25    2    1    2    0    0  0.49449966882E+02 -0.26653830019E+02  0.75126378610E+03  0.76366094975E+03  0.12500017597E+03 0.  0.
          2    1    1    2  501    0 -0.55756895047E+01  0.29119154331E+02 -0.43128408709E+01  0.29960207923E+02  0.00000000000E+00 0. -1.
          1    1    1    2  502    0 -0.43874277378E+02 -0.24653243121E+01  0.79995435503E+03  0.80116040852E+03  0.00000000000E+00 0. -1.
         22    1    3    3    0    0  0.19941744524E+02  0.35614540110E+02  0.53789750137E+03  0.53944396430E+03  0.00000000000E+00 0. -1.
         22    1    3    3    0    0  0.29508222359E+02 -0.62268370129E+02  0.21336628472E+03  0.22421698544E+03  0.00000000000E+00 0. -1.
</event>
<event>
 7    1  0.9036454E-005  0.2390819E+03  0.7818608E-02  0.1240149E+00
          2   -1    0    0  502    0  0.00000000000E+00  0.00000000000E+00  0.19453930576E+04  0.19453930576E+04  0.00000000000E+00 0. -1.
          1   -1    0    0  501    0 -0.00000000000E+00 -0.00000000000E+00 -0.95178962444E+02  0.95178962444E+02  0.00000000000E+00 0. -1.
         25    2    1    2    0    0 -0.97818221160E+02 -0.23759552019E+03  0.19146751367E+03  0.34395404661E+03  0.12499816712E+03 0.  0.
          2    1    1    2  501    0  0.62003171936E+02  0.25571396050E+01  0.86276503755E+02  0.10627590222E+03  0.00000000000E+00 0. -1.
          1    1    1    2  502    0  0.35815049223E+02  0.23503838058E+03  0.15724700777E+04  0.15903420712E+04  0.00000000000E+00 0. -1.
         22    1    3    3    0    0 -0.11361929405E+03 -0.12379441169E+03  0.89716719576E+02  0.19048225670E+03  0.00000000000E+00 0. -1.
         22    1    3    3    0    0  0.15801072888E+02 -0.11380110850E+03  0.10175079409E+03  0.15347178991E+03  0.00000000000E+00 0. -1.
</event>
<event>
 7    1  0.9036454E-005  0.1673995E+03  0.7818608E-02  0.1286652E+00
          2   -1    0    0  502    0  0.00000000000E+00  0.00000000000E+00  0.10596455530E+04  0.10596455530E+04  0.00000000000E+00 0. -1.
          1   -1    0    0  501    0 -0.00000000000E+00 -0.00000000000E+00 -0.58501683747E+03  0.58501683747E+03  0.00000000000E+00 0. -1.
         25    2    1    2    0    0 -0.77770415191E+02 -0.11288665858E+03  0.30071439004E+03  0.35333452383E+03  0.12499802474E+03 0.  0.
          2    1    1    2  501    0  0.13325826720E+03  0.10365582410E+03 -0.54482905484E+03  0.57038670623E+03  0.00000000000E+00 0. -1.
          1    1    1    2  502    0 -0.55487852009E+02  0.92308344787E+01  0.71874338028E+03  0.72094116038E+03  0.00000000000E+00 0. -1.
         22    1    3    3    0    0 -0.50966304206E+02 -0.93503807199E+02  0.30200589533E+03  0.32023130225E+03  0.00000000000E+00 0. -1.
         22    1    3    3    0    0 -0.26804110985E+02 -0.19382851379E+02 -0.12915052888E+01  0.33103221583E+02  0.00000000000E+00 0. -1.
</event>
<event>
 7    1  0.9036454E-005  0.1050173E+04  0.7818608E-02  0.1075105E+00
          2   -1    0    0  502    0  0.00000000000E+00  0.00000000000E+00  0.20092796287E+04  0.20092796287E+04  0.00000000000E+00 0. -1.
          1   -1    0    0  501    0 -0.00000000000E+00 -0.00000000000E+00 -0.20641580572E+04  0.20641580572E+04  0.00000000000E+00 0. -1.
         25    2    1    2    0    0  0.37680870190E+03 -0.10308592587E+04 -0.60064978068E+03  0.12574021137E+04  0.12499722960E+03 0.  0.
          2    1    1    2  501    0 -0.29704335857E+03  0.97352774194E+03 -0.90497153108E+03  0.13619708122E+04  0.00000000000E+00 0. -1.
          1    1    1    2  502    0 -0.79765343332E+02  0.57331516768E+02  0.14507428833E+04  0.14540647600E+04  0.00000000000E+00 0. -1.
         22    1    3    3    0    0  0.61321340269E+02 -0.83514551880E+02 -0.32529758014E+02  0.10859637335E+03  0.00000000000E+00 0.  1.
         22    1    3    3    0    0  0.31548736163E+03 -0.94734470683E+03 -0.56812002267E+03  0.11488057404E+04  0.00000000000E+00 0.  1.
</event>
<event>
 7    1  0.9036454E-005  0.1536366E+03  0.7818608E-02  0.1301208E+00
          2   -1    0    0  502    0  0.00000000000E+00  0.00000000000E+00  0.45538359368E+03  0.45538359368E+03  0.00000000000E+00 0. -1.
          1   -1    0    0  501    0 -0.00000000000E+00 -0.00000000000E+00 -0.84104092657E+03  0.84104092657E+03  0.00000000000E+00 0. -1.
         25    2    1    2    0    0 -0.92366438160E+02  0.11319615961E+03  0.36171309082E+03  0.40964238109E+03  0.12500236345E+03 0.  0.
          2    1    1    2  501    0 -0.27580308723E+02  0.45870959807E+02 -0.67145622613E+03  0.67358613554E+03  0.00000000000E+00 0. -1.
          1    1    1    2  502    0  0.11994674688E+03 -0.15906711941E+03 -0.75914197584E+02  0.21319600363E+03  0.00000000000E+00 0. -1.
         22    1    3    3    0    0 -0.65940119880E+02  0.13853969224E+03  0.26475235113E+03  0.30599861628E+03  0.00000000000E+00 0. -1.
         22    1    3    3    0    0 -0.26426318280E+02 -0.25343532627E+02  0.96960739684E+02  0.10364376481E+03  0.00000000000E+00 0. -1.
</event>
<event>
 7    1  0.9036454E-005  0.1276541E+04  0.7818608E-02  0.9464093E-01
          2   -1    0    0  502    0  0.00000000000E+00  0.00000000000E+00  0.29822654185E+04  0.29822654185E+04  0.00000000000E+00 0. -1.
          1   -1    0    0  501    0 -0.00000000000E+00 -0.00000000000E+00 -0.92944998546E+03  0.92944998546E+03  0.00000000000E+00 0. -1.
         25    2    1    2    0    0  0.13889439924E+04 -0.61872555383E+03  0.75510347484E+03  0.17022904875E+04  0.12499968473E+03 0.  0.
          2    1    1    2  501    0 -0.81822133650E+03  0.77865759616E+03  0.55294165256E+03  0.12575922546E+04  0.00000000000E+00 0. -1.
          1    1    1    2  502    0 -0.57072265589E+03 -0.15993204233E+03  0.74477030563E+03  0.95183266190E+03  0.00000000000E+00 0. -1.
         22    1    3    3    0    0  0.13851327504E+04 -0.62115803168E+03  0.74451836407E+03  0.16907801841E+04  0.00000000000E+00 0.  1.
         22    1    3    3    0    0  0.38112419708E+01  0.24324778495E+01  0.10585110770E+02  0.11510303378E+02  0.00000000000E+00 0.  1.
</event>
<event>
 7    1  0.9036454E-005  0.2828842E+03  0.7818608E-02  0.1155349E+00
          2   -1    0    0  502    0  0.00000000000E+00  0.00000000000E+00  0.26050035729E+04  0.26050035729E+04  0.00000000000E+00 0. -1.
          1   -1    0    0  501    0 -0.00000000000E+00 -0.00000000000E+00 -0.15052080776E+04  0.15052080776E+04  0.00000000000E+00 0. -1.
         25    2    1    2    0    0 -0.49523953640E+02 -0.37846047424E+03  0.19564576945E+03  0.44675133080E+03  0.12499812768E+03 0.  0.
          2    1    1    2  501    0  0.82552951380E+02  0.10344463322E+03 -0.13680513559E+04  0.13744381741E+04  0.00000000000E+00 0. -1.
          1    1    1    2  502    0 -0.33028997740E+02  0.27501584102E+03  0.22722010818E+04  0.22890221457E+04  0.00000000000E+00 0. -1.
         22    1    3    3    0    0  0.27439797210E+02 -0.18829624608E+03  0.55187728723E+02  0.19812648526E+03  0.00000000000E+00 0.  1.
         22    1    3    3    0    0 -0.76963750849E+02 -0.19016422816E+03  0.14045804072E+03  0.24862484554E+03  0.00000000000E+00 0.  1.
</event>
<event>
 7    1  0.9036454E-005  0.7935275E+02  0.7818608E-02  0.1357913E+00
          2   -1    0    0  502    0  0.00000000000E+00  0.00000000000E+00  0.64807808954E+03  0.64807808954E+03  0.00000000000E+00 0. -1.
          1   -1    0    0  501    0 -0.00000000000E+00 -0.00000000000E+00 -0.12982945716E+03  0.12982945716E+03  0.00000000000E+00 0. -1.
         25    2    1    2    0    0  0.89391631470E+02  0.66273172545E+02  0.66263509606E+02  0.17999671363E+03  0.12499986815E+03 0.  0.
          2    1    1    2  501    0 -0.62440916435E+02  0.75287422872E+01 -0.55802884839E+02  0.84080389877E+02  0.00000000000E+00 0. -1.
          1    1    1    2  502    0 -0.26950715036E+02 -0.73801914832E+02  0.50778800761E+03  0.51383044319E+03  0.00000000000E+00 0. -1.
         22    1    3    3    0    0 -0.84486454627E+01 -0.28769531062E+02  0.47251188609E+01  0.30354444089E+02  0.00000000000E+00 0.  1.
         22    1    3    3    0    0  0.97840276933E+02  0.95042703607E+02  0.61538390745E+02  0.14964226955E+03  0.00000000000E+00 0.  1.
</event>
<event>
 7    1  0.9036454E-005  0.2613477E+03  0.7818608E-02  0.1192399E+00
          2   -1    0    0  502    0  0.00000000000E+00  0.00000000000E+00  0.87282994535E+03  0.87282994535E+03  0.00000000000E+00 0. -1.
          1   -1    0    0  501    0 -0.00000000000E+00 -0.00000000000E+00 -0.18817828691E+03  0.18817828691E+03  0.00000000000E+00 0. -1.
         25    2    1    2    0    0 -0.27025303890E+03 -0.50046693540E+02  0.36076196922E+03  0.47044115818E+03  0.12499723319E+03 0.  0.
          2    1    1    2  501    0  0.22491085694E+03  0.13242415492E+03  0.81548352483E+01  0.26112746258E+03  0.00000000000E+00 0. -1.
          1    1    1    2  502    0  0.45342181960E+02 -0.82377461382E+02  0.31573485398E+03  0.32943961150E+03  0.00000000000E+00 0. -1.
         22    1    3    3    0    0 -0.15242021000E+03 -0.79377828606E+02  0.15450379721E+03  0.23109345175E+03  0.00000000000E+00 0. -1.
         22    1    3    3    0    0 -0.11783282889E+03  0.29331135065E+02  0.20625817201E+03  0.23934770642E+03  0.00000000000E+00 0. -1.
</event>
<event>
 7    1  0.9036454E-005  0.5580067E+02  0.7818608E-02  0.1532672E+00
          2   -1    0    0  502    0  0.00000000000E+00  0.00000000000E+00  0.17527146513E+03  0.17527146513E+03  0.00000000000E+00 0. -1.
          1   -1    0    0  501    0 -0.00000000000E+00 -0.00000000000E+00 -0.56088333060E+03  0.56088333060E+03  0.00000000000E+00 0. -1.
         25    2    1    2    0    0 -0.18365511878E+02 -0.40999814649E+02 -0.47332695263E+03  0.49161009961E+03  0.12499523641E+03 0.  0.
          2    1    1    2  501    0  0.19224841009E+02 -0.14943061945E+02 -0.71633724534E+02  0.75658972388E+02  0.00000000000E+00 0. -1.
          1    1    1    2  502    0 -0.85932913091E+00  0.55942876594E+02  0.15934881170E+03  0.16888572372E+03  0.00000000000E+00 0. -1.
         22    1    3    3    0    0  0.40333796950E+02 -0.49901203758E+02 -0.33485827489E+03  0.34095015702E+03  0.00000000000E+00 0.  1.
         22    1    3    3    0    0 -0.58699308828E+02  0.89013891082E+01 -0.13846867775E+03  0.15065994259E+03  0.00000000000E+00 0.  1.
</event>
<event>
 7    1  0.9036454E-005  0.3651949E+03  0.7818608E-02  0.1140662E+00
          2   -1    0    0  502    0  0.00000000000E+00  0.00000000000E+00  0.70771121364E+03  0.70771121364E+03  0.00000000000E+00 0. -1.
          1   -1    0    0  501    0 -0.00000000000E+00 -0.00000000000E+00 -0.52204995219E+03  0.52204995219E+03  0.00000000000E+00 0. -1.
         25    2    1    2    0    0  0.16303600403E+03 -0.29037252692E+03  0.17588660238E+03  0.39680948951E+03  0.12499892427E+03 0.  0.
          2    1    1    2  501    0 -0.71066493888E+02 -0.99260916662E+02 -0.30186359018E+03  0.32561450091E+03  0.00000000000E+00 0. -1.
          1    1    1    2  502    0 -0.91969510140E+02  0.38963344358E+03  0.31163824926E+03  0.50733717541E+03  0.00000000000E+00 0. -1.
         22    1    3    3    0    0  0.61197812953E+02 -0.11376239180E+03  0.13877147293E+03  0.18959054775E+03  0.00000000000E+00 0.  1.
         22    1    3    3    0    0  0.10183819107E+03 -0.17661013512E+03  0.37115129448E+02  0.20721894176E+03  0.00000000000E+00 0.  1.
</event>
<event>
 7    1  0.9036454E-005  0.2586220E+03  0.7818608E-02  0.1176949E+00
          2   -1    0    0  502    0  0.00000000000E+00  0.00000000000E+00  0.24219297561E+04  0.24219297561E+04  0.00000000000E+00 0. -1.
          1   -1    0    0  501    0 -0.00000000000E+00 -0.00000000000E+00 -0.70854882679E+02  0.70854882679E+02  0.00000000000E+00 0. -1.
         25    2    1    2    0    0 -0.18817032627E+03  0.70733958346E+02  0.67340885104E+03  0.71380472336E+03  0.12500535140E+03 0.  0.
          2    1    1    2  501    0 -0.10896891156E+03 -0.29477781895E+02  0.49248717956E+02  0.12316086851E+03  0.00000000000E+00 0. -1.
          1    1    1    2  502    0  0.29713923783E+03 -0.41256176451E+02  0.16284173044E+04  0.16558190469E+04  0.00000000000E+00 0. -1.
         22    1    3    3    0    0 -0.73545731843E+02  0.22662287685E+02  0.95344478150E+02  0.12252805176E+03  0.00000000000E+00 0. -1.
         22    1    3    3    0    0 -0.11462459443E+03  0.48071670661E+02  0.57806437289E+03  0.59127667160E+03  0.00000000000E+00 0. -1.
</event>
<event>
 7    1  0.9036454E-005  0.1476467E+04  0.7818608E-02  0.1107235E+00
          2   -1    0    0  502    0  0.00000000000E+00  0.00000000000E+00  0.22670161270E+04  0.22670161270E+04  0.00000000000E+00 0. -1.
          1   -1    0    0  501    0 -0.00000000000E+00 -0.00000000000E+00 -0.27001196888E+04  0.27001196888E+04  0.00000000000E+00 0. -1.
         25    2    1    2    0    0  0.11956661962E+04  0.85628224740E+03 -0.15960456340E+04  0.21738959765E+04  0.12500044399E+03 0.  0.
          2    1    1    2  501    0 -0.12355187151E+04 -0.83385223420E+03 -0.13299407294E+03  0.14964970656E+04  0.00000000000E+00 0. -1.
          1    1    1    2  502    0  0.39852518895E+02 -0.22430013200E+02  0.12959361451E+04  0.12967427736E+04  0.00000000000E+00 0. -1.
         22    1    3    3    0    0  0.23074518170E+03  0.20077226552E+03 -0.27235921225E+03  0.40955143997E+03  0.00000000000E+00 0. -1.
         22    1    3    3    0    0  0.96492101451E+03  0.65550998188E+03 -0.13236864217E+04  0.17643445366E+04  0.00000000000E+00 0. -1.
</event>
<event>
 7    1  0.9036454E-005  0.5427218E+03  0.7818608E-02  0.1155370E+00
          2   -1    0    0  502    0  0.00000000000E+00  0.00000000000E+00  0.70999386652E+03  0.70999386652E+03  0.00000000000E+00 0. -1.
          1   -1    0    0  501    0 -0.00000000000E+00 -0.00000000000E+00 -0.87911011306E+03  0.87911011306E+03  0.00000000000E+00 0. -1.
         25    2    1    2    0    0  0.49371267928E+03 -0.21794791097E+03  0.44915085888E+03  0.71317238263E+03  0.12499940693E+03 0.  0.
          2    1    1    2  501    0 -0.52146236731E+03  0.15481007157E+03 -0.58675466321E+03  0.80010636391E+03  0.00000000000E+00 0. -1.
          1    1    1    2  502    0  0.27749688027E+02  0.63137839402E+02 -0.31512442211E+02  0.75825233030E+02  0.00000000000E+00 0. -1.
         22    1    3    3    0    0  0.77487462994E+02 -0.32945416324E+01  0.11152469103E+03  0.13584151661E+03  0.00000000000E+00 0.  1.
         22    1    3    3    0    0  0.41622521629E+03 -0.21465336934E+03  0.33762616785E+03  0.57733086602E+03  0.00000000000E+00 0.  1.
</event>
<event>
 7    1  0.9036454E-005  0.1235735E+03  0.7818608E-02  0.1348757E+00
          2   -1    0    0  502    0  0.00000000000E+00  0.00000000000E+00  0.39411015733E+03  0.39411015733E+03  0.00000000000E+00 0. -1.
          1   -1    0    0  501    0 -0.00000000000E+00 -0.00000000000E+00 -0.28190417486E+03  0.28190417486E+03  0.00000000000E+00 0. -1.
         25    2    1    2    0    0 -0.99167597997E+02  0.54466060291E+02 -0.20444641418E+03  0.26499890404E+03  0.12500127461E+03 0.  0.
          2    1    1    2  501    0 -0.23916766875E+02 -0.36515280815E+02 -0.22974220599E+02  0.49327398906E+02  0.00000000000E+00 0. -1.
          1    1    1    2  502    0  0.12308436487E+03 -0.17950779476E+02  0.33962661725E+03  0.36168802925E+03  0.00000000000E+00 0. -1.
         22    1    3    3    0    0  0.15462476188E+02 -0.95007071905E+01 -0.86954413410E+02  0.88828045225E+02  0.00000000000E+00 0.  1.
         22    1    3    3    0    0 -0.11463007419E+03  0.63966767481E+02 -0.11749200077E+03  0.17617085881E+03  0.00000000000E+00 0.  1.
</event>
<event>
 7    1  0.9036454E-005  0.5440716E+03  0.7818608E-02  0.1083891E+00
          2   -1    0    0  502    0  0.00000000000E+00  0.00000000000E+00  0.23375611610E+03  0.23375611610E+03  0.00000000000E+00 0. -1.
          1   -1    0    0  501    0 -0.00000000000E+00 -0.00000000000E+00 -0.20825409470E+04  0.20825409470E+04  0.00000000000E+00 0. -1.
         25    2    1    2    0    0 -0.12718132767E+03 -0.47641404526E+03 -0.12889484894E+04  0.13856977011E+04  0.12499791151E+03 0.  0.
          2    1    1    2  501    0  0.13802099406E+03 -0.96529084852E+02 -0.10007869017E+03  0.19591682737E+03  0.00000000000E+00 0. -1.
          1    1    1    2  502    0 -0.10839666383E+02  0.57294313011E+03 -0.45975765134E+03  0.73468253462E+03  0.00000000000E+00 0. -1.
         22    1    3    3    0    0 -0.58338068752E+02 -0.26779390641E+03 -0.54566380252E+03  0.61062745759E+03  0.00000000000E+00 0.  1.
         22    1    3    3    0    0 -0.68843258921E+02 -0.20862013885E+03 -0.74328468690E+03  0.77507024354E+03  0.00000000000E+00 0.  1.
</event>
<event>
 7    1  0.9036454E-005  0.1269875E+04  0.7818608E-02  0.9334057E-01
          2   -1    0    0  502    0  0.00000000000E+00  0.00000000000E+00  0.11923260801E+04  0.11923260801E+04  0.00000000000E+00 0. -1.
          1   -1    0    0  501    0 -0.00000000000E+00 -0.00000000000E+00 -0.29151873658E+04  0.29151873658E+04  0.00000000000E+00 0. -1.
         25    2    1    2    0    0 -0.19161081078E+02 -0.12853728984E+04 -0.12265249475E+02  0.12916365513E+04  0.12499563780E+03 0.  0.
          2    1    1    2  501    0  0.74429173228E+03  0.10585078197E+03 -0.22418226680E+03  0.78449490727E+03  0.00000000000E+00 0. -1.
          1    1    1    2  502    0 -0.72513065120E+03  0.11795221164E+04 -0.14864137693E+04  0.20313819873E+04  0.00000000000E+00 0. -1.
         22    1    3    3    0    0  0.40763886236E+02 -0.21555941668E+03  0.13977168147E+02  0.21982474331E+03  0.00000000000E+00 0.  1.
         22    1    3    3    0    0 -0.59924967314E+02 -0.10698134817E+04 -0.26242417622E+02  0.10718118080E+04  0.00000000000E+00 0.  1.
</event>
<event>
 7    1  0.9036454E-005  0.2804582E+03  0.7818608E-02  0.1143361E+00
          2   -1    0    0  502    0  0.00000000000E+00  0.00000000000E+00  0.26170927470E+04  0.26170927470E+04  0.00000000000E+00 0. -1.
          1   -1    0    0  501    0 -0.00000000000E+00 -0.00000000000E+00 -0.21651240443E+03  0.21651240443E+03  0.00000000000E+00 0. -1.
         25    2    1    2    0    0 -0.19147008895E+03 -0.17858115485E+03  0.94140356702E+03  0.98509777273E+03  0.12499968805E+03 0.  0.
          2    1    1    2  501    0  0.10113754562E+03 -0.11598885103E+03 -0.14713643155E+03  0.21291159243E+03  0.00000000000E+00 0. -1.
          1    1    1    2  502    0  0.90332543328E+02  0.29457000589E+03  0.16063132071E+04  0.16355957863E+04  0.00000000000E+00 0. -1.
         22    1    3    3    0    0 -0.19367906932E+03 -0.15441629163E+03  0.70106945139E+03  0.74354175988E+03  0.00000000000E+00 0.  1.
         22    1    3    3    0    0  0.22089803704E+01 -0.24164863218E+02  0.24033411563E+03  0.24155601285E+03  0.00000000000E+00 0.  1.
</event>
<event>
 7    1  0.9036454E-005  0.4996226E+03  0.7818608E-02  0.1192263E+00
          2   -1    0    0  502    0  0.00000000000E+00  0.00000000000E+00  0.24788662109E+04  0.24788662109E+04  0.00000000000E+00 0. -1.
          1   -1    0    0  501    0 -0.00000000000E+00 -0.00000000000E+00 -0.78832375151E+03  0.78832375151E+03  0.00000000000E+00 0. -1.
         25    2    1    2    0    0  0.21230191008E+03 -0.50249483667E+03 -0.25613626494E+03  0.61547059034E+03  0.12500039782E+03 0.  0.
          2    1    1    2  501    0 -0.12483026789E+02  0.47653258660E+02 -0.32379934712E+03  0.32752507723E+03  0.00000000000E+00 0. -1.
          1    1    1    2  502    0 -0.19981888329E+03  0.45484157801E+03  0.22704780715E+04  0.23241942949E+04  0.00000000000E+00 0. -1.
         22    1    3    3    0    0  0.20522386471E+02 -0.52336843915E+02 -0.74960408645E+02  0.93698326781E+02  0.00000000000E+00 0. -1.
         22    1    3    3    0    0  0.19177952361E+03 -0.45015799275E+03 -0.18117585629E+03  0.52177226356E+03  0.00000000000E+00 0. -1.
</event>
<event>
 7    1  0.9036454E-005  0.1651698E+03  0.7818608E-02  0.1205306E+00
          2   -1    0    0  502    0  0.00000000000E+00  0.00000000000E+00  0.19915448453E+04  0.19915448453E+04  0.00000000000E+00 0. -1.
          1   -1    0    0  501    0 -0.00000000000E+00 -0.00000000000E+00 -0.32842547140E+03  0.32842547140E+03  0.00000000000E+00 0. -1.
         25    2    1    2    0    0  0.19467059941E+03 -0.11141646134E+03  0.47335529004E+03  0.53851620553E+03  0.12499681147E+03 0.  0.
          2    1    1    2  501    0 -0.70718922241E+02  0.14818837440E+03 -0.26998255366E+03  0.31599294225E+03  0.00000000000E+00 0. -1.
          1    1    1    2  502    0 -0.12395167716E+03 -0.36771913058E+02  0.14597466376E+04  0.14654611690E+04  0.00000000000E+00 0. -1.
         22    1    3    3    0    0  0.17851657940E+02  0.24932860391E+02  0.34739423038E+02  0.46337422581E+02  0.00000000000E+00 0. -1.
         22    1    3    3    0    0  0.17681894146E+03 -0.13634932173E+03  0.43861586700E+03  0.49217878295E+03  0.00000000000E+00 0. -1.
</event>
<event>
 7    1  0.9036454E-005  0.5469795E+02  0.7818608E-02  0.1495320E+00
          2   -1    0    0  502    0  0.00000000000E+00  0.00000000000E+00  0.15234209539E+04  0.15234209539E+04  0.00000000000E+00 0. -1.
          1   -1    0    0  501    0 -0.00000000000E+00 -0.00000000000E+00 -0.85277785552E+02  0.85277785552E+02  0.00000000000E+00 0. -1.
         25    2    1    2    0    0 -0.41543428903E+01 -0.85391987796E+02  0.67047088737E+03  0.68736190320E+03  0.12500449999E+03 0.  0.
          2    1    1    2  501    0  0.80164334792E+01  0.53672077484E+02 -0.66905825622E+02  0.86147226359E+02  0.00000000000E+00 0. -1.
          1    1    1    2  502    0 -0.38620905889E+01  0.31719910312E+02  0.83457810659E+03  0.83518960988E+03  0.00000000000E+00 0. -1.
         22    1    3    3    0    0 -0.38507204596E+02 -0.55423301809E+02  0.59765090038E+03  0.60144920476E+03  0.00000000000E+00 0.  1.
         22    1    3    3    0    0  0.34352861705E+02 -0.29968685987E+02  0.72819986990E+02  0.85912698435E+02  0.00000000000E+00 0.  1.
</event>
<event>
 7    1  0.9036454E-005  0.1254904E+03  0.7818608E-02  0.1250389E+00
          2   -1    0    0  502    0  0.00000000000E+00  0.00000000000E+00  0.44923576755E+02  0.44923576755E+02  0.00000000000E+00 0. -1.
          1   -1    0    0  501    0 -0.00000000000E+00 -0.00000000000E+00 -0.10473112388E+04  0.10473112388E+04  0.00000000000E+00 0. -1.
         25    2    1    2    0    0  0.61518085238E+02 -0.14274213549E+03 -0.42422337065E+03  0.46877443303E+03  0.12499683516E+03 0.  0.
          2    1    1    2  501    0  0.41947244306E+02  0.11688755296E+03 -0.35566978723E+03  0.37672704826E+03  0.00000000000E+00 0. -1.
          1    1    1    2  502    0 -0.10346532954E+03  0.25854582526E+02 -0.22249450417E+03  0.24673333428E+03  0.00000000000E+00 0. -1.
         22    1    3    3    0    0  0.79348804164E+02 -0.87455683597E+02 -0.37326953956E+03  0.39150335692E+03  0.00000000000E+00 0.  1.
         22    1    3    3    0    0 -0.17830718926E+02 -0.55286451891E+02 -0.50953831087E+02  0.77271076106E+02  0.00000000000E+00 0.  1.
</event>
<event>
 7    1  0.9036454E-005  0.1597226E+03  0.7818608E-02  0.1256238E+00
          2   -1    0    0  502    0  0.00000000000E+00  0.00000000000E+00  0.93548132517E+03  0.93548132517E+03  0.00000000000E+00 0. -1.
          1   -1    0    0  501    0 -0.00000000000E+00 -0.00000000000E+00 -0.28716522667E+03  0.28716522667E+03  0.00000000000E+00 0. -1.
         25    2    1    2    0    0  0.67847383803E+02  0.19379687603E+03  0.30574927261E+03  0.38891889024E+03  0.12495914867E+03 0.  0.
          2    1    1    2  501    0 -0.66429187498E+02 -0.42867762447E+02 -0.22915915469E+03  0.24241369637E+03  0.00000000000E+00 0. -1.
          1    1    1    2  502    0 -0.14181963057E+01 -0.15092911359E+03  0.57172598058E+03  0.59131396523E+03  0.00000000000E+00 0. -1.
         22    1    3    3    0    0  0.37868099584E+01 -0.18315909204E+02  0.21096553779E+02  0.28193563822E+02  0.00000000000E+00 0. -1.
         22    1    3    3    0    0  0.64060573845E+02  0.21211278524E+03  0.28465271883E+03  0.36072532642E+03  0.00000000000E+00 0. -1.
</event>
<event>
 7    1  0.9036454E-005  0.7113374E+02  0.7818608E-02  0.1396161E+00
          2   -1    0    0  502    0  0.00000000000E+00  0.00000000000E+00  0.44624256142E+03  0.44624256142E+03  0.00000000000E+00 0. -1.
          1   -1    0    0  501    0 -0.00000000000E+00 -0.00000000000E+00 -0.94247159988E+02  0.94247159988E+02  0.00000000000E+00 0. -1.
         25    2    1    2    0    0 -0.20528143511E+01 -0.11281665488E+02  0.24710058670E+03  0.27715525802E+03  0.12499938831E+03 0.  0.
          2    1    1    2  501    0 -0.66070604365E+02 -0.26356875075E+02 -0.52055504920E+02  0.88146385163E+02  0.00000000000E+00 0. -1.
          1    1    1    2  502    0  0.68123418716E+02  0.37638540563E+02  0.15695031964E+03  0.17518807822E+03  0.00000000000E+00 0. -1.
         22    1    3    3    0    0 -0.53907717008E+02 -0.31778981961E+02  0.83725360765E+02  0.10452694238E+03  0.00000000000E+00 0.  1.
         22    1    3    3    0    0  0.51854902657E+02  0.20497316473E+02  0.16337522594E+03  0.17262831565E+03  0.00000000000E+00 0.  1.
</event>
<event>
 7    1  0.9036454E-005  0.4904694E+03  0.7818608E-02  0.1114390E+00
          2   -1    0    0  502    0  0.00000000000E+00  0.00000000000E+00  0.12360931742E+04  0.12360931742E+04  0.00000000000E+00 0. -1.
          1   -1    0    0  501    0 -0.00000000000E+00 -0.00000000000E+00 -0.43899722818E+03  0.43899722818E+03  0.00000000000E+00 0. -1.
         25    2    1    2    0    0  0.46538610993E+03 -0.22113597959E+03  0.76010276022E+03  0.92675015806E+03  0.12499718636E+03 0.  0.
          2    1    1    2  501    0 -0.37666390763E+03  0.31016792510E+03 -0.16100876712E+03  0.51381286882E+03  0.00000000000E+00 0. -1.
          1    1    1    2  502    0 -0.88722202300E+02 -0.89031945512E+02  0.19800195295E+03  0.23452737553E+03  0.00000000000E+00 0. -1.
         22    1    3    3    0    0  0.28165013921E+03 -0.73411776705E+02  0.47139833722E+03  0.55401487544E+03  0.00000000000E+00 0. -1.
         22    1    3    3    0    0  0.18373597072E+03 -0.14772420289E+03  0.28870442299E+03  0.37273528262E+03  0.00000000000E+00 0. -1.
</event>
<event>
 7    1  0.9036454E-005  0.1019176E+04  0.7818608E-02  0.1130653E+00
          2   -1    0    0  502    0  0.00000000000E+00  0.00000000000E+00  0.29356539572E+04  0.29356539572E+04  0.00000000000E+00 0. -1.
          1   -1    0    0  501    0 -0.00000000000E+00 -0.00000000000E+00 -0.93624144136E+03  0.93624144136E+03  0.00000000000E+00 0. -1.
         25    2    1    2    0    0  0.10161779216E+04 -0.71304087211E+02  0.17197083037E+04  0.20026792501E+04  0.12500275075E+03 0.  0.
          2    1    1    2  501    0  0.43700529875E+01  0.49208998285E+02 -0.55095226951E+03  0.55316274834E+03  0.00000000000E+00 0. -1.
          1    1    1    2  502    0 -0.10205479746E+04  0.22095088926E+02  0.83065648156E+03  0.13160534000E+04  0.00000000000E+00 0. -1.
         22    1    3    3    0    0  0.19072268811E+01  0.28825230537E+01  0.32432995043E+02  0.32616646379E+02  0.00000000000E+00 0. -1.
         22    1    3    3    0    0  0.10142706947E+04 -0.74186610265E+02  0.16872753087E+04  0.19700626037E+04  0.00000000000E+00 0. -1.
</event>
<event>
 7    1  0.9036454E-005  0.2317433E+03  0.7818608E-02  0.1215476E+00
          2   -1    0    0  502    0  0.00000000000E+00  0.00000000000E+00  0.38057726300E+03  0.38057726300E+03  0.00000000000E+00 0. -1.
          1   -1    0    0  501    0 -0.00000000000E+00 -0.00000000000E+00 -0.12810680397E+04  0.12810680397E+04  0.00000000000E+00 0. -1.
         25    2    1    2    0    0  0.46127118207E+02 -0.22966611870E+03 -0.49917605998E+03  0.56539901059E+03  0.12500026085E+03 0.  0.
          2    1    1    2  501    0  0.76266810368E+02  0.31910548912E+02 -0.70718515711E+03  0.71200123310E+03  0.00000000000E+00 0. -1.
          1    1    1    2  502    0 -0.12239392858E+03  0.19775556979E+03  0.30587044034E+03  0.38424505905E+03  0.00000000000E+00 0. -1.
         22    1    3    3    0    0 -0.21518831184E+02 -0.42925316438E+02 -0.31855982899E+02  0.57623315882E+02  0.00000000000E+00 0.  1.
         22    1    3    3    0    0  0.67645949391E+02 -0.18674080226E+03 -0.46732007708E+03  0.50777569471E+03  0.00000000000E+00 0.  1.
</event>
<event>
 7    1  0.9036454E-005  0.2238289E+03  0.7818608E-02  0.1223725E+00
          2   -1    0    0  502    0  0.00000000000E+00  0.00000000000E+00  0.43626386435E+03  0.43626386435E+03  0.00000000000E+00 0. -1.
          1   -1    0    0  501    0 -0.00000000000E+00 -0.00000000000E+00 -0.46007156524E+03  0.46007156524E+03  0.00000000000E+00 0. -1.
         25    2    1    2    0    0 -0.21805978525E+03 -0.12729148070E+03 -0.27234847480E+03  0.39185924296E+03  0.12500713406E+03 0.  0.
          2    1    1    2  501    0  0.15293695188E+01  0.78476318343E+02 -0.77334315249E+02  0.11018832890E+03  0.00000000000E+00 0. -1.
          1    1    1    2  502    0  0.21653041573E+03  0.48815162356E+02  0.32587508916E+03  0.39428785772E+03  0.00000000000E+00 0. -1.
         22    1    3    3    0    0  0.38164803163E+01 -0.27736453378E+02 -0.17669877209E+01  0.28053495568E+02  0.00000000000E+00 0.  1.
         22    1    3    3    0    0 -0.22187626557E+03 -0.99555027321E+02 -0.27058148708E+03  0.36380574739E+03  0.00000000000E+00 0.  1.
</event>
<event>
 7    1  0.9036454E-005  0.2964225E+03  0.7818608E-02  0.1089979E+00
          2   -1    0    0  502    0  0.00000000000E+00  0.00000000000E+00  0.15489318926E+03  0.15489318926E+03  0.00000000000E+00 0. -1.
          1   -1    0    0  501    0 -0.00000000000E+00 -0.00000000000E+00 -0.19195056291E+04  0.19195056291E+04  0.00000000000E+00 0. -1.
         25    2    1    2    0    0  0.17635906930E+02 -0.41517659951E+03 -0.53142039219E+03  0.68608691650E+03  0.12499995904E+03 0.  0.
          2    1    1    2  501    0 -0.20471124969E+03  0.20002641667E+03 -0.92590210135E+03  0.96912948794E+03  0.00000000000E+00 0. -1.
          1    1    1    2  502    0  0.18707534276E+03  0.21515018284E+03 -0.30728994633E+03  0.41918241394E+03  0.00000000000E+00 0. -1.
         22    1    3    3    0    0  0.31704167660E+02 -0.21187920913E+03 -0.17983022411E+03  0.27970853225E+03  0.00000000000E+00 0. -1.
         22    1    3    3    0    0 -0.14068260730E+02 -0.20329739038E+03 -0.35159016808E+03  0.40637838425E+03  0.00000000000E+00 0. -1.
</event>
<event>
 7    1  0.9036454E-005  0.4681731E+02  0.7818608E-02  0.1496927E+00
          2   -1    0    0  502    0  0.00000000000E+00  0.00000000000E+00  0.10073635412E+04  0.10073635412E+04  0.00000000000E+00 0. -1.
          1   -1    0    0  501    0 -0.00000000000E+00 -0.00000000000E+00 -0.51452411416E+02  0.51452411416E+02  0.00000000000E+00 0. -1.
         25    2    1    2    0    0 -0.80115719756E+02  0.16816106398E+02  0.35025953308E+03  0.38080034110E+03  0.12500339708E+03 0.  0.
          2    1    1    2  501    0  0.43325832020E+02 -0.13710623973E+02 -0.21152407172E+02  0.50125175901E+02  0.00000000000E+00 0. -1.
          1    1    1    2  502    0  0.36789887736E+02 -0.31054824252E+01  0.62680400383E+03  0.62789043557E+03  0.00000000000E+00 0. -1.
         22    1    3    3    0    0 -0.96283921937E+02  0.41613441027E+02  0.32621237267E+03  0.34266132577E+03  0.00000000000E+00 0.  1.
         22    1    3    3    0    0  0.16168202181E+02 -0.24797334628E+02  0.24047160414E+02  0.38139015331E+02  0.00000000000E+00 0.  1.
</event>
<event>
 7    1  0.9036454E-005  0.1556751E+03  0.7818608E-02  0.1329171E+00
          2   -1    0    0  502    0  0.00000000000E+00  0.00000000000E+00  0.88228597526E+03  0.88228597526E+03  0.00000000000E+00 0. -1.
          1   -1    0    0  501    0 -0.00000000000E+00 -0.00000000000E+00 -0.99428779692E+03  0.99428779692E+03  0.00000000000E+00 0. -1.
         25    2    1    2    0    0  0.10158273002E+03  0.16782208273E+03  0.60145484826E+03  0.64486920571E+03  0.12500022194E+03 0.  0.
          2    1    1    2  501    0 -0.83213342138E+02 -0.13109142903E+03 -0.96470556586E+03  0.97712141102E+03  0.00000000000E+00 0. -1.
          1    1    1    2  502    0 -0.18369387886E+02 -0.36730653695E+02  0.25124889594E+03  0.25458315546E+03  0.00000000000E+00 0. -1.
         22    1    3    3    0    0  0.30185093663E+02  0.10407627284E+01  0.21164614181E+02  0.36880400756E+02  0.00000000000E+00 0. -1.
         22    1    3    3    0    0  0.71397636361E+02  0.16678132000E+03  0.58029023408E+03  0.60798880495E+03  0.00000000000E+00 0. -1.
</event>
<event>
 7    1  0.9036454E-005  0.1051947E+03  0.7818608E-02  0.1429140E+00
          2   -1    0    0  502    0  0.00000000000E+00  0.00000000000E+00  0.21390751224E+04  0.21390751224E+04  0.00000000000E+00 0. -1.
          1   -1    0    0  501    0 -0.00000000000E+00 -0.00000000000E+00 -0.12960885601E+03  0.12960885601E+03  0.00000000000E+00 0. -1.
         25    2    1    2    0    0  0.78699151401E+02  0.95611025719E+02  0.39356306080E+03  0.43110564951E+03  0.12500069417E+03 0.  0.
          2    1    1    2  501    0 -0.78244825847E+02 -0.68777782327E+02 -0.86229705076E+02  0.13523386466E+03  0.00000000000E+00 0. -1.
          1    1    1    2  502    0 -0.45432555390E+00 -0.26833243392E+02  0.17021329106E+04  0.17023444642E+04  0.00000000000E+00 0. -1.
         22    1    3    3    0    0  0.10914476534E+02 -0.19348439314E+02  0.16456373735E+03  0.16605635053E+03  0.00000000000E+00 0.  1.
         22    1    3    3    0    0  0.67784674866E+02  0.11495946503E+03  0.22899932345E+03  0.26504929898E+03  0.00000000000E+00 0.  1.
</event>
<event>
 7    1  0.9036454E-005  0.1183256E+03  0.7818608E-02  0.1366135E+00
          2   -1    0    0  502    0  0.00000000000E+00  0.00000000000E+00  0.64727674229E+02  0.64727674229E+02  0.00000000000E+00 0. -1.
          1   -1    0    0  501    0 -0.00000000000E+00 -0.00000000000E+00 -0.56936848813E+03  0.56936848813E+03  0.00000000000E+00 0. -1.
         25    2    1    2    0    0 -0.56688074700E+02  0.98307715676E+02 -0.38234859558E+03  0.41796110225E+03  0.12499235845E+03 0.  0.
          2    1    1    2  501    0  0.28784076040E+02 -0.12608161847E+03 -0.12043770877E+03  0.17672107753E+03  0.00000000000E+00 0. -1.
          1    1    1    2  502    0  0.27903998659E+02  0.27773902792E+02 -0.18545095431E+01  0.39413982584E+02  0.00000000000E+00 0. -1.
         22    1    3    3    0    0 -0.89773784518E+02  0.10132623895E+03 -0.29811788708E+03  0.32741504804E+03  0.00000000000E+00 0. -1.
         22    1    3    3    0    0  0.33085709818E+02 -0.30185232757E+01 -0.84230708502E+02  0.90546054202E+02  0.00000000000E+00 0. -1.
</event>
<event>
 7    1  0.9036454E-005  0.1310912E+03  0.7818608E-02  0.1349123E+00
          2   -1    0    0  502    0  0.00000000000E+00  0.00000000000E+00  0.12612202352E+04  0.12612202352E+04  0.00000000000E+00 0. -1.
          1   -1    0    0  501    0 -0.00000000000E+00 -0.00000000000E+00 -0.10919140256E+03  0.10919140256E+03  0.00000000000E+00 0. -1.
         25    2    1    2    0    0  0.29524015177E+02  0.11683641276E+03  0.65154762390E+03  0.67428581917E+03  0.12499857962E+03 0.  0.
          2    1    1    2  501    0 -0.70253121676E+02 -0.11196922925E+03 -0.52058370440E+02  0.14206577117E+03  0.00000000000E+00 0. -1.
          1    1    1    2  502    0  0.40729106499E+02 -0.48671835064E+01  0.55253957921E+03  0.55406004745E+03  0.00000000000E+00 0. -1.
         22    1    3    3    0    0 -0.22175907509E+01  0.11119067700E+02  0.39298192524E+03  0.39314545011E+03  0.00000000000E+00 0.  1.
         22    1    3    3    0    0  0.31741605928E+02  0.10571734506E+03  0.25856569865E+03  0.28114036906E+03  0.00000000000E+00 0.  1.
</event>
<event>
 7    1  0.9036454E-005  0.9557185E+02  0.7818608E-02  0.1314750E+00
          2   -1    0    0  502    0  0.00000000000E+00  0.00000000000E+00  0.14488618498E+03  0.14488618498E+03  0.00000000000E+00 0. -1.
          1   -1    0    0  501    0 -0.00000000000E+00 -0.00000000000E+00 -0.20702613884E+04  0.20702613884E+04  0.00000000000E+00 0. -1.
         25    2    1    2    0    0 -0.14923465312E+03  0.42832985719E+02 -0.14192508567E+03  0.24469173275E+03  0.12500267109E+03 0.  0.
          2    1    1    2  501    0  0.59680555625E+02 -0.47157972924E+02 -0.18544996092E+04  0.18560588470E+04  0.00000000000E+00 0. -1.
          1    1    1    2  502    0  0.89554097494E+02  0.43249872047E+01  0.71049491489E+02  0.11439699355E+03  0.00000000000E+00 0. -1.
         22    1    3    3    0    0  0.20541944648E+01  0.35524490726E+02  0.21487838588E+01  0.35648652546E+02  0.00000000000E+00 0.  1.
         22    1    3    3    0    0 -0.15128884758E+03  0.73084949929E+01 -0.14407386952E+03  0.20904308021E+03  0.00000000000E+00 0.  1.
</event>
<event>
 7    1  0.9036454E-005  0.9642789E+02  0.7818608E-02  0.1342964E+00
          2   -1    0    0  502    0  0.00000000000E+00  0.00000000000E+00  0.70491467054E+03  0.70491467054E+03  0.00000000000E+00 0. -1.
          1   -1    0    0  501    0 -0.00000000000E+00 -0.00000000000E+00 -0.31266291429E+03  0.31266291429E+03  0.00000000000E+00 0. -1.
         25    2    1    2    0    0  0.39103300048E+02 -0.45175768256E+02  0.45700554669E+02  0.14588771354E+03  0.12499906460E+03 0.  0.
          2    1    1    2  501    0  0.56649288581E+02  0.15724778721E+02 -0.25508388546E+03  0.26177127265E+03  0.00000000000E+00 0. -1.
          1    1    1    2  502    0 -0.95752588629E+02  0.29450989535E+02  0.60163508705E+03  0.60991859865E+03  0.00000000000E+00 0. -1.
         22    1    3    3    0    0  0.61347849250E+02 -0.76838178723E+02  0.22833499455E+02  0.10094074011E+03  0.00000000000E+00 0.  1.
         22    1    3    3    0    0 -0.22244549203E+02  0.31662410466E+02  0.22867055214E+02  0.44946973424E+02  0.00000000000E+00 0.  1.
</event>
<event>
 7    1  0.9036454E-005  0.4765033E+03  0.7818608E-02  0.1155119E+00
          2   -1    0    0  502    0  0.00000000000E+00  0.00000000000E+00  0.34174648720E+04  0.34174648720E+04  0.00000000000E+00 0. -1.
          1   -1    0    0  501    0 -0.00000000000E+00 -0.00000000000E+00 -0.61134701000E+03  0.61134701000E+03  0.00000000000E+00 0. -1.
         25    2    1    2    0    0 -0.43996804726E+03 -0.23749476849E+03 -0.14531521142E+03  0.53545986834E+03  0.12500044902E+03 0.  0.
          2    1    1    2  501    0  0.42665730158E+03  0.15984464341E+03 -0.78555490633E+02  0.46233940793E+03  0.00000000000E+00 0. -1.
          1    1    1    2  502    0  0.13310745685E+02  0.77650125078E+02  0.30299885641E+04  0.30310126058E+04  0.00000000000E+00 0. -1.
         22    1    3    3    0    0 -0.35537624959E+03 -0.24058106178E+03 -0.13658304985E+03  0.45036258233E+03  0.00000000000E+00 0. -1.
         22    1    3    3    0    0 -0.84591797673E+02  0.30862932837E+01 -0.87321615668E+01  0.85097286005E+02  0.00000000000E+00 0. -1.
</event>
<event>
 7    1  0.9036454E-005  0.3793670E+03  0.7818608E-02  0.1147538E+00
          2   -1    0    0  502    0  0.00000000000E+00  0.00000000000E+00  0.14766971244E+04  0.14766971244E+04  0.00000000000E+00 0. -1.
          1   -1    0    0  501    0 -0.00000000000E+00 -0.00000000000E+00 -0.77665394157E+03  0.77665394157E+03  0.00000000000E+00 0. -1.
         25    2    1    2    0    0 -0.15326213321E+02  0.46353050978E+03  0.11610448883E+04  0.12564811373E+04  0.12499675695E+03 0.  0.
          2    1    1    2  501    0 -0.44684318327E+02 -0.37345995364E+03 -0.66610567899E+03  0.76496130677E+03  0.00000000000E+00 0. -1.
          1    1    1    2  502    0  0.60010531649E+02 -0.90070556138E+02  0.20510397350E+03  0.23190862196E+03  0.00000000000E+00 0. -1.
         22    1    3    3    0    0 -0.66413379925E+02  0.22526721274E+03  0.51555469718E+03  0.56652687488E+03  0.00000000000E+00 0. -1.
         22    1    3    3    0    0  0.51087166604E+02  0.23826329703E+03  0.64549019115E+03  0.68995426238E+03  0.00000000000E+00 0. -1.
</event>
<event>
 7    1  0.9036454E-005  0.1575879E+03  0.7818608E-02  0.1384322E+00
          2   -1    0    0  502    0  0.00000000000E+00  0.00000000000E+00  0.32516095493E+02  0.32516095493E+02  0.00000000000E+00 0. -1.
          1   -1    0    0  501    0 -0.00000000000E+00 -0.00000000000E+00 -0.29924390908E+04  0.29924390908E+04  0.00000000000E+00 0. -1.
         25    2    1    2    0    0  0.15678572944E+03  0.71770508187E+02 -0.40076264364E+03  0.45383851767E+03  0.12500373106E+03 0.  0.
          2    1    1    2  501    0 -0.14892664837E+03 -0.47554306963E+02 -0.25171054074E+04  0.25219556283E+04  0.00000000000E+00 0. -1.
          1    1    1    2  502    0 -0.78590810685E+01 -0.24216201224E+02 -0.42054944227E+02  0.49161040376E+02  0.00000000000E+00 0. -1.
         22    1    3    3    0    0  0.14199935274E+03  0.10438640635E+03 -0.31604547262E+03  0.36186334268E+03  0.00000000000E+00 0. -1.
         22    1    3    3    0    0  0.14786376703E+02 -0.32615898163E+02 -0.84717171019E+02  0.91975174990E+02  0.00000000000E+00 0. -1.
</event>
<event>
 7    1  0.9036454E-005  0.3174039E+03  0.7818608E-02  0.1152881E+00
          2   -1    0    0  502    0  0.00000000000E+00  0.00000000000E+00  0.16344683468E+04  0.16344683468E+04  0.00000000000E+00 0. -1.
          1   -1    0    0  501    0 -0.00000000000E+00 -0.00000000000E+00 -0.42010232695E+03  0.42010232695E+03  0.00000000000E+00 0. -1.
         25    2    1    2    0    0  0.31810918193E+03 -0.28274161482E+03  0.12188002583E+03  0.46001821085E+03  0.12500296491E+03 0.  0.
          2    1    1    2  501    0 -0.77304743179E+02  0.93640832689E+02 -0.21758708260E+03  0.24917617739E+03  0.00000000000E+00 0. -1.
          1    1    1    2  502    0 -0.24080443875E+03  0.18910078213E+03  0.13100730766E+04  0.13453762855E+04  0.00000000000E+00 0. -1.
         22    1    3    3    0    0  0.20642629679E+03 -0.15457865560E+03  0.13149310427E+02  0.25822331641E+03  0.00000000000E+00 0. -1.
         22    1    3    3    0    0  0.11168288514E+03 -0.12816295922E+03  0.10873071540E+03  0.20179489444E+03  0.00000000000E+00 0. -1.
</event>
<event>
 7    1  0.9036454E-005  0.1648751E+03  0.7818608E-02  0.1263711E+00
          2   -1    0    0  502    0  0.00000000000E+00  0.00000000000E+00  0.48847425068E+03  0.48847425068E+03  0.00000000000E+00 0. -1.
          1   -1    0    0  501    0 -0.00000000000E+00 -0.00000000000E+00 -0.79169337813E+03  0.79169337813E+03  0.00000000000E+00 0. -1.
         25    2    1    2    0    0  0.18049531574E+03 -0.87569528065E+02  0.25248523092E+03  0.34586380529E+03  0.12500399483E+03 0.  0.
          2    1    1    2  501    0 -0.16306555548E+03  0.18571524738E+02 -0.72885216488E+03  0.74710156951E+03  0.00000000000E+00 0. -1.
          1    1    1    2  502    0 -0.17429760261E+02  0.68998003327E+02  0.17314780651E+03  0.18720225400E+03  0.00000000000E+00 0. -1.
         22    1    3    3    0    0 -0.48466974512E+01  0.20726768610E+02  0.29124921644E+02  0.36074235597E+02  0.00000000000E+00 0.  1.
         22    1    3    3    0    0  0.18534201320E+03 -0.10829629667E+03  0.22336030928E+03  0.30978956969E+03  0.00000000000E+00 0.  1.
</event>
<event>
 7    1  0.9036454E-005  0.1737606E+03  0.7818608E-02  0.1213770E+00
          2   -1    0    0  502    0  0.00000000000E+00  0.00000000000E+00  0.76452498303E+03  0.76452498303E+03  0.00000000000E+00 0. -1.
          1   -1    0    0  501    0 -0.00000000000E+00 -0.00000000000E+00 -0.48379289504E+03  0.48379289504E+03  0.00000000000E+00 0. -1.
         25    2    1    2    0    0 -0.71627543066E+02 -0.32584860189E+02  0.60222161540E+03  0.62006957280E+03  0.12499249182E+03 0.  0.
          2    1    1    2  501    0  0.11039610693E+03  0.13795107037E+03 -0.43443789112E+03  0.46899262199E+03  0.00000000000E+00 0. -1.
          1    1    1    2  502    0 -0.38768563867E+02 -0.10536621019E+03  0.11294836371E+03  0.15925568328E+03  0.00000000000E+00 0. -1.
         22    1    3    3    0    0  0.32168487146E+01 -0.69342319389E+01  0.43508976975E+03  0.43515691357E+03  0.00000000000E+00 0. -1.
         22    1    3    3    0    0 -0.74844391781E+02 -0.25650628250E+02  0.16713184565E+03  0.18491265922E+03  0.00000000000E+00 0. -1.
</event>
<event>
 7    1  0.9036454E-005  0.3047230E+03  0.7818608E-02  0.1109655E+00
          2   -1    0    0  502    0  0.00000000000E+00  0.00000000000E+00  0.56899967815E+03  0.56899967815E+03  0.00000000000E+00 0. -1.
          1   -1    0    0  501    0 -0.00000000000E+00 -0.00000000000E+00 -0.74695003527E+03  0.74695003527E+03  0.00000000000E+00 0. -1.
         25    2    1    2    0    0 -0.31665232844E+03 -0.12581285695E+03 -0.37457744158E+03  0.52156574921E+03  0.12499999574E+03 0.  0.
          2    1    1    2  501    0  0.28865228576E+03 -0.87191836161E+02 -0.18691772733E+03  0.35476865019E+03  0.00000000000E+00 0. -1.
          1    1    1    2  502    0  0.28000042673E+02  0.21300469311E+03  0.38354481178E+03  0.43961531402E+03  0.00000000000E+00 0. -1.
         22    1    3    3    0    0 -0.20764766690E+03 -0.32130021479E+02 -0.16367914633E+03  0.26634705704E+03  0.00000000000E+00 0.  1.
         22    1    3    3    0    0 -0.10900466154E+03 -0.93682835467E+02 -0.21089829525E+03  0.25521869218E+03  0.00000000000E+00 0.  1.
</event>
<event>
 7    1  0.9036454E-005  0.9674700E+02  0.7818608E-02  0.1372678E+00
          2   -1    0    0  502    0  0.00000000000E+00  0.00000000000E+00  0.64056866180E+02  0.64056866180E+02  0.00000000000E+00 0. -1.
          1   -1    0    0  501    0 -0.00000000000E+00 -0.00000000000E+00 -0.74102209893E+03  0.74102209893E+03  0.00000000000E+00 0. -1.
         25    2    1    2    0    0  0.45477714863E+02 -0.40022117872E+02 -0.24115145707E+03  0.27832361598E+03  0.12506005557E+03 0.  0.
          2    1    1    2  501    0  0.26930593708E+02 -0.36811424313E+02 -0.41703521782E+03  0.41952200269E+03  0.00000000000E+00 0. -1.
          1    1    1    2  502    0 -0.72408308571E+02  0.76833542185E+02 -0.18778557871E+02  0.10723334645E+03  0.00000000000E+00 0. -1.
         22    1    3    3    0    0  0.22367758807E+02  0.26238365911E+02 -0.18572937590E+03  0.18890253983E+03  0.00000000000E+00 0. -1.
         22    1    3    3    0    0  0.23109956056E+02 -0.66260483783E+02 -0.55422081162E+02  0.89421076153E+02  0.00000000000E+00 0. -1.
</event>
<event>
 7    1  0.9036454E-005  0.1024382E+03  0.7818608E-02  0.1453367E+00
          2   -1    0    0  502    0  0.00000000000E+00  0.00000000000E+00  0.11822594401E+04  0.11822594401E+04  0.00000000000E+00 0. -1.
          1   -1    0    0  501    0 -0.00000000000E+00 -0.00000000000E+00 -0.10436179589E+03  0.10436179589E+03  0.00000000000E+00 0. -1.
         25    2    1    2    0    0  0.93083853235E+02  0.27681928821E+02  0.12202119963E+02  0.15876068689E+03  0.12500068422E+03 0.  0.
          2    1    1    2  501    0 -0.36110517424E+01  0.22717349032E+02 -0.24054535237E+02  0.33282702823E+02  0.00000000000E+00 0. -1.
          1    1    1    2  502    0 -0.89472801493E+02 -0.50399277853E+02  0.10897500594E+04  0.10945778462E+04  0.00000000000E+00 0. -1.
         22    1    3    3    0    0  0.17610014020E+02  0.59708350108E+02  0.37850108511E+02  0.72854858319E+02  0.00000000000E+00 0. -1.
         22    1    3    3    0    0  0.75473839215E+02 -0.32026421287E+02 -0.25647988548E+02  0.85905828573E+02  0.00000000000E+00 0. -1.
</event>
<event>
 7    1  0.9036454E-005  0.1233250E+03  0.7818608E-02  0.1262406E+00
          2   -1    0    0  502    0  0.00000000000E+00  0.00000000000E+00  0.18891563127E+04  0.18891563127E+04  0.00000000000E+00 0. -1.
          1   -1    0    0  501    0 -0.00000000000E+00 -0.00000000000E+00 -0.81172790734E+02  0.81172790734E+02  0.00000000000E+00 0. -1.
         25    2    1    2    0    0 -0.10736768649E+03  0.86914081066E+02  0.16240088400E+03  0.24714286940E+03  0.12499469261E+03 0.  0.
          2    1    1    2  501    0  0.19494565352E+02 -0.12646577132E+03  0.72334211518E+02  0.14698934502E+03  0.00000000000E+00 0. -1.
          1    1    1    2  502    0  0.87873121136E+02  0.39551690255E+02  0.15732484264E+04  0.15761968890E+04  0.00000000000E+00 0. -1.
         22    1    3    3    0    0 -0.57166650542E+02  0.74182692909E+02  0.20204650017E+02  0.95808797841E+02  0.00000000000E+00 0.  1.
         22    1    3    3    0    0 -0.50201035946E+02  0.12731388157E+02  0.14219623398E+03  0.15133407155E+03  0.00000000000E+00 0.  1.
</event>
<event>
 7    1  0.9036454E-005  0.1235330E+04  0.7818608E-02  0.1074190E+00
          2   -1    0    0  502    0  0.00000000000E+00  0.00000000000E+00  0.26052757862E+04  0.26052757862E+04  0.00000000000E+00 0. -1.
          1   -1    0    0  501    0 -0.00000000000E+00 -0.00000000000E+00 -0.15136918438E+04  0.15136918438E+04  0.00000000000E+00 0. -1.
         25    2    1    2    0    0 -0.97596443877E+03  0.65871893904E+03  0.36708686147E+03  0.12396752623E+04  0.12499906253E+03 0.  0.
          2    1    1    2  501    0  0.10445802001E+04 -0.70812832449E+03 -0.70617442490E+03  0.14461244195E+04  0.00000000000E+00 0. -1.
          1    1    1    2  502    0 -0.68615761349E+02  0.49409385452E+02  0.14306715058E+04  0.14331679481E+04  0.00000000000E+00 0. -1.
         22    1    3    3    0    0 -0.50034978546E+02  0.25158133859E+02  0.46612677624E+02  0.72864068598E+02  0.00000000000E+00 0. -1.
         22    1    3    3    0    0 -0.92592946023E+03  0.63356080518E+03  0.32047418385E+03  0.11668111937E+04  0.00000000000E+00 0. -1.
</event>
<event>
 7    1  0.9036454E-005  0.2776035E+03  0.7818608E-02  0.1198804E+00
          2   -1    0    0  502    0  0.00000000000E+00  0.00000000000E+00  0.99322069074E+03  0.99322069074E+03  0.00000000000E+00 0. -1.
          1   -1    0    0  501    0 -0.00000000000E+00 -0.00000000000E+00 -0.24100768383E+04  0.24100768383E+04  0.00000000000E+00 0. -1.
         25    2    1    2    0    0  0.24150220241E+03  0.24857623066E+03 -0.17145167415E+03  0.40636664592E+03  0.12499887252E+03 0.  0.
          2    1    1    2  501    0 -0.76211002804E+02 -0.31682058020E+02 -0.20991086182E+04  0.21007305541E+04  0.00000000000E+00 0. -1.
          1    1    1    2  502    0 -0.16529119961E+03 -0.21689417264E+03  0.85370414484E+03  0.89620032901E+03  0.00000000000E+00 0. -1.
         22    1    3    3    0    0  0.21606331424E+03  0.14602593434E+03 -0.14073918855E+03  0.29633502739E+03  0.00000000000E+00 0.  1.
         22    1    3    3    0    0  0.25438888166E+02  0.10255029632E+03 -0.30712485602E+02  0.11003161853E+03  0.00000000000E+00 0.  1.
</event>
<event>
 7    1  0.9036454E-005  0.3689989E+03  0.7818608E-02  0.1055702E+00
          2   -1    0    0  502    0  0.00000000000E+00  0.00000000000E+00  0.38355323325E+04  0.38355323325E+04  0.00000000000E+00 0. -1.
          1   -1    0    0  501    0 -0.00000000000E+00 -0.00000000000E+00 -0.71791690806E+03  0.71791690806E+03  0.00000000000E+00 0. -1.
         25    2    1    2    0    0  0.18423587987E+03 -0.28225190660E+03  0.10400238438E+03  0.37423268206E+03  0.12499842462E+03 0.  0.
          2    1    1    2  501    0 -0.41937778453E+03  0.20982269238E+01 -0.49660244888E+03  0.64999701610E+03  0.00000000000E+00 0. -1.
          1    1    1    2  502    0  0.23514190466E+03  0.28015367967E+03  0.35102154890E+04  0.35292195424E+04  0.00000000000E+00 0. -1.
         22    1    3    3    0    0  0.17522579943E+02  0.50065952810E+01 -0.12681068322E+02  0.22201718356E+02  0.00000000000E+00 0. -1.
         22    1    3    3    0    0  0.16671329993E+03 -0.28725850188E+03  0.11668345270E+03  0.35203096370E+03  0.00000000000E+00 0. -1.
</event>
<event>
 7    1  0.9036454E-005  0.5124083E+03  0.7818608E-02  0.1162448E+00
          2   -1    0    0  502    0  0.00000000000E+00  0.00000000000E+00  0.83198841757E+03  0.83198841757E+03  0.00000000000E+00 0. -1.
          1   -1    0    0  501    0 -0.00000000000E+00 -0.00000000000E+00 -0.87031556925E+03  0.87031556925E+03  0.00000000000E+00 0. -1.
         25    2    1    2    0    0 -0.36789826765E+03 -0.34827521656E+03  0.50922290586E+03  0.72909389559E+03  0.12500071567E+03 0.  0.
          2    1    1    2  501    0  0.41610228414E+03  0.30136796324E+03 -0.66350018282E+03  0.83916402016E+03  0.00000000000E+00 0. -1.
          1    1    1    2  502    0 -0.48204016486E+02  0.46907253314E+02  0.11595012527E+03  0.13404607107E+03  0.00000000000E+00 0. -1.
         22    1    3    3    0    0 -0.27129681905E+03 -0.32307259944E+03  0.41692611378E+03  0.59313173317E+03  0.00000000000E+00 0. -1.
         22    1    3    3    0    0 -0.96601448601E+02 -0.25202617113E+02  0.92296792081E+02  0.13596216242E+03  0.00000000000E+00 0. -1.
</event>
<event>
 7    1  0.9036454E-005  0.6333451E+03  0.7818608E-02  0.1084319E+00
          2   -1    0    0  502    0  0.00000000000E+00  0.00000000000E+00  0.11407991109E+04  0.11407991109E+04  0.00000000000E+00 0. -1.
          1   -1    0    0  501    0 -0.00000000000E+00 -0.00000000000E+00 -0.12061459854E+04  0.12061459854E+04  0.00000000000E+00 0. -1.
         25    2    1    2    0    0 -0.71450061930E+03 -0.23473673821E+03 -0.25612774048E+03  0.80426292529E+03  0.12499984925E+03 0.  0.
          2    1    1    2  501    0  0.14057988953E+03  0.30556389286E+02 -0.55866775171E+03  0.57689345209E+03  0.00000000000E+00 0. -1.
          1    1    1    2  502    0  0.57392072977E+03  0.20418034892E+03  0.74944861771E+03  0.96578871889E+03  0.00000000000E+00 0. -1.
         22    1    3    3    0    0 -0.21071129155E+03 -0.11432077180E+02 -0.60759635476E+02  0.21959433982E+03  0.00000000000E+00 0. -1.
         22    1    3    3    0    0 -0.50378932775E+03 -0.22330466103E+03 -0.19536810500E+03  0.58466858547E+03  0.00000000000E+00 0. -1.
</event>
<event>
 7    1  0.9036454E-005  0.1790428E+03  0.7818608E-02  0.1175809E+00
          2   -1    0    0  502    0  0.00000000000E+00  0.00000000000E+00  0.34033820664E+04  0.34033820664E+04  0.00000000000E+00 0. -1.
          1   -1    0    0  501    0 -0.00000000000E+00 -0.00000000000E+00 -0.10574812132E+03  0.10574812132E+03  0.00000000000E+00 0. -1.
         25    2    1    2    0    0  0.13263194992E+03 -0.12071256785E+03  0.19786731084E+04  0.19907122518E+04  0.12500096461E+03 0.  0.
          2    1    1    2  501    0 -0.13229960036E+03 -0.98894492781E+02 -0.15597722573E+02  0.16591140379E+03  0.00000000000E+00 0. -1.
          1    1    1    2  502    0 -0.33234956111E+00  0.21960706063E+03  0.13345585592E+04  0.13525065322E+04  0.00000000000E+00 0. -1.
         22    1    3    3    0    0  0.14325421411E+02  0.25722696661E+02  0.21132710974E+03  0.21336827818E+03  0.00000000000E+00 0. -1.
         22    1    3    3    0    0  0.11830652851E+03 -0.14643526451E+03  0.17673459987E+04  0.17773439736E+04  0.00000000000E+00 0. -1.
</event>
<event>
 7    1  0.9036454E-005  0.9692853E+02  0.7818608E-02  0.1321372E+00
          2   -1    0    0  502    0  0.00000000000E+00  0.00000000000E+00  0.29671193106E+04  0.29671193106E+04  0.00000000000E+00 0. -1.
          1   -1    0    0  501    0 -0.00000000000E+00 -0.00000000000E+00 -0.47993493398E+03  0.47993493398E+03  0.00000000000E+00 0. -1.
         25    2    1    2    0    0  0.10511777769E+03  0.58988902602E+02  0.13685686370E+04  0.13795416269E+04  0.12500219283E+03 0.  0.
          2    1    1    2  501    0 -0.96283871845E+02  0.11135040594E+02 -0.46870358231E+03  0.47862053986E+03  0.00000000000E+00 0. -1.
          1    1    1    2  502    0 -0.88339058455E+01 -0.70123943197E+02  0.15873193220E+04  0.15888920779E+04  0.00000000000E+00 0. -1.
         22    1    3    3    0    0  0.92808055404E+02 -0.17722628652E+02  0.66063313422E+03  0.66735565087E+03  0.00000000000E+00 0. -1.
         22    1    3    3    0    0  0.12309722286E+02  0.76711531255E+02  0.70793550278E+03  0.71218597599E+03  0.00000000000E+00 0. -1.
</event>
<event>
 7    1  0.9036454E-005  0.1115740E+04  0.7818608E-02  0.1191870E+00
          2   -1    0    0  502    0  0.00000000000E+00  0.00000000000E+00  0.23825455772E+04  0.23825455772E+04  0.00000000000E+00 0. -1.
          1   -1    0    0  501    0 -0.00000000000E+00 -0.00000000000E+00 -0.74548602098E+03  0.74548602098E+03  0.00000000000E+00 0. -1.
         25    2    1    2    0    0  0.10629079539E+04  0.30129099234E+03  0.15609915382E+03  0.11227387439E+04  0.12500304306E+03 0.  0.
          2    1    1    2  501    0  0.99214321633E+01  0.19808801385E+02 -0.80659363935E+02  0.83646616303E+02  0.00000000000E+00 0. -1.
          1    1    1    2  502    0 -0.10728293861E+04 -0.32109979373E+03  0.15616197663E+04  0.19216462379E+04  0.00000000000E+00 0. -1.
         22    1    3    3    0    0  0.26815729318E+03  0.10957604605E+03  0.86072220335E+02  0.30219806562E+03  0.00000000000E+00 0.  1.
         22    1    3    3    0    0  0.79475066073E+03  0.19171494629E+03  0.70026933484E+02  0.82054067832E+03  0.00000000000E+00 0.  1.
</event>
<event>
 7    1  0.9036454E-005  0.2425489E+03  0.7818608E-02  0.1208885E+00
          2   -1    0    0  502    0  0.00000000000E+00  0.00000000000E+00  0.62805564788E+03  0.62805564788E+03  0.00000000000E+00 0. -1.
          1   -1    0    0  501    0 -0.00000000000E+00 -0.00000000000E+00 -0.35399178179E+03  0.35399178179E+03  0.00000000000E+00 0. -1.
         25    2    1    2    0    0 -0.13823823513E+03  0.11109977475E+03  0.42637537390E+03  0.47840772449E+03  0.12500008714E+03 0.  0.
          2    1    1    2  501    0  0.15870690474E+03 -0.19331753664E+03 -0.26385602465E+03  0.36356506065E+03  0.00000000000E+00 0. -1.
          1    1    1    2  502    0 -0.20468669607E+02  0.82217761883E+02  0.11154451684E+03  0.14007464453E+03  0.00000000000E+00 0. -1.
         22    1    3    3    0    0 -0.70690964237E+02  0.49735311564E+02  0.72070789542E+02  0.11253893702E+03  0.00000000000E+00 0. -1.
         22    1    3    3    0    0 -0.67547270891E+02  0.61364463190E+02  0.35430458436E+03  0.36586878747E+03  0.00000000000E+00 0. -1.
</event>
<event>
 7    1  0.9036454E-005  0.1492626E+03  0.7818608E-02  0.1222549E+00
          2   -1    0    0  502    0  0.00000000000E+00  0.00000000000E+00  0.10863931123E+04  0.10863931123E+04  0.00000000000E+00 0. -1.
          1   -1    0    0  501    0 -0.00000000000E+00 -0.00000000000E+00 -0.99750236768E+03  0.99750236768E+03  0.00000000000E+00 0. -1.
         25    2    1    2    0    0 -0.61633116934E+02 -0.72926148299E+02 -0.28069660894E+03  0.32176528603E+03  0.12500179523E+03 0.  0.
          2    1    1    2  501    0  0.18017107081E+03  0.60795298669E+02 -0.67985409832E+03  0.70594566228E+03  0.00000000000E+00 0. -1.
          1    1    1    2  502    0 -0.11853795387E+03  0.12130849630E+02  0.10494414519E+04  0.10561845317E+04  0.00000000000E+00 0. -1.
         22    1    3    3    0    0  0.30821778299E+01 -0.20807237175E+02  0.71102622160E+01  0.22203530526E+02  0.00000000000E+00 0. -1.
         22    1    3    3    0    0 -0.64715294764E+02 -0.52118911124E+02 -0.28780687116E+03  0.29956175550E+03  0.00000000000E+00 0. -1.
</event>
<event>
 7    1  0.9036454E-005  0.1021306E+04  0.7818608E-02  0.9821025E-01
          2   -1    0    0  502    0  0.00000000000E+00  0.00000000000E+00  0.97644455352E+03  0.97644455352E+03  0.00000000000E+00 0. -1.
          1   -1    0    0  501    0 -0.00000000000E+00 -0.00000000000E+00 -0.35968919333E+04  0.35968919333E+04  0.00000000000E+00 0. -1.
         25    2    1    2    0    0 -0.97820208597E+03 -0.97145294101E+03 -0.22859550306E+04  0.26724175542E+04  0.12500017788E+03 0.  0.
          2    1    1    2  501    0  0.28231935068E+03  0.28919131893E+03 -0.74174716204E+03  0.84470390499E+03  0.00000000000E+00 0. -1.
          1    1    1    2  502    0  0.69588273529E+03  0.68226162208E+03  0.40725481278E+03  0.10562150277E+04  0.00000000000E+00 0. -1.
         22    1    3    3    0    0 -0.56396509896E+03 -0.58219893322E+03 -0.12272733733E+04  0.14707862399E+04  0.00000000000E+00 0. -1.
         22    1    3    3    0    0 -0.41423698701E+03 -0.38925400778E+03 -0.10586816572E+04  0.12016313142E+04  0.00000000000E+00 0. -1.
</event>
<event>
 7    1  0.9036454E-005  0.1561426E+03  0.7818608E-02  0.1305533E+00
          2   -1    0    0  502    0  0.00000000000E+00  0.00000000000E+00  0.12525654147E+04  0.12525654147E+04  0.00000000000E+00 0. -1.
          1   -1    0    0  501    0 -0.00000000000E+00 -0.00000000000E+00 -0.17163771118E+03  0.17163771118E+03  0.00000000000E+00 0. -1.
         25    2    1    2    0    0  0.10850262655E+03  0.16274732698E+03  0.36812910333E+02  0.23503210229E+03  0.12500154533E+03 0.  0.
          2    1    1    2  501    0 -0.45570228997E+02 -0.22033993484E+02 -0.57625522741E+02  0.76699696942E+02  0.00000000000E+00 0. -1.
          1    1    1    2  502    0 -0.62932397550E+02 -0.14071333350E+03  0.11017403159E+04  0.11124713266E+04  0.00000000000E+00 0. -1.
         22    1    3    3    0    0  0.63827520574E+02  0.71686978282E+02  0.79844495501E+02  0.12485238764E+03  0.00000000000E+00 0. -1.
         22    1    3    3    0    0  0.44675105974E+02  0.91060348698E+02 -0.43031585169E+02  0.11017971465E+03  0.00000000000E+00 0. -1.
</event>
<event>
 7    1  0.9036454E-005  0.4941429E+02  0.7818608E-02  0.1532724E+00
          2   -1    0    0  502    0  0.00000000000E+00  0.00000000000E+00  0.48034193369E+02  0.48034193369E+02  0.00000000000E+00 0. -1.
          1   -1    0    0  501    0 -0.00000000000E+00 -0.00000000000E+00 -0.41492028376E+03  0.41492028376E+03  0.00000000000E+00 0. -1.
         25    2    1    2    0    0 -0.42976561298E+02  0.56424851840E+02 -0.28254108076E+03  0.31699490516E+03  0.12500223539E+03 0.  0.
          2    1    1    2  501    0  0.48570026692E+01 -0.27054268200E+02 -0.93077821230E+02  0.97051556957E+02  0.00000000000E+00 0. -1.
          1    1    1    2  502    0  0.38119558629E+02 -0.29370583640E+02  0.87328116059E+01  0.48908015007E+02  0.00000000000E+00 0. -1.
         22    1    3    3    0    0 -0.56709691947E+02  0.88799345100E+02 -0.17974224725E+03  0.20834727811E+03  0.00000000000E+00 0.  1.
         22    1    3    3    0    0  0.13733130649E+02 -0.32374493261E+02 -0.10279883352E+03  0.10864762705E+03  0.00000000000E+00 0.  1.
</event>
<event>
 7    1  0.9036454E-005  0.6969884E+03  0.7818608E-02  0.1095112E+00
          2   -1    0    0  502    0  0.00000000000E+00  0.00000000000E+00  0.12085801579E+04  0.12085801579E+04  0.00000000000E+00 0. -1.
          1   -1    0    0  501    0 -0.00000000000E+00 -0.00000000000E+00 -0.96687918824E+03  0.96687918824E+03  0.00000000000E+00 0. -1.
         25    2    1    2    0    0 -0.43883484791E+03 -0.56128379819E+03  0.23348890250E+03  0.76010351948E+03  0.12499906751E+03 0.  0.
          2    1    1    2  501    0  0.50865710536E+03  0.47200873949E+03 -0.52505593025E+03  0.87017701123E+03  0.00000000000E+00 0. -1.
          1    1    1    2  502    0 -0.69822257449E+02  0.89275058696E+02  0.53326799743E+03  0.54517881546E+03  0.00000000000E+00 0. -1.
         22    1    3    3    0    0 -0.11169889835E+03 -0.16999535848E+03  0.12475134147E+03  0.23861677015E+03  0.00000000000E+00 0. -1.
         22    1    3    3    0    0 -0.32713594956E+03 -0.39128843971E+03  0.10873756103E+03  0.52148674933E+03  0.00000000000E+00 0. -1.
</event>
<event>
 7    1  0.9036454E-005  0.7451499E+03  0.7818608E-02  0.1058031E+00
          2   -1    0    0  502    0  0.00000000000E+00  0.00000000000E+00  0.26926265947E+04  0.26926265947E+04  0.00000000000E+00 0. -1.
          1   -1    0    0  501    0 -0.00000000000E+00 -0.00000000000E+00 -0.38905257309E+03  0.38905257309E+03  0.00000000000E+00 0. -1.
         25    2    1    2    0    0 -0.67381389157E+03 -0.46041024659E+03  0.16160942205E+04  0.18147694485E+04  0.12499946365E+03 0.  0.
          2    1    1    2  501    0  0.17356654121E+03  0.24445982168E+02 -0.12691943703E+03  0.21640585428E+03  0.00000000000E+00 0. -1.
          1    1    1    2  502    0  0.50024735036E+03  0.43596426442E+03  0.81439923815E+03  0.10505038651E+04  0.00000000000E+00 0. -1.
         22    1    3    3    0    0 -0.34797766960E+03 -0.26131316276E+03  0.98995540240E+03  0.10813809349E+04  0.00000000000E+00 0.  1.
         22    1    3    3    0    0 -0.32583622196E+03 -0.19909708383E+03  0.62613881814E+03  0.73338851362E+03  0.00000000000E+00 0.  1.
</event>
<event>
 7    1  0.9036454E-005  0.1694230E+03  0.7818608E-02  0.1267771E+00
          2   -1    0    0  502    0  0.00000000000E+00  0.00000000000E+00  0.16437234135E+04  0.16437234135E+04  0.00000000000E+00 0. -1.
          1   -1    0    0  501    0 -0.00000000000E+00 -0.00000000000E+00 -0.89837477998E+02  0.89837477998E+02  0.00000000000E+00 0. -1.
         25    2    1    2    0    0  0.20814708634E+03 -0.90677709339E+02  0.13789577436E+03  0.29357805583E+03  0.12500069500E+03 0.  0.
          2    1    1    2  501    0 -0.64414019847E+02  0.16808997285E+02  0.81273826582E+03  0.81546011372E+03  0.00000000000E+00 0. -1.
          1    1    1    2  502    0 -0.14373306650E+03  0.73868712054E+02  0.60325189528E+03  0.62452272191E+03  0.00000000000E+00 0. -1.
         22    1    3    3    0    0  0.12550756782E+03  0.12689564997E+02  0.56611488431E+02  0.13826798350E+03  0.00000000000E+00 0. -1.
         22    1    3    3    0    0  0.82639518525E+02 -0.10336727434E+03  0.81284285934E+02  0.15531007232E+03  0.00000000000E+00 0. -1.
</event>
<event>
 7    1  0.9036454E-005  0.1232089E+03  0.7818608E-02  0.1398986E+00
          2   -1    0    0  502    0  0.00000000000E+00  0.00000000000E+00  0.19662425437E+04  0.19662425437E+04  0.00000000000E+00 0. -1.
          1   -1    0    0  501    0 -0.00000000000E+00 -0.00000000000E+00 -0.40253714849E+02  0.40253714849E+02  0.00000000000E+00 0. -1.
         25    2    1    2    0    0  0.92741437937E+02  0.75578113148E+02  0.21234748018E+03  0.27391474951E+03  0.12499924864E+03 0.  0.
          2    1    1    2  501    0 -0.11732651997E+03 -0.60287208349E+02  0.45828095953E+03  0.47688730078E+03  0.00000000000E+00 0. -1.
          1    1    1    2  502    0  0.24585082035E+02 -0.15290904799E+02  0.12553603892E+04  0.12556942083E+04  0.00000000000E+00 0. -1.
         22    1    3    3    0    0  0.10629071363E+03  0.53549469032E+02  0.90942810894E+02  0.14978603503E+03  0.00000000000E+00 0.  1.
         22    1    3    3    0    0 -0.13549275690E+02  0.22028644116E+02  0.12140466929E+03  0.12412871448E+03  0.00000000000E+00 0.  1.
</event>
<event>
 7    1  0.9036454E-005  0.2092117E+03  0.7818608E-02  0.1222832E+00
          2   -1    0    0  502    0  0.00000000000E+00  0.00000000000E+00  0.17410096982E+04  0.17410096982E+04  0.00000000000E+00 0. -1.
          1   -1    0    0  501    0 -0.00000000000E+00 -0.00000000000E+00 -0.28705148903E+03  0.28705148903E+03  0.00000000000E+00 0. -1.
         25    2    1    2    0    0  0.24754248621E+03  0.72869209583E+02  0.40884560520E+03  0.49936427601E+03  0.12499098797E+03 0.  0.
          2    1    1    2  501    0 -0.20541863148E+03  0.68476996636E+00 -0.19645514064E+03  0.28423916928E+03  0.00000000000E+00 0. -1.
          1    1    1    2  502    0 -0.42123854726E+02 -0.73553979550E+02  0.12415677447E+04  0.12444577420E+04  0.00000000000E+00 0. -1.
         22    1    3    3    0    0  0.24828832557E+03  0.70109447676E+02  0.32262928100E+03  0.41310056914E+03  0.00000000000E+00 0.  1.
         22    1    3    3    0    0 -0.74583936821E+00  0.27597619079E+01  0.86216324205E+02  0.86263706862E+02  0.00000000000E+00 0.  1.
</event>
<event>
 7    1  0.9036454E-005  0.7209178E+03  0.7818608E-02  0.1116106E+00
          2   -1    0    0  502    0  0.00000000000E+00  0.00000000000E+00  0.16837303652E+04  0.16837303652E+04  0.00000000000E+00 0. -1.
          1   -1    0    0  501    0 -0.00000000000E+00 -0.00000000000E+00 -0.61946928273E+03  0.61946928273E+03  0.00000000000E+00 0. -1.
         25    2    1    2    0    0 -0.43743798863E+03 -0.60888231718E+03  0.86740474454E+03  0.11533013029E+04  0.12499293677E+03 0.  0.
          2    1    1    2  501    0  0.80630131912E+02  0.22393777415E+02 -0.29418740888E+03  0.30585769727E+03  0.00000000000E+00 0. -1.
          1    1    1    2  502    0  0.35680785671E+03  0.58648853977E+03  0.49104374684E+03  0.84404064784E+03  0.00000000000E+00 0. -1.
         22    1    3    3    0    0 -0.37025904918E+03 -0.42162957062E+03  0.64280780731E+03  0.85326732942E+03  0.00000000000E+00 0.  1.
         22    1    3    3    0    0 -0.67178939451E+02 -0.18725274656E+03  0.22459693724E+03  0.30003397344E+03  0.00000000000E+00 0.  1.
</event>
<event>
 7    1  0.9036454E-005  0.2929119E+03  0.7818608E-02  0.1166644E+00
          2   -1    0    0  502    0  0.00000000000E+00  0.00000000000E+00  0.45052493377E+03  0.45052493377E+03  0.00000000000E+00 0. -1.
          1   -1    0    0  501    0 -0.00000000000E+00 -0.00000000000E+00 -0.11861438409E+04  0.11861438409E+04  0.00000000000E+00 0. -1.
         25    2    1    2    0    0  0.78047397403E+02  0.28056583559E+03  0.34620550249E+03  0.46935251065E+03  0.12499977982E+03 0.  0.
          2    1    1    2  501    0  0.33443826395E+02 -0.29220463629E+03 -0.94890021751E+03  0.99343528314E+03  0.00000000000E+00 0. -1.
          1    1    1    2  502    0 -0.11149122380E+03  0.11638800696E+02 -0.13292419214E+03  0.17388098091E+03  0.00000000000E+00 0. -1.
         22    1    3    3    0    0  0.93813743443E+01  0.22680200522E+03  0.27627132593E+03  0.35756538603E+03  0.00000000000E+00 0. -1.
         22    1    3    3    0    0  0.68666023058E+02  0.53763830377E+02  0.69934176552E+02  0.11178712461E+03  0.00000000000E+00 0. -1.
</event>
<event>
 7    1  0.9036454E-005  0.6032451E+03  0.7818608E-02  0.1137809E+00
          2   -1    0    0  502    0  0.00000000000E+00  0.00000000000E+00  0.32936717756E+03  0.32936717756E+03  0.00000000000E+00 0. -1.
          1   -1    0    0  501    0 -0.00000000000E+00 -0.00000000000E+00 -0.23728741043E+04  0.23728741043E+04  0.00000000000E+00 0. -1.
         25    2    1    2    0    0  0.47134200659E+03  0.26652927776E+03 -0.14318357053E+04  0.15358971280E+04  0.12500143043E+03 0.  0.
          2    1    1    2  501    0  0.69677517561E+02  0.31568656787E+02 -0.53897014909E+03  0.54437152584E+03  0.00000000000E+00 0. -1.
          1    1    1    2  502    0 -0.54101952415E+03 -0.29809793454E+03 -0.72701072318E+02  0.62197262802E+03  0.00000000000E+00 0. -1.
         22    1    3    3    0    0  0.16065237051E+01  0.29543776151E+02 -0.77455393854E+02  0.82914134288E+02  0.00000000000E+00 0.  1.
         22    1    3    3    0    0  0.46973548289E+03  0.23698550161E+03 -0.13543803115E+04  0.14529829937E+04  0.00000000000E+00 0.  1.
</event>
<event>
 7    1  0.9036454E-005  0.1650737E+03  0.7818608E-02  0.1203276E+00
          2   -1    0    0  502    0  0.00000000000E+00  0.00000000000E+00  0.42997525982E+03  0.42997525982E+03  0.00000000000E+00 0. -1.
          1   -1    0    0  501    0 -0.00000000000E+00 -0.00000000000E+00 -0.59736572007E+03  0.59736572007E+03  0.00000000000E+00 0. -1.
         25    2    1    2    0    0  0.25362291536E+03 -0.43836793316E+02  0.31045466786E+03  0.42220107207E+03  0.12500158727E+03 0.  0.
          2    1    1    2  501    0 -0.13169142563E+03  0.94997338536E+02 -0.43785598123E+03  0.46699570256E+03  0.00000000000E+00 0. -1.
          1    1    1    2  502    0 -0.12193148974E+03 -0.51160545220E+02 -0.39989146875E+02  0.13814420525E+03  0.00000000000E+00 0. -1.
         22    1    3    3    0    0  0.82120479550E+02 -0.75632979443E+02  0.12554434522E+03  0.16800447422E+03  0.00000000000E+00 0. -1.
         22    1    3    3    0    0  0.17150243581E+03  0.31796186127E+02  0.18491032265E+03  0.25419659786E+03  0.00000000000E+00 0. -1.
</event>
<event>
 7    1  0.9036454E-005  0.4028510E+02  0.7818608E-02  0.1539503E+00
          2   -1    0    0  502    0  0.00000000000E+00  0.00000000000E+00  0.24795780162E+04  0.24795780162E+04  0.00000000000E+00 0. -1.
          1   -1    0    0  501    0 -0.00000000000E+00 -0.00000000000E+00 -0.73838593278E+01  0.73838593278E+01  0.00000000000E+00 0. -1.
         25    2    1    2    0    0 -0.41275506078E+02  0.49244253798E+02  0.10155907575E+04  0.10252687133E+04  0.12499073537E+03 0.  0.
          2    1    1    2  501    0  0.32557023015E+02 -0.18191941089E+02  0.14584271784E+03  0.15053572605E+03  0.00000000000E+00 0. -1.
          1    1    1    2  502    0  0.87184830637E+01 -0.31052312709E+02  0.13107606815E+04  0.13111574361E+04  0.00000000000E+00 0. -1.
         22    1    3    3    0    0  0.36600034825E+01 -0.36837635383E+02  0.16218350607E+03  0.16635473137E+03  0.00000000000E+00 0. -1.
         22    1    3    3    0    0 -0.44935509561E+02  0.86081889181E+02  0.85340725141E+03  0.85891398197E+03  0.00000000000E+00 0. -1.
</event>
<event>
 7    1  0.9036454E-005  0.1831437E+03  0.7818608E-02  0.1232491E+00
          2   -1    0    0  502    0  0.00000000000E+00  0.00000000000E+00  0.16657764345E+04  0.16657764345E+04  0.00000000000E+00 0. -1.
          1   -1    0    0  501    0 -0.00000000000E+00 -0.00000000000E+00 -0.76377516454E+03  0.76377516454E+03  0.00000000000E+00 0. -1.
         25    2    1    2    0    0  0.81875232306E+02 -0.13660132494E+03  0.33851099805E+03  0.39443440165E+03  0.12500130306E+03 0.  0.
          2    1    1    2  501    0 -0.83949488131E+01  0.18429580296E+03 -0.72273625724E+03  0.74591093012E+03  0.00000000000E+00 0. -1.
          1    1    1    2  502    0 -0.73480283493E+02 -0.47694478023E+02  0.12862265291E+04  0.12892062673E+04  0.00000000000E+00 0. -1.
         22    1    3    3    0    0  0.11533174737E+03 -0.11337096796E+03  0.26953621060E+03  0.31433128567E+03  0.00000000000E+00 0. -1.
         22    1    3    3    0    0 -0.33456515069E+02 -0.23230356980E+02  0.68974787450E+02  0.80103115980E+02  0.00000000000E+00 0. -1.
</event>
<event>
 7    1  0.9036454E-005  0.2742075E+03  0.7818608E-02  0.1158088E+00
          2   -1    0    0  502    0  0.00000000000E+00  0.00000000000E+00  0.12439016836E+04  0.12439016836E+04  0.00000000000E+00 0. -1.
          1   -1    0    0  501    0 -0.00000000000E+00 -0.00000000000E+00 -0.81800611545E+03  0.81800611545E+03  0.00000000000E+00 0. -1.
         25    2    1    2    0    0 -0.34964311631E+02  0.12856267845E+03 -0.73244465702E+03  0.75488161918E+03  0.12498087052E+03 0.  0.
          2    1    1    2  501    0 -0.23772448028E+03 -0.15738250265E+03  0.33861317625E+03  0.44265230575E+03  0.00000000000E+00 0. -1.
          1    1    1    2  502    0  0.27268879191E+03  0.28819824194E+02  0.81972704891E+03  0.86437387409E+03  0.00000000000E+00 0. -1.
         22    1    3    3    0    0 -0.19624757795E+02 -0.22113277669E+02 -0.16186340192E+03  0.16454145085E+03  0.00000000000E+00 0. -1.
         22    1    3    3    0    0 -0.15339553836E+02  0.15067595612E+03 -0.57058125510E+03  0.59034016833E+03  0.00000000000E+00 0. -1.
</event>
<event>
 7    1  0.9036454E-005  0.2615946E+03  0.7818608E-02  0.1183660E+00
          2   -1    0    0  502    0  0.00000000000E+00  0.00000000000E+00  0.19893834662E+04  0.19893834662E+04  0.00000000000E+00 0. -1.
          1   -1    0    0  501    0 -0.00000000000E+00 -0.00000000000E+00 -0.26581325438E+03  0.26581325438E+03  0.00000000000E+00 0. -1.
         25    2    1    2    0    0  0.24764264698E+03  0.18482975454E+03  0.37395300529E+03  0.50095372638E+03  0.12499946817E+03 0.  0.
          2    1    1    2  501    0 -0.51538892810E+01 -0.10337105392E+03 -0.17770434203E+03  0.20564768547E+03  0.00000000000E+00 0. -1.
          1    1    1    2  502    0 -0.24248875770E+03 -0.81458700617E+02  0.15273215486E+04  0.15485953087E+04  0.00000000000E+00 0. -1.
         22    1    3    3    0    0  0.39572935639E+02  0.40660662768E+02  0.99806658557E+01  0.57610072234E+02  0.00000000000E+00 0. -1.
         22    1    3    3    0    0  0.20806971135E+03  0.14416909177E+03  0.36397233944E+03  0.44334365415E+03  0.00000000000E+00 0. -1.
</event>
<event>
 7    1  0.9036454E-005  0.1855955E+03  0.7818608E-02  0.1188857E+00
          2   -1    0    0  502    0  0.00000000000E+00  0.00000000000E+00  0.10894374620E+04  0.10894374620E+04  0.00000000000E+00 0. -1.
          1   -1    0    0  501    0 -0.00000000000E+00 -0.00000000000E+00 -0.16657977273E+03  0.16657977273E+03  0.00000000000E+00 0. -1.
         25    2    1    2    0    0  0.18132481489E+03  0.20229077933E+03  0.20403961938E+03  0.36202294697E+03  0.12501279917E+03 0.  0.
          2    1    1    2  501    0 -0.16644740937E+02 -0.13667977411E+03 -0.15521235849E+02  0.13856159935E+03  0.00000000000E+00 0. -1.
          1    1    1    2  502    0 -0.16468007395E+03 -0.65611005222E+02  0.73433930576E+03  0.75543268843E+03  0.00000000000E+00 0. -1.
         22    1    3    3    0    0  0.18284397188E+03  0.19972402739E+03  0.21807410783E+03  0.34767502309E+03  0.00000000000E+00 0. -1.
         22    1    3    3    0    0 -0.15191569961E+01  0.25667519393E+01 -0.14034488452E+02  0.14347923878E+02  0.00000000000E+00 0. -1.
</event>
<event>
 7    1  0.9036454E-005  0.1773117E+03  0.7818608E-02  0.1236635E+00
          2   -1    0    0  502    0  0.00000000000E+00  0.00000000000E+00  0.13622747340E+04  0.13622747340E+04  0.00000000000E+00 0. -1.
          1   -1    0    0  501    0 -0.00000000000E+00 -0.00000000000E+00 -0.74153423563E+03  0.74153423563E+03  0.00000000000E+00 0. -1.
         25    2    1    2    0    0  0.22922539204E+03  0.10406489367E+03 -0.66712431572E+03  0.72391542924E+03  0.12499965451E+03 0.  0.
          2    1    1    2  501    0 -0.56761701140E+02 -0.65565367665E+02  0.71179621457E+01  0.87013639956E+02  0.00000000000E+00 0. -1.
          1    1    1    2  502    0 -0.17246369090E+03 -0.38499526008E+02  0.12807468520E+04  0.12928799005E+04  0.00000000000E+00 0. -1.
         22    1    3    3    0    0  0.13341414019E+03  0.92061511712E+02 -0.26740187494E+03  0.31269540685E+03  0.00000000000E+00 0.  1.
         22    1    3    3    0    0  0.95811251843E+02  0.12003381961E+02 -0.39972244078E+03  0.41122002240E+03  0.00000000000E+00 0.  1.
</event>
<event>
 7    1  0.9036454E-005  0.3644676E+03  0.7818608E-02  0.1209770E+00
          2   -1    0    0  502    0  0.00000000000E+00  0.00000000000E+00  0.18014813214E+04  0.18014813214E+04  0.00000000000E+00 0. -1.
          1   -1    0    0  501    0 -0.00000000000E+00 -0.00000000000E+00 -0.55359407551E+03  0.55359407551E+03  0.00000000000E+00 0. -1.
         25    2    1    2    0    0  0.29493851864E+03 -0.22129481789E+03 -0.95047948371E+02  0.40077467783E+03  0.12500441472E+03 0.  0.
          2    1    1    2  501    0 -0.25416206559E+03  0.25946514176E+03 -0.19710746730E+03  0.41324553117E+03  0.00000000000E+00 0. -1.
          1    1    1    2  502    0 -0.40776453057E+02 -0.38170323869E+02  0.15400426616E+04  0.15410551879E+04  0.00000000000E+00 0. -1.
         22    1    3    3    0    0  0.24355238548E+03 -0.11497407741E+03 -0.47545617622E+02  0.27349111266E+03  0.00000000000E+00 0.  1.
         22    1    3    3    0    0  0.51386133168E+02 -0.10632074047E+03 -0.47502330749E+02  0.12728356517E+03  0.00000000000E+00 0.  1.
</event>
<event>
 7    1  0.9036454E-005  0.3130649E+03  0.7818608E-02  0.1166960E+00
          2   -1    0    0  502    0  0.00000000000E+00  0.00000000000E+00  0.12046094410E+04  0.12046094410E+04  0.00000000000E+00 0. -1.
          1   -1    0    0  501    0 -0.00000000000E+00 -0.00000000000E+00 -0.61327627031E+03  0.61327627031E+03  0.00000000000E+00 0. -1.
         25    2    1    2    0    0  0.12208726492E+03  0.39274668477E+03  0.10837272611E+04  0.11658664430E+04  0.12499811061E+03 0.  0.
          2    1    1    2  501    0 -0.74708611051E+02 -0.29960382362E+03 -0.43299747113E+03  0.53181823746E+03  0.00000000000E+00 0. -1.
          1    1    1    2  502    0 -0.47378653864E+02 -0.93142861153E+02 -0.59396619359E+02  0.12020103085E+03  0.00000000000E+00 0. -1.
         22    1    3    3    0    0  0.89696356431E+02  0.17711589828E+03  0.37440972321E+03  0.42379018230E+03  0.00000000000E+00 0. -1.
         22    1    3    3    0    0  0.32390908485E+02  0.21563078649E+03  0.70931753792E+03  0.74207626066E+03  0.00000000000E+00 0. -1.
</event>
<event>
 7    1  0.9036454E-005  0.2327274E+03  0.7818608E-02  0.1130062E+00
          2   -1    0    0  502    0  0.00000000000E+00  0.00000000000E+00  0.72163813278E+03  0.72163813278E+03  0.00000000000E+00 0. -1.
          1   -1    0    0  501    0 -0.00000000000E+00 -0.00000000000E+00 -0.88744958752E+03  0.88744958752E+03  0.00000000000E+00 0. -1.
         25    2    1    2    0    0 -0.23707684226E+03  0.17045642258E+03 -0.34518178934E+03  0.46908135438E+03  0.12500411275E+03 0.  0.
          2    1    1    2  501    0  0.75865093748E+01 -0.21779136142E+03 -0.43277498421E+03  0.48454599286E+03  0.00000000000E+00 0. -1.
          1    1    1    2  502    0  0.22949033288E+03  0.47334938845E+02  0.61214531880E+03  0.65546037306E+03  0.00000000000E+00 0. -1.
         22    1    3    3    0    0 -0.23961399387E+03  0.13975379751E+03 -0.33835409010E+03  0.43752654807E+03  0.00000000000E+00 0.  1.
         22    1    3    3    0    0  0.25371516134E+01  0.30702625068E+02 -0.68276992327E+01  0.31554806309E+02  0.00000000000E+00 0.  1.
</event>
<event>
 7    1  0.9036454E-005  0.5263125E+03  0.7818608E-02  0.1130943E+00
          2   -1    0    0  502    0  0.00000000000E+00  0.00000000000E+00  0.16498358713E+04  0.16498358713E+04  0.00000000000E+00 0. -1.
          1   -1    0    0  501    0 -0.00000000000E+00 -0.00000000000E+00 -0.64761884264E+03  0.64761884264E+03  0.00000000000E+00 0. -1.
         25    2    1    2    0    0 -0.49307891017E+03 -0.74527172834E+01  0.90154046874E+02  0.51665759939E+03  0.12499987274E+03 0.  0.
          2    1    1    2  501    0  0.54232450806E+03 -0.74168105212E+02 -0.25921405411E+03  0.60564734435E+03  0.00000000000E+00 0. -1.
          1    1    1    2  502    0 -0.49245597885E+02  0.81620822496E+02  0.11712770359E+04  0.11751497702E+04  0.00000000000E+00 0. -1.
         22    1    3    3    0    0 -0.29304825624E+03 -0.51865690511E+02  0.92809374705E+02  0.31173852886E+03  0.00000000000E+00 0.  1.
         22    1    3    3    0    0 -0.20003065393E+03  0.44412973228E+02 -0.26553278314E+01  0.20491907053E+03  0.00000000000E+00 0.  1.
</event>
<event>
 7    1  0.9036454E-005  0.2922037E+03  0.7818608E-02  0.1122091E+00
          2   -1    0    0  502    0  0.00000000000E+00  0.00000000000E+00  0.12406875322E+04  0.12406875322E+04  0.00000000000E+00 0. -1.
          1   -1    0    0  501    0 -0.00000000000E+00 -0.00000000000E+00 -0.87304489615E+03  0.87304489615E+03  0.00000000000E+00 0. -1.
         25    2    1    2    0    0  0.12326561012E+03  0.18187792835E+03  0.20174463330E+03  0.32341872815E+03  0.12499914077E+03 0.  0.
          2    1    1    2  501    0  0.18688245643E+03 -0.42023809668E+02 -0.77053743621E+03  0.79398929067E+03  0.00000000000E+00 0. -1.
          1    1    1    2  502    0 -0.31014806655E+03 -0.13985411868E+03  0.93643543892E+03  0.99632440950E+03  0.00000000000E+00 0. -1.
         22    1    3    3    0    0  0.79091363169E+02  0.12743284476E+03  0.20408376997E+03  0.25326815594E+03  0.00000000000E+00 0.  1.
         22    1    3    3    0    0  0.44174246953E+02  0.54445083590E+02 -0.23391366636E+01  0.70150572209E+02  0.00000000000E+00 0.  1.
</event>
<event>
 7    1  0.9036454E-005  0.2448378E+03  0.7818608E-02  0.1150663E+00
          2   -1    0    0  502    0  0.00000000000E+00  0.00000000000E+00  0.55472440083E+03  0.55472440083E+03  0.00000000000E+00 0. -1.
          1   -1    0    0  501    0 -0.00000000000E+00 -0.00000000000E+00 -0.15211711393E+04  0.15211711393E+04  0.00000000000E+00 0. -1.
         25    2    1    2    0    0  0.32248698961E+03  0.99642299962E+00 -0.50248132556E+03  0.61001574629E+03  0.12503150346E+03 0.  0.
          2    1    1    2  501    0 -0.20451016501E+03  0.10943297233E+03 -0.93737718798E+03  0.96564795633E+03  0.00000000000E+00 0. -1.
          1    1    1    2  502    0 -0.11797682460E+03 -0.11042939533E+03  0.47341177507E+03  0.50023183752E+03  0.00000000000E+00 0. -1.
         22    1    3    3    0    0  0.15453473993E+03 -0.61621732766E+02 -0.22996807386E+03  0.28383716950E+03  0.00000000000E+00 0.  1.
         22    1    3    3    0    0  0.16795224967E+03  0.62618155765E+02 -0.27251325170E+03  0.32617857678E+03  0.00000000000E+00 0.  1.
</event>
<event>
 7    1  0.9036454E-005  0.5906926E+03  0.7818608E-02  0.1179763E+00
          2   -1    0    0  502    0  0.00000000000E+00  0.00000000000E+00  0.16399919367E+04  0.16399919367E+04  0.00000000000E+00 0. -1.
          1   -1    0    0  501    0 -0.00000000000E+00 -0.00000000000E+00 -0.18403365076E+04  0.18403365076E+04  0.00000000000E+00 0. -1.
         25    2    1    2    0    0 -0.28041687552E+03  0.54603626038E+03  0.57485144331E+02  0.62906167923E+03  0.12499933092E+03 0.  0.
          2    1    1    2  501    0  0.23307048329E+03 -0.53889891345E+03 -0.14986304545E+04  0.16095425214E+04  0.00000000000E+00 0. -1.
          1    1    1    2  502    0  0.47346392230E+02 -0.71373469326E+01  0.12408007393E+04  0.12417242436E+04  0.00000000000E+00 0. -1.
         22    1    3    3    0    0 -0.27781562806E+03  0.50792112233E+03  0.25936718256E+02  0.57951540364E+03  0.00000000000E+00 0.  1.
         22    1    3    3    0    0 -0.26012474599E+01  0.38115138047E+02  0.31548426075E+02  0.49546275586E+02  0.00000000000E+00 0.  1.
</event>
<event>
 7    1  0.9036454E-005  0.1138247E+03  0.7818608E-02  0.1318480E+00
          2   -1    0    0  502    0  0.00000000000E+00  0.00000000000E+00  0.11522336719E+03  0.11522336719E+03  0.00000000000E+00 0. -1.
          1   -1    0    0  501    0 -0.00000000000E+00 -0.00000000000E+00 -0.82108672964E+03  0.82108672964E+03  0.00000000000E+00 0. -1.
         25    2    1    2    0    0 -0.18644405107E+02  0.15788893377E+03 -0.77028484671E+02  0.21641301710E+03  0.12499870908E+03 0.  0.
          2    1    1    2  501    0  0.92911004127E+01 -0.61059323977E+02 -0.61905285632E+03  0.62212619661E+03  0.00000000000E+00 0. -1.
          1    1    1    2  502    0  0.93533046947E+01 -0.96829609795E+02 -0.97820214619E+01  0.97770883118E+02  0.00000000000E+00 0. -1.
         22    1    3    3    0    0 -0.24223563466E+02  0.16915525238E+02 -0.69048205536E+02  0.75103732989E+02  0.00000000000E+00 0.  1.
         22    1    3    3    0    0  0.55791583584E+01  0.14097340853E+03 -0.79802791348E+01  0.14130928411E+03  0.00000000000E+00 0.  1.
</event>
<event>
 7    1  0.9036454E-005  0.2445379E+03  0.7818608E-02  0.1171315E+00
          2   -1    0    0  502    0  0.00000000000E+00  0.00000000000E+00  0.31264293860E+03  0.31264293860E+03  0.00000000000E+00 0. -1.
          1   -1    0    0  501    0 -0.00000000000E+00 -0.00000000000E+00 -0.89285428971E+03  0.89285428971E+03  0.00000000000E+00 0. -1.
         25    2    1    2    0    0 -0.14738869283E+03 -0.18893550096E+03 -0.70279263357E+03  0.75296917539E+03  0.12500017198E+03 0.  0.
          2    1    1    2  501    0  0.79727816464E+02  0.29673468342E+03  0.10102897207E+03  0.32344218998E+03  0.00000000000E+00 0. -1.
          1    1    1    2  502    0  0.67660876365E+02 -0.10779918246E+03  0.21552310389E+02  0.12908586294E+03  0.00000000000E+00 0. -1.
         22    1    3    3    0    0  0.18175995743E+02 -0.54722263513E+01 -0.24051450608E+02  0.30639588098E+02  0.00000000000E+00 0. -1.
         22    1    3    3    0    0 -0.16556468857E+03 -0.18346327461E+03 -0.67874118296E+03  0.72232958729E+03  0.00000000000E+00 0. -1.
</event>
<event>
 7    1  0.9036454E-005  0.2010174E+03  0.7818608E-02  0.1336698E+00
          2   -1    0    0  502    0  0.00000000000E+00  0.00000000000E+00  0.30469165991E+03  0.30469165991E+03  0.00000000000E+00 0. -1.
          1   -1    0    0  501    0 -0.00000000000E+00 -0.00000000000E+00 -0.15699679384E+04  0.15699679384E+04  0.00000000000E+00 0. -1.
         25    2    1    2    0    0  0.18013909268E+03 -0.61729486491E+01 -0.65739444642E+02  0.22899006736E+03  0.12500631328E+03 0.  0.
          2    1    1    2  501    0  0.26928517603E+02 -0.12706540439E+02 -0.13739532602E+04  0.13742758684E+04  0.00000000000E+00 0. -1.
          1    1    1    2  502    0 -0.20706761029E+03  0.18879489088E+02  0.17441642631E+03  0.27139366261E+03  0.00000000000E+00 0. -1.
         22    1    3    3    0    0  0.15269823075E+03 -0.12487669335E+02  0.45445238204E+01  0.15327538699E+03  0.00000000000E+00 0.  1.
         22    1    3    3    0    0  0.27440861933E+02  0.63147206863E+01 -0.70283968462E+02  0.75714680371E+02  0.00000000000E+00 0.  1.
</event>
<event>
 7    1  0.9036454E-005  0.1467210E+03  0.7818608E-02  0.1302002E+00
          2   -1    0    0  502    0  0.00000000000E+00  0.00000000000E+00  0.16682641881E+03  0.16682641881E+03  0.00000000000E+00 0. -1.
          1   -1    0    0  501    0 -0.00000000000E+00 -0.00000000000E+00 -0.14059975544E+04  0.14059975544E+04  0.00000000000E+00 0. -1.
         25    2    1    2    0    0  0.14081298571E+03 -0.11906782943E+03 -0.17186141755E+03  0.28136680534E+03  0.12500194942E+03 0.  0.
          2    1    1    2  501    0 -0.85252075516E+02  0.11611226422E+03 -0.11677684834E+04  0.11766193969E+04  0.00000000000E+00 0. -1.
          1    1    1    2  502    0 -0.55560910191E+02  0.29555652061E+01  0.10045876536E+03  0.11483777099E+03  0.00000000000E+00 0. -1.
         22    1    3    3    0    0  0.73440668976E+02  0.11058654829E+02 -0.75999990114E+02  0.10626299546E+03  0.00000000000E+00 0.  1.
         22    1    3    3    0    0  0.67372316731E+02 -0.13012648425E+03 -0.95861427432E+02  0.17510380988E+03  0.00000000000E+00 0.  1.
</event>
<event>
 7    1  0.9036454E-005  0.5217901E+03  0.7818608E-02  0.1068594E+00
          2   -1    0    0  502    0  0.00000000000E+00  0.00000000000E+00  0.22697698283E+04  0.22697698283E+04  0.00000000000E+00 0. -1.
          1   -1    0    0  501    0 -0.00000000000E+00 -0.00000000000E+00 -0.75599157030E+03  0.75599157030E+03  0.00000000000E+00 0. -1.
         25    2    1    2    0    0  0.53033927393E+03 -0.12683415314E+03  0.23811356604E+03  0.60800428377E+03  0.12499796347E+03 0.  0.
          2    1    1    2  501    0 -0.51728648708E+03 -0.88891143775E+02 -0.44222226322E+03  0.68632898471E+03  0.00000000000E+00 0. -1.
          1    1    1    2  502    0 -0.13052786851E+02  0.21572529692E+03  0.17178869552E+04  0.17314281301E+04  0.00000000000E+00 0. -1.
         22    1    3    3    0    0  0.26891388401E+02 -0.39836257230E+02  0.13672883555E+02  0.49970210176E+02  0.00000000000E+00 0.  1.
         22    1    3    3    0    0  0.50344788553E+03 -0.86997895912E+02  0.22444068249E+03  0.55803407360E+03  0.00000000000E+00 0.  1.
</event>
<event>
 7    1  0.9036454E-005  0.2819034E+02  0.7818608E-02  0.1642235E+00
          2   -1    0    0  502    0  0.00000000000E+00  0.00000000000E+00  0.92337154853E+03  0.92337154853E+03  0.00000000000E+00 0. -1.
          1   -1    0    0  501    0 -0.00000000000E+00 -0.00000000000E+00 -0.44349523505E+03  0.44349523505E+03  0.00000000000E+00 0. -1.
         25    2    1    2    0    0 -0.59712940131E+01 -0.45651825516E+02 -0.21636523435E+03  0.25408246143E+03  0.12499694816E+03 0.  0.
          2    1    1    2  501    0  0.15357021181E+02  0.22865208764E+02 -0.20719196595E+03  0.20901475217E+03  0.00000000000E+00 0. -1.
          1    1    1    2  502    0 -0.93857271683E+01  0.22786616752E+02  0.90343351379E+03  0.90376956997E+03  0.00000000000E+00 0. -1.
         22    1    3    3    0    0 -0.64582201859E+02 -0.35009764527E+02 -0.12594545162E+03  0.14580398208E+03  0.00000000000E+00 0.  1.
         22    1    3    3    0    0  0.58610907846E+02 -0.10642060989E+02 -0.90419782731E+02  0.10827847935E+03  0.00000000000E+00 0.  1.
</event>
<event>
 7    1  0.9036454E-005  0.5712356E+02  0.7818608E-02  0.1519087E+00
          2   -1    0    0  502    0  0.00000000000E+00  0.00000000000E+00  0.28370815701E+04  0.28370815701E+04  0.00000000000E+00 0. -1.
          1   -1    0    0  501    0 -0.00000000000E+00 -0.00000000000E+00 -0.16732186132E+03  0.16732186132E+03  0.00000000000E+00 0. -1.
         25    2    1    2    0    0  0.66713856179E+02 -0.27057936354E+02  0.81698823405E+03  0.82962501400E+03  0.12500007500E+03 0.  0.
          2    1    1    2  501    0 -0.24077276568E+02 -0.98879183169E+01 -0.15955356258E+03  0.16166269053E+03  0.00000000000E+00 0. -1.
          1    1    1    2  502    0 -0.42636579611E+02  0.36945854671E+02  0.20123250373E+04  0.20131157269E+04  0.00000000000E+00 0. -1.
         22    1    3    3    0    0  0.52938110526E+02  0.18911723031E+02  0.13894986774E+03  0.14989050189E+03  0.00000000000E+00 0.  1.
         22    1    3    3    0    0  0.13775745653E+02 -0.45969659385E+02  0.67803836632E+03  0.67973451211E+03  0.00000000000E+00 0.  1.
</event>
<event>
 7    1  0.9036454E-005  0.4008007E+03  0.7818608E-02  0.1115223E+00
          2   -1    0    0  502    0  0.00000000000E+00  0.00000000000E+00  0.54818366293E+03  0.54818366293E+03  0.00000000000E+00 0. -1.
          1   -1    0    0  501    0 -0.00000000000E+00 -0.00000000000E+00 -0.92045590576E+03  0.92045590576E+03  0.00000000000E+00 0. -1.
         25    2    1    2    0    0  0.44459408549E+03 -0.15044607437E+03 -0.26496552696E+03  0.55329034184E+03  0.12500219897E+03 0.  0.
          2    1    1    2  501    0 -0.13052143613E+03 -0.78293095558E+02 -0.40059974863E+03  0.42853916122E+03  0.00000000000E+00 0. -1.
          1    1    1    2  502    0 -0.31407264936E+03  0.22873916993E+03  0.29329303276E+03  0.48681006563E+03  0.00000000000E+00 0. -1.
         22    1    3    3    0    0  0.39647593811E+03 -0.88762482066E+02 -0.23605716534E+03  0.46988821333E+03  0.00000000000E+00 0. -1.
         22    1    3    3    0    0  0.48118147379E+02 -0.61683592308E+02 -0.28908361619E+02  0.83402128502E+02  0.00000000000E+00 0. -1.
</event>
<event>
 7    1  0.9036454E-005  0.1095206E+03  0.7818608E-02  0.1286246E+00
          2   -1    0    0  502    0  0.00000000000E+00  0.00000000000E+00  0.14845416917E+04  0.14845416917E+04  0.00000000000E+00 0. -1.
          1   -1    0    0  501    0 -0.00000000000E+00 -0.00000000000E+00 -0.59457544387E+02  0.59457544387E+02  0.00000000000E+00 0. -1.
         25    2    1    2    0    0  0.31705530064E+02 -0.52258887623E+02  0.12883858588E+03  0.18963415879E+03  0.12500200396E+03 0.  0.
          2    1    1    2  501    0 -0.63241296471E+02 -0.58730703187E+02  0.44110754811E+02  0.96925310246E+02  0.00000000000E+00 0. -1.
          1    1    1    2  502    0  0.31535766407E+02  0.11098959081E+03  0.12521348066E+04  0.12574397670E+04  0.00000000000E+00 0. -1.
         22    1    3    3    0    0 -0.40846743032E+02  0.46951557486E+01  0.66920668468E+02  0.78542197398E+02  0.00000000000E+00 0.  1.
         22    1    3    3    0    0  0.72552273096E+02 -0.56954043371E+02  0.61917917416E+02  0.11109196139E+03  0.00000000000E+00 0.  1.
</event>
<event>
 7    1  0.9036454E-005  0.2979485E+02  0.7818608E-02  0.1608792E+00
          2   -1    0    0  502    0  0.00000000000E+00  0.00000000000E+00  0.12816014016E+04  0.12816014016E+04  0.00000000000E+00 0. -1.
          1   -1    0    0  501    0 -0.00000000000E+00 -0.00000000000E+00 -0.36385361342E+03  0.36385361342E+03  0.00000000000E+00 0. -1.
         25    2    1    2    0    0  0.12455587025E+02 -0.23574538673E+02 -0.12841622636E+03  0.18118140066E+03  0.12500028891E+03 0.  0.
          2    1    1    2  501    0  0.17335225743E+02  0.22408045402E+02 -0.20791698595E+03  0.20983827963E+03  0.00000000000E+00 0. -1.
          1    1    1    2  502    0 -0.29790812768E+02  0.11664932710E+01  0.12540810005E+04  0.12544353348E+04  0.00000000000E+00 0. -1.
         22    1    3    3    0    0 -0.22289352860E+02  0.20754146816E+02  0.97484010989E+01  0.31977823331E+02  0.00000000000E+00 0.  1.
         22    1    3    3    0    0  0.34744939885E+02 -0.44328685489E+02 -0.13816462746E+03  0.14920357732E+03  0.00000000000E+00 0.  1.
</event>
<event>
 7    1  0.9036454E-005  0.2637174E+03  0.7818608E-02  0.1120837E+00
          2   -1    0    0  502    0  0.00000000000E+00  0.00000000000E+00  0.14330517038E+04  0.14330517038E+04  0.00000000000E+00 0. -1.
          1   -1    0    0  501    0 -0.00000000000E+00 -0.00000000000E+00 -0.11436677062E+03  0.11436677062E+03  0.00000000000E+00 0. -1.
         25    2    1    2    0    0 -0.12817971072E+03 -0.13791223391E+03  0.22285895519E+03  0.31739788985E+03  0.12500193627E+03 0.  0.
          2    1    1    2  501    0  0.23539274942E+03 -0.11889965704E+03  0.38501045318E+03  0.46666896616E+03  0.00000000000E+00 0. -1.
          1    1    1    2  502    0 -0.10721303871E+03  0.25681189095E+03  0.71081552486E+03  0.76335161844E+03  0.00000000000E+00 0. -1.
         22    1    3    3    0    0 -0.30507554607E+02 -0.90601376079E+02  0.17366986906E+03  0.19824364720E+03  0.00000000000E+00 0.  1.
         22    1    3    3    0    0 -0.97672156108E+02 -0.47310857832E+02  0.49189086133E+02  0.11915424265E+03  0.00000000000E+00 0.  1.
</event>
<event>
 7    1  0.9036454E-005  0.1581449E+03  0.7818608E-02  0.1295518E+00
          2   -1    0    0  502    0  0.00000000000E+00  0.00000000000E+00  0.24072939517E+04  0.24072939517E+04  0.00000000000E+00 0. -1.
          1   -1    0    0  501    0 -0.00000000000E+00 -0.00000000000E+00 -0.15767539688E+03  0.15767539688E+03  0.00000000000E+00 0. -1.
         25    2    1    2    0    0  0.23010319578E+02 -0.16638416300E+03  0.23521219506E+03  0.31490054623E+03  0.12499765121E+03 0.  0.
          2    1    1    2  501    0  0.30544658225E+02  0.15474197440E+03 -0.64524566010E+02  0.17041559320E+03  0.00000000000E+00 0. -1.
          1    1    1    2  502    0 -0.53554977803E+02  0.11642188598E+02  0.20789309258E+04  0.20796532092E+04  0.00000000000E+00 0. -1.
         22    1    3    3    0    0  0.34270728136E+02 -0.14047266214E+02  0.11409979306E+03  0.11996070720E+03  0.00000000000E+00 0.  1.
         22    1    3    3    0    0 -0.11260408558E+02 -0.15233689679E+03  0.12111240200E+03  0.19493983903E+03  0.00000000000E+00 0.  1.
</event>
<event>
 7    1  0.9036454E-005  0.6598886E+02  0.7818608E-02  0.1480495E+00
          2   -1    0    0  502    0  0.00000000000E+00  0.00000000000E+00  0.10428271089E+04  0.10428271089E+04  0.00000000000E+00 0. -1.
          1   -1    0    0  501    0 -0.00000000000E+00 -0.00000000000E+00 -0.17936832589E+03  0.17936832589E+03  0.00000000000E+00 0. -1.
         25    2    1    2    0    0  0.51658266028E+02  0.67940374536E+02  0.10225355711E+03  0.18266195503E+03  0.12500051573E+03 0.  0.
          2    1    1    2  501    0 -0.28624792052E+02 -0.66062938046E+01 -0.13640642323E+03  0.13953398918E+03  0.00000000000E+00 0. -1.
          1    1    1    2  502    0 -0.23033473975E+02 -0.61334080731E+02  0.89761164912E+03  0.89999949057E+03  0.00000000000E+00 0. -1.
         22    1    3    3    0    0  0.54586586240E+02 -0.94317822632E+01  0.87923964043E+02  0.10391957163E+03  0.00000000000E+00 0.  1.
         22    1    3    3    0    0 -0.29283202128E+01  0.77372156799E+02  0.14329593072E+02  0.78742383407E+02  0.00000000000E+00 0.  1.
</event>
<event>
 7    1  0.9036454E-005  0.5611518E+03  0.7818608E-02  0.1060925E+00
          2   -1    0    0  502    0  0.00000000000E+00  0.00000000000E+00  0.18319243982E+04  0.18319243982E+04  0.00000000000E+00 0. -1.
          1   -1    0    0  501    0 -0.00000000000E+00 -0.00000000000E+00 -0.12574893618E+04  0.12574893618E+04  0.00000000000E+00 0. -1.
         25    2    1    2    0    0 -0.26072190701E+03 -0.25480128909E+03 -0.48459083274E+03  0.61915542043E+03  0.12500219902E+03 0.  0.
          2    1    1    2  501    0 -0.20566356058E+03 -0.87506401957E+02 -0.63869540198E+03  0.67667324984E+03  0.00000000000E+00 0. -1.
          1    1    1    2  502    0  0.46638546759E+03  0.34230769105E+03  0.16977212711E+04  0.17935850897E+04  0.00000000000E+00 0. -1.
         22    1    3    3    0    0 -0.65438782540E+02 -0.23458623738E+02 -0.16443443356E+03  0.17852513612E+03  0.00000000000E+00 0.  1.
         22    1    3    3    0    0 -0.19528312447E+03 -0.23134266535E+03 -0.32015639918E+03  0.44063028431E+03  0.00000000000E+00 0.  1.
</event>
<event>
 7    1  0.9036454E-005  0.1850552E+03  0.7818608E-02  0.1273876E+00
          2   -1    0    0  502    0  0.00000000000E+00  0.00000000000E+00  0.87194954998E+02  0.87194954998E+02  0.00000000000E+00 0. -1.
          1   -1    0    0  501    0 -0.00000000000E+00 -0.00000000000E+00 -0.79199417939E+03  0.79199417939E+03  0.00000000000E+00 0. -1.
         25    2    1    2    0    0 -0.15873509554E+03 -0.15815057791E+03 -0.20426363716E+03  0.32795953862E+03  0.12500155862E+03 0.  0.
          2    1    1    2  501    0  0.10503575598E+03  0.13770886683E+03 -0.36437331800E+03  0.40344040069E+03  0.00000000000E+00 0. -1.
          1    1    1    2  502    0  0.53699339558E+02  0.20441711080E+02 -0.13616226923E+03  0.14778919508E+03  0.00000000000E+00 0. -1.
         22    1    3    3    0    0 -0.14171379326E+03 -0.16146074124E+03 -0.21782857047E+03  0.30594387765E+03  0.00000000000E+00 0. -1.
         22    1    3    3    0    0 -0.17021302281E+02  0.33101633295E+01  0.13564933301E+02  0.22015660973E+02  0.00000000000E+00 0. -1.
</event>
<event>
 7    1  0.9036454E-005  0.4272580E+03  0.7818608E-02  0.1131775E+00
          2   -1    0    0  502    0  0.00000000000E+00  0.00000000000E+00  0.85553121786E+03  0.85553121786E+03  0.00000000000E+00 0. -1.
          1   -1    0    0  501    0 -0.00000000000E+00 -0.00000000000E+00 -0.77290821735E+03  0.77290821735E+03  0.00000000000E+00 0. -1.
         25    2    1    2    0    0 -0.18080039541E+03  0.32274261021E+03 -0.19447486722E+03  0.43623121383E+03  0.12500249006E+03 0.  0.
          2    1    1    2  501    0 -0.11618264070E+03  0.34943414120E+01 -0.38188559999E+03  0.39918320093E+03  0.00000000000E+00 0. -1.
          1    1    1    2  502    0  0.29698303611E+03 -0.32623695162E+03  0.65898346772E+03  0.79302502045E+03  0.00000000000E+00 0. -1.
         22    1    3    3    0    0 -0.19540472261E+03  0.25792411029E+03 -0.15328338787E+03  0.35805537181E+03  0.00000000000E+00 0.  1.
         22    1    3    3    0    0  0.14604327208E+02  0.64818499919E+02 -0.41191479344E+02  0.78175842020E+02  0.00000000000E+00 0.  1.
</event>
<event>
 7    1  0.9036454E-005  0.1709534E+03  0.7818608E-02  0.1193945E+00
          2   -1    0    0  502    0  0.00000000000E+00  0.00000000000E+00  0.46336567616E+03  0.46336567616E+03  0.00000000000E+00 0. -1.
          1   -1    0    0  501    0 -0.00000000000E+00 -0.00000000000E+00 -0.13069238226E+04  0.13069238226E+04  0.00000000000E+00 0. -1.
         25    2    1    2    0    0  0.24007414109E+03  0.97998791521E+02  0.11316137855E+03  0.30930616673E+03  0.12500180327E+03 0.  0.
          2    1    1    2  501    0 -0.13997293505E+03  0.19555801234E+02 -0.11805970361E+04  0.11890265824E+04  0.00000000000E+00 0. -1.
          1    1    1    2  502    0 -0.10010120603E+03 -0.11755459276E+03  0.22387751110E+03  0.27195674969E+03  0.00000000000E+00 0. -1.
         22    1    3    3    0    0  0.40783457320E+02  0.41224745214E+02 -0.21866626802E+02  0.61975151283E+02  0.00000000000E+00 0. -1.
         22    1    3    3    0    0  0.19929068377E+03  0.56774046308E+02  0.13502800535E+03  0.24733101544E+03  0.00000000000E+00 0. -1.
</event>
<event>
 7    1  0.9036454E-005  0.1749120E+03  0.7818608E-02  0.1290623E+00
          2   -1    0    0  502    0  0.00000000000E+00  0.00000000000E+00  0.30029370246E+03  0.30029370246E+03  0.00000000000E+00 0. -1.
          1   -1    0    0  501    0 -0.00000000000E+00 -0.00000000000E+00 -0.44418682027E+03  0.44418682027E+03  0.00000000000E+00 0. -1.
         25    2    1    2    0    0  0.36561887106E+02 -0.19590334573E+03 -0.12021030821E+03  0.26417937252E+03  0.12500132082E+03 0.  0.
          2    1    1    2  501    0  0.33730241459E+02  0.39398803325E+02 -0.21625581693E+03  0.22238833883E+03  0.00000000000E+00 0. -1.
          1    1    1    2  502    0 -0.70292128566E+02  0.15650454240E+03  0.19257300732E+03  0.25791281139E+03  0.00000000000E+00 0. -1.
         22    1    3    3    0    0  0.81543526059E+02 -0.11985199545E+03 -0.90818678661E+02  0.17106104130E+03  0.00000000000E+00 0. -1.
         22    1    3    3    0    0 -0.44981638953E+02 -0.76051350273E+02 -0.29391629547E+02  0.93118331217E+02  0.00000000000E+00 0. -1.
</event>
<event>
 7    1  0.9036454E-005  0.1201085E+03  0.7818608E-02  0.1383688E+00
          2   -1    0    0  502    0  0.00000000000E+00  0.00000000000E+00  0.19435453309E+03  0.19435453309E+03  0.00000000000E+00 0. -1.
          1   -1    0    0  501    0 -0.00000000000E+00 -0.00000000000E+00 -0.99609834124E+03  0.99609834124E+03  0.00000000000E+00 0. -1.
         25    2    1    2    0    0  0.82907936310E+02 -0.51314414341E+02 -0.28836331787E+03  0.32906811165E+03  0.12500209593E+03 0.  0.
          2    1    1    2  501    0 -0.96984889050E+02  0.81797176483E+02 -0.67983762960E+03  0.69157504972E+03  0.00000000000E+00 0. -1.
          1    1    1    2  502    0  0.14076952741E+02 -0.30482762142E+02  0.16645713932E+03  0.16980971296E+03  0.00000000000E+00 0. -1.
         22    1    3    3    0    0  0.85241772144E+01 -0.28616255585E+02  0.55694213004E+00  0.29864056413E+02  0.00000000000E+00 0.  1.
         22    1    3    3    0    0  0.74383759095E+02 -0.22698158756E+02 -0.28892026000E+03  0.29920405523E+03  0.00000000000E+00 0.  1.
</event>
<event>
 7    1  0.9036454E-005  0.1479764E+03  0.7818608E-02  0.1268769E+00
          2   -1    0    0  502    0  0.00000000000E+00  0.00000000000E+00  0.18532627253E+04  0.18532627253E+04  0.00000000000E+00 0. -1.
          1   -1    0    0  501    0 -0.00000000000E+00 -0.00000000000E+00 -0.38412617439E+03  0.38412617439E+03  0.00000000000E+00 0. -1.
         25    2    1    2    0    0  0.15512294390E+03  0.98812068114E+02  0.36995316269E+03  0.43164419058E+03  0.12499764856E+03 0.  0.
          2    1    1    2  501    0 -0.72595587347E+02  0.20686002042E+02 -0.34556610735E+03  0.35371452406E+03  0.00000000000E+00 0. -1.
          1    1    1    2  502    0 -0.82527356555E+02 -0.11949807016E+03  0.14447494955E+04  0.14520301850E+04  0.00000000000E+00 0. -1.
         22    1    3    3    0    0  0.13416211224E+03  0.58522634227E+02  0.35473520552E+03  0.38374657929E+03  0.00000000000E+00 0. -1.
         22    1    3    3    0    0  0.20960831667E+02  0.40289433886E+02  0.15217957166E+02  0.47897611291E+02  0.00000000000E+00 0. -1.
</event>
<event>
 7    1  0.9036454E-005  0.2326803E+02  0.7818608E-02  0.1715151E+00
          2   -1    0    0  502    0  0.00000000000E+00  0.00000000000E+00  0.15640230759E+03  0.15640230759E+03  0.00000000000E+00 0. -1.
          1   -1    0    0  501    0 -0.00000000000E+00 -0.00000000000E+00 -0.12816857460E+03  0.12816857460E+03  0.00000000000E+00 0. -1.
         25    2    1    2    0    0 -0.47223126485E+01  0.13976932749E+01  0.32426292639E+02  0.12923514748E+03  0.12500402036E+03 0.  0.
          2    1    1    2  501    0 -0.18369054531E+02 -0.80692617840E+01 -0.76526536786E+02  0.79112868628E+02  0.00000000000E+00 0. -1.
          1    1    1    2  502    0  0.23091367179E+02  0.66715685091E+01  0.72333977135E+02  0.76222866075E+02  0.00000000000E+00 0. -1.
         22    1    3    3    0    0 -0.36376687320E+02 -0.11130406225E+02  0.69296650338E+02  0.79051724024E+02  0.00000000000E+00 0.  1.
         22    1    3    3    0    0  0.31654374672E+02  0.12528099500E+02 -0.36870357699E+02  0.50183423456E+02  0.00000000000E+00 0.  1.
</event>
<event>
 7    1  0.9036454E-005  0.1329532E+03  0.7818608E-02  0.1248938E+00
          2   -1    0    0  502    0  0.00000000000E+00  0.00000000000E+00  0.23957644404E+03  0.23957644404E+03  0.00000000000E+00 0. -1.
          1   -1    0    0  501    0 -0.00000000000E+00 -0.00000000000E+00 -0.11080057369E+04  0.11080057369E+04  0.00000000000E+00 0. -1.
         25    2    1    2    0    0  0.45896056627E+02  0.11534845846E+03 -0.44302178496E+03  0.47676583784E+03  0.12500258919E+03 0.  0.
          2    1    1    2  501    0 -0.10185232801E+03  0.75362591610E+01 -0.62309902192E+03  0.63141355944E+03  0.00000000000E+00 0. -1.
          1    1    1    2  502    0  0.55956271381E+02 -0.12288471763E+03  0.19769151399E+03  0.23940278369E+03  0.00000000000E+00 0. -1.
         22    1    3    3    0    0 -0.16949584832E+02  0.95415274678E+02 -0.16795479956E+03  0.19390765267E+03  0.00000000000E+00 0. -1.
         22    1    3    3    0    0  0.62845641460E+02  0.19933183787E+02 -0.27506698539E+03  0.28285818517E+03  0.00000000000E+00 0. -1.
</event>
<event>
 7    1  0.9036454E-005  0.2643133E+03  0.7818608E-02  0.1181790E+00
          2   -1    0    0  502    0  0.00000000000E+00  0.00000000000E+00  0.87404905949E+03  0.87404905949E+03  0.00000000000E+00 0. -1.
          1   -1    0    0  501    0 -0.00000000000E+00 -0.00000000000E+00 -0.10180561675E+04  0.10180561675E+04  0.00000000000E+00 0. -1.
         25    2    1    2    0    0 -0.30087290270E+03 -0.22151877768E+02 -0.30108517681E+03  0.44417778830E+03  0.12500565848E+03 0.  0.
          2    1    1    2  501    0  0.60655989853E+02 -0.85216595595E+02 -0.61935334922E+03  0.62812386394E+03  0.00000000000E+00 0. -1.
          1    1    1    2  502    0  0.24021691285E+03  0.10736847336E+03  0.77643141801E+03  0.81980357475E+03  0.00000000000E+00 0. -1.
         22    1    3    3    0    0 -0.12685029682E+03  0.38176660078E+02 -0.73823504197E+02  0.15165211818E+03  0.00000000000E+00 0. -1.
         22    1    3    3    0    0 -0.17402260589E+03 -0.60328537846E+02 -0.22726167261E+03  0.29252567012E+03  0.00000000000E+00 0. -1.
</event>
<event>
 7    1  0.9036454E-005  0.8633831E+02  0.7818608E-02  0.1325386E+00
          2   -1    0    0  502    0  0.00000000000E+00  0.00000000000E+00  0.21174732506E+04  0.21174732506E+04  0.00000000000E+00 0. -1.
          1   -1    0    0  501    0 -0.00000000000E+00 -0.00000000000E+00 -0.40982131778E+02  0.40982131778E+02  0.00000000000E+00 0. -1.
         25    2    1    2    0    0  0.29694613141E+02 -0.13950106631E+03  0.47939973212E+03  0.51554946280E+03  0.12499931154E+03 0.  0.
          2    1    1    2  501    0  0.21614768605E+02  0.73452229550E+02  0.45507353517E+02  0.89069340808E+02  0.00000000000E+00 0. -1.
          1    1    1    2  502    0 -0.51309381746E+02  0.66048836760E+02  0.15515840332E+04  0.15538365788E+04  0.00000000000E+00 0. -1.
         22    1    3    3    0    0  0.34242585264E+02 -0.14402841856E+03  0.28601194398E+03  0.32205523144E+03  0.00000000000E+00 0. -1.
         22    1    3    3    0    0 -0.45479721231E+01  0.45273522456E+01  0.19338778814E+03  0.19349423136E+03  0.00000000000E+00 0. -1.
</event>
<event>
 7    1  0.9036454E-005  0.5042533E+03  0.7818608E-02  0.1091910E+00
          2   -1    0    0  502    0  0.00000000000E+00  0.00000000000E+00  0.27100749449E+04  0.27100749449E+04  0.00000000000E+00 0. -1.
          1   -1    0    0  501    0 -0.00000000000E+00 -0.00000000000E+00 -0.47421674926E+03  0.47421674926E+03  0.00000000000E+00 0. -1.
         25    2    1    2    0    0 -0.28775376345E+03 -0.41827839617E+03  0.12766256849E+04  0.13795496084E+04  0.12499974979E+03 0.  0.
          2    1    1    2  501    0 -0.12211368189E+03  0.10854437973E+03 -0.35656202680E+03  0.39221182112E+03  0.00000000000E+00 0. -1.
          1    1    1    2  502    0  0.40986744534E+03  0.30973401644E+03  0.13157945375E+04  0.14125302647E+04  0.00000000000E+00 0. -1.
         22    1    3    3    0    0 -0.20916782469E+03 -0.26114710463E+03  0.68431019558E+03  0.76172792578E+03  0.00000000000E+00 0. -1.
         22    1    3    3    0    0 -0.78585938760E+02 -0.15713129154E+03  0.59231548934E+03  0.61782168257E+03  0.00000000000E+00 0. -1.
</event>
<event>
 7    1  0.9036454E-005  0.2083445E+03  0.7818608E-02  0.1229629E+00
          2   -1    0    0  502    0  0.00000000000E+00  0.00000000000E+00  0.29221001486E+03  0.29221001486E+03  0.00000000000E+00 0. -1.
          1   -1    0    0  501    0 -0.00000000000E+00 -0.00000000000E+00 -0.25280114693E+03  0.25280114693E+03  0.00000000000E+00 0. -1.
         25    2    1    2    0    0  0.18236310397E+03  0.15595858507E+03  0.35582538719E+02  0.27289322684E+03  0.12500085699E+03 0.  0.
          2    1    1    2  501    0 -0.10331931750E+03 -0.16247295227E+03 -0.24590913927E+01  0.19255749458E+03  0.00000000000E+00 0. -1.
          1    1    1    2  502    0 -0.79043786472E+02  0.65143672014E+01  0.62854206035E+01  0.79560440371E+02  0.00000000000E+00 0. -1.
         22    1    3    3    0    0  0.17733255175E+03  0.11523348517E+03  0.66302026224E+02  0.22163381668E+03  0.00000000000E+00 0. -1.
         22    1    3    3    0    0  0.50305522205E+01  0.40725099903E+02 -0.30719487504E+02  0.51259410163E+02  0.00000000000E+00 0. -1.
</event>
<event>
 7    1  0.9036454E-005  0.2151992E+03  0.7818608E-02  0.1372154E+00
          2   -1    0    0  502    0  0.00000000000E+00  0.00000000000E+00  0.97725224714E+03  0.97725224714E+03  0.00000000000E+00 0. -1.
          1   -1    0    0  501    0 -0.00000000000E+00 -0.00000000000E+00 -0.69385403838E+03  0.69385403838E+03  0.00000000000E+00 0. -1.
         25    2    1    2    0    0 -0.43897333776E+02  0.22907556063E+03  0.74762242957E+03  0.79307477967E+03  0.12500288218E+03 0.  0.
          2    1    1    2  501    0  0.49027093438E+02 -0.20913057149E+03 -0.65336740645E+03  0.68777047016E+03  0.00000000000E+00 0. -1.
          1    1    1    2  502    0 -0.51297596623E+01 -0.19944989145E+02  0.18914318564E+03  0.19026103569E+03  0.00000000000E+00 0. -1.
         22    1    3    3    0    0 -0.42806167845E+02  0.22744046133E+03  0.56662287018E+03  0.61206454600E+03  0.00000000000E+00 0.  1.
         22    1    3    3    0    0 -0.10911659301E+01  0.16350992994E+01  0.18099955939E+03  0.18101023367E+03  0.00000000000E+00 0.  1.
</event>
<event>
 7    1  0.9036454E-005  0.3640150E+03  0.7818608E-02  0.1133171E+00
          2   -1    0    0  502    0  0.00000000000E+00  0.00000000000E+00  0.38611168656E+03  0.38611168656E+03  0.00000000000E+00 0. -1.
          1   -1    0    0  501    0 -0.00000000000E+00 -0.00000000000E+00 -0.24597645429E+04  0.24597645429E+04  0.00000000000E+00 0. -1.
         25    2    1    2    0    0 -0.17090664700E+03  0.33505429300E+03 -0.20520735088E+03  0.44632373177E+03  0.12499742174E+03 0.  0.
          2    1    1    2  501    0 -0.10028524834E+03 -0.89059324910E+02 -0.20044770497E+04  0.20089591676E+04  0.00000000000E+00 0. -1.
          1    1    1    2  502    0  0.27119189534E+03 -0.24599496809E+03  0.13603154428E+03  0.39059333003E+03  0.00000000000E+00 0. -1.
         22    1    3    3    0    0 -0.96830701787E+02  0.28225331360E+03 -0.19089344754E+03  0.35423639869E+03  0.00000000000E+00 0.  1.
         22    1    3    3    0    0 -0.74075945213E+02  0.52800979400E+02 -0.14313903342E+02  0.92087333079E+02  0.00000000000E+00 0.  1.
</event>
<event>
 7    1  0.9036454E-005  0.1155961E+03  0.7818608E-02  0.1277104E+00
          2   -1    0    0  502    0  0.00000000000E+00  0.00000000000E+00  0.65037377421E+03  0.65037377421E+03  0.00000000000E+00 0. -1.
          1   -1    0    0  501    0 -0.00000000000E+00 -0.00000000000E+00 -0.79716184351E+02  0.79716184351E+02  0.00000000000E+00 0. -1.
         25    2    1    2    0    0  0.78532646830E+02 -0.12233993912E+03  0.29095655805E+03  0.34844572859E+03  0.12499707907E+03 0.  0.
          2    1    1    2  501    0  0.10235558212E+02  0.11376039366E+03  0.32358455511E+02  0.11871505154E+03  0.00000000000E+00 0. -1.
          1    1    1    2  502    0 -0.88768205042E+02  0.85795454560E+01  0.24734257630E+03  0.26292917844E+03  0.00000000000E+00 0. -1.
         22    1    3    3    0    0  0.24991940610E+02 -0.12824836565E+03  0.15822700876E+03  0.20520240420E+03  0.00000000000E+00 0.  1.
         22    1    3    3    0    0  0.53540706220E+02  0.59084265314E+01  0.13272954929E+03  0.14324332439E+03  0.00000000000E+00 0.  1.
</event>
<event>
 7    1  0.9036454E-005  0.1120051E+03  0.7818608E-02  0.1261849E+00
          2   -1    0    0  502    0  0.00000000000E+00  0.00000000000E+00  0.20390128759E+04  0.20390128759E+04  0.00000000000E+00 0. -1.
          1   -1    0    0  501    0 -0.00000000000E+00 -0.00000000000E+00 -0.12383459847E+03  0.12383459847E+03  0.00000000000E+00 0. -1.
         25    2    1    2    0    0 -0.14348154448E+03 -0.10084191968E+03  0.79158410807E+03  0.82035733796E+03  0.12499886164E+03 0.  0.
          2    1    1    2  501    0  0.11084941158E+03 -0.72831114489E+00 -0.78397778514E+02  0.13577309807E+03  0.00000000000E+00 0. -1.
          1    1    1    2  502    0  0.32632132908E+02  0.10157023082E+03  0.12019919478E+04  0.12067170383E+04  0.00000000000E+00 0. -1.
         22    1    3    3    0    0 -0.15371613487E+03 -0.51170796303E+02  0.65261754953E+03  0.67242603048E+03  0.00000000000E+00 0. -1.
         22    1    3    3    0    0  0.10234590387E+02 -0.49671123377E+02  0.13896655854E+03  0.14793130747E+03  0.00000000000E+00 0. -1.
</event>
<event>
 7    1  0.9036454E-005  0.3721011E+03  0.7818608E-02  0.1105474E+00
          2   -1    0    0  502    0  0.00000000000E+00  0.00000000000E+00  0.12899495335E+04  0.12899495335E+04  0.00000000000E+00 0. -1.
          1   -1    0    0  501    0 -0.00000000000E+00 -0.00000000000E+00 -0.19839370320E+03  0.19839370320E+03  0.00000000000E+00 0. -1.
         25    2    1    2    0    0  0.26469308404E+03  0.16584167738E+02  0.46927531353E+03  0.55333681705E+03  0.12499939944E+03 0.  0.
          2    1    1    2  501    0 -0.44980522720E+03 -0.30065457980E+02  0.24154708385E+03  0.51144273178E+03  0.00000000000E+00 0. -1.
          1    1    1    2  502    0  0.18511214315E+03  0.13481290243E+02  0.38073343288E+03  0.42356368782E+03  0.00000000000E+00 0. -1.
         22    1    3    3    0    0  0.24032116618E+03 -0.26873020973E+02  0.40894376300E+03  0.47509096336E+03  0.00000000000E+00 0.  1.
         22    1    3    3    0    0  0.24371917864E+02  0.43457188710E+02  0.60331550530E+02  0.78245853694E+02  0.00000000000E+00 0.  1.
</event>
<event>
 7    1  0.9036454E-005  0.1331094E+03  0.7818608E-02  0.1358699E+00
          2   -1    0    0  502    0  0.00000000000E+00  0.00000000000E+00  0.89494229824E+03  0.89494229824E+03  0.00000000000E+00 0. -1.
          1   -1    0    0  501    0 -0.00000000000E+00 -0.00000000000E+00 -0.16703273337E+03  0.16703273337E+03  0.00000000000E+00 0. -1.
         25    2    1    2    0    0 -0.95369225326E+02 -0.13115840982E+03  0.28914028980E+03  0.35429372659E+03  0.12499647960E+03 0.  0.
          2    1    1    2  501    0  0.90020814000E+02  0.94298483947E+02 -0.10206293188E+03  0.16556809201E+03  0.00000000000E+00 0. -1.
          1    1    1    2  502    0  0.53484113260E+01  0.36859925876E+02  0.54083220695E+03  0.54211321301E+03  0.00000000000E+00 0. -1.
         22    1    3    3    0    0 -0.10231119763E+03 -0.12387580564E+03  0.29948769507E+03  0.33986125975E+03  0.00000000000E+00 0.  1.
         22    1    3    3    0    0  0.69419723005E+01 -0.72826041851E+01 -0.10347405274E+02  0.14432466838E+02  0.00000000000E+00 0.  1.
</event>
<event>
 7    1  0.9036454E-005  0.2326176E+03  0.7818608E-02  0.1154044E+00
          2   -1    0    0  502    0  0.00000000000E+00  0.00000000000E+00  0.69782730247E+03  0.69782730247E+03  0.00000000000E+00 0. -1.
          1   -1    0    0  501    0 -0.00000000000E+00 -0.00000000000E+00 -0.31668486855E+03  0.31668486855E+03  0.00000000000E+00 0. -1.
         25    2    1    2    0    0 -0.10883822572E+02  0.99207642129E+02  0.40753737477E+03  0.43780107536E+03  0.12498982322E+03 0.  0.
          2    1    1    2  501    0 -0.66965210381E+02 -0.24290911587E+03 -0.21208178012E+03  0.32934459071E+03  0.00000000000E+00 0. -1.
          1    1    1    2  502    0  0.77849032952E+02  0.14370147374E+03  0.18568683928E+03  0.24736650494E+03  0.00000000000E+00 0. -1.
         22    1    3    3    0    0  0.53553854947E+02  0.57469197687E+02  0.15374886796E+03  0.17265410062E+03  0.00000000000E+00 0. -1.
         22    1    3    3    0    0 -0.64437677518E+02  0.41738444442E+02  0.25378850681E+03  0.26514697474E+03  0.00000000000E+00 0. -1.
</event>
<event>
 7    1  0.9036454E-005  0.7348671E+02  0.7818608E-02  0.1422965E+00
          2   -1    0    0  502    0  0.00000000000E+00  0.00000000000E+00  0.14228729281E+03  0.14228729281E+03  0.00000000000E+00 0. -1.
          1   -1    0    0  501    0 -0.00000000000E+00 -0.00000000000E+00 -0.17529102027E+03  0.17529102027E+03  0.00000000000E+00 0. -1.
         25    2    1    2    0    0  0.69343940822E+02  0.95765605499E+01 -0.31000045470E+01  0.14328816443E+03  0.12498638084E+03 0.  0.
          2    1    1    2  501    0 -0.69694103202E+02  0.30690417129E+02 -0.79711073636E+02  0.11024075918E+03  0.00000000000E+00 0. -1.
          1    1    1    2  502    0  0.35016238012E+00 -0.40266977679E+02  0.49807350722E+02  0.64049389467E+02  0.00000000000E+00 0. -1.
         22    1    3    3    0    0  0.23308568883E+02  0.60852028546E+02 -0.26740986338E+02  0.70436773860E+02  0.00000000000E+00 0. -1.
         22    1    3    3    0    0  0.46035371939E+02 -0.51275467996E+02  0.23640981791E+02  0.72851390569E+02  0.00000000000E+00 0. -1.
</event>
<event>
 7    1  0.9036454E-005  0.4167855E+03  0.7818608E-02  0.1219346E+00
          2   -1    0    0  502    0  0.00000000000E+00  0.00000000000E+00  0.59228181517E+03  0.59228181517E+03  0.00000000000E+00 0. -1.
          1   -1    0    0  501    0 -0.00000000000E+00 -0.00000000000E+00 -0.35351499421E+03  0.35351499421E+03  0.00000000000E+00 0. -1.
         25    2    1    2    0    0 -0.56736539740E+02  0.43858829239E+03  0.14087213446E+03  0.48067519783E+03  0.12499984949E+03 0.  0.
          2    1    1    2  501    0  0.53724022712E+02 -0.39456059747E+03  0.52220957267E+02  0.40161096109E+03  0.00000000000E+00 0. -1.
          1    1    1    2  502    0  0.30125170285E+01 -0.44027694926E+02  0.45673729241E+02  0.63510650462E+02  0.00000000000E+00 0. -1.
         22    1    3    3    0    0  0.28309476404E+02  0.38549496567E+02  0.31688079053E+02  0.57372680728E+02  0.00000000000E+00 0.  1.
         22    1    3    3    0    0 -0.85046016144E+02  0.40003879582E+03  0.10918405541E+03  0.42330251710E+03  0.00000000000E+00 0.  1.
</event>
<event>
 7    1  0.9036454E-005  0.2620804E+03  0.7818608E-02  0.1167159E+00
          2   -1    0    0  502    0  0.00000000000E+00  0.00000000000E+00  0.27503497869E+04  0.27503497869E+04  0.00000000000E+00 0. -1.
          1   -1    0    0  501    0 -0.00000000000E+00 -0.00000000000E+00 -0.15665459739E+04  0.15665459739E+04  0.00000000000E+00 0. -1.
         25    2    1    2    0    0  0.19012816101E+03 -0.16397654099E+03  0.19385363495E+04  0.19587202487E+04  0.12499924278E+03 0.  0.
          2    1    1    2  501    0 -0.25578379741E+03  0.58143447915E+02 -0.15404626624E+04  0.15626359864E+04  0.00000000000E+00 0. -1.
          1    1    1    2  502    0  0.65655636397E+02  0.10583309307E+03  0.78573012602E+03  0.79553952581E+03  0.00000000000E+00 0. -1.
         22    1    3    3    0    0  0.93887586862E+02 -0.86893330834E+02  0.14188769066E+04  0.14246322354E+04  0.00000000000E+00 0.  1.
         22    1    3    3    0    0  0.96240574148E+02 -0.77083210154E+02  0.51965944283E+03  0.53408801328E+03  0.00000000000E+00 0.  1.
</event>
<event>
 7    1  0.9036454E-005  0.1555664E+03  0.7818608E-02  0.1335199E+00
          2   -1    0    0  502    0  0.00000000000E+00  0.00000000000E+00  0.69832936224E+03  0.69832936224E+03  0.00000000000E+00 0. -1.
          1   -1    0    0  501    0 -0.00000000000E+00 -0.00000000000E+00 -0.13014701768E+04  0.13014701768E+04  0.00000000000E+00 0. -1.
         25    2    1    2    0    0 -0.44541422937E+02  0.11603582793E+03 -0.13712233518E+03  0.22332640616E+03  0.12499558856E+03 0.  0.
          2    1    1    2  501    0 -0.32955709207E+02  0.20819308041E+02 -0.11114615872E+04  0.11121449466E+04  0.00000000000E+00 0. -1.
          1    1    1    2  502    0  0.77497132144E+02 -0.13685513597E+03  0.64544310781E+03  0.66432818633E+03  0.00000000000E+00 0. -1.
         22    1    3    3    0    0  0.13647497607E+02  0.11702130680E+03 -0.97433763453E+02  0.15288420028E+03  0.00000000000E+00 0. -1.
         22    1    3    3    0    0 -0.58188920544E+02 -0.98547886460E+00 -0.39688571731E+02  0.70442205876E+02  0.00000000000E+00 0. -1.
</event>
<event>
 7    1  0.9036454E-005  0.1444113E+03  0.7818608E-02  0.1247209E+00
          2   -1    0    0  502    0  0.00000000000E+00  0.00000000000E+00  0.78406572323E+03  0.78406572323E+03  0.00000000000E+00 0. -1.
          1   -1    0    0  501    0 -0.00000000000E+00 -0.00000000000E+00 -0.91708094498E+03  0.91708094498E+03  0.00000000000E+00 0. -1.
         25    2    1    2    0    0  0.14329894994E+03 -0.92263232196E+02 -0.41628295339E+02  0.21541551791E+03  0.12499534917E+03 0.  0.
          2    1    1    2  501    0 -0.56690932413E+02  0.13290772536E+03 -0.77859821203E+03  0.79189235446E+03  0.00000000000E+00 0. -1.
          1    1    1    2  502    0 -0.86608017527E+02 -0.40644493168E+02  0.68721128562E+03  0.69383879584E+03  0.00000000000E+00 0. -1.
         22    1    3    3    0    0  0.81713478064E+01  0.28570546283E+02 -0.15053667264E+01  0.29754212624E+02  0.00000000000E+00 0.  1.
         22    1    3    3    0    0  0.13512760213E+03 -0.12083377848E+03 -0.40122928613E+02  0.18566130529E+03  0.00000000000E+00 0.  1.
</event>
<event>
 7    1  0.9036454E-005  0.7539363E+03  0.7818608E-02  0.1110308E+00
          2   -1    0    0  502    0  0.00000000000E+00  0.00000000000E+00  0.69091974412E+03  0.69091974412E+03  0.00000000000E+00 0. -1.
          1   -1    0    0  501    0 -0.00000000000E+00 -0.00000000000E+00 -0.13361044670E+04  0.13361044670E+04  0.00000000000E+00 0. -1.
         25    2    1    2    0    0 -0.57345465660E+02 -0.75088713880E+03  0.11582704473E+03  0.77211454971E+03  0.12499990371E+03 0.  0.
          2    1    1    2  501    0  0.85809072837E+02 -0.72258856406E+01 -0.41008683959E+03  0.41903057933E+03  0.00000000000E+00 0. -1.
          1    1    1    2  502    0 -0.28463607178E+02  0.75811302444E+03 -0.35092492802E+03  0.83587908209E+03  0.00000000000E+00 0. -1.
         22    1    3    3    0    0 -0.27088283087E+02 -0.65529442831E+03  0.63244880517E+02  0.65889640898E+03  0.00000000000E+00 0.  1.
         22    1    3    3    0    0 -0.30257182572E+02 -0.95592710493E+02  0.52582164211E+02  0.11321814073E+03  0.00000000000E+00 0.  1.
</event>
<event>
 7    1  0.9036454E-005  0.5557708E+03  0.7818608E-02  0.1103234E+00
          2   -1    0    0  502    0  0.00000000000E+00  0.00000000000E+00  0.10145404822E+04  0.10145404822E+04  0.00000000000E+00 0. -1.
          1   -1    0    0  501    0 -0.00000000000E+00 -0.00000000000E+00 -0.18853897391E+04  0.18853897391E+04  0.00000000000E+00 0. -1.
         25    2    1    2    0    0  0.55432930164E+03  0.80241978717E+02  0.13827338987E+03  0.59030914321E+03  0.12500241761E+03 0.  0.
          2    1    1    2  501    0 -0.51855644546E+03 -0.20303602725E+03 -0.16056788649E+04  0.16995084680E+04  0.00000000000E+00 0. -1.
          1    1    1    2  502    0 -0.35772856185E+02  0.12279404853E+03  0.59655621813E+03  0.61011261008E+03  0.00000000000E+00 0. -1.
         22    1    3    3    0    0  0.45222901915E+03  0.46681968469E+02  0.62725904397E+02  0.45893880967E+03  0.00000000000E+00 0.  1.
         22    1    3    3    0    0  0.10210028249E+03  0.33560010248E+02  0.75547485478E+02  0.13137033354E+03  0.00000000000E+00 0.  1.
</event>
<event>
 7    1  0.9036454E-005  0.1916534E+03  0.7818608E-02  0.1312534E+00
          2   -1    0    0  502    0  0.00000000000E+00  0.00000000000E+00  0.88248727384E+02  0.88248727384E+02  0.00000000000E+00 0. -1.
          1   -1    0    0  501    0 -0.00000000000E+00 -0.00000000000E+00 -0.15878309729E+04  0.15878309729E+04  0.00000000000E+00 0. -1.
         25    2    1    2    0    0 -0.20148027102E+03 -0.77887518803E+02 -0.40920283469E+03  0.47930432273E+03  0.12499963470E+03 0.  0.
          2    1    1    2  501    0  0.38308113269E+02 -0.54698968338E+01 -0.98428479990E+03  0.98504517593E+03  0.00000000000E+00 0. -1.
          1    1    1    2  502    0  0.16317215775E+03  0.83357415637E+02 -0.10609461091E+03  0.21173020160E+03  0.00000000000E+00 0. -1.
         22    1    3    3    0    0 -0.66696145786E+02 -0.91158285285E+02 -0.20946687190E+03  0.23798020771E+03  0.00000000000E+00 0. -1.
         22    1    3    3    0    0 -0.13478412523E+03  0.13270766482E+02 -0.19973596279E+03  0.24132411502E+03  0.00000000000E+00 0. -1.
</event>
<event>
 7    1  0.9036454E-005  0.6449732E+02  0.7818608E-02  0.1385396E+00
          2   -1    0    0  502    0  0.00000000000E+00  0.00000000000E+00  0.17575233326E+04  0.17575233326E+04  0.00000000000E+00 0. -1.
          1   -1    0    0  501    0 -0.00000000000E+00 -0.00000000000E+00 -0.23829352859E+03  0.23829352859E+03  0.00000000000E+00 0. -1.
         25    2    1    2    0    0  0.90055226081E+02  0.13987375662E+02  0.23615610116E+03  0.28231259668E+03  0.12500043083E+03 0.  0.
          2    1    1    2  501    0 -0.53607049499E+02  0.35755994630E+02 -0.20974106224E+03  0.21941631685E+03  0.00000000000E+00 0. -1.
          1    1    1    2  502    0 -0.36448176581E+02 -0.49743370292E+02  0.14928147651E+04  0.14940879476E+04  0.00000000000E+00 0. -1.
         22    1    3    3    0    0  0.76149058924E+01  0.19503039104E+02  0.18271684133E+03  0.18391247764E+03  0.00000000000E+00 0. -1.
         22    1    3    3    0    0  0.82440320188E+02 -0.55156634429E+01  0.53439259829E+02  0.98400119040E+02  0.00000000000E+00 0. -1.
</event>
<event>
 7    1  0.9036454E-005  0.2339819E+03  0.7818608E-02  0.1217963E+00
          2   -1    0    0  502    0  0.00000000000E+00  0.00000000000E+00  0.95163729514E+03  0.95163729514E+03  0.00000000000E+00 0. -1.
          1   -1    0    0  501    0 -0.00000000000E+00 -0.00000000000E+00 -0.25620539644E+04  0.25620539644E+04  0.00000000000E+00 0. -1.
         25    2    1    2    0    0 -0.30966592304E+02 -0.20853338023E+03 -0.82285719801E+03  0.85858185702E+03  0.12499494537E+03 0.  0.
          2    1    1    2  501    0  0.10922066973E+03  0.22396497560E+03 -0.17105878997E+04  0.17286412085E+04  0.00000000000E+00 0. -1.
          1    1    1    2  502    0 -0.78254077429E+02 -0.15431595371E+02  0.92302842848E+03  0.92646819403E+03  0.00000000000E+00 0. -1.
         22    1    3    3    0    0 -0.15266859112E+02 -0.15730638398E+02 -0.12041932122E+02  0.25010759700E+02  0.00000000000E+00 0.  1.
         22    1    3    3    0    0 -0.15699733192E+02 -0.19280274183E+03 -0.81081526589E+03  0.83357109732E+03  0.00000000000E+00 0.  1.
</event>
<event>
 7    1  0.9036454E-005  0.8122170E+02  0.7818608E-02  0.1330588E+00
          2   -1    0    0  502    0  0.00000000000E+00  0.00000000000E+00  0.64609995799E+03  0.64609995799E+03  0.00000000000E+00 0. -1.
          1   -1    0    0  501    0 -0.00000000000E+00 -0.00000000000E+00 -0.10936681732E+04  0.10936681732E+04  0.00000000000E+00 0. -1.
         25    2    1    2    0    0 -0.38065074995E+02  0.22780014675E+02 -0.34716297406E+03  0.37163763200E+03  0.12499807983E+03 0.  0.
          2    1    1    2  501    0 -0.70518356275E+01 -0.90318367409E+02 -0.72885010983E+03  0.73445872483E+03  0.00000000000E+00 0. -1.
          1    1    1    2  502    0  0.45116910623E+02  0.67538352734E+02  0.62844486866E+03  0.63367177439E+03  0.00000000000E+00 0. -1.
         22    1    3    3    0    0 -0.12101731460E+01  0.58028627977E+01 -0.32566204291E+03  0.32571598660E+03  0.00000000000E+00 0.  1.
         22    1    3    3    0    0 -0.36854901849E+02  0.16977151878E+02 -0.21500931150E+02  0.45921645403E+02  0.00000000000E+00 0.  1.
</event>
<event>
 7    1  0.9036454E-005  0.3829230E+03  0.7818608E-02  0.1099584E+00
          2   -1    0    0  502    0  0.00000000000E+00  0.00000000000E+00  0.10223943988E+04  0.10223943988E+04  0.00000000000E+00 0. -1.
          1   -1    0    0  501    0 -0.00000000000E+00 -0.00000000000E+00 -0.14689241828E+04  0.14689241828E+04  0.00000000000E+00 0. -1.
         25    2    1    2    0    0  0.30849244321E+03 -0.36139969807E+03 -0.88238711201E+03  0.10099551225E+04  0.12500001907E+03 0.  0.
          2    1    1    2  501    0  0.32328089661E+02  0.19190545864E+03 -0.46462543315E+03  0.50373564850E+03  0.00000000000E+00 0. -1.
          1    1    1    2  502    0 -0.34082053287E+03  0.16949423943E+03  0.90048276119E+03  0.97762781058E+03  0.00000000000E+00 0. -1.
         22    1    3    3    0    0  0.18112051517E+03 -0.11718871366E+03 -0.37444813237E+03  0.43214492876E+03  0.00000000000E+00 0.  1.
         22    1    3    3    0    0  0.12737192804E+03 -0.24421098441E+03 -0.50793897964E+03  0.57781019375E+03  0.00000000000E+00 0.  1.
</event>
<event>
 7    1  0.9036454E-005  0.2517890E+03  0.7818608E-02  0.1202700E+00
          2   -1    0    0  502    0  0.00000000000E+00  0.00000000000E+00  0.26857864371E+04  0.26857864371E+04  0.00000000000E+00 0. -1.
          1   -1    0    0  501    0 -0.00000000000E+00 -0.00000000000E+00 -0.12060621029E+04  0.12060621029E+04  0.00000000000E+00 0. -1.
         25    2    1    2    0    0 -0.30714862652E+03 -0.13206180090E+03  0.13302343606E+03  0.38092122478E+03  0.12500058766E+03 0.  0.
          2    1    1    2  501    0  0.82933577295E+02  0.27041122318E+02 -0.10740305019E+04  0.10775670372E+04  0.00000000000E+00 0. -1.
          1    1    1    2  502    0  0.22421504923E+03  0.10502067858E+03  0.24207314001E+04  0.24333602781E+04  0.00000000000E+00 0. -1.
         22    1    3    3    0    0 -0.99029114071E+02  0.13612239471E+02  0.16023829014E+02  0.10123646375E+03  0.00000000000E+00 0.  1.
         22    1    3    3    0    0 -0.20811951245E+03 -0.14567404037E+03  0.11699960704E+03  0.27968476103E+03  0.00000000000E+00 0.  1.
</event>
<event>
 7    1  0.1231947E-004  0.1882500E+03  0.7818608E-02  0.1236643E+00
          2   -1    0    0  502    0  0.00000000000E+00  0.00000000000E+00  0.17329559270E+04  0.17329559270E+04  0.00000000000E+00 0. -1.
          1   -1    0    0  501    0 -0.00000000000E+00 -0.00000000000E+00 -0.81823490765E+03  0.81823490765E+03  0.00000000000E+00 0. -1.
         25    2    1    2    0    0 -0.24992473025E+03  0.87927273175E+02 -0.35387925808E+03  0.45939409758E+03  0.12497532329E+03 0.  0.
          2    1    1    2  501    0  0.67343922604E+02 -0.46215408097E+02 -0.40226238353E+03  0.41047057514E+03  0.00000000000E+00 0. -1.
          1    1    1    2  502    0  0.18258080765E+03 -0.41711865078E+02  0.16708626610E+04  0.16813261620E+04  0.00000000000E+00 0. -1.
         22    1    3    3    0    0 -0.20002235614E+03  0.58682078103E+02 -0.17754291668E+03  0.27381383550E+03  0.00000000000E+00 0. -1.
         22    1    3    3    0    0 -0.49902374113E+02  0.29245195072E+02 -0.17633634140E+03  0.18558026208E+03  0.00000000000E+00 0. -1.
</event>
<event>
 7    1  0.9036454E-005  0.2826093E+03  0.7818608E-02  0.1163995E+00
          2   -1    0    0  502    0  0.00000000000E+00  0.00000000000E+00  0.18128662358E+03  0.18128662358E+03  0.00000000000E+00 0. -1.
          1   -1    0    0  501    0 -0.00000000000E+00 -0.00000000000E+00 -0.11865263357E+04  0.11865263357E+04  0.00000000000E+00 0. -1.
         25    2    1    2    0    0  0.28152480945E+03  0.31343769423E+02 -0.58942686693E+03  0.66579851688E+03  0.12499993362E+03 0.  0.
          2    1    1    2  501    0 -0.28127684826E+03  0.88443450458E+02 -0.48209283246E+03  0.56511273955E+03  0.00000000000E+00 0. -1.
          1    1    1    2  502    0 -0.24796118143E+00 -0.11978721988E+03  0.66279987258E+02  0.13690170285E+03  0.00000000000E+00 0. -1.
         22    1    3    3    0    0  0.87166784067E+02 -0.44093584602E+02 -0.14415160423E+03  0.17413206899E+03  0.00000000000E+00 0. -1.
         22    1    3    3    0    0  0.19435802538E+03  0.75437354025E+02 -0.44527526269E+03  0.49166644789E+03  0.00000000000E+00 0. -1.
</event>
<event>
 7    1  0.9036454E-005  0.4300769E+03  0.7818608E-02  0.1151565E+00
          2   -1    0    0  502    0  0.00000000000E+00  0.00000000000E+00  0.17849061462E+04  0.17849061462E+04  0.00000000000E+00 0. -1.
          1   -1    0    0  501    0 -0.00000000000E+00 -0.00000000000E+00 -0.19890398334E+03  0.19890398334E+03  0.00000000000E+00 0. -1.
         25    2    1    2    0    0  0.20017554231E+03 -0.34965855962E+03  0.19148142280E+03  0.46327277510E+03  0.12500069128E+03 0.  0.
          2    1    1    2  501    0  0.88868525332E+02  0.19664633664E+02  0.45055811602E+02  0.10155953314E+03  0.00000000000E+00 0. -1.
          1    1    1    2  502    0 -0.28904406764E+03  0.32999392595E+03  0.13494649284E+04  0.14189778213E+04  0.00000000000E+00 0. -1.
         22    1    3    3    0    0  0.16691355474E+02 -0.14355204840E+03  0.83822204723E+02  0.16706871027E+03  0.00000000000E+00 0. -1.
         22    1    3    3    0    0  0.18348418684E+03 -0.20610651122E+03  0.10765921807E+03  0.29620406483E+03  0.00000000000E+00 0. -1.
</event>
<event>
 7    1  0.9036454E-005  0.1214326E+03  0.7818608E-02  0.1286428E+00
          2   -1    0    0  502    0  0.00000000000E+00  0.00000000000E+00  0.92349669371E+03  0.92349669371E+03  0.00000000000E+00 0. -1.
          1   -1    0    0  501    0 -0.00000000000E+00 -0.00000000000E+00 -0.50675546261E+03  0.50675546261E+03  0.00000000000E+00 0. -1.
         25    2    1    2    0    0 -0.19193262477E+02  0.15299111693E+03  0.37624055731E+03  0.42538872481E+03  0.12499578810E+03 0.  0.
          2    1    1    2  501    0 -0.50266016068E+02 -0.59259519947E+02 -0.47245795306E+03  0.47880568134E+03  0.00000000000E+00 0. -1.
          1    1    1    2  502    0  0.69459278545E+02 -0.93731596986E+02  0.51295862686E+03  0.52605775017E+03  0.00000000000E+00 0. -1.
         22    1    3    3    0    0  0.49703848375E+02  0.38781151572E+02  0.15076993330E+03  0.16341977557E+03  0.00000000000E+00 0.  1.
         22    1    3    3    0    0 -0.68897110853E+02  0.11420996536E+03  0.22547062401E+03  0.26196894923E+03  0.00000000000E+00 0.  1.
</event>
<event>
 7    1  0.9036454E-005  0.2462899E+03  0.7818608E-02  0.1132938E+00
          2   -1    0    0  502    0  0.00000000000E+00  0.00000000000E+00  0.62471077415E+03  0.62471077415E+03  0.00000000000E+00 0. -1.
          1   -1    0    0  501    0 -0.00000000000E+00 -0.00000000000E+00 -0.44294314261E+03  0.44294314261E+03  0.00000000000E+00 0. -1.
         25    2    1    2    0    0  0.13956762544E+03  0.18992334375E+03  0.45461996439E+03  0.52711978319E+03  0.12500382087E+03 0.  0.
          2    1    1    2  501    0 -0.25461103001E+03 -0.27798017665E+02 -0.21244126997E+03  0.33276237705E+03  0.00000000000E+00 0. -1.
          1    1    1    2  502    0  0.11504340457E+03 -0.16212532608E+03 -0.60411062887E+02  0.20777175653E+03  0.00000000000E+00 0. -1.
         22    1    3    3    0    0 -0.32949511899E+01 -0.15616532995E+02  0.20197094090E+02  0.25742094239E+02  0.00000000000E+00 0.  1.
         22    1    3    3    0    0  0.14286257663E+03  0.20553987674E+03  0.43442287030E+03  0.50137768895E+03  0.00000000000E+00 0.  1.
</event>
<event>
 7    1  0.9036454E-005  0.9195717E+02  0.7818608E-02  0.1365085E+00
          2   -1    0    0  502    0  0.00000000000E+00  0.00000000000E+00  0.31727173965E+03  0.31727173965E+03  0.00000000000E+00 0. -1.
          1   -1    0    0  501    0 -0.00000000000E+00 -0.00000000000E+00 -0.22595165506E+03  0.22595165506E+03  0.00000000000E+00 0. -1.
         25    2    1    2    0    0 -0.98540210398E+01 -0.10503189880E+03  0.67232030775E+02  0.17684835532E+03  0.12500557316E+03 0.  0.
          2    1    1    2  501    0  0.46470140940E+02  0.21266569669E+02 -0.15613805295E+03  0.16428886926E+03  0.00000000000E+00 0. -1.
          1    1    1    2  502    0 -0.36616119900E+02  0.83765329128E+02  0.18022610676E+03  0.20208617013E+03  0.00000000000E+00 0. -1.
         22    1    3    3    0    0  0.47201738897E+02 -0.10722496246E+02  0.13261340306E+01  0.48422460822E+02  0.00000000000E+00 0. -1.
         22    1    3    3    0    0 -0.57055759936E+02 -0.94309402552E+02  0.65905896745E+02  0.12842589450E+03  0.00000000000E+00 0. -1.
</event>
<event>
 7    1  0.9036454E-005  0.4646578E+03  0.7818608E-02  0.1150032E+00
          2   -1    0    0  502    0  0.00000000000E+00  0.00000000000E+00  0.92108133089E+03  0.92108133089E+03  0.00000000000E+00 0. -1.
          1   -1    0    0  501    0 -0.00000000000E+00 -0.00000000000E+00 -0.16412968368E+04  0.16412968368E+04  0.00000000000E+00 0. -1.
         25    2    1    2    0    0 -0.22041629519E+03  0.37257921083E+03  0.27175193995E+03  0.52618665877E+03  0.12499868586E+03 0.  0.
          2    1    1    2  501    0 -0.83618079677E+02  0.19165586926E+02 -0.13947202780E+04  0.13973560594E+04  0.00000000000E+00 0. -1.
          1    1    1    2  502    0  0.30403437487E+03 -0.39174479776E+03  0.40275283217E+03  0.63883544947E+03  0.00000000000E+00 0. -1.
         22    1    3    3    0    0 -0.18491452136E+03  0.23895067868E+03  0.13239564313E+03  0.32987787645E+03  0.00000000000E+00 0.  1.
         22    1    3    3    0    0 -0.35501773828E+02  0.13362853215E+03  0.13935629682E+03  0.19630878231E+03  0.00000000000E+00 0.  1.
</event>
<event>
 7    1  0.9036454E-005  0.3139237E+03  0.7818608E-02  0.1098501E+00
          2   -1    0    0  502    0  0.00000000000E+00  0.00000000000E+00  0.26716955136E+04  0.26716955136E+04  0.00000000000E+00 0. -1.
          1   -1    0    0  501    0 -0.00000000000E+00 -0.00000000000E+00 -0.63303090016E+03  0.63303090016E+03  0.00000000000E+00 0. -1.
         25    2    1    2    0    0  0.24017218749E+03 -0.15149559044E+02  0.12434474435E+02  0.27146275179E+03  0.12500088268E+03 0.  0.
          2    1    1    2  501    0 -0.26957016059E+03  0.25409430449E+03 -0.42868557875E+03  0.56657154225E+03  0.00000000000E+00 0. -1.
          1    1    1    2  502    0  0.29397973101E+02 -0.23894474544E+03  0.24549157177E+04  0.24666921197E+04  0.00000000000E+00 0. -1.
         22    1    3    3    0    0  0.18438642697E+03 -0.55330200437E+02  0.41315905402E+02  0.19689283779E+03  0.00000000000E+00 0. -1.
         22    1    3    3    0    0  0.55785760517E+02  0.40180641393E+02 -0.28881430967E+02  0.74569914000E+02  0.00000000000E+00 0. -1.
</event>
<event>
 7    1  0.9036454E-005  0.5924577E+02  0.7818608E-02  0.1433734E+00
          2   -1    0    0  502    0  0.00000000000E+00  0.00000000000E+00  0.15462550029E+04  0.15462550029E+04  0.00000000000E+00 0. -1.
          1   -1    0    0  501    0 -0.00000000000E+00 -0.00000000000E+00 -0.59495692279E+02  0.59495692279E+02  0.00000000000E+00 0. -1.
         25    2    1    2    0    0 -0.28595288974E+02 -0.55817029092E+02  0.38117350741E+03  0.40601839745E+03  0.12499786008E+03 0.  0.
          2    1    1    2  501    0  0.56685810057E+02  0.19360687333E+02 -0.27358981916E+02  0.65853102944E+02  0.00000000000E+00 0. -1.
          1    1    1    2  502    0 -0.28090521083E+02  0.36456341759E+02  0.11329447851E+04  0.11338791948E+04  0.00000000000E+00 0. -1.
         22    1    3    3    0    0  0.30658289854E+02 -0.68818844835E+02  0.16301212113E+03  0.17957983121E+03  0.00000000000E+00 0.  1.
         22    1    3    3    0    0 -0.59253578828E+02  0.13001815743E+02  0.21816138628E+03  0.22643856624E+03  0.00000000000E+00 0.  1.
</event>
<event>
 7    1  0.9036454E-005  0.3866195E+03  0.7818608E-02  0.1118009E+00
          2   -1    0    0  502    0  0.00000000000E+00  0.00000000000E+00  0.31451612796E+04  0.31451612796E+04  0.00000000000E+00 0. -1.
          1   -1    0    0  501    0 -0.00000000000E+00 -0.00000000000E+00 -0.22375166271E+03  0.22375166271E+03  0.00000000000E+00 0. -1.
         25    2    1    2    0    0  0.45445323043E+03 -0.86909605663E+02  0.29940348418E+03  0.56510930653E+03  0.12500025509E+03 0.  0.
          2    1    1    2  501    0 -0.30834025777E+03  0.13006048431E+03  0.22795787295E+03  0.40491262759E+03  0.00000000000E+00 0. -1.
          1    1    1    2  502    0 -0.14611297266E+03 -0.43150878650E+02  0.23940482598E+04  0.23988910082E+04  0.00000000000E+00 0. -1.
         22    1    3    3    0    0  0.13753578513E+03 -0.50832504962E+01  0.15521853706E+03  0.20744812815E+03  0.00000000000E+00 0. -1.
         22    1    3    3    0    0  0.31691744531E+03 -0.81826355167E+02  0.14418494712E+03  0.35766117837E+03  0.00000000000E+00 0. -1.
</event>
<event>
 7    1  0.9036454E-005  0.8690597E+02  0.7818608E-02  0.1345065E+00
          2   -1    0    0  502    0  0.00000000000E+00  0.00000000000E+00  0.41081744209E+03  0.41081744209E+03  0.00000000000E+00 0. -1.
          1   -1    0    0  501    0 -0.00000000000E+00 -0.00000000000E+00 -0.17346327729E+03  0.17346327729E+03  0.00000000000E+00 0. -1.
         25    2    1    2    0    0  0.98143808023E+02  0.82714348024E+02 -0.50434374964E+02  0.18612585850E+03  0.12500135440E+03 0.  0.
          2    1    1    2  501    0 -0.68037044448E+02 -0.26165801815E+02 -0.26379626616E+02  0.77521437694E+02  0.00000000000E+00 0. -1.
          1    1    1    2  502    0 -0.30106763575E+02 -0.56548546209E+02  0.31416816639E+03  0.32063342318E+03  0.00000000000E+00 0. -1.
         22    1    3    3    0    0  0.40765333639E+02  0.20006530519E+02 -0.83398667663E+02  0.94960051907E+02  0.00000000000E+00 0. -1.
         22    1    3    3    0    0  0.57378474384E+02  0.62707817505E+02  0.32964292699E+02  0.91165806595E+02  0.00000000000E+00 0. -1.
</event>
<event>
 7    1  0.9036454E-005  0.6117851E+03  0.7818608E-02  0.1226780E+00
          2   -1    0    0  502    0  0.00000000000E+00  0.00000000000E+00  0.76933668969E+03  0.76933668969E+03  0.00000000000E+00 0. -1.
          1   -1    0    0  501    0 -0.00000000000E+00 -0.00000000000E+00 -0.11931986398E+04  0.11931986398E+04  0.00000000000E+00 0. -1.
         25    2    1    2    0    0 -0.46235979504E+03 -0.42268148616E+03  0.73130460432E+02  0.64296889199E+03  0.12499885204E+03 0.  0.
          2    1    1    2  501    0  0.12504978492E+02  0.24849385000E+02 -0.68863466137E+03  0.68919631692E+03  0.00000000000E+00 0. -1.
          1    1    1    2  502    0  0.44985481655E+03  0.39783210116E+03  0.19164225078E+03  0.63037012062E+03  0.00000000000E+00 0. -1.
         22    1    3    3    0    0 -0.39754999660E+03 -0.34719642776E+03  0.15611572275E+02  0.52804836941E+03  0.00000000000E+00 0.  1.
         22    1    3    3    0    0 -0.64809798439E+02 -0.75485058405E+02  0.57518888157E+02  0.11492052258E+03  0.00000000000E+00 0.  1.
</event>
<event>
 7    1  0.9036454E-005  0.2333473E+03  0.7818608E-02  0.1212739E+00
          2   -1    0    0  502    0  0.00000000000E+00  0.00000000000E+00  0.23484406917E+03  0.23484406917E+03  0.00000000000E+00 0. -1.
          1   -1    0    0  501    0 -0.00000000000E+00 -0.00000000000E+00 -0.77337434346E+03  0.77337434346E+03  0.00000000000E+00 0. -1.
         25    2    1    2    0    0 -0.14211576469E+03  0.23282485038E+03 -0.44840718843E+03  0.53953487772E+03  0.12499830447E+03 0.  0.
          2    1    1    2  501    0 -0.28142032017E+02 -0.79700348689E+02 -0.19820234477E+03  0.21547224652E+03  0.00000000000E+00 0. -1.
          1    1    1    2  502    0  0.17025779670E+03 -0.15312450169E+03  0.10807925891E+03  0.25321128838E+03  0.00000000000E+00 0. -1.
         22    1    3    3    0    0  0.17204171773E+02  0.67404805043E+02 -0.12171320414E+03  0.14019092457E+03  0.00000000000E+00 0.  1.
         22    1    3    3    0    0 -0.15931993646E+03  0.16542004534E+03 -0.32669398428E+03  0.39934395315E+03  0.00000000000E+00 0.  1.
</event>
<event>
 7    1  0.9036454E-005  0.2056907E+03  0.7818608E-02  0.1231016E+00
          2   -1    0    0  502    0  0.00000000000E+00  0.00000000000E+00  0.12634989869E+04  0.12634989869E+04  0.00000000000E+00 0. -1.
          1   -1    0    0  501    0 -0.00000000000E+00 -0.00000000000E+00 -0.75781240135E+03  0.75781240135E+03  0.00000000000E+00 0. -1.
         25    2    1    2    0    0 -0.23145602481E+03  0.53781579519E+02  0.82208735772E+03  0.86482167134E+03  0.12499819910E+03 0.  0.
          2    1    1    2  501    0  0.51467750376E+02 -0.60188797205E+02 -0.71485198558E+03  0.71922526508E+03  0.00000000000E+00 0. -1.
          1    1    1    2  502    0  0.17998827443E+03  0.64072176863E+01  0.39845121338E+03  0.43726445181E+03  0.00000000000E+00 0. -1.
         22    1    3    3    0    0 -0.10030444339E+03 -0.33876584745E+02  0.25258995641E+03  0.27388006579E+03  0.00000000000E+00 0.  1.
         22    1    3    3    0    0 -0.13115158142E+03  0.87658164263E+02  0.56949740131E+03  0.59094160555E+03  0.00000000000E+00 0.  1.
</event>
<event>
 7    1  0.9036454E-005  0.2767417E+03  0.7818608E-02  0.1121193E+00
          2   -1    0    0  502    0  0.00000000000E+00  0.00000000000E+00  0.41870989755E+03  0.41870989755E+03  0.00000000000E+00 0. -1.
          1   -1    0    0  501    0 -0.00000000000E+00 -0.00000000000E+00 -0.90867944411E+03  0.90867944411E+03  0.00000000000E+00 0. -1.
         25    2    1    2    0    0  0.30183830951E+03 -0.21309270973E+03 -0.18996648339E+03  0.43385006783E+03  0.12499499397E+03 0.  0.
          2    1    1    2  501    0 -0.34932448148E+02  0.20152264418E+03 -0.51274087770E+03  0.55202795194E+03  0.00000000000E+00 0. -1.
          1    1    1    2  502    0 -0.26690586137E+03  0.11570065550E+02  0.21273781453E+03  0.34151132189E+03  0.00000000000E+00 0. -1.
         22    1    3    3    0    0  0.56932138669E+02 -0.45066255315E+02 -0.99879131742E+02  0.12348310305E+03  0.00000000000E+00 0.  1.
         22    1    3    3    0    0  0.24490617085E+03 -0.16802645442E+03 -0.90087351646E+02  0.31036696478E+03  0.00000000000E+00 0.  1.
</event>
<event>
 7    1  0.9036454E-005  0.3032329E+03  0.7818608E-02  0.1147086E+00
          2   -1    0    0  502    0  0.00000000000E+00  0.00000000000E+00  0.78087312252E+03  0.78087312252E+03  0.00000000000E+00 0. -1.
          1   -1    0    0  501    0 -0.00000000000E+00 -0.00000000000E+00 -0.12106909862E+04  0.12106909862E+04  0.00000000000E+00 0. -1.
         25    2    1    2    0    0 -0.25922161396E+03 -0.77821911429E+02 -0.67364330146E+03  0.73666296742E+03  0.12499973968E+03 0.  0.
          2    1    1    2  501    0  0.33690728086E+03  0.18961496072E+03 -0.42373833377E+03  0.57359787720E+03  0.00000000000E+00 0. -1.
          1    1    1    2  502    0 -0.77685666898E+02 -0.11179304929E+03  0.66756377151E+03  0.68130326415E+03  0.00000000000E+00 0. -1.
         22    1    3    3    0    0 -0.12292067773E+03 -0.23318830393E+02 -0.46511265889E+03  0.48164618375E+03  0.00000000000E+00 0. -1.
         22    1    3    3    0    0 -0.13630093623E+03 -0.54503081035E+02 -0.20853064257E+03  0.25501678367E+03  0.00000000000E+00 0. -1.
</event>
<event>
 7    1  0.9036454E-005  0.3838516E+03  0.7818608E-02  0.1193840E+00
          2   -1    0    0  502    0  0.00000000000E+00  0.00000000000E+00  0.71879383536E+03  0.71879383536E+03  0.00000000000E+00 0. -1.
          1   -1    0    0  501    0 -0.00000000000E+00 -0.00000000000E+00 -0.21954188383E+04  0.21954188383E+04  0.00000000000E+00 0. -1.
         25    2    1    2    0    0  0.30817088523E+03  0.23876827085E+03 -0.84893562692E+03  0.94249462766E+03  0.12499937143E+03 0.  0.
          2    1    1    2  501    0 -0.33593106433E+03 -0.18219558043E+03 -0.12700365432E+04  0.13262871977E+04  0.00000000000E+00 0. -1.
          1    1    1    2  502    0  0.27760179103E+02 -0.56572690419E+02  0.64234716718E+03  0.64543084837E+03  0.00000000000E+00 0. -1.
         22    1    3    3    0    0  0.16237324170E+03  0.48084744740E+02 -0.35527583283E+03  0.39357099701E+03  0.00000000000E+00 0. -1.
         22    1    3    3    0    0  0.14579764352E+03  0.19068352611E+03 -0.49365979409E+03  0.54892363065E+03  0.00000000000E+00 0. -1.
</event>
<event>
 7    1  0.9036454E-005  0.6537518E+03  0.7818608E-02  0.9934062E-01
          2   -1    0    0  502    0  0.00000000000E+00  0.00000000000E+00  0.16204771512E+04  0.16204771512E+04  0.00000000000E+00 0. -1.
          1   -1    0    0  501    0 -0.00000000000E+00 -0.00000000000E+00 -0.21388561663E+04  0.21388561663E+04  0.00000000000E+00 0. -1.
         25    2    1    2    0    0 -0.38076646113E+03 -0.39255030362E+02 -0.30613778755E+03  0.50583815026E+03  0.12501133531E+03 0.  0.
          2    1    1    2  501    0 -0.10244842606E+03 -0.51588663254E+03 -0.15991377560E+04  0.16834120886E+04  0.00000000000E+00 0. -1.
          1    1    1    2  502    0  0.48321488719E+03  0.55514166290E+03  0.13868965285E+04  0.15700830786E+04  0.00000000000E+00 0. -1.
         22    1    3    3    0    0 -0.35180912033E+03 -0.71500736590E+02 -0.26650711863E+03  0.44711078801E+03  0.00000000000E+00 0.  1.
         22    1    3    3    0    0 -0.28957340803E+02  0.32245706227E+02 -0.39630668926E+02  0.58727362243E+02  0.00000000000E+00 0.  1.
</event>
<event>
 7    1  0.9036454E-005  0.8509771E+02  0.7818608E-02  0.1418832E+00
          2   -1    0    0  502    0  0.00000000000E+00  0.00000000000E+00  0.58659867831E+03  0.58659867831E+03  0.00000000000E+00 0. -1.
          1   -1    0    0  501    0 -0.00000000000E+00 -0.00000000000E+00 -0.11260349073E+03  0.11260349073E+03  0.00000000000E+00 0. -1.
         25    2    1    2    0    0 -0.51888442334E+02  0.43466017098E+01  0.22240213798E+03  0.26038291867E+03  0.12500099986E+03 0.  0.
          2    1    1    2  501    0  0.87736608440E+02 -0.61953257128E+01 -0.71738574255E+02  0.11350117866E+03  0.00000000000E+00 0. -1.
          1    1    1    2  502    0 -0.35848166106E+02  0.18487240030E+01  0.32333162385E+03  0.32531807170E+03  0.00000000000E+00 0. -1.
         22    1    3    3    0    0 -0.86918531873E+02  0.27189907459E+02  0.17418319952E+03  0.19655510486E+03  0.00000000000E+00 0.  1.
         22    1    3    3    0    0  0.35030089539E+02 -0.22843305749E+02  0.48218938454E+02  0.63827813814E+02  0.00000000000E+00 0.  1.
</event>
<event>
 7    1  0.9036454E-005  0.2286139E+03  0.7818608E-02  0.1312891E+00
          2   -1    0    0  502    0  0.00000000000E+00  0.00000000000E+00  0.50735389338E+03  0.50735389338E+03  0.00000000000E+00 0. -1.
          1   -1    0    0  501    0 -0.00000000000E+00 -0.00000000000E+00 -0.21379418109E+03  0.21379418109E+03  0.00000000000E+00 0. -1.
         25    2    1    2    0    0  0.20059983865E+03  0.78326091864E+02  0.36832763010E+02  0.25170820385E+03  0.12500038207E+03 0.  0.
          2    1    1    2  501    0 -0.23163245712E+03 -0.69237594915E+02  0.33718332216E+02  0.24409908986E+03  0.00000000000E+00 0. -1.
          1    1    1    2  502    0  0.31032618471E+02 -0.90884969488E+01  0.22300861707E+03  0.22534078076E+03  0.00000000000E+00 0. -1.
         22    1    3    3    0    0  0.10017087223E+03  0.74920880739E+02  0.73093545062E+02  0.14487928887E+03  0.00000000000E+00 0.  1.
         22    1    3    3    0    0  0.10042896643E+03  0.34052111250E+01 -0.36260782053E+02  0.10682891498E+03  0.00000000000E+00 0.  1.
</event>
<event>
 7    1  0.9036454E-005  0.6711714E+03  0.7818608E-02  0.1212488E+00
          2   -1    0    0  502    0  0.00000000000E+00  0.00000000000E+00  0.63057654827E+03  0.63057654827E+03  0.00000000000E+00 0. -1.
          1   -1    0    0  501    0 -0.00000000000E+00 -0.00000000000E+00 -0.20247793194E+04  0.20247793194E+04  0.00000000000E+00 0. -1.
         25    2    1    2    0    0 -0.68336977368E+03 -0.86918078530E+02 -0.32130334114E+03  0.77032967763E+03  0.12499190075E+03 0.  0.
          2    1    1    2  501    0  0.65758802204E+03  0.10118261587E+03 -0.14034482477E+04  0.15531667369E+04  0.00000000000E+00 0. -1.
          1    1    1    2  502    0  0.25781751638E+02 -0.14264537338E+02  0.33054881775E+03  0.33185945317E+03  0.00000000000E+00 0. -1.
         22    1    3    3    0    0 -0.36838622520E+03 -0.98178359700E+02 -0.13639484681E+03  0.40490857668E+03  0.00000000000E+00 0. -1.
         22    1    3    3    0    0 -0.31498354848E+03  0.11260281170E+02 -0.18490849433E+03  0.36542110095E+03  0.00000000000E+00 0. -1.
</event>
<event>
 7    1  0.9036454E-005  0.1412569E+03  0.7818608E-02  0.1261084E+00
          2   -1    0    0  502    0  0.00000000000E+00  0.00000000000E+00  0.35460284806E+03  0.35460284806E+03  0.00000000000E+00 0. -1.
          1   -1    0    0  501    0 -0.00000000000E+00 -0.00000000000E+00 -0.46419264349E+03  0.46419264349E+03  0.00000000000E+00 0. -1.
         25    2    1    2    0    0 -0.69958442480E+01 -0.13512856168E+03 -0.24628252879E+03  0.30754698870E+03  0.12498558418E+03 0.  0.
          2    1    1    2  501    0  0.92144756203E+02  0.13144754560E+03 -0.14538409537E+03  0.21657711912E+03  0.00000000000E+00 0. -1.
          1    1    1    2  502    0 -0.85148911955E+02  0.36810160893E+01  0.28207682873E+03  0.29467138373E+03  0.00000000000E+00 0. -1.
         22    1    3    3    0    0  0.43880049157E+02 -0.18481553428E+02 -0.29027203215E+02  0.55763832881E+02  0.00000000000E+00 0. -1.
         22    1    3    3    0    0 -0.50875893405E+02 -0.11664700826E+03 -0.21725532557E+03  0.25178315582E+03  0.00000000000E+00 0. -1.
</event>
<event>
 7    1  0.9036454E-005  0.3229195E+03  0.7818608E-02  0.1104292E+00
          2   -1    0    0  502    0  0.00000000000E+00  0.00000000000E+00  0.14807418842E+03  0.14807418842E+03  0.00000000000E+00 0. -1.
          1   -1    0    0  501    0 -0.00000000000E+00 -0.00000000000E+00 -0.16322684060E+04  0.16322684060E+04  0.00000000000E+00 0. -1.
         25    2    1    2    0    0 -0.28224226227E+03 -0.94572133083E+02 -0.30734158290E+03  0.44574562343E+03  0.12500291699E+03 0.  0.
          2    1    1    2  501    0 -0.12048217056E+03  0.18065354573E+03 -0.43060553801E+03  0.48225800810E+03  0.00000000000E+00 0. -1.
          1    1    1    2  502    0  0.40272443283E+03 -0.86081412650E+02 -0.74624709670E+03  0.85233896294E+03  0.00000000000E+00 0. -1.
         22    1    3    3    0    0 -0.27889536498E+03 -0.64646953465E+02 -0.24620594554E+03  0.37759663773E+03  0.00000000000E+00 0. -1.
         22    1    3    3    0    0 -0.33468972882E+01 -0.29925179618E+02 -0.61135637360E+02  0.68148985701E+02  0.00000000000E+00 0. -1.
</event>
<event>
 7    1  0.9036454E-005  0.1424973E+03  0.7818608E-02  0.1242029E+00
          2   -1    0    0  502    0  0.00000000000E+00  0.00000000000E+00  0.16993882134E+04  0.16993882134E+04  0.00000000000E+00 0. -1.
          1   -1    0    0  501    0 -0.00000000000E+00 -0.00000000000E+00 -0.12671900272E+04  0.12671900272E+04  0.00000000000E+00 0. -1.
         25    2    1    2    0    0  0.20261934441E+03 -0.76485253763E+02  0.24380427666E+03  0.34924264312E+03  0.12500122273E+03 0.  0.
          2    1    1    2  501    0 -0.64044242540E+02  0.79582313362E+02 -0.12088876150E+04  0.12131958932E+04  0.00000000000E+00 0. -1.
          1    1    1    2  502    0 -0.13857510187E+03 -0.30970595989E+01  0.13972815244E+04  0.14041397043E+04  0.00000000000E+00 0. -1.
         22    1    3    3    0    0 -0.96198947232E+01 -0.18384036479E+02  0.56783097863E+02  0.60455234469E+02  0.00000000000E+00 0. -1.
         22    1    3    3    0    0  0.21223923913E+03 -0.58101217284E+02  0.18702117880E+03  0.28878740865E+03  0.00000000000E+00 0. -1.
</event>
<event>
 7    1  0.9036454E-005  0.2041401E+03  0.7818608E-02  0.1257180E+00
          2   -1    0    0  502    0  0.00000000000E+00  0.00000000000E+00  0.30938175449E+04  0.30938175449E+04  0.00000000000E+00 0. -1.
          1   -1    0    0  501    0 -0.00000000000E+00 -0.00000000000E+00 -0.56664475510E+03  0.56664475510E+03  0.00000000000E+00 0. -1.
         25    2    1    2    0    0 -0.11276627430E+03 -0.21908027486E+03  0.15163444803E+04  0.15413105346E+04  0.12500072689E+03 0.  0.
          2    1    1    2  501    0  0.33476985245E+02  0.51333359120E+02 -0.54694496760E+03  0.55036771334E+03  0.00000000000E+00 0. -1.
          1    1    1    2  502    0  0.79289289054E+02  0.16774691574E+03  0.15577732771E+04  0.15687840520E+04  0.00000000000E+00 0. -1.
         22    1    3    3    0    0 -0.26540653107E+02 -0.29140632605E+02  0.60998261909E+03  0.61125475730E+03  0.00000000000E+00 0.  1.
         22    1    3    3    0    0 -0.86225621192E+02 -0.18993964225E+03  0.90636186122E+03  0.93005577731E+03  0.00000000000E+00 0.  1.
</event>
<event>
 7    1  0.9036454E-005  0.5279929E+03  0.7818608E-02  0.1132175E+00
          2   -1    0    0  502    0  0.00000000000E+00  0.00000000000E+00  0.91185247140E+03  0.91185247140E+03  0.00000000000E+00 0. -1.
          1   -1    0    0  501    0 -0.00000000000E+00 -0.00000000000E+00 -0.15552855760E+04  0.15552855760E+04  0.00000000000E+00 0. -1.
         25    2    1    2    0    0 -0.33699646627E+03  0.47302928581E+03 -0.56942655968E+03  0.82291847876E+03  0.12499956922E+03 0.  0.
          2    1    1    2  501    0 -0.19281983986E+02 -0.91592299640E+02 -0.76921264841E+03  0.77488647087E+03  0.00000000000E+00 0. -1.
          1    1    1    2  502    0  0.35627845026E+03 -0.38143698617E+03  0.69520610350E+03  0.86933309777E+03  0.00000000000E+00 0. -1.
         22    1    3    3    0    0 -0.17262084682E+03  0.23295167821E+03 -0.37048119933E+03  0.47044740428E+03  0.00000000000E+00 0. -1.
         22    1    3    3    0    0 -0.16437561945E+03  0.24007760760E+03 -0.19894536035E+03  0.35247107448E+03  0.00000000000E+00 0. -1.
</event>
<event>
 7    1  0.9036454E-005  0.1795980E+04  0.7818608E-02  0.1096106E+00
          2   -1    0    0  502    0  0.00000000000E+00  0.00000000000E+00  0.38051887932E+04  0.38051887932E+04  0.00000000000E+00 0. -1.
          1   -1    0    0  501    0 -0.00000000000E+00 -0.00000000000E+00 -0.26310725599E+04  0.26310725599E+04  0.00000000000E+00 0. -1.
         25    2    1    2    0    0 -0.34740892472E+03  0.17323287870E+04  0.56560650450E+03  0.18593524533E+04  0.12499936272E+03 0.  0.
          2    1    1    2  501    0 -0.95256490989E+01  0.42357639387E+02 -0.16679087487E+04  0.16684737042E+04  0.00000000000E+00 0. -1.
          1    1    1    2  502    0  0.35693457382E+03 -0.17746864263E+04  0.22764184775E+04  0.29084351955E+04  0.00000000000E+00 0. -1.
         22    1    3    3    0    0 -0.17692016181E+03  0.11797167720E+04  0.37741425169E+03  0.12511890038E+04  0.00000000000E+00 0. -1.
         22    1    3    3    0    0 -0.17048876291E+03  0.55261201490E+03  0.18819225281E+03  0.60816344951E+03  0.00000000000E+00 0. -1.
</event>
<event>
 7    1  0.9036454E-005  0.1688907E+04  0.7818608E-02  0.1136842E+00
          2   -1    0    0  502    0  0.00000000000E+00  0.00000000000E+00  0.24402364045E+04  0.24402364045E+04  0.00000000000E+00 0. -1.
          1   -1    0    0  501    0 -0.00000000000E+00 -0.00000000000E+00 -0.34240804810E+04  0.34240804810E+04  0.00000000000E+00 0. -1.
         25    2    1    2    0    0 -0.14815235364E+04 -0.85013009207E+03 -0.11682622407E+04  0.20731843696E+04  0.12499441937E+03 0.  0.
          2    1    1    2  501    0  0.27627705601E+02 -0.96668329509E+00 -0.14462471884E+04  0.14465113738E+04  0.00000000000E+00 0. -1.
          1    1    1    2  502    0  0.14538958308E+04  0.85109677536E+03  0.16306653526E+04  0.23446211421E+04  0.00000000000E+00 0. -1.
         22    1    3    3    0    0 -0.65536153656E+03 -0.39676603057E+03 -0.45211565442E+03  0.88956764307E+03  0.00000000000E+00 0. -1.
         22    1    3    3    0    0 -0.82616199980E+03 -0.45336406150E+03 -0.71614658631E+03  0.11836167265E+04  0.00000000000E+00 0. -1.
</event>
<event>
 7    1  0.9036454E-005  0.3416678E+03  0.7818608E-02  0.1091227E+00
          2   -1    0    0  502    0  0.00000000000E+00  0.00000000000E+00  0.78787400684E+03  0.78787400684E+03  0.00000000000E+00 0. -1.
          1   -1    0    0  501    0 -0.00000000000E+00 -0.00000000000E+00 -0.73615366843E+03  0.73615366843E+03  0.00000000000E+00 0. -1.
         25    2    1    2    0    0  0.44966809075E+03  0.38584403744E+02 -0.16496003232E+03  0.49651510954E+03  0.12500117476E+03 0.  0.
          2    1    1    2  501    0 -0.28281407366E+03  0.13850113223E+03 -0.31338613564E+03  0.44427157674E+03  0.00000000000E+00 0. -1.
          1    1    1    2  502    0 -0.16685401708E+03 -0.17708553598E+03  0.53006650637E+03  0.58324098899E+03  0.00000000000E+00 0. -1.
         22    1    3    3    0    0  0.32885206389E+03  0.70816447449E+02 -0.15698835093E+03  0.37121960007E+03  0.00000000000E+00 0. -1.
         22    1    3    3    0    0  0.12081602686E+03 -0.32232043705E+02 -0.79716813855E+01  0.12529550946E+03  0.00000000000E+00 0. -1.
</event>
<event>
 7    1  0.9036454E-005  0.4337694E+03  0.7818608E-02  0.1221200E+00
          2   -1    0    0  502    0  0.00000000000E+00  0.00000000000E+00  0.14356345411E+04  0.14356345411E+04  0.00000000000E+00 0. -1.
          1   -1    0    0  501    0 -0.00000000000E+00 -0.00000000000E+00 -0.80779891421E+03  0.80779891421E+03  0.00000000000E+00 0. -1.
         25    2    1    2    0    0  0.19169725212E+02 -0.43693548139E+03 -0.36592459739E+03  0.58378578805E+03  0.12499976839E+03 0.  0.
          2    1    1    2  501    0  0.40907705193E+02  0.74783624500E+01 -0.29601727963E+03  0.29892406408E+03  0.00000000000E+00 0. -1.
          1    1    1    2  502    0 -0.60077430406E+02  0.42945711894E+03  0.12897775039E+04  0.13607236032E+04  0.00000000000E+00 0. -1.
         22    1    3    3    0    0  0.43552383231E+02 -0.40800517787E+03 -0.30190856674E+03  0.50942498754E+03  0.00000000000E+00 0.  1.
         22    1    3    3    0    0 -0.24382658019E+02 -0.28930303518E+02 -0.64016030645E+02  0.74360800515E+02  0.00000000000E+00 0.  1.
</event>
<event>
 7    1  0.9036454E-005  0.3800552E+03  0.7818608E-02  0.1259735E+00
          2   -1    0    0  502    0  0.00000000000E+00  0.00000000000E+00  0.49520608057E+03  0.49520608057E+03  0.00000000000E+00 0. -1.
          1   -1    0    0  501    0 -0.00000000000E+00 -0.00000000000E+00 -0.65219952538E+03  0.65219952538E+03  0.00000000000E+00 0. -1.
         25    2    1    2    0    0  0.34360230867E+03 -0.14044972970E+03 -0.25290055169E+03  0.46623201669E+03  0.12499972500E+03 0.  0.
          2    1    1    2  501    0  0.20972523906E+02  0.24300984468E+02 -0.19681455486E+03  0.19941502855E+03  0.00000000000E+00 0. -1.
          1    1    1    2  502    0 -0.36457483257E+03  0.11614874523E+03  0.29272166174E+03  0.48175856071E+03  0.00000000000E+00 0. -1.
         22    1    3    3    0    0  0.76547392378E+02 -0.92668189157E+02 -0.84381101867E+02  0.14685730119E+03  0.00000000000E+00 0.  1.
         22    1    3    3    0    0  0.26705491629E+03 -0.47781540544E+02 -0.16851944982E+03  0.31937471550E+03  0.00000000000E+00 0.  1.
</event>
<event>
 7    1  0.9036454E-005  0.1369524E+03  0.7818608E-02  0.1347910E+00
          2   -1    0    0  502    0  0.00000000000E+00  0.00000000000E+00  0.22359541186E+03  0.22359541186E+03  0.00000000000E+00 0. -1.
          1   -1    0    0  501    0 -0.00000000000E+00 -0.00000000000E+00 -0.19733889429E+03  0.19733889429E+03  0.00000000000E+00 0. -1.
         25    2    1    2    0    0 -0.57473481017E+02  0.12923672216E+03 -0.34302882838E+01  0.18879248100E+03  0.12500201051E+03 0.  0.
          2    1    1    2  501    0 -0.30924066879E+02 -0.24852234772E+02 -0.57554705891E+02  0.69903330791E+02  0.00000000000E+00 0. -1.
          1    1    1    2  502    0  0.88397547896E+02 -0.10438448738E+03  0.87241511749E+02  0.16223849436E+03  0.00000000000E+00 0. -1.
         22    1    3    3    0    0 -0.34194345862E+02 -0.11834313665E+02  0.23710071780E+02  0.43260510545E+02  0.00000000000E+00 0. -1.
         22    1    3    3    0    0 -0.23279135155E+02  0.14107103582E+03 -0.27140360063E+02  0.14553197046E+03  0.00000000000E+00 0. -1.
</event>
<event>
 7    1  0.9036454E-005  0.1935849E+03  0.7818608E-02  0.1204165E+00
          2   -1    0    0  502    0  0.00000000000E+00  0.00000000000E+00  0.29086651225E+03  0.29086651225E+03  0.00000000000E+00 0. -1.
          1   -1    0    0  501    0 -0.00000000000E+00 -0.00000000000E+00 -0.54591687240E+03  0.54591687240E+03  0.00000000000E+00 0. -1.
         25    2    1    2    0    0  0.49607538930E+02  0.16747366226E+02 -0.16769739344E+03  0.21561275389E+03  0.12500024672E+03 0.  0.
          2    1    1    2  501    0 -0.22137016116E+03  0.72542790176E+02 -0.26890190545E+03  0.35577442209E+03  0.00000000000E+00 0. -1.
          1    1    1    2  502    0  0.17176262223E+03 -0.89290156402E+02  0.18154893873E+03  0.26539620868E+03  0.00000000000E+00 0. -1.
         22    1    3    3    0    0  0.77691632979E+02  0.29903038706E+02 -0.16458938165E+03  0.18444469662E+03  0.00000000000E+00 0.  1.
         22    1    3    3    0    0 -0.28084094049E+02 -0.13155672480E+02 -0.31080117882E+01  0.31168057274E+02  0.00000000000E+00 0.  1.
</event>
<event>
 7    1  0.9036454E-005  0.2808468E+03  0.7818608E-02  0.1190252E+00
          2   -1    0    0  502    0  0.00000000000E+00  0.00000000000E+00  0.13922421628E+04  0.13922421628E+04  0.00000000000E+00 0. -1.
          1   -1    0    0  501    0 -0.00000000000E+00 -0.00000000000E+00 -0.44926572624E+03  0.44926572624E+03  0.00000000000E+00 0. -1.
         25    2    1    2    0    0 -0.27214971628E+03  0.16382769923E+03  0.40807909404E+03  0.53203242080E+03  0.12499986676E+03 0.  0.
          2    1    1    2  501    0  0.11225324984E+02 -0.88892741993E+02 -0.36172535370E+03  0.37265689180E+03  0.00000000000E+00 0. -1.
          1    1    1    2  502    0  0.26092439129E+03 -0.74934957242E+02  0.89662269626E+03  0.93681857648E+03  0.00000000000E+00 0. -1.
         22    1    3    3    0    0 -0.68923470565E+02  0.39490122319E+02  0.29519410940E+02  0.84742611346E+02  0.00000000000E+00 0.  1.
         22    1    3    3    0    0 -0.20322624571E+03  0.12433757692E+03  0.37855968310E+03  0.44728980946E+03  0.00000000000E+00 0.  1.
</event>
<event>
 7    1  0.9036454E-005  0.5349553E+03  0.7818608E-02  0.1067910E+00
          2   -1    0    0  502    0  0.00000000000E+00  0.00000000000E+00  0.34610478726E+03  0.34610478726E+03  0.00000000000E+00 0. -1.
          1   -1    0    0  501    0 -0.00000000000E+00 -0.00000000000E+00 -0.20881876474E+04  0.20881876474E+04  0.00000000000E+00 0. -1.
         25    2    1    2    0    0  0.51254602247E+03 -0.11166322658E+03 -0.80418483708E+03  0.96825093627E+03  0.12499808829E+03 0.  0.
          2    1    1    2  501    0 -0.46324781248E+03  0.31866991496E+03 -0.10748151782E+04  0.12130031813E+04  0.00000000000E+00 0. -1.
          1    1    1    2  502    0 -0.49298209993E+02 -0.20700668838E+03  0.13691715516E+03  0.25303831710E+03  0.00000000000E+00 0. -1.
         22    1    3    3    0    0  0.26353468297E+03 -0.47590922839E+02 -0.29897484112E+03  0.40137436476E+03  0.00000000000E+00 0. -1.
         22    1    3    3    0    0  0.24901133950E+03 -0.64072303737E+02 -0.50520999596E+03  0.56687657151E+03  0.00000000000E+00 0. -1.
</event>
<event>
 7    1  0.9036454E-005  0.1474966E+03  0.7818608E-02  0.1359529E+00
          2   -1    0    0  502    0  0.00000000000E+00  0.00000000000E+00  0.27012832197E+03  0.27012832197E+03  0.00000000000E+00 0. -1.
          1   -1    0    0  501    0 -0.00000000000E+00 -0.00000000000E+00 -0.13016742504E+04  0.13016742504E+04  0.00000000000E+00 0. -1.
         25    2    1    2    0    0 -0.11506297479E+03 -0.94620728235E+02  0.22260854862E+03  0.29558714547E+03  0.12499849707E+03 0.  0.
          2    1    1    2  501    0  0.31932967214E+02 -0.97183315531E+01 -0.84913371108E+03  0.84978951492E+03  0.00000000000E+00 0. -1.
          1    1    1    2  502    0  0.83130007579E+02  0.10433905979E+03 -0.40502076600E+03  0.42642591203E+03  0.00000000000E+00 0. -1.
         22    1    3    3    0    0 -0.61073051763E+01 -0.62280285365E+02  0.24523504386E+02  0.67212613318E+02  0.00000000000E+00 0.  1.
         22    1    3    3    0    0 -0.10895566962E+03 -0.32340442870E+02  0.19808504423E+03  0.22837453215E+03  0.00000000000E+00 0.  1.
</event>
<event>
 7    1  0.9036454E-005  0.1784715E+03  0.7818608E-02  0.1182569E+00
          2   -1    0    0  502    0  0.00000000000E+00  0.00000000000E+00  0.90199143752E+03  0.90199143752E+03  0.00000000000E+00 0. -1.
          1   -1    0    0  501    0 -0.00000000000E+00 -0.00000000000E+00 -0.16112634072E+03  0.16112634072E+03  0.00000000000E+00 0. -1.
         25    2    1    2    0    0  0.29235239440E+03  0.76792990705E+02  0.45037895552E+03  0.55662634040E+03  0.12499837329E+03 0.  0.
          2    1    1    2  501    0 -0.16186264508E+03  0.41676036436E+01 -0.16984808725E+02  0.16280469440E+03  0.00000000000E+00 0. -1.
          1    1    1    2  502    0 -0.13048974932E+03 -0.80960594349E+02  0.30747095000E+03  0.34368674343E+03  0.00000000000E+00 0. -1.
         22    1    3    3    0    0  0.44856428997E+02 -0.29426908866E+02  0.45463891229E+02  0.70320747958E+02  0.00000000000E+00 0. -1.
         22    1    3    3    0    0  0.24749596540E+03  0.10621989957E+03  0.40491506429E+03  0.48630559245E+03  0.00000000000E+00 0. -1.
</event>
<event>
 7    1  0.9036454E-005  0.1106714E+03  0.7818608E-02  0.1281068E+00
          2   -1    0    0  502    0  0.00000000000E+00  0.00000000000E+00  0.29961092445E+04  0.29961092445E+04  0.00000000000E+00 0. -1.
          1   -1    0    0  501    0 -0.00000000000E+00 -0.00000000000E+00 -0.61261942467E+03  0.61261942467E+03  0.00000000000E+00 0. -1.
         25    2    1    2    0    0 -0.19102258729E+03  0.13043881711E+02  0.29856954087E+03  0.37607391648E+03  0.12501219227E+03 0.  0.
          2    1    1    2  501    0  0.10393113131E+03 -0.34507499254E+02 -0.56787792471E+03  0.57834054408E+03  0.00000000000E+00 0. -1.
          1    1    1    2  502    0  0.87091455982E+02  0.21463617543E+02  0.26527982037E+04  0.26543142086E+04  0.00000000000E+00 0. -1.
         22    1    3    3    0    0 -0.60282883307E+02  0.58262313774E+02  0.15791322475E+03  0.17878789047E+03  0.00000000000E+00 0. -1.
         22    1    3    3    0    0 -0.13073970398E+03 -0.45218432063E+02  0.14065631612E+03  0.19728602601E+03  0.00000000000E+00 0. -1.
</event>
<event>
 7    1  0.9036454E-005  0.1006254E+03  0.7818608E-02  0.1404747E+00
          2   -1    0    0  502    0  0.00000000000E+00  0.00000000000E+00  0.81607934687E+02  0.81607934687E+02  0.00000000000E+00 0. -1.
          1   -1    0    0  501    0 -0.00000000000E+00 -0.00000000000E+00 -0.52256375718E+03  0.52256375718E+03  0.00000000000E+00 0. -1.
         25    2    1    2    0    0 -0.30561770911E+02 -0.86650880941E+02 -0.42062696511E+02  0.16073664475E+03  0.12499840606E+03 0.  0.
          2    1    1    2  501    0  0.63725658409E+02  0.79753434593E+02 -0.39655114261E+03  0.40948062051E+03  0.00000000000E+00 0. -1.
          1    1    1    2  502    0 -0.33163887498E+02  0.68974463474E+01 -0.23419833728E+01  0.33954426607E+02  0.00000000000E+00 0. -1.
         22    1    3    3    0    0 -0.49450539305E+02 -0.99617580643E+02 -0.64585247497E+02  0.12860899037E+03  0.00000000000E+00 0.  1.
         22    1    3    3    0    0  0.18888768395E+02  0.12966699702E+02  0.22522550987E+02  0.32127654374E+02  0.00000000000E+00 0.  1.
</event>
<event>
 7    1  0.9036454E-005  0.2898742E+03  0.7818608E-02  0.1138871E+00
          2   -1    0    0  502    0  0.00000000000E+00  0.00000000000E+00  0.13656042374E+04  0.13656042374E+04  0.00000000000E+00 0. -1.
          1   -1    0    0  501    0 -0.00000000000E+00 -0.00000000000E+00 -0.10687059357E+04  0.10687059357E+04  0.00000000000E+00 0. -1.
         25    2    1    2    0    0  0.42060923915E+03  0.85104047650E+02 -0.30190332557E+02  0.44798532822E+03  0.12499826853E+03 0.  0.
          2    1    1    2  501    0 -0.27297726205E+03 -0.31218319982E+02 -0.80127301250E+03  0.84707119516E+03  0.00000000000E+00 0. -1.
          1    1    1    2  502    0 -0.14763197710E+03 -0.53885727668E+02  0.11283616469E+04  0.11392536497E+04  0.00000000000E+00 0. -1.
         22    1    3    3    0    0  0.42571507929E+03  0.84042034237E+02 -0.41119938886E+02  0.43587525925E+03  0.00000000000E+00 0.  1.
         22    1    3    3    0    0 -0.51058401358E+01  0.10620134135E+01  0.10929606329E+02  0.12110068971E+02  0.00000000000E+00 0.  1.
</event>
<event>
 7    1  0.9036454E-005  0.1708501E+03  0.7818608E-02  0.1208322E+00
          2   -1    0    0  502    0  0.00000000000E+00  0.00000000000E+00  0.75869598058E+03  0.75869598058E+03  0.00000000000E+00 0. -1.
          1   -1    0    0  501    0 -0.00000000000E+00 -0.00000000000E+00 -0.51776085349E+03  0.51776085349E+03  0.00000000000E+00 0. -1.
         25    2    1    2    0    0 -0.56193061996E+02 -0.11499949900E+03  0.13469520347E+03  0.22394120390E+03  0.12499727990E+03 0.  0.
          2    1    1    2  501    0  0.16599446222E+03  0.64133333899E+02 -0.44966253199E+03  0.48359449819E+03  0.00000000000E+00 0. -1.
          1    1    1    2  502    0 -0.10980140022E+03  0.50866165097E+02  0.55590245562E+03  0.56892113197E+03  0.00000000000E+00 0. -1.
         22    1    3    3    0    0  0.19965113303E+01 -0.11505680049E+03  0.11453396525E+03  0.16235788430E+03  0.00000000000E+00 0. -1.
         22    1    3    3    0    0 -0.58189573327E+02  0.57301498371E-01  0.20161238218E+02  0.61583319607E+02  0.00000000000E+00 0. -1.
</event>
<event>
 7    1  0.9036454E-005  0.4768700E+03  0.7818608E-02  0.1131118E+00
          2   -1    0    0  502    0  0.00000000000E+00  0.00000000000E+00  0.21065303095E+04  0.21065303095E+04  0.00000000000E+00 0. -1.
          1   -1    0    0  501    0 -0.00000000000E+00 -0.00000000000E+00 -0.75993537462E+03  0.75993537462E+03  0.00000000000E+00 0. -1.
         25    2    1    2    0    0 -0.23780910533E+03 -0.52578897991E+03 -0.45619772137E+03  0.74615739286E+03  0.12500908756E+03 0.  0.
          2    1    1    2  501    0  0.42979049726E+02  0.95783426945E+02 -0.10885525767E+03  0.15123204262E+03  0.00000000000E+00 0. -1.
          1    1    1    2  502    0  0.19483005560E+03  0.43000555296E+03  0.19116479139E+04  0.19690762486E+04  0.00000000000E+00 0. -1.
         22    1    3    3    0    0 -0.21029050501E+03 -0.49159452376E+03 -0.37249302944E+03  0.65164279269E+03  0.00000000000E+00 0. -1.
         22    1    3    3    0    0 -0.27518600319E+02 -0.34194456152E+02 -0.83704691926E+02  0.94514600171E+02  0.00000000000E+00 0. -1.
</event>
<event>
 7    1  0.9036454E-005  0.1377586E+03  0.7818608E-02  0.1247070E+00
          2   -1    0    0  502    0  0.00000000000E+00  0.00000000000E+00  0.26892839133E+03  0.26892839133E+03  0.00000000000E+00 0. -1.
          1   -1    0    0  501    0 -0.00000000000E+00 -0.00000000000E+00 -0.18736336054E+04  0.18736336054E+04  0.00000000000E+00 0. -1.
         25    2    1    2    0    0 -0.73455241621E+02 -0.16567052682E+03 -0.17092921789E+04  0.17234115689E+04  0.12500114782E+03 0.  0.
          2    1    1    2  501    0 -0.42205645548E+02  0.91132427153E+02 -0.11955649181E+03  0.15614157207E+03  0.00000000000E+00 0. -1.
          1    1    1    2  502    0  0.11566088717E+03  0.74538099665E+02  0.22414345657E+03  0.26300885583E+03  0.00000000000E+00 0. -1.
         22    1    3    3    0    0 -0.45718045309E+02 -0.15319638304E+03 -0.16395551609E+04  0.16473312955E+04  0.00000000000E+00 0.  1.
         22    1    3    3    0    0 -0.27737196313E+02 -0.12474143776E+02 -0.69737018013E+02  0.76080273419E+02  0.00000000000E+00 0.  1.
</event>
<event>
 7    1  0.9036454E-005  0.9568993E+03  0.7818608E-02  0.1048085E+00
          2   -1    0    0  502    0  0.00000000000E+00  0.00000000000E+00  0.30985063947E+04  0.30985063947E+04  0.00000000000E+00 0. -1.
          1   -1    0    0  501    0 -0.00000000000E+00 -0.00000000000E+00 -0.59639940914E+03  0.59639940914E+03  0.00000000000E+00 0. -1.
         25    2    1    2    0    0  0.49898887157E+02 -0.10079025445E+04  0.17634341596E+03  0.10320265723E+04  0.12499762972E+03 0.  0.
          2    1    1    2  501    0 -0.88886152905E+02  0.85564535772E+03  0.96379044428E+03  0.12918675423E+04  0.00000000000E+00 0. -1.
          1    1    1    2  502    0  0.38987265747E+02  0.15225718682E+03  0.13619731254E+04  0.13710116893E+04  0.00000000000E+00 0. -1.
         22    1    3    3    0    0 -0.62958521183E+01 -0.58520988681E+03  0.15332081609E+03  0.60499381982E+03  0.00000000000E+00 0.  1.
         22    1    3    3    0    0  0.56194739276E+02 -0.42269265773E+03  0.23022599873E+02  0.42703275252E+03  0.00000000000E+00 0.  1.
</event>
<event>
 7    1  0.9036454E-005  0.3589727E+03  0.7818608E-02  0.1177320E+00
          2   -1    0    0  502    0  0.00000000000E+00  0.00000000000E+00  0.30898377940E+04  0.30898377940E+04  0.00000000000E+00 0. -1.
          1   -1    0    0  501    0 -0.00000000000E+00 -0.00000000000E+00 -0.31850339652E+03  0.31850339652E+03  0.00000000000E+00 0. -1.
         25    2    1    2    0    0  0.29613998564E+03  0.16715748104E+03  0.41744225983E+02  0.36470302862E+03  0.12500081649E+03 0.  0.
          2    1    1    2  501    0 -0.29119127469E+02  0.75572716091E+02 -0.13444769980E+03  0.15695650029E+03  0.00000000000E+00 0. -1.
          1    1    1    2  502    0 -0.26702085817E+03 -0.24273019713E+03  0.28640378713E+04  0.28866816616E+04  0.00000000000E+00 0. -1.
         22    1    3    3    0    0  0.11505183778E+03  0.12285336686E+03 -0.17165857835E+02  0.16918788905E+03  0.00000000000E+00 0.  1.
         22    1    3    3    0    0  0.18108814785E+03  0.44304114177E+02  0.58910083817E+02  0.19551513957E+03  0.00000000000E+00 0.  1.
</event>
<event>
 7    1  0.9036454E-005  0.2476741E+03  0.7818608E-02  0.1219146E+00
          2   -1    0    0  502    0  0.00000000000E+00  0.00000000000E+00  0.51577268791E+02  0.51577268791E+02  0.00000000000E+00 0. -1.
          1   -1    0    0  501    0 -0.00000000000E+00 -0.00000000000E+00 -0.20574643836E+04  0.20574643836E+04  0.00000000000E+00 0. -1.
         25    2    1    2    0    0 -0.22540762552E+03  0.87849721338E+02 -0.11075407856E+04  0.11405252731E+04  0.12500054229E+03 0.  0.
          2    1    1    2  501    0 -0.27522692066E+02 -0.69142337445E+02 -0.42538026308E+03  0.43184086145E+03  0.00000000000E+00 0. -1.
          1    1    1    2  502    0  0.25293031758E+03 -0.18707383893E+02 -0.47296606615E+03  0.53667551788E+03  0.00000000000E+00 0. -1.
         22    1    3    3    0    0 -0.20634492945E+03  0.10008291107E+03 -0.10834606308E+04  0.11074663686E+04  0.00000000000E+00 0. -1.
         22    1    3    3    0    0 -0.19062696071E+02 -0.12233189730E+02 -0.24080154798E+02  0.33058904513E+02  0.00000000000E+00 0. -1.
</event>
<event>
 7    1  0.9036454E-005  0.4833530E+03  0.7818608E-02  0.1244074E+00
          2   -1    0    0  502    0  0.00000000000E+00  0.00000000000E+00  0.54706580295E+03  0.54706580295E+03  0.00000000000E+00 0. -1.
          1   -1    0    0  501    0 -0.00000000000E+00 -0.00000000000E+00 -0.74356038820E+03  0.74356038820E+03  0.00000000000E+00 0. -1.
         25    2    1    2    0    0 -0.43539297294E+03 -0.23047201927E+03  0.23151324840E+03  0.55848700178E+03  0.12499981768E+03 0.  0.
          2    1    1    2  501    0  0.25013051868E+02  0.15638957315E+02 -0.22409978433E+03  0.22603305751E+03  0.00000000000E+00 0. -1.
          1    1    1    2  502    0  0.41037992107E+03  0.21483306195E+03 -0.20390804932E+03  0.50610613186E+03  0.00000000000E+00 0. -1.
         22    1    3    3    0    0 -0.12244651858E+03 -0.34994498453E+02  0.11488726240E+03  0.17151340443E+03  0.00000000000E+00 0.  1.
         22    1    3    3    0    0 -0.31294645436E+03 -0.19547752082E+03  0.11662598600E+03  0.38697359735E+03  0.00000000000E+00 0.  1.
</event>
<event>
 7    1  0.9036454E-005  0.1263462E+03  0.7818608E-02  0.1237664E+00
          2   -1    0    0  502    0  0.00000000000E+00  0.00000000000E+00  0.87844482504E+03  0.87844482504E+03  0.00000000000E+00 0. -1.
          1   -1    0    0  501    0 -0.00000000000E+00 -0.00000000000E+00 -0.97534766191E+03  0.97534766191E+03  0.00000000000E+00 0. -1.
         25    2    1    2    0    0  0.45337025038E+02 -0.13440551918E+03  0.27264522139E+03  0.33178420903E+03  0.12500022077E+03 0.  0.
          2    1    1    2  501    0  0.77363670727E+02  0.99891046526E+02 -0.93442550955E+03  0.94292862489E+03  0.00000000000E+00 0. -1.
          1    1    1    2  502    0 -0.12270069577E+03  0.34514472653E+02  0.56487745130E+03  0.57907965302E+03  0.00000000000E+00 0. -1.
         22    1    3    3    0    0  0.19098159244E+02 -0.12985391079E+03  0.27533473563E+03  0.30501802320E+03  0.00000000000E+00 0. -1.
         22    1    3    3    0    0  0.26238865794E+02 -0.45516083848E+01 -0.26895142383E+01  0.26766185830E+02  0.00000000000E+00 0. -1.
</event>
<event>
 7    1  0.9036454E-005  0.2640782E+03  0.7818608E-02  0.1106822E+00
          2   -1    0    0  502    0  0.00000000000E+00  0.00000000000E+00  0.52242810501E+03  0.52242810501E+03  0.00000000000E+00 0. -1.
          1   -1    0    0  501    0 -0.00000000000E+00 -0.00000000000E+00 -0.52056100987E+03  0.52056100987E+03  0.00000000000E+00 0. -1.
         25    2    1    2    0    0  0.26088259826E+03  0.70960122860E+02  0.12102286084E+03  0.32150620568E+03  0.12499855332E+03 0.  0.
          2    1    1    2  501    0 -0.15349527752E+03  0.21488722286E+03 -0.27277708712E+03  0.37966387506E+03  0.00000000000E+00 0. -1.
          1    1    1    2  502    0 -0.10738732074E+03 -0.28584734572E+03  0.15362132142E+03  0.34181903415E+03  0.00000000000E+00 0. -1.
         22    1    3    3    0    0  0.19078030360E+03 -0.86783649340E+01  0.66539359076E+02  0.20223729766E+03  0.00000000000E+00 0. -1.
         22    1    3    3    0    0  0.70102294660E+02  0.79638487794E+02  0.54483501764E+02  0.11926890801E+03  0.00000000000E+00 0. -1.
</event>
<event>
 7    1  0.9036454E-005  0.9322883E+02  0.7818608E-02  0.1322645E+00
          2   -1    0    0  502    0  0.00000000000E+00  0.00000000000E+00  0.69125680890E+03  0.69125680890E+03  0.00000000000E+00 0. -1.
          1   -1    0    0  501    0 -0.00000000000E+00 -0.00000000000E+00 -0.14129771330E+03  0.14129771330E+03  0.00000000000E+00 0. -1.
         25    2    1    2    0    0 -0.10649673849E+03 -0.55964833130E+02  0.98158176742E+02  0.19933359736E+03  0.12500095007E+03 0.  0.
          2    1    1    2  501    0  0.67016544331E+02 -0.28061323333E+02 -0.71388903131E+02  0.10185789401E+03  0.00000000000E+00 0. -1.
          1    1    1    2  502    0  0.39480194158E+02  0.84026156463E+02  0.52318982199E+03  0.53136303083E+03  0.00000000000E+00 0. -1.
         22    1    3    3    0    0  0.28234909432E+02 -0.18085587035E+02  0.19538072806E+02  0.38807664939E+02  0.00000000000E+00 0. -1.
         22    1    3    3    0    0 -0.13473164792E+03 -0.37879246094E+02  0.78620103937E+02  0.16052593242E+03  0.00000000000E+00 0. -1.
</event>
<event>
 7    1  0.9036454E-005  0.4027699E+03  0.7818608E-02  0.1186018E+00
          2   -1    0    0  502    0  0.00000000000E+00  0.00000000000E+00  0.32653305870E+04  0.32653305870E+04  0.00000000000E+00 0. -1.
          1   -1    0    0  501    0 -0.00000000000E+00 -0.00000000000E+00 -0.92775037545E+02  0.92775037545E+02  0.00000000000E+00 0. -1.
         25    2    1    2    0    0 -0.12996402440E+02 -0.41638892650E+03  0.93715747827E+03  0.10331687702E+04  0.12499969606E+03 0.  0.
          2    1    1    2  501    0  0.71079396330E+02  0.38616133150E+03  0.83185369723E+03  0.91986598379E+03  0.00000000000E+00 0. -1.
          1    1    1    2  502    0 -0.58082993890E+02  0.30227595003E+02  0.14035443739E+04  0.14050708706E+04  0.00000000000E+00 0. -1.
         22    1    3    3    0    0  0.67268814977E+01 -0.19346090128E+03  0.29236614208E+03  0.35064274168E+03  0.00000000000E+00 0. -1.
         22    1    3    3    0    0 -0.19723283938E+02 -0.22292802523E+03  0.64479133619E+03  0.68252602851E+03  0.00000000000E+00 0. -1.
</event>
<event>
 7    1  0.9036454E-005  0.1292072E+03  0.7818608E-02  0.1319689E+00
          2   -1    0    0  502    0  0.00000000000E+00  0.00000000000E+00  0.22297661139E+03  0.22297661139E+03  0.00000000000E+00 0. -1.
          1   -1    0    0  501    0 -0.00000000000E+00 -0.00000000000E+00 -0.74778414566E+03  0.74778414566E+03  0.00000000000E+00 0. -1.
         25    2    1    2    0    0 -0.20320255797E+02 -0.17509084382E+03 -0.11593433065E+03  0.24522507628E+03  0.12499941051E+03 0.  0.
          2    1    1    2  501    0 -0.46467525946E-02  0.53823807219E+02 -0.54179610682E+03  0.54446305991E+03  0.00000000000E+00 0. -1.
          1    1    1    2  502    0  0.20324902550E+02  0.12126703660E+03  0.13292290320E+03  0.18107262086E+03  0.00000000000E+00 0. -1.
         22    1    3    3    0    0  0.31752771086E+02 -0.15845830326E+02 -0.57911566028E+02  0.67919645834E+02  0.00000000000E+00 0.  1.
         22    1    3    3    0    0 -0.52073026883E+02 -0.15924501349E+03 -0.58022764623E+02  0.17730543045E+03  0.00000000000E+00 0.  1.
</event>
<event>
 7    1  0.9036454E-005  0.3683438E+03  0.7818608E-02  0.1096767E+00
          2   -1    0    0  502    0  0.00000000000E+00  0.00000000000E+00  0.11794806046E+04  0.11794806046E+04  0.00000000000E+00 0. -1.
          1   -1    0    0  501    0 -0.00000000000E+00 -0.00000000000E+00 -0.32412402010E+03  0.32412402010E+03  0.00000000000E+00 0. -1.
         25    2    1    2    0    0 -0.43851826317E+03 -0.10043206202E+03  0.20904345384E+02  0.46738392463E+03  0.12500350047E+03 0.  0.
          2    1    1    2  501    0  0.29180110201E+03 -0.49631554068E+02  0.17427220998E+03  0.34348504693E+03  0.00000000000E+00 0. -1.
          1    1    1    2  502    0  0.14671716115E+03  0.15006361609E+03  0.66018002912E+03  0.69273565312E+03  0.00000000000E+00 0. -1.
         22    1    3    3    0    0 -0.38371829480E+03 -0.40775842525E+02  0.15207312085E+02  0.38617827676E+03  0.00000000000E+00 0.  1.
         22    1    3    3    0    0 -0.54799968368E+02 -0.59656219495E+02  0.56970332990E+01  0.81205647870E+02  0.00000000000E+00 0.  1.
</event>
<event>
 7    1  0.9036454E-005  0.1390756E+03  0.7818608E-02  0.1298345E+00
          2   -1    0    0  502    0  0.00000000000E+00  0.00000000000E+00  0.67571982682E+03  0.67571982682E+03  0.00000000000E+00 0. -1.
          1   -1    0    0  501    0 -0.00000000000E+00 -0.00000000000E+00 -0.69310441764E+02  0.69310441764E+02  0.00000000000E+00 0. -1.
         25    2    1    2    0    0  0.86896514094E+02 -0.69180508335E+02  0.17804204482E+03  0.24425590992E+03  0.12500013164E+03 0.  0.
          2    1    1    2  501    0 -0.11660171842E+03  0.12212643255E+03  0.18727677530E+03  0.25215752385E+03  0.00000000000E+00 0. -1.
          1    1    1    2  502    0  0.29705204323E+02 -0.52945924218E+02  0.24109056493E+03  0.24861683481E+03  0.00000000000E+00 0. -1.
         22    1    3    3    0    0  0.26304529147E+02 -0.96894792857E+02  0.10132240419E+03  0.14264206507E+03  0.00000000000E+00 0.  1.
         22    1    3    3    0    0  0.60591984947E+02  0.27714284522E+02  0.76719640638E+02  0.10161384485E+03  0.00000000000E+00 0.  1.
</event>
<event>
 7    1  0.9036454E-005  0.3061721E+03  0.7818608E-02  0.1113789E+00
          2   -1    0    0  502    0  0.00000000000E+00  0.00000000000E+00  0.61462428899E+03  0.61462428899E+03  0.00000000000E+00 0. -1.
          1   -1    0    0  501    0 -0.00000000000E+00 -0.00000000000E+00 -0.49237224842E+03  0.49237224842E+03  0.00000000000E+00 0. -1.
         25    2    1    2    0    0 -0.34915627174E+03  0.10254547205E+03  0.21233665708E+03  0.43947265765E+03  0.12499473966E+03 0.  0.
          2    1    1    2  501    0  0.19470430897E+03 -0.23410566372E+03 -0.26192232739E+03  0.40164478747E+03  0.00000000000E+00 0. -1.
          1    1    1    2  502    0  0.15445196277E+03  0.13156019167E+03  0.17183771088E+03  0.26587909229E+03  0.00000000000E+00 0. -1.
         22    1    3    3    0    0 -0.32145748215E+03  0.96168091284E+02  0.22927320035E+03  0.40638579578E+03  0.00000000000E+00 0. -1.
         22    1    3    3    0    0 -0.27698789593E+02  0.63773807639E+01 -0.16936543268E+02  0.33086861867E+02  0.00000000000E+00 0. -1.
</event>
<event>
 7    1  0.9036454E-005  0.2033271E+03  0.7818608E-02  0.1207253E+00
          2   -1    0    0  502    0  0.00000000000E+00  0.00000000000E+00  0.87240646454E+03  0.87240646454E+03  0.00000000000E+00 0. -1.
          1   -1    0    0  501    0 -0.00000000000E+00 -0.00000000000E+00 -0.20303665297E+03  0.20303665297E+03  0.00000000000E+00 0. -1.
         25    2    1    2    0    0 -0.13511650081E+03 -0.10590217841E+03  0.47011514619E+03  0.51583999051E+03  0.12494360706E+03 0.  0.
          2    1    1    2  501    0  0.81384037334E+02  0.19360489146E+03 -0.10759641755E+03  0.23597288954E+03  0.00000000000E+00 0. -1.
          1    1    1    2  502    0  0.53732463480E+02 -0.87702713050E+02  0.30685108292E+03  0.32363023746E+03  0.00000000000E+00 0. -1.
         22    1    3    3    0    0  0.19469479145E+01  0.19496897232E+02  0.97890099028E+02  0.99831814046E+02  0.00000000000E+00 0.  1.
         22    1    3    3    0    0 -0.13706344873E+03 -0.12539907564E+03  0.37222504717E+03  0.41600817647E+03  0.00000000000E+00 0.  1.
</event>
<event>
 7    1  0.9036454E-005  0.2854185E+03  0.7818608E-02  0.1118648E+00
          2   -1    0    0  502    0  0.00000000000E+00  0.00000000000E+00  0.19883824974E+04  0.19883824974E+04  0.00000000000E+00 0. -1.
          1   -1    0    0  501    0 -0.00000000000E+00 -0.00000000000E+00 -0.98481930730E+02  0.98481930730E+02  0.00000000000E+00 0. -1.
         25    2    1    2    0    0 -0.24298476256E+03  0.88118922953E+02  0.57542876782E+03  0.64307846564E+03  0.12500042684E+03 0.  0.
          2    1    1    2  501    0  0.22060882462E+03 -0.29161614336E+03  0.10324608263E+04  0.10953006831E+04  0.00000000000E+00 0. -1.
          1    1    1    2  502    0  0.22375937940E+02  0.20349722041E+03  0.28201097255E+03  0.34848527939E+03  0.00000000000E+00 0. -1.
         22    1    3    3    0    0 -0.25620051128E+03  0.87490129977E+02  0.56393522900E+03  0.62555268949E+03  0.00000000000E+00 0.  1.
         22    1    3    3    0    0  0.13215748722E+02  0.62879297631E+00  0.11493538829E+02  0.17525776151E+02  0.00000000000E+00 0.  1.
</event>
<event>
 7    1  0.9036454E-005  0.1480826E+03  0.7818608E-02  0.1339104E+00
          2   -1    0    0  502    0  0.00000000000E+00  0.00000000000E+00  0.11696578204E+03  0.11696578204E+03  0.00000000000E+00 0. -1.
          1   -1    0    0  501    0 -0.00000000000E+00 -0.00000000000E+00 -0.17454392055E+04  0.17454392055E+04  0.00000000000E+00 0. -1.
         25    2    1    2    0    0  0.17847094349E+03  0.30839630056E+02 -0.15563339267E+04  0.15718135660E+04  0.12497853573E+03 0.  0.
          2    1    1    2  501    0 -0.37760251439E+02  0.11874467452E+02 -0.12747066089E+03  0.13347512485E+03  0.00000000000E+00 0. -1.
          1    1    1    2  502    0 -0.14071069205E+03 -0.42714097508E+02  0.55331164086E+02  0.15711629674E+03  0.00000000000E+00 0. -1.
         22    1    3    3    0    0  0.28009984762E+02  0.29515607934E+02 -0.10354305327E+03  0.11125149095E+03  0.00000000000E+00 0. -1.
         22    1    3    3    0    0  0.15046095872E+03  0.13240221214E+01 -0.14527908734E+04  0.14605620750E+04  0.00000000000E+00 0. -1.
</event>
<event>
 7    1  0.9036454E-005  0.4780955E+03  0.7818608E-02  0.1196513E+00
          2   -1    0    0  502    0  0.00000000000E+00  0.00000000000E+00  0.24743749759E+04  0.24743749759E+04  0.00000000000E+00 0. -1.
          1   -1    0    0  501    0 -0.00000000000E+00 -0.00000000000E+00 -0.29840141725E+03  0.29840141725E+03  0.00000000000E+00 0. -1.
         25    2    1    2    0    0  0.22997563138E+03  0.41820396162E+03  0.18101383655E+04  0.18761688111E+04  0.12500064273E+03 0.  0.
          2    1    1    2  501    0 -0.41798063200E+02  0.25830237584E+02 -0.16926588010E+03  0.17625327636E+03  0.00000000000E+00 0. -1.
          1    1    1    2  502    0 -0.18817756818E+03 -0.44403419920E+03  0.53510107327E+03  0.72035430577E+03  0.00000000000E+00 0. -1.
         22    1    3    3    0    0  0.21899972683E+03  0.31692397858E+03  0.12963198476E+04  0.13523486369E+04  0.00000000000E+00 0.  1.
         22    1    3    3    0    0  0.10975904542E+02  0.10127998304E+03  0.51381851795E+03  0.52382017414E+03  0.00000000000E+00 0.  1.
</event>
<event>
 7    1  0.9036454E-005  0.3349816E+03  0.7818608E-02  0.1083237E+00
          2   -1    0    0  502    0  0.00000000000E+00  0.00000000000E+00  0.42145085904E+03  0.42145085904E+03  0.00000000000E+00 0. -1.
          1   -1    0    0  501    0 -0.00000000000E+00 -0.00000000000E+00 -0.10154397671E+04  0.10154397671E+04  0.00000000000E+00 0. -1.
         25    2    1    2    0    0  0.31590675372E+03 -0.31875150034E+03 -0.32524591191E+03  0.56816324178E+03  0.12499988030E+03 0.  0.
          2    1    1    2  501    0  0.68100009392E+01  0.27587648574E+03 -0.42569416429E+03  0.50731620614E+03  0.00000000000E+00 0. -1.
          1    1    1    2  502    0 -0.32271675466E+03  0.42875014599E+02  0.15695116809E+03  0.36141117827E+03  0.00000000000E+00 0. -1.
         22    1    3    3    0    0  0.19199492052E+03 -0.23729180698E+03 -0.15482302523E+03  0.34225665853E+03  0.00000000000E+00 0. -1.
         22    1    3    3    0    0  0.12391183319E+03 -0.81459693361E+02 -0.17042288668E+03  0.22590658325E+03  0.00000000000E+00 0. -1.
</event>
<event>
 7    1  0.9036454E-005  0.4544810E+03  0.7818608E-02  0.1096935E+00
          2   -1    0    0  502    0  0.00000000000E+00  0.00000000000E+00  0.12845417377E+04  0.12845417377E+04  0.00000000000E+00 0. -1.
          1   -1    0    0  501    0 -0.00000000000E+00 -0.00000000000E+00 -0.29884679544E+03  0.29884679544E+03  0.00000000000E+00 0. -1.
         25    2    1    2    0    0 -0.31779547644E+03  0.20636903236E+03  0.21540088696E+02  0.39958923285E+03  0.12500174890E+03 0.  0.
          2    1    1    2  501    0 -0.66754834568E+01  0.16958747164E+03  0.38584343641E+03  0.42152061639E+03  0.00000000000E+00 0. -1.
          1    1    1    2  502    0  0.32447095989E+03 -0.37595650400E+03  0.57831141711E+03  0.76227868386E+03  0.00000000000E+00 0. -1.
         22    1    3    3    0    0 -0.31304869558E+02  0.26129748992E+01 -0.30990836731E+02  0.44127706231E+02  0.00000000000E+00 0. -1.
         22    1    3    3    0    0 -0.28649060688E+03  0.20375605746E+03  0.52530925427E+02  0.35546152662E+03  0.00000000000E+00 0. -1.
</event>
<event>
 7    1  0.9036454E-005  0.3685063E+03  0.7818608E-02  0.1218269E+00
          2   -1    0    0  502    0  0.00000000000E+00  0.00000000000E+00  0.11599351169E+04  0.11599351169E+04  0.00000000000E+00 0. -1.
          1   -1    0    0  501    0 -0.00000000000E+00 -0.00000000000E+00 -0.45797899091E+04  0.45797899091E+04  0.00000000000E+00 0. -1.
         25    2    1    2    0    0 -0.97389035273E+02 -0.34673316486E+03 -0.30735582721E+04  0.30971104321E+04  0.12499625945E+03 0.  0.
          2    1    1    2  501    0  0.14625426774E+03  0.35940204826E+03 -0.14686922198E+04  0.15190842569E+04  0.00000000000E+00 0. -1.
          1    1    1    2  502    0 -0.48865232470E+02 -0.12668883399E+02  0.11223956997E+04  0.11235303370E+04  0.00000000000E+00 0. -1.
         22    1    3    3    0    0 -0.31242228956E+02 -0.15955694684E+03 -0.18937634402E+04  0.19007299818E+04  0.00000000000E+00 0. -1.
         22    1    3    3    0    0 -0.66146806316E+02 -0.18717621802E+03 -0.11797948318E+04  0.11963804503E+04  0.00000000000E+00 0. -1.
</event>
<event>
 7    1  0.9036454E-005  0.1154033E+03  0.7818608E-02  0.1381691E+00
          2   -1    0    0  502    0  0.00000000000E+00  0.00000000000E+00  0.46161713770E+03  0.46161713770E+03  0.00000000000E+00 0. -1.
          1   -1    0    0  501    0 -0.00000000000E+00 -0.00000000000E+00 -0.30889048171E+03  0.30889048171E+03  0.00000000000E+00 0. -1.
         25    2    1    2    0    0 -0.10148936328E+03 -0.61913159604E+02 -0.64693520956E+02  0.18423767612E+03  0.12499975782E+03 0.  0.
          2    1    1    2  501    0  0.11215219466E+03  0.28034847733E+02 -0.16540590855E+03  0.20179985639E+03  0.00000000000E+00 0. -1.
          1    1    1    2  502    0 -0.10662831373E+02  0.33878311871E+02  0.38282608549E+03  0.38447008690E+03  0.00000000000E+00 0. -1.
         22    1    3    3    0    0 -0.61885571718E+02 -0.84718494461E+02 -0.84223802680E+02  0.13453882796E+03  0.00000000000E+00 0.  1.
         22    1    3    3    0    0 -0.39603791566E+02  0.22805334857E+02  0.19530281723E+02  0.49698848161E+02  0.00000000000E+00 0.  1.
</event>
<event>
 7    1  0.9036454E-005  0.4782496E+03  0.7818608E-02  0.1212060E+00
          2   -1    0    0  502    0  0.00000000000E+00  0.00000000000E+00  0.44812660873E+03  0.44812660873E+03  0.00000000000E+00 0. -1.
          1   -1    0    0  501    0 -0.00000000000E+00 -0.00000000000E+00 -0.58719374673E+03  0.58719374673E+03  0.00000000000E+00 0. -1.
         25    2    1    2    0    0  0.47910687498E+03 -0.30846465656E+02 -0.78227203749E+02  0.50223167753E+03  0.12498904116E+03 0.  0.
          2    1    1    2  501    0 -0.47195245084E+03  0.71764961889E+02 -0.85218340350E+02  0.48492421175E+03  0.00000000000E+00 0. -1.
          1    1    1    2  502    0 -0.71544241442E+01 -0.40918496233E+02  0.24378406091E+02  0.48164466179E+02  0.00000000000E+00 0. -1.
         22    1    3    3    0    0  0.37882638425E+03 -0.75363168624E+02 -0.56054254948E+02  0.39029619021E+03  0.00000000000E+00 0. -1.
         22    1    3    3    0    0  0.10028049073E+03  0.44516702968E+02 -0.22172948801E+02  0.11193548733E+03  0.00000000000E+00 0. -1.
</event>
<event>
 7    1  0.9036454E-005  0.1282761E+03  0.7818608E-02  0.1286926E+00
          2   -1    0    0  502    0  0.00000000000E+00  0.00000000000E+00  0.12247524507E+04  0.12247524507E+04  0.00000000000E+00 0. -1.
          1   -1    0    0  501    0 -0.00000000000E+00 -0.00000000000E+00 -0.70864121450E+03  0.70864121450E+03  0.00000000000E+00 0. -1.
         25    2    1    2    0    0  0.16502434682E+03 -0.98764801078E+02  0.21778218874E+03  0.31629373393E+03  0.12500049368E+03 0.  0.
          2    1    1    2  501    0 -0.92838709557E+02  0.86517827006E+02 -0.65185819138E+03  0.66409597353E+03  0.00000000000E+00 0. -1.
          1    1    1    2  502    0 -0.72185637265E+02  0.12246974072E+02  0.95018723886E+03  0.95300395775E+03  0.00000000000E+00 0. -1.
         22    1    3    3    0    0  0.17954203009E+03 -0.10767115773E+03  0.18513048707E+03  0.27946684243E+03  0.00000000000E+00 0. -1.
         22    1    3    3    0    0 -0.14517683265E+02  0.89063566516E+01  0.32651701670E+02  0.36826891508E+02  0.00000000000E+00 0. -1.
</event>
<event>
 7    1  0.9036454E-005  0.8494551E+03  0.7818608E-02  0.1077738E+00
          2   -1    0    0  502    0  0.00000000000E+00  0.00000000000E+00  0.15856959100E+04  0.15856959100E+04  0.00000000000E+00 0. -1.
          1   -1    0    0  501    0 -0.00000000000E+00 -0.00000000000E+00 -0.10977198628E+04  0.10977198628E+04  0.00000000000E+00 0. -1.
         25    2    1    2    0    0  0.59051237849E+03 -0.59387756975E+03  0.93094986946E+03  0.12584495961E+04  0.12502915474E+03 0.  0.
          2    1    1    2  501    0  0.10600462789E+03  0.49948753480E+02 -0.52454095479E+03  0.53747099676E+03  0.00000000000E+00 0. -1.
          1    1    1    2  502    0 -0.69651700638E+03  0.54392881627E+03  0.81567132533E+02  0.88749517996E+03  0.00000000000E+00 0. -1.
         22    1    3    3    0    0  0.38800195102E+03 -0.39636898097E+03  0.70100266980E+03  0.89390079211E+03  0.00000000000E+00 0. -1.
         22    1    3    3    0    0  0.20251042747E+03 -0.19750858878E+03  0.22994719967E+03  0.36454880402E+03  0.00000000000E+00 0. -1.
</event>
<event>
 7    1  0.9036454E-005  0.1325520E+03  0.7818608E-02  0.1393754E+00
          2   -1    0    0  502    0  0.00000000000E+00  0.00000000000E+00  0.19942865461E+04  0.19942865461E+04  0.00000000000E+00 0. -1.
          1   -1    0    0  501    0 -0.00000000000E+00 -0.00000000000E+00 -0.16140707517E+03  0.16140707517E+03  0.00000000000E+00 0. -1.
         25    2    1    2    0    0 -0.11158847886E+03  0.12163669088E+02  0.14760925576E+03  0.22363226479E+03  0.12499181577E+03 0.  0.
          2    1    1    2  501    0 -0.22272903388E+02 -0.17060196461E+02 -0.11928574105E+03  0.12254068935E+03  0.00000000000E+00 0. -1.
          1    1    1    2  502    0  0.13386138225E+03  0.48965273726E+01  0.18045559562E+04  0.18095206671E+04  0.00000000000E+00 0. -1.
         22    1    3    3    0    0 -0.81647511548E+02  0.66617392389E+02  0.10088891088E+03  0.14588613865E+03  0.00000000000E+00 0.  1.
         22    1    3    3    0    0 -0.29940967312E+02 -0.54453723301E+02  0.46720344875E+02  0.77746126142E+02  0.00000000000E+00 0.  1.
</event>
<event>
 7    1  0.9036454E-005  0.2793896E+03  0.7818608E-02  0.1153236E+00
          2   -1    0    0  502    0  0.00000000000E+00  0.00000000000E+00  0.25822404062E+03  0.25822404062E+03  0.00000000000E+00 0. -1.
          1   -1    0    0  501    0 -0.00000000000E+00 -0.00000000000E+00 -0.18909471325E+04  0.18909471325E+04  0.00000000000E+00 0. -1.
         25    2    1    2    0    0  0.28838552227E+03 -0.13252511154E+03 -0.12659287701E+03  0.36383537008E+03  0.12498522060E+03 0.  0.
          2    1    1    2  501    0 -0.17788146566E+03  0.21413658613E+03 -0.15967043138E+04  0.16207902267E+04  0.00000000000E+00 0. -1.
          1    1    1    2  502    0 -0.11050405661E+03 -0.81611474586E+02  0.90574098880E+02  0.16454557636E+03  0.00000000000E+00 0. -1.
         22    1    3    3    0    0  0.95972191975E+02  0.16653423933E+02 -0.30220712228E+02  0.10198671290E+03  0.00000000000E+00 0.  1.
         22    1    3    3    0    0  0.19241333030E+03 -0.14917853547E+03 -0.96372164783E+02  0.26184865718E+03  0.00000000000E+00 0.  1.
</event>
<event>
 7    1  0.9036454E-005  0.1851286E+03  0.7818608E-02  0.1255408E+00
          2   -1    0    0  502    0  0.00000000000E+00  0.00000000000E+00  0.77642875986E+03  0.77642875986E+03  0.00000000000E+00 0. -1.
          1   -1    0    0  501    0 -0.00000000000E+00 -0.00000000000E+00 -0.84485579637E+03  0.84485579637E+03  0.00000000000E+00 0. -1.
         25    2    1    2    0    0  0.13455643241E+03  0.20276147576E+03  0.77659461773E+02  0.28438283443E+03  0.12499981986E+03 0.  0.
          2    1    1    2  501    0 -0.12127534166E+03 -0.13528377915E+03 -0.72831048388E+03  0.75063011552E+03  0.00000000000E+00 0. -1.
          1    1    1    2  502    0 -0.13281090748E+02 -0.67477696608E+02  0.58222398560E+03  0.58627160627E+03  0.00000000000E+00 0. -1.
         22    1    3    3    0    0  0.15690347651E+03  0.19046937246E+03  0.61959229921E+02  0.25443315224E+03  0.00000000000E+00 0. -1.
         22    1    3    3    0    0 -0.22347044100E+02  0.12292103298E+02  0.15700231852E+02  0.29949682197E+02  0.00000000000E+00 0. -1.
</event>
<event>
 7    1  0.9036454E-005  0.1888367E+03  0.7818608E-02  0.1222377E+00
          2   -1    0    0  502    0  0.00000000000E+00  0.00000000000E+00  0.54586882011E+03  0.54586882011E+03  0.00000000000E+00 0. -1.
          1   -1    0    0  501    0 -0.00000000000E+00 -0.00000000000E+00 -0.55349033041E+03  0.55349033041E+03  0.00000000000E+00 0. -1.
         25    2    1    2    0    0 -0.12072077649E+03  0.83969433787E+02 -0.38879018973E+03  0.43405924289E+03  0.12500097205E+03 0.  0.
          2    1    1    2  501    0 -0.69650114985E+02 -0.63653339845E+02 -0.10597052515E+03  0.14188952883E+03  0.00000000000E+00 0. -1.
          1    1    1    2  502    0  0.19037089148E+03 -0.20316093942E+02  0.48713920459E+03  0.52341037881E+03  0.00000000000E+00 0. -1.
         22    1    3    3    0    0 -0.12618627169E+03  0.37361984757E+02 -0.34738528309E+03  0.37147735863E+03  0.00000000000E+00 0. -1.
         22    1    3    3    0    0  0.54654951917E+01  0.46607449029E+02 -0.41404906642E+02  0.62581884254E+02  0.00000000000E+00 0. -1.
</event>
<event>
 7    1  0.9036454E-005  0.4527030E+03  0.7818608E-02  0.1087019E+00
          2   -1    0    0  502    0  0.00000000000E+00  0.00000000000E+00  0.13238527269E+04  0.13238527269E+04  0.00000000000E+00 0. -1.
          1   -1    0    0  501    0 -0.00000000000E+00 -0.00000000000E+00 -0.49965204235E+03  0.49965204235E+03  0.00000000000E+00 0. -1.
         25    2    1    2    0    0  0.18476896130E+03  0.45828247739E+03  0.79902971369E+03  0.94775249290E+03  0.12499562516E+03 0.  0.
          2    1    1    2  501    0 -0.18939758574E+03 -0.42710357119E+02 -0.29359400806E+03  0.35198446224E+03  0.00000000000E+00 0. -1.
          1    1    1    2  502    0  0.46286244346E+01 -0.41557212027E+03  0.31876497895E+03  0.52376781412E+03  0.00000000000E+00 0. -1.
         22    1    3    3    0    0  0.13649673768E+03  0.28430341960E+03  0.39683556932E+03  0.50689078002E+03  0.00000000000E+00 0. -1.
         22    1    3    3    0    0  0.48272223628E+02  0.17397905779E+03  0.40219414437E+03  0.44086171288E+03  0.00000000000E+00 0. -1.
</event>
<event>
 7    1  0.9036454E-005  0.2775737E+03  0.7818608E-02  0.1181907E+00
          2   -1    0    0  502    0  0.00000000000E+00  0.00000000000E+00  0.25059262361E+03  0.25059262361E+03  0.00000000000E+00 0. -1.
          1   -1    0    0  501    0 -0.00000000000E+00 -0.00000000000E+00 -0.41906753804E+04  0.41906753804E+04  0.00000000000E+00 0. -1.
         25    2    1    2    0    0  0.26634832872E+03 -0.10770590747E+03 -0.27686952731E+04  0.27863668326E+04  0.12499846254E+03 0.  0.
          2    1    1    2  501    0  0.11298345910E+02  0.98828674189E+02 -0.13308732083E+04  0.13345854248E+04  0.00000000000E+00 0. -1.
          1    1    1    2  502    0 -0.27764667463E+03  0.88772332835E+01  0.15948572461E+03  0.32031574666E+03  0.00000000000E+00 0. -1.
         22    1    3    3    0    0  0.17370457690E+03 -0.45397673274E+02 -0.21652000831E+04  0.21726310383E+04  0.00000000000E+00 0.  1.
         22    1    3    3    0    0  0.92643751817E+02 -0.62308234198E+02 -0.60349518996E+03  0.61373579422E+03  0.00000000000E+00 0.  1.
</event>
<event>
 7    1  0.9036454E-005  0.1739268E+03  0.7818608E-02  0.1231182E+00
          2   -1    0    0  502    0  0.00000000000E+00  0.00000000000E+00  0.12958896564E+04  0.12958896564E+04  0.00000000000E+00 0. -1.
          1   -1    0    0  501    0 -0.00000000000E+00 -0.00000000000E+00 -0.14179819110E+03  0.14179819110E+03  0.00000000000E+00 0. -1.
         25    2    1    2    0    0 -0.41122121588E+02  0.16952772080E+03  0.74083402448E+03  0.77129091332E+03  0.12499577647E+03 0.  0.
          2    1    1    2  501    0 -0.86894521934E+02 -0.34507842028E+02 -0.90043884839E+02  0.12980504728E+03  0.00000000000E+00 0. -1.
          1    1    1    2  502    0  0.12801664352E+03 -0.13501987877E+03  0.50330132567E+03  0.53659188691E+03  0.00000000000E+00 0. -1.
         22    1    3    3    0    0  0.31432852729E+02  0.36369290353E+02  0.80428367560E+02  0.93698835744E+02  0.00000000000E+00 0. -1.
         22    1    3    3    0    0 -0.72554974318E+02  0.13315843045E+03  0.66040565692E+03  0.67759207758E+03  0.00000000000E+00 0. -1.
</event>
<event>
 7    1  0.9036454E-005  0.1490456E+03  0.7818608E-02  0.1275317E+00
          2   -1    0    0  502    0  0.00000000000E+00  0.00000000000E+00  0.58954231259E+03  0.58954231259E+03  0.00000000000E+00 0. -1.
          1   -1    0    0  501    0 -0.00000000000E+00 -0.00000000000E+00 -0.19725599892E+04  0.19725599892E+04  0.00000000000E+00 0. -1.
         25    2    1    2    0    0  0.11734242175E+03  0.51682114733E+02 -0.10639689122E+04  0.10789323056E+04  0.12499915611E+03 0.  0.
          2    1    1    2  501    0 -0.17739697551E+03 -0.15021299331E+02 -0.89013583795E+03  0.90776491249E+03  0.00000000000E+00 0. -1.
          1    1    1    2  502    0  0.60054553760E+02 -0.36660815402E+02  0.57108707352E+03  0.57540508370E+03  0.00000000000E+00 0. -1.
         22    1    3    3    0    0  0.12090773955E+03 -0.61616979439E+01 -0.70761751090E+03  0.71789915011E+03  0.00000000000E+00 0. -1.
         22    1    3    3    0    0 -0.35653177961E+01  0.57843812677E+02 -0.35635140127E+03  0.36103315546E+03  0.00000000000E+00 0. -1.
</event>
<event>
 7    1  0.9036454E-005  0.5082394E+03  0.7818608E-02  0.1201461E+00
          2   -1    0    0  502    0  0.00000000000E+00  0.00000000000E+00  0.40339374866E+03  0.40339374866E+03  0.00000000000E+00 0. -1.
          1   -1    0    0  501    0 -0.00000000000E+00 -0.00000000000E+00 -0.12028536363E+04  0.12028536363E+04  0.00000000000E+00 0. -1.
         25    2    1    2    0    0  0.35834851910E+03  0.30879774429E+03  0.13752174103E+03  0.50823958485E+03  0.12500215328E+03 0.  0.
          2    1    1    2  501    0 -0.39394342846E+03 -0.33431934556E+03 -0.78451324024E+03  0.93937312808E+03  0.00000000000E+00 0. -1.
          1    1    1    2  502    0  0.35594909360E+02  0.25521601262E+02 -0.15246838842E+03  0.15863467203E+03  0.00000000000E+00 0. -1.
         22    1    3    3    0    0  0.25512075530E+03  0.28613178503E+03  0.11434900691E+03  0.40004211474E+03  0.00000000000E+00 0. -1.
         22    1    3    3    0    0  0.10322776381E+03  0.22665959262E+02  0.23172734123E+02  0.10819747010E+03  0.00000000000E+00 0. -1.
</event>
<event>
 7    1  0.9036454E-005  0.2945255E+03  0.7818608E-02  0.1291575E+00
          2   -1    0    0  502    0  0.00000000000E+00  0.00000000000E+00  0.37205585329E+04  0.37205585329E+04  0.00000000000E+00 0. -1.
          1   -1    0    0  501    0 -0.00000000000E+00 -0.00000000000E+00 -0.17257471673E+03  0.17257471673E+03  0.00000000000E+00 0. -1.
         25    2    1    2    0    0 -0.12255277359E+03 -0.28559585607E+03  0.34868938515E+04  0.35029470060E+04  0.12499928047E+03 0.  0.
          2    1    1    2  501    0  0.13824385932E+03  0.25940863358E+03 -0.28704504005E+02  0.29534412533E+03  0.00000000000E+00 0. -1.
          1    1    1    2  502    0 -0.15691085731E+02  0.26187222494E+02  0.89794468673E+02  0.94842118268E+02  0.00000000000E+00 0. -1.
         22    1    3    3    0    0 -0.38683126081E+02 -0.17874098643E+03  0.25100917862E+04  0.25167450208E+04  0.00000000000E+00 0.  1.
         22    1    3    3    0    0 -0.83869647509E+02 -0.10685486964E+03  0.97680206529E+03  0.98620198524E+03  0.00000000000E+00 0.  1.
</event>
<event>
 7    1  0.9036454E-005  0.3545283E+03  0.7818608E-02  0.1130023E+00
          2   -1    0    0  502    0  0.00000000000E+00  0.00000000000E+00  0.10394843140E+04  0.10394843140E+04  0.00000000000E+00 0. -1.
          1   -1    0    0  501    0 -0.00000000000E+00 -0.00000000000E+00 -0.44153129789E+03  0.44153129789E+03  0.00000000000E+00 0. -1.
         25    2    1    2    0    0 -0.34918951429E+03 -0.53310262280E+02  0.64639443750E+03  0.74714068861E+03  0.12497255217E+03 0.  0.
          2    1    1    2  501    0  0.34640821011E+03 -0.89784332417E+02 -0.28494158889E+03  0.45744025124E+03  0.00000000000E+00 0. -1.
          1    1    1    2  502    0  0.27813041822E+01  0.14309459470E+03  0.23650016753E+03  0.27643467208E+03  0.00000000000E+00 0. -1.
         22    1    3    3    0    0 -0.47322274148E+02 -0.16114132312E+02  0.26336251841E+02  0.56503637509E+02  0.00000000000E+00 0.  1.
         22    1    3    3    0    0 -0.30186724014E+03 -0.37196129968E+02  0.62005818566E+03  0.69063705110E+03  0.00000000000E+00 0.  1.
</event>
<event>
 7    1  0.9036454E-005  0.1752189E+03  0.7818608E-02  0.1331444E+00
          2   -1    0    0  502    0  0.00000000000E+00  0.00000000000E+00  0.76551155225E+03  0.76551155225E+03  0.00000000000E+00 0. -1.
          1   -1    0    0  501    0 -0.00000000000E+00 -0.00000000000E+00 -0.62526628940E+02  0.62526628940E+02  0.00000000000E+00 0. -1.
         25    2    1    2    0    0 -0.19061409855E+03 -0.17225327078E+02  0.28901467747E+03  0.36848934096E+03  0.12499785656E+03 0.  0.
          2    1    1    2  501    0  0.15559188028E+03  0.99733274795E+01  0.37768410327E+03  0.40859953785E+03  0.00000000000E+00 0. -1.
          1    1    1    2  502    0  0.35022218275E+02  0.72519995982E+01  0.36286142570E+02  0.50949302386E+02  0.00000000000E+00 0. -1.
         22    1    3    3    0    0 -0.14302474736E+03 -0.96817523543E+01  0.10347743347E+03  0.17679760724E+03  0.00000000000E+00 0.  1.
         22    1    3    3    0    0 -0.47589351191E+02 -0.75435747234E+01  0.18553724400E+03  0.19169173372E+03  0.00000000000E+00 0.  1.
</event>
<event>
 7    1  0.9036454E-005  0.7185922E+03  0.7818608E-02  0.1113489E+00
          2   -1    0    0  502    0  0.00000000000E+00  0.00000000000E+00  0.58753701479E+03  0.58753701479E+03  0.00000000000E+00 0. -1.
          1   -1    0    0  501    0 -0.00000000000E+00 -0.00000000000E+00 -0.36065576388E+04  0.36065576388E+04  0.00000000000E+00 0. -1.
         25    2    1    2    0    0 -0.73762199919E+03 -0.50953762331E+02 -0.15121383349E+04  0.16878593188E+04  0.12499694682E+03 0.  0.
          2    1    1    2  501    0  0.70510581535E+03 -0.29496766766E+02 -0.19400707165E+04  0.20644414874E+04  0.00000000000E+00 0. -1.
          1    1    1    2  502    0  0.32516183844E+02  0.80450529097E+02  0.43318842741E+03  0.44179384727E+03  0.00000000000E+00 0. -1.
         22    1    3    3    0    0 -0.41860020234E+03  0.31610847246E+02 -0.87898364206E+03  0.97408296262E+03  0.00000000000E+00 0. -1.
         22    1    3    3    0    0 -0.31902179685E+03 -0.82564609577E+02 -0.63315469283E+03  0.71377635620E+03  0.00000000000E+00 0. -1.
</event>
<event>
 7    1  0.9036454E-005  0.4161736E+02  0.7818608E-02  0.1505622E+00
          2   -1    0    0  502    0  0.00000000000E+00  0.00000000000E+00  0.10708266452E+04  0.10708266452E+04  0.00000000000E+00 0. -1.
          1   -1    0    0  501    0 -0.00000000000E+00 -0.00000000000E+00 -0.16766193034E+02  0.16766193034E+02  0.00000000000E+00 0. -1.
         25    2    1    2    0    0 -0.21426264435E+02  0.40629758013E+02  0.38312475930E+03  0.40561005529E+03  0.12500029487E+03 0.  0.
          2    1    1    2  501    0 -0.17702188759E+02 -0.40406802769E+02  0.95259736058E+02  0.10497854310E+03  0.00000000000E+00 0. -1.
          1    1    1    2  502    0  0.39128453193E+02 -0.22295524466E+00  0.57567595685E+03  0.57700423989E+03  0.00000000000E+00 0. -1.
         22    1    3    3    0    0 -0.72118423662E+02  0.39769107619E+02  0.24529030574E+03  0.25874694789E+03  0.00000000000E+00 0.  1.
         22    1    3    3    0    0  0.50692159227E+02  0.86065039418E+00  0.13783445356E+03  0.14686310740E+03  0.00000000000E+00 0.  1.
</event>
<event>
 7    1  0.9036454E-005  0.5484460E+03  0.7818608E-02  0.1010253E+00
          2   -1    0    0  502    0  0.00000000000E+00  0.00000000000E+00  0.55915612041E+03  0.55915612041E+03  0.00000000000E+00 0. -1.
          1   -1    0    0  501    0 -0.00000000000E+00 -0.00000000000E+00 -0.14870006877E+04  0.14870006877E+04  0.00000000000E+00 0. -1.
         25    2    1    2    0    0  0.16775864041E+03 -0.40227026267E+03 -0.11351195821E+03  0.46740770231E+03  0.12498267825E+03 0.  0.
          2    1    1    2  501    0 -0.22522248444E+03 -0.42528018247E+03 -0.49357795583E+03  0.68935302971E+03  0.00000000000E+00 0. -1.
          1    1    1    2  502    0  0.57463844028E+02  0.82755044514E+03 -0.32075465328E+03  0.88939607612E+03  0.00000000000E+00 0. -1.
         22    1    3    3    0    0  0.18324275071E+03 -0.34609238792E+03 -0.78418310185E+02  0.39938362264E+03  0.00000000000E+00 0. -1.
         22    1    3    3    0    0 -0.15484110297E+02 -0.56177874749E+02 -0.35093648023E+02  0.68024079667E+02  0.00000000000E+00 0. -1.
</event>
<event>
 7    1  0.9036454E-005  0.1198704E+03  0.7818608E-02  0.1282479E+00
          2   -1    0    0  502    0  0.00000000000E+00  0.00000000000E+00  0.23544629046E+03  0.23544629046E+03  0.00000000000E+00 0. -1.
          1   -1    0    0  501    0 -0.00000000000E+00 -0.00000000000E+00 -0.28956645759E+03  0.28956645759E+03  0.00000000000E+00 0. -1.
         25    2    1    2    0    0 -0.98704232555E+02  0.10213292232E+03 -0.14907007876E+02  0.18979076044E+03  0.12499861807E+03 0.  0.
          2    1    1    2  501    0 -0.18515297573E+02 -0.79586713968E+02 -0.15099467452E+03  0.17168649632E+03  0.00000000000E+00 0. -1.
          1    1    1    2  502    0  0.11721953013E+03 -0.22546208350E+02  0.11178151528E+03  0.16353549129E+03  0.00000000000E+00 0. -1.
         22    1    3    3    0    0 -0.33693039188E+02 -0.18374990799E+02  0.26620147251E+02  0.46706460112E+02  0.00000000000E+00 0. -1.
         22    1    3    3    0    0 -0.65011193367E+02  0.12050791312E+03 -0.41527155127E+02  0.14308430033E+03  0.00000000000E+00 0. -1.
</event>
<event>
 7    1  0.9036454E-005  0.3082041E+03  0.7818608E-02  0.1150155E+00
          2   -1    0    0  502    0  0.00000000000E+00  0.00000000000E+00  0.19402619296E+04  0.19402619296E+04  0.00000000000E+00 0. -1.
          1   -1    0    0  501    0 -0.00000000000E+00 -0.00000000000E+00 -0.41667374868E+03  0.41667374868E+03  0.00000000000E+00 0. -1.
         25    2    1    2    0    0 -0.30873155702E+03 -0.21049370869E+03  0.12566974209E+04  0.13170176057E+04  0.12499676128E+03 0.  0.
          2    1    1    2  501    0  0.12462479249E+03  0.33875344699E+02 -0.34961647840E+03  0.37270706976E+03  0.00000000000E+00 0. -1.
          1    1    1    2  502    0  0.18410676453E+03  0.17661836399E+03  0.61650723844E+03  0.66721100282E+03  0.00000000000E+00 0. -1.
         22    1    3    3    0    0 -0.91948815169E+02 -0.13573904954E+03  0.48416622132E+03  0.51117179504E+03  0.00000000000E+00 0.  1.
         22    1    3    3    0    0 -0.21678274185E+03 -0.74754659151E+02  0.77253119959E+03  0.80584581066E+03  0.00000000000E+00 0.  1.
</event>
<event>
 7    1  0.9036454E-005  0.1054813E+03  0.7818608E-02  0.1451427E+00
          2   -1    0    0  502    0  0.00000000000E+00  0.00000000000E+00  0.60632768257E+03  0.60632768257E+03  0.00000000000E+00 0. -1.
          1   -1    0    0  501    0 -0.00000000000E+00 -0.00000000000E+00 -0.34504860986E+03  0.34504860986E+03  0.00000000000E+00 0. -1.
         25    2    1    2    0    0 -0.85103212411E+02  0.37363571936E+02  0.56585370508E+03  0.58690212329E+03  0.12500037399E+03 0.  0.
          2    1    1    2  501    0  0.87050185303E+02 -0.59939236021E+02 -0.32003997188E+03  0.33704010203E+03  0.00000000000E+00 0. -1.
          1    1    1    2  502    0 -0.19469728918E+01  0.22575664086E+02  0.15465339506E+02  0.27434067113E+02  0.00000000000E+00 0. -1.
         22    1    3    3    0    0  0.28480223150E+00  0.65523353287E+02  0.21979723610E+03  0.22935608982E+03  0.00000000000E+00 0.  1.
         22    1    3    3    0    0 -0.85388014642E+02 -0.28159781351E+02  0.34605646898E+03  0.35754603347E+03  0.00000000000E+00 0.  1.
</event>
<event>
 7    1  0.9036454E-005  0.9826511E+02  0.7818608E-02  0.1412420E+00
          2   -1    0    0  502    0  0.00000000000E+00  0.00000000000E+00  0.23131975411E+02  0.23131975411E+02  0.00000000000E+00 0. -1.
          1   -1    0    0  501    0 -0.00000000000E+00 -0.00000000000E+00 -0.13196398310E+04  0.13196398310E+04  0.00000000000E+00 0. -1.
         25    2    1    2    0    0 -0.90464973699E+02  0.68649782155E+02 -0.37227091834E+03  0.40878756435E+03  0.12499972828E+03 0.  0.
          2    1    1    2  501    0  0.18573121509E+02 -0.26873719818E+02 -0.53345358736E+03  0.53445288617E+03  0.00000000000E+00 0. -1.
          1    1    1    2  502    0  0.71891852191E+02 -0.41776062337E+02 -0.39078334983E+03  0.39953135584E+03  0.00000000000E+00 0. -1.
         22    1    3    3    0    0 -0.11813063919E+03  0.60676402568E+02 -0.24902401884E+03  0.28222231610E+03  0.00000000000E+00 0.  1.
         22    1    3    3    0    0  0.27665665489E+02  0.79733795863E+01 -0.12324689950E+03  0.12656524826E+03  0.00000000000E+00 0.  1.
</event>
<event>
 7    1  0.9036454E-005  0.1705795E+03  0.7818608E-02  0.1251443E+00
          2   -1    0    0  502    0  0.00000000000E+00  0.00000000000E+00  0.11669328376E+03  0.11669328376E+03  0.00000000000E+00 0. -1.
          1   -1    0    0  501    0 -0.00000000000E+00 -0.00000000000E+00 -0.29843974605E+04  0.29843974605E+04  0.00000000000E+00 0. -1.
         25    2    1    2    0    0 -0.13427031867E+03 -0.94199067646E+02 -0.34231439357E+03  0.39963078470E+03  0.12499454874E+03 0.  0.
          2    1    1    2  501    0  0.49808196685E+02 -0.59553105507E+02 -0.25248417576E+04  0.25260351007E+04  0.00000000000E+00 0. -1.
          1    1    1    2  502    0  0.84462121989E+02  0.15375217315E+03 -0.54802561160E+00  0.17542485893E+03  0.00000000000E+00 0. -1.
         22    1    3    3    0    0 -0.12112042268E+03 -0.47754529288E+02 -0.13812532402E+03  0.18981374290E+03  0.00000000000E+00 0. -1.
         22    1    3    3    0    0 -0.13149895994E+02 -0.46444538358E+02 -0.20418906955E+03  0.20981704180E+03  0.00000000000E+00 0. -1.
</event>
<event>
 7    1  0.9036454E-005  0.1482873E+03  0.7818608E-02  0.1250034E+00
          2   -1    0    0  502    0  0.00000000000E+00  0.00000000000E+00  0.13605179955E+04  0.13605179955E+04  0.00000000000E+00 0. -1.
          1   -1    0    0  501    0 -0.00000000000E+00 -0.00000000000E+00 -0.63998441022E+03  0.63998441022E+03  0.00000000000E+00 0. -1.
         25    2    1    2    0    0  0.31358688050E+02 -0.20364059746E+03 -0.92845152112E+02  0.25825790453E+03  0.12499625087E+03 0.  0.
          2    1    1    2  501    0  0.31759040222E+02  0.13868306881E+03 -0.45188007688E+03  0.47374807028E+03  0.00000000000E+00 0. -1.
          1    1    1    2  502    0 -0.63117728272E+02  0.64957528652E+02  0.12652588143E+04  0.12684964309E+04  0.00000000000E+00 0. -1.
         22    1    3    3    0    0  0.14060684969E+02 -0.82177940930E+02 -0.10600849751E+03  0.13486555670E+03  0.00000000000E+00 0. -1.
         22    1    3    3    0    0  0.17298003082E+02 -0.12146265653E+03  0.13163345403E+02  0.12339234784E+03  0.00000000000E+00 0. -1.
</event>
<event>
 7    1  0.9036454E-005  0.1237863E+03  0.7818608E-02  0.1240375E+00
          2   -1    0    0  502    0  0.00000000000E+00  0.00000000000E+00  0.16372141246E+03  0.16372141246E+03  0.00000000000E+00 0. -1.
          1   -1    0    0  501    0 -0.00000000000E+00 -0.00000000000E+00 -0.75373999277E+03  0.75373999277E+03  0.00000000000E+00 0. -1.
         25    2    1    2    0    0 -0.64827936542E+02  0.88119199059E+02 -0.53006098784E+03  0.55547902211E+03  0.12499855432E+03 0.  0.
          2    1    1    2  501    0  0.47724965922E+02 -0.20647006928E+03 -0.10205562976E+03  0.23520823422E+03  0.00000000000E+00 0. -1.
          1    1    1    2  502    0  0.17102970620E+02  0.11835087022E+03  0.42098037291E+02  0.12677414890E+03  0.00000000000E+00 0. -1.
         22    1    3    3    0    0 -0.63199451069E+02  0.55896916222E+02 -0.51118164974E+03  0.51809778507E+03  0.00000000000E+00 0. -1.
         22    1    3    3    0    0 -0.16284854726E+01  0.32222282837E+02 -0.18879338096E+02  0.37381237046E+02  0.00000000000E+00 0. -1.
</event>
<event>
 7    1  0.9036454E-005  0.9398943E+02  0.7818608E-02  0.1354041E+00
          2   -1    0    0  502    0  0.00000000000E+00  0.00000000000E+00  0.39941953351E+03  0.39941953351E+03  0.00000000000E+00 0. -1.
          1   -1    0    0  501    0 -0.00000000000E+00 -0.00000000000E+00 -0.15815441991E+03  0.15815441991E+03  0.00000000000E+00 0. -1.
         25    2    1    2    0    0  0.43820267883E+02  0.39904280347E+02  0.12980245274E+03  0.18969858315E+03  0.12499723295E+03 0.  0.
          2    1    1    2  501    0 -0.96226590750E+02 -0.23660585566E+02 -0.10511301335E+03  0.14445804115E+03  0.00000000000E+00 0. -1.
          1    1    1    2  502    0  0.52406322867E+02 -0.16243694781E+02  0.21657567421E+03  0.22341732913E+03  0.00000000000E+00 0. -1.
         22    1    3    3    0    0 -0.42255605321E+02  0.17999289304E+02  0.65703500738E+02  0.80165208200E+02  0.00000000000E+00 0. -1.
         22    1    3    3    0    0  0.86075873204E+02  0.21904991043E+02  0.64098952005E+02  0.10953337495E+03  0.00000000000E+00 0. -1.
</event>
<event>
 7    1  0.9036454E-005  0.2066390E+03  0.7818608E-02  0.1202734E+00
          2   -1    0    0  502    0  0.00000000000E+00  0.00000000000E+00  0.16092951992E+03  0.16092951992E+03  0.00000000000E+00 0. -1.
          1   -1    0    0  501    0 -0.00000000000E+00 -0.00000000000E+00 -0.12374509535E+04  0.12374509535E+04  0.00000000000E+00 0. -1.
         25    2    1    2    0    0 -0.22789860867E+03 -0.15649855740E+03 -0.21112285617E+03  0.36963059890E+03  0.12499737975E+03 0.  0.
          2    1    1    2  501    0  0.10385601597E+03  0.22435643167E+02 -0.83722957683E+03  0.84394478164E+03  0.00000000000E+00 0. -1.
          1    1    1    2  502    0  0.12404259271E+03  0.13406291423E+03 -0.28169000630E+02  0.18480509293E+03  0.00000000000E+00 0. -1.
         22    1    3    3    0    0 -0.51211876973E+02 -0.88662506209E+02 -0.12531481182E+03  0.16182551842E+03  0.00000000000E+00 0. -1.
         22    1    3    3    0    0 -0.17668673170E+03 -0.67836051191E+02 -0.85808044349E+02  0.20780508048E+03  0.00000000000E+00 0. -1.
</event>
<event>
 7    1  0.9036454E-005  0.2366190E+03  0.7818608E-02  0.1239383E+00
          2   -1    0    0  502    0  0.00000000000E+00  0.00000000000E+00  0.18696835235E+04  0.18696835235E+04  0.00000000000E+00 0. -1.
          1   -1    0    0  501    0 -0.00000000000E+00 -0.00000000000E+00 -0.23849732000E+03  0.23849732000E+03  0.00000000000E+00 0. -1.
         25    2    1    2    0    0  0.28371130906E+02 -0.19742633215E+03  0.23210656504E+03  0.33057477070E+03  0.12499657513E+03 0.  0.
          2    1    1    2  501    0  0.95306762991E+01  0.24798927618E+03 -0.10696053725E+03  0.27024076565E+03  0.00000000000E+00 0. -1.
          1    1    1    2  502    0 -0.37901807205E+02 -0.50562944030E+02  0.15060401758E+04  0.15073653072E+04  0.00000000000E+00 0. -1.
         22    1    3    3    0    0  0.62173628556E+02 -0.17240298199E+03  0.14446087795E+03  0.23336086549E+03  0.00000000000E+00 0.  1.
         22    1    3    3    0    0 -0.33802497650E+02 -0.25023350165E+02  0.87645687087E+02  0.97213905208E+02  0.00000000000E+00 0.  1.
</event>
<event>
 7    1  0.9036454E-005  0.1096952E+04  0.7818608E-02  0.1133880E+00
          2   -1    0    0  502    0  0.00000000000E+00  0.00000000000E+00  0.20999431548E+04  0.20999431548E+04  0.00000000000E+00 0. -1.
          1   -1    0    0  501    0 -0.00000000000E+00 -0.00000000000E+00 -0.16319736313E+04  0.16319736313E+04  0.00000000000E+00 0. -1.
         25    2    1    2    0    0  0.57174171182E+03 -0.98223913202E+03 -0.11695501721E+04  0.16355891295E+04  0.12498759084E+03 0.  0.
          2    1    1    2  501    0 -0.23526608032E+02  0.37328567381E+02 -0.61934895233E+02  0.76045081864E+02  0.00000000000E+00 0. -1.
          1    1    1    2  502    0 -0.54821510379E+03  0.94491056464E+03  0.16994545909E+04  0.20202825747E+04  0.00000000000E+00 0. -1.
         22    1    3    3    0    0  0.26687608481E+03 -0.56444676224E+03 -0.68539341539E+03  0.92713921603E+03  0.00000000000E+00 0.  1.
         22    1    3    3    0    0  0.30486562700E+03 -0.41779236978E+03 -0.48415675675E+03  0.70844991346E+03  0.00000000000E+00 0.  1.
</event>
<event>
 7    1  0.9036454E-005  0.6456976E+03  0.7818608E-02  0.1228507E+00
          2   -1    0    0  502    0  0.00000000000E+00  0.00000000000E+00  0.21381157401E+04  0.21381157401E+04  0.00000000000E+00 0. -1.
          1   -1    0    0  501    0 -0.00000000000E+00 -0.00000000000E+00 -0.27214273968E+03  0.27214273968E+03  0.00000000000E+00 0. -1.
         25    2    1    2    0    0 -0.43159876760E+03  0.50343695243E+03  0.57564486441E+03  0.88697147599E+03  0.12500051209E+03 0.  0.
          2    1    1    2  501    0  0.13390397767E+02 -0.22158030983E+02 -0.40235669812E+02  0.47845482698E+02  0.00000000000E+00 0. -1.
          1    1    1    2  502    0  0.41820836983E+03 -0.48127892145E+03  0.13305638058E+04  0.14754415211E+04  0.00000000000E+00 0. -1.
         22    1    3    3    0    0 -0.31552079606E+03  0.42521214397E+03  0.49808628061E+03  0.72694475929E+03  0.00000000000E+00 0. -1.
         22    1    3    3    0    0 -0.11607797154E+03  0.78224808458E+02  0.77558583802E+02  0.16002671669E+03  0.00000000000E+00 0. -1.
</event>
<event>
 7    1  0.9036454E-005  0.9109190E+02  0.7818608E-02  0.1380230E+00
          2   -1    0    0  502    0  0.00000000000E+00  0.00000000000E+00  0.93984335474E+03  0.93984335474E+03  0.00000000000E+00 0. -1.
          1   -1    0    0  501    0 -0.00000000000E+00 -0.00000000000E+00 -0.48924069296E+03  0.48924069296E+03  0.00000000000E+00 0. -1.
         25    2    1    2    0    0 -0.27150444055E+02 -0.61502429528E+02 -0.18254149585E+03  0.23122754166E+03  0.12500033145E+03 0.  0.
          2    1    1    2  501    0  0.71484362849E+02  0.71888430859E+02 -0.27266565225E+03  0.29090293663E+03  0.00000000000E+00 0. -1.
          1    1    1    2  502    0 -0.44333918794E+02 -0.10386001331E+02  0.90580980988E+03  0.90695356941E+03  0.00000000000E+00 0. -1.
         22    1    3    3    0    0 -0.18688512137E-01  0.34587140222E+02 -0.84451843771E+02  0.91259983204E+02  0.00000000000E+00 0.  1.
         22    1    3    3    0    0 -0.27131755543E+02 -0.96089569750E+02 -0.98089652082E+02  0.13996755845E+03  0.00000000000E+00 0.  1.
</event>
<event>
 7    1  0.9036454E-005  0.2454198E+03  0.7818608E-02  0.1134727E+00
          2   -1    0    0  502    0  0.00000000000E+00  0.00000000000E+00  0.14749910567E+03  0.14749910567E+03  0.00000000000E+00 0. -1.
          1   -1    0    0  501    0 -0.00000000000E+00 -0.00000000000E+00 -0.10343971211E+04  0.10343971211E+04  0.00000000000E+00 0. -1.
         25    2    1    2    0    0  0.18439595742E+03 -0.39801151769E+02 -0.26126741490E+03  0.34564690111E+03  0.12500046946E+03 0.  0.
          2    1    1    2  501    0 -0.23873067750E+03  0.22728254737E+03 -0.51622075472E+03  0.61248147753E+03  0.00000000000E+00 0. -1.
          1    1    1    2  502    0  0.54334720089E+02 -0.18748139560E+03 -0.10940984586E+03  0.22376784817E+03  0.00000000000E+00 0. -1.
         22    1    3    3    0    0  0.17670359336E+03 -0.31335049983E+02 -0.27462397399E+03  0.32806153745E+03  0.00000000000E+00 0. -1.
         22    1    3    3    0    0  0.76923640526E+01 -0.84661017861E+01  0.13356559093E+02  0.17585363658E+02  0.00000000000E+00 0. -1.
</event>
<event>
 7    1  0.9036454E-005  0.3573655E+03  0.7818608E-02  0.1083990E+00
          2   -1    0    0  502    0  0.00000000000E+00  0.00000000000E+00  0.35704374295E+03  0.35704374295E+03  0.00000000000E+00 0. -1.
          1   -1    0    0  501    0 -0.00000000000E+00 -0.00000000000E+00 -0.10306523213E+04  0.10306523213E+04  0.00000000000E+00 0. -1.
         25    2    1    2    0    0 -0.37493415767E+03  0.32083843710E+03 -0.22661593479E+03  0.55721868688E+03  0.12499983120E+03 0.  0.
          2    1    1    2  501    0  0.25446130601E+03 -0.28794397095E+02 -0.44630947371E+03  0.51455983120E+03  0.00000000000E+00 0. -1.
          1    1    1    2  502    0  0.12047285165E+03 -0.29204404000E+03 -0.68316989361E+00  0.31591754622E+03  0.00000000000E+00 0. -1.
         22    1    3    3    0    0 -0.99360173477E+02  0.29627898651E+02 -0.77539793920E+02  0.12947075381E+03  0.00000000000E+00 0.  1.
         22    1    3    3    0    0 -0.27557398419E+03  0.29121053845E+03 -0.14907614087E+03  0.42774793307E+03  0.00000000000E+00 0.  1.
</event>
<event>
 7    1  0.9036454E-005  0.3351988E+03  0.7818608E-02  0.1186171E+00
          2   -1    0    0  502    0  0.00000000000E+00  0.00000000000E+00  0.13487031498E+04  0.13487031498E+04  0.00000000000E+00 0. -1.
          1   -1    0    0  501    0 -0.00000000000E+00 -0.00000000000E+00 -0.25917607555E+03  0.25917607555E+03  0.00000000000E+00 0. -1.
         25    2    1    2    0    0  0.20058022721E+03 -0.26021812252E+03  0.91267409902E+02  0.36318170566E+03  0.12500124950E+03 0.  0.
          2    1    1    2  501    0 -0.14466233708E+03  0.31537471369E+03  0.12635361882E+03  0.36926093592E+03  0.00000000000E+00 0. -1.
          1    1    1    2  502    0 -0.55917890126E+02 -0.55156591170E+02  0.87190604555E+03  0.87543658380E+03  0.00000000000E+00 0. -1.
         22    1    3    3    0    0 -0.33957925739E+01 -0.74788364201E+02  0.84177693536E+01  0.75337173215E+02  0.00000000000E+00 0. -1.
         22    1    3    3    0    0  0.20397601979E+03 -0.18542975832E+03  0.82849640548E+02  0.28784453244E+03  0.00000000000E+00 0. -1.
</event>
<event>
 7    1  0.9036454E-005  0.8294980E+02  0.7818608E-02  0.1376628E+00
          2   -1    0    0  502    0  0.00000000000E+00  0.00000000000E+00  0.25047374488E+04  0.25047374488E+04  0.00000000000E+00 0. -1.
          1   -1    0    0  501    0 -0.00000000000E+00 -0.00000000000E+00 -0.17504038949E+02  0.17504038949E+02  0.00000000000E+00 0. -1.
         25    2    1    2    0    0 -0.30676978957E+02  0.28928582574E+02  0.20073487247E+04  0.20116787433E+04  0.12499809554E+03 0.  0.
          2    1    1    2  501    0  0.30494770236E+02 -0.80426202521E+02  0.12364490176E+03  0.15061994156E+03  0.00000000000E+00 0. -1.
          1    1    1    2  502    0  0.18220872161E+00  0.51497619947E+02  0.35623978343E+03  0.35994280290E+03  0.00000000000E+00 0. -1.
         22    1    3    3    0    0 -0.39232337302E+02 -0.32589511436E+02  0.41546711248E+03  0.41858592200E+03  0.00000000000E+00 0. -1.
         22    1    3    3    0    0  0.85553583445E+01  0.61518094009E+02  0.15918816122E+04  0.15930928213E+04  0.00000000000E+00 0. -1.
</event>
<event>
 7    1  0.9036454E-005  0.1719001E+03  0.7818608E-02  0.1205686E+00
          2   -1    0    0  502    0  0.00000000000E+00  0.00000000000E+00  0.26417702445E+03  0.26417702445E+03  0.00000000000E+00 0. -1.
          1   -1    0    0  501    0 -0.00000000000E+00 -0.00000000000E+00 -0.12094482947E+04  0.12094482947E+04  0.00000000000E+00 0. -1.
         25    2    1    2    0    0  0.22577225896E+03 -0.11324519812E+03 -0.40915092834E+03  0.49681675577E+03  0.12499927534E+03 0.  0.
          2    1    1    2  501    0 -0.15895606011E+03  0.91155584730E+01 -0.72981006699E+03  0.74697580706E+03  0.00000000000E+00 0. -1.
          1    1    1    2  502    0 -0.66816198852E+02  0.10412963965E+03  0.19368972507E+03  0.22983275633E+03  0.00000000000E+00 0. -1.
         22    1    3    3    0    0  0.54767577317E+02 -0.10136361278E+02 -0.19560005439E+02  0.59032424631E+02  0.00000000000E+00 0. -1.
         22    1    3    3    0    0  0.17100468164E+03 -0.10310883685E+03 -0.38959092291E+03  0.43778433114E+03  0.00000000000E+00 0. -1.
</event>
<event>
 7    1  0.9036454E-005  0.1264280E+03  0.7818608E-02  0.1279643E+00
          2   -1    0    0  502    0  0.00000000000E+00  0.00000000000E+00  0.87848010077E+03  0.87848010077E+03  0.00000000000E+00 0. -1.
          1   -1    0    0  501    0 -0.00000000000E+00 -0.00000000000E+00 -0.18114981359E+03  0.18114981359E+03  0.00000000000E+00 0. -1.
         25    2    1    2    0    0 -0.43395152442E+02  0.10967438230E+03 -0.38177992243E+02  0.17604943275E+03  0.12499693713E+03 0.  0.
          2    1    1    2  501    0 -0.28428479692E+02 -0.14396498709E+03  0.30149999298E+01  0.14677597280E+03  0.00000000000E+00 0. -1.
          1    1    1    2  502    0  0.71823632134E+02  0.34290604791E+02  0.73249327949E+03  0.73680450882E+03  0.00000000000E+00 0. -1.
         22    1    3    3    0    0 -0.83186827626E+02  0.91856720439E+02 -0.45154067352E+02  0.13189615301E+03  0.00000000000E+00 0.  1.
         22    1    3    3    0    0  0.39791675184E+02  0.17817661860E+02  0.69760751091E+01  0.44153279743E+02  0.00000000000E+00 0.  1.
</event>
<event>
 7    1  0.9036454E-005  0.2407114E+03  0.7818608E-02  0.1119592E+00
          2   -1    0    0  502    0  0.00000000000E+00  0.00000000000E+00  0.43752345495E+03  0.43752345495E+03  0.00000000000E+00 0. -1.
          1   -1    0    0  501    0 -0.00000000000E+00 -0.00000000000E+00 -0.15295765488E+04  0.15295765488E+04  0.00000000000E+00 0. -1.
         25    2    1    2    0    0  0.10032277977E+03 -0.96802139839E+02 -0.11091456092E+04  0.11248398459E+04  0.12500152860E+03 0.  0.
          2    1    1    2  501    0  0.12125876360E+03  0.20698911704E+03 -0.33491781794E+03  0.41196859965E+03  0.00000000000E+00 0. -1.
          1    1    1    2  502    0 -0.22158154337E+03 -0.11018697720E+03  0.35201033328E+03  0.43029155818E+03  0.00000000000E+00 0. -1.
         22    1    3    3    0    0  0.86039808214E+02 -0.10669177443E+03 -0.60237294185E+03  0.61776949131E+03  0.00000000000E+00 0. -1.
         22    1    3    3    0    0  0.14282971551E+02  0.98896345899E+01 -0.50677266733E+03  0.50707035459E+03  0.00000000000E+00 0. -1.
</event>
<event>
 7    1  0.9036454E-005  0.9715427E+03  0.7818608E-02  0.9584491E-01
          2   -1    0    0  502    0  0.00000000000E+00  0.00000000000E+00  0.17358257702E+04  0.17358257702E+04  0.00000000000E+00 0. -1.
          1   -1    0    0  501    0 -0.00000000000E+00 -0.00000000000E+00 -0.21640260223E+04  0.21640260223E+04  0.00000000000E+00 0. -1.
         25    2    1    2    0    0  0.56308833859E+03 -0.58045326036E+03 -0.25608953891E+03  0.85744050650E+03  0.12501162237E+03 0.  0.
          2    1    1    2  501    0 -0.24011551474E+03  0.11231722255E+04 -0.13092658666E+04  0.17416510609E+04  0.00000000000E+00 0. -1.
          1    1    1    2  502    0 -0.32297282386E+03 -0.54271896510E+03  0.11371551535E+04  0.13007602251E+04  0.00000000000E+00 0. -1.
         22    1    3    3    0    0  0.11046311988E+03 -0.14548955796E+03 -0.10890342827E+03  0.21267174005E+03  0.00000000000E+00 0.  1.
         22    1    3    3    0    0  0.45262521871E+03 -0.43496370240E+03 -0.14718611065E+03  0.64476876645E+03  0.00000000000E+00 0.  1.
</event>
<event>
 7    1  0.9036454E-005  0.1890532E+03  0.7818608E-02  0.1232190E+00
          2   -1    0    0  502    0  0.00000000000E+00  0.00000000000E+00  0.29829195269E+04  0.29829195269E+04  0.00000000000E+00 0. -1.
          1   -1    0    0  501    0 -0.00000000000E+00 -0.00000000000E+00 -0.33864179176E+02  0.33864179176E+02  0.00000000000E+00 0. -1.
         25    2    1    2    0    0 -0.12692605493E+03  0.15104858240E+03  0.14657018483E+04  0.14841939342E+04  0.12499531471E+03 0.  0.
          2    1    1    2  501    0  0.48474072580E+02 -0.18409240349E+03  0.14019158271E+04  0.14147818683E+04  0.00000000000E+00 0. -1.
          1    1    1    2  502    0  0.78451982353E+02  0.33043821095E+02  0.81437672332E+02  0.11780790348E+03  0.00000000000E+00 0. -1.
         22    1    3    3    0    0 -0.14146977274E+03  0.11492799690E+03  0.13468185827E+04  0.13590961834E+04  0.00000000000E+00 0. -1.
         22    1    3    3    0    0  0.14543717811E+02  0.36120585502E+02  0.11888326560E+03  0.12509775083E+03  0.00000000000E+00 0. -1.
</event>
<event>
 7    1  0.9036454E-005  0.2214393E+03  0.7818608E-02  0.1370320E+00
          2   -1    0    0  502    0  0.00000000000E+00  0.00000000000E+00  0.85438905841E+03  0.85438905841E+03  0.00000000000E+00 0. -1.
          1   -1    0    0  501    0 -0.00000000000E+00 -0.00000000000E+00 -0.19302462504E+03  0.19302462504E+03  0.00000000000E+00 0. -1.
         25    2    1    2    0    0 -0.22053863882E+03  0.33084112650E+02  0.51941276777E+03  0.57891927583E+03  0.12500421944E+03 0.  0.
          2    1    1    2  501    0  0.21498775581E+03 -0.52630540874E+02 -0.87603145887E+02  0.23804205543E+03  0.00000000000E+00 0. -1.
          1    1    1    2  502    0  0.55508830051E+01  0.19546428224E+02  0.22955481148E+03  0.23045235220E+03  0.00000000000E+00 0. -1.
         22    1    3    3    0    0 -0.34728081811E+02  0.53344611206E+02  0.18732234426E+03  0.19784172429E+03  0.00000000000E+00 0.  1.
         22    1    3    3    0    0 -0.18581055701E+03 -0.20260498556E+02  0.33209042351E+03  0.38107755153E+03  0.00000000000E+00 0.  1.
</event>
<event>
 7    1  0.9036454E-005  0.3277632E+03  0.7818608E-02  0.1132201E+00
          2   -1    0    0  502    0  0.00000000000E+00  0.00000000000E+00  0.62550722684E+03  0.62550722684E+03  0.00000000000E+00 0. -1.
          1   -1    0    0  501    0 -0.00000000000E+00 -0.00000000000E+00 -0.94551255412E+03  0.94551255412E+03  0.00000000000E+00 0. -1.
         25    2    1    2    0    0 -0.19693951664E+03  0.33085437050E+03  0.73405324889E+02  0.41140856403E+03  0.12497550617E+03 0.  0.
          2    1    1    2  501    0 -0.52240026163E+02 -0.14138985998E+03 -0.70321944873E+03  0.71919239839E+03  0.00000000000E+00 0. -1.
          1    1    1    2  502    0  0.24917954280E+03 -0.18946451052E+03  0.30980879655E+03  0.44041881853E+03  0.00000000000E+00 0. -1.
         22    1    3    3    0    0 -0.18657290915E+03  0.32052518001E+03  0.37654299787E+02  0.37277833593E+03  0.00000000000E+00 0. -1.
         22    1    3    3    0    0 -0.10366607494E+02  0.10329190491E+02  0.35751025103E+02  0.38630228100E+02  0.00000000000E+00 0. -1.
</event>
<event>
 7    1  0.4154472E-004  0.8057804E+02  0.7818608E-02  0.1409013E+00
          2   -1    0    0  502    0  0.00000000000E+00  0.00000000000E+00  0.16454838411E+04  0.16454838411E+04  0.00000000000E+00 0. -1.
          1   -1    0    0  501    0 -0.00000000000E+00 -0.00000000000E+00 -0.20280228892E+04  0.20280228892E+04  0.00000000000E+00 0. -1.
         25    2    1    2    0    0 -0.23373266091E+02 -0.86590865295E+02 -0.64031319758E+03  0.65853659079E+03  0.12500065158E+03 0.  0.
          2    1    1    2  501    0  0.40163286789E+02  0.77803444341E+01 -0.13773021099E+04  0.13779095490E+04  0.00000000000E+00 0. -1.
          1    1    1    2  502    0 -0.16790020698E+02  0.78810520861E+02  0.16350762593E+04  0.16370605905E+04  0.00000000000E+00 0. -1.
         22    1    3    3    0    0 -0.57387602580E+02 -0.54321761885E+00 -0.32091828037E+03  0.32600947025E+03  0.00000000000E+00 0. -1.
         22    1    3    3    0    0  0.34014336490E+02 -0.86047647676E+02 -0.31939491721E+03  0.33252712054E+03  0.00000000000E+00 0. -1.
</event>
<event>
 7    1  0.9036454E-005  0.1177691E+03  0.7818608E-02  0.1276129E+00
          2   -1    0    0  502    0  0.00000000000E+00  0.00000000000E+00  0.10934149147E+04  0.10934149147E+04  0.00000000000E+00 0. -1.
          1   -1    0    0  501    0 -0.00000000000E+00 -0.00000000000E+00 -0.17025393201E+03  0.17025393201E+03  0.00000000000E+00 0. -1.
         25    2    1    2    0    0  0.26554425388E+02  0.43586004153E+02  0.30344046084E+02  0.13838365706E+03  0.12499759254E+03 0.  0.
          2    1    1    2  501    0 -0.39698725382E+02  0.78935906314E+02 -0.95043144517E+02  0.12976927765E+03  0.00000000000E+00 0. -1.
          1    1    1    2  502    0  0.13144299994E+02 -0.12252191047E+03  0.98786008115E+03  0.99551591203E+03  0.00000000000E+00 0. -1.
         22    1    3    3    0    0  0.19024969458E+01 -0.24698856252E+02 -0.33528445586E+02  0.41687044249E+02  0.00000000000E+00 0. -1.
         22    1    3    3    0    0  0.24651928442E+02  0.68284860405E+02  0.63872491670E+02  0.96696612808E+02  0.00000000000E+00 0. -1.
</event>
<event>
 7    1  0.9036454E-005  0.8504415E+02  0.7818608E-02  0.1494492E+00
          2   -1    0    0  502    0  0.00000000000E+00  0.00000000000E+00  0.17905538515E+04  0.17905538515E+04  0.00000000000E+00 0. -1.
          1   -1    0    0  501    0 -0.00000000000E+00 -0.00000000000E+00 -0.11507807238E+04  0.11507807238E+04  0.00000000000E+00 0. -1.
         25    2    1    2    0    0  0.81720841258E+02 -0.23933973060E+02  0.24814621753E+03  0.29060691463E+03  0.12499881037E+03 0.  0.
          2    1    1    2  501    0  0.33769611093E+01  0.20392321179E+02 -0.11282634408E+04  0.11284527649E+04  0.00000000000E+00 0. -1.
          1    1    1    2  502    0 -0.85097802368E+02  0.35416518806E+01  0.15198903510E+04  0.15222748958E+04  0.00000000000E+00 0. -1.
         22    1    3    3    0    0  0.53104843370E+02 -0.68834610259E+02  0.20287459527E+03  0.22071798605E+03  0.00000000000E+00 0.  1.
         22    1    3    3    0    0  0.28615997888E+02  0.44900637199E+02  0.45271622255E+02  0.69888928576E+02  0.00000000000E+00 0.  1.
</event>
<event>
 7    1  0.9036454E-005  0.1289571E+03  0.7818608E-02  0.1305594E+00
          2   -1    0    0  502    0  0.00000000000E+00  0.00000000000E+00  0.24098845456E+04  0.24098845456E+04  0.00000000000E+00 0. -1.
          1   -1    0    0  501    0 -0.00000000000E+00 -0.00000000000E+00 -0.67430727784E+03  0.67430727784E+03  0.00000000000E+00 0. -1.
         25    2    1    2    0    0 -0.16723893689E+03  0.78826504343E+02  0.18759544039E+04  0.18891829959E+04  0.12499994697E+03 0.  0.
          2    1    1    2  501    0  0.10629123358E+03 -0.72707753502E+02 -0.65966655951E+03  0.67211919589E+03  0.00000000000E+00 0. -1.
          1    1    1    2  502    0  0.60947703314E+02 -0.61187508409E+01  0.51928942334E+03  0.52288963161E+03  0.00000000000E+00 0. -1.
         22    1    3    3    0    0 -0.18635815204E+03  0.66833202386E+02  0.17558589800E+04  0.17669852279E+04  0.00000000000E+00 0.  1.
         22    1    3    3    0    0  0.19119215146E+02  0.11993301957E+02  0.12009542385E+03  0.12219776802E+03  0.00000000000E+00 0.  1.
</event>
<event>
 7    1  0.9036454E-005  0.1036337E+04  0.7818608E-02  0.1123818E+00
          2   -1    0    0  502    0  0.00000000000E+00  0.00000000000E+00  0.36110420571E+04  0.36110420571E+04  0.00000000000E+00 0. -1.
          1   -1    0    0  501    0 -0.00000000000E+00 -0.00000000000E+00 -0.12975172005E+04  0.12975172005E+04  0.00000000000E+00 0. -1.
         25    2    1    2    0    0 -0.10450464353E+04 -0.27011790769E+03  0.87024641269E+03  0.13921343315E+04  0.12499376864E+03 0.  0.
          2    1    1    2  501    0  0.99488919715E+03  0.25342861846E+03 -0.78197200744E+03  0.12905467057E+04  0.00000000000E+00 0. -1.
          1    1    1    2  502    0  0.50157238138E+02  0.16689289224E+02  0.22252504513E+04  0.22258782204E+04  0.00000000000E+00 0. -1.
         22    1    3    3    0    0 -0.19266793694E+03 -0.40860976848E+02  0.22340209486E+03  0.29782385623E+03  0.00000000000E+00 0.  1.
         22    1    3    3    0    0 -0.85237849836E+03 -0.22925693084E+03  0.64684431783E+03  0.10943104753E+04  0.00000000000E+00 0.  1.
</event>
<event>
 7    1  0.9036454E-005  0.2110508E+03  0.7818608E-02  0.1206514E+00
          2   -1    0    0  502    0  0.00000000000E+00  0.00000000000E+00  0.83159084477E+03  0.83159084477E+03  0.00000000000E+00 0. -1.
          1   -1    0    0  501    0 -0.00000000000E+00 -0.00000000000E+00 -0.68831030719E+03  0.68831030719E+03  0.00000000000E+00 0. -1.
         25    2    1    2    0    0  0.19233598768E+03  0.23743729753E+03 -0.29782736482E+03  0.44462942770E+03  0.12499834527E+03 0.  0.
          2    1    1    2  501    0 -0.74016967119E+02 -0.67062405780E+02 -0.29450062978E+03  0.31097668503E+03  0.00000000000E+00 0. -1.
          1    1    1    2  502    0 -0.11831902056E+03 -0.17037489175E+03  0.73560853219E+03  0.76429503923E+03  0.00000000000E+00 0. -1.
         22    1    3    3    0    0  0.13374249216E+03  0.10367785758E+03 -0.22475323072E+03  0.28133639487E+03  0.00000000000E+00 0.  1.
         22    1    3    3    0    0  0.58593495524E+02  0.13375943995E+03 -0.73074134102E+02  0.16329303282E+03  0.00000000000E+00 0.  1.
</event>
<event>
 7    1  0.9036454E-005  0.9191189E+02  0.7818608E-02  0.1360170E+00
          2   -1    0    0  502    0  0.00000000000E+00  0.00000000000E+00  0.17399831279E+04  0.17399831279E+04  0.00000000000E+00 0. -1.
          1   -1    0    0  501    0 -0.00000000000E+00 -0.00000000000E+00 -0.17577197479E+02  0.17577197479E+02  0.00000000000E+00 0. -1.
         25    2    1    2    0    0  0.84888563354E+02  0.16969614616E+01  0.42943756381E+03  0.45524712724E+03  0.12499751111E+03 0.  0.
          2    1    1    2  501    0 -0.66999066803E+01  0.52854617738E+02  0.29249916664E+03  0.29731172505E+03  0.00000000000E+00 0. -1.
          1    1    1    2  502    0 -0.78188656673E+02 -0.54551579199E+02  0.10004691999E+04  0.10050014731E+04  0.00000000000E+00 0. -1.
         22    1    3    3    0    0  0.51638152766E+02  0.31005257607E+02  0.39378346400E+03  0.39836320279E+03  0.00000000000E+00 0.  1.
         22    1    3    3    0    0  0.33250410588E+02 -0.29308296146E+02  0.35654099810E+02  0.56883924447E+02  0.00000000000E+00 0.  1.
</event>
<event>
 7    1  0.9036454E-005  0.3635588E+03  0.7818608E-02  0.1173549E+00
          2   -1    0    0  502    0  0.00000000000E+00  0.00000000000E+00  0.74784948349E+03  0.74784948349E+03  0.00000000000E+00 0. -1.
          1   -1    0    0  501    0 -0.00000000000E+00 -0.00000000000E+00 -0.20242455531E+04  0.20242455531E+04  0.00000000000E+00 0. -1.
         25    2    1    2    0    0 -0.24946435320E+03  0.23328296350E+03 -0.12776503091E+04  0.13284083130E+04  0.12499971708E+03 0.  0.
          2    1    1    2  501    0  0.46240062099E+02  0.69476560457E+02 -0.67246186554E+03  0.67762090907E+03  0.00000000000E+00 0. -1.
          1    1    1    2  502    0  0.20322429111E+03 -0.30275952395E+03  0.67371610506E+03  0.76606581445E+03  0.00000000000E+00 0. -1.
         22    1    3    3    0    0 -0.16642667001E+03  0.11296941373E+03 -0.53626523417E+03  0.57274804784E+03  0.00000000000E+00 0. -1.
         22    1    3    3    0    0 -0.83037683191E+02  0.12031354976E+03 -0.74138507492E+03  0.75566026520E+03  0.00000000000E+00 0. -1.
</event>
<event>
 7    1  0.9036454E-005  0.1793068E+03  0.7818608E-02  0.1271533E+00
          2   -1    0    0  502    0  0.00000000000E+00  0.00000000000E+00  0.15402805684E+04  0.15402805684E+04  0.00000000000E+00 0. -1.
          1   -1    0    0  501    0 -0.00000000000E+00 -0.00000000000E+00 -0.10211583694E+03  0.10211583694E+03  0.00000000000E+00 0. -1.
         25    2    1    2    0    0  0.27590527725E+02 -0.14352835677E+03  0.23890563341E+03  0.30669414741E+03  0.12499508776E+03 0.  0.
          2    1    1    2  501    0 -0.76904873977E+00  0.19792895279E+03  0.77906958893E+02  0.21271096830E+03  0.00000000000E+00 0. -1.
          1    1    1    2  502    0 -0.26821478985E+02 -0.54400596025E+02  0.11213521392E+04  0.11229912897E+04  0.00000000000E+00 0. -1.
         22    1    3    3    0    0  0.19838162849E+02 -0.16170953191E+03  0.17192431316E+03  0.23685754130E+03  0.00000000000E+00 0.  1.
         22    1    3    3    0    0  0.77523648763E+01  0.18181175139E+02  0.66981320252E+02  0.69836606112E+02  0.00000000000E+00 0.  1.
</event>
<event>
 7    1  0.9036454E-005  0.1867989E+03  0.7818608E-02  0.1286494E+00
          2   -1    0    0  502    0  0.00000000000E+00  0.00000000000E+00  0.84497658067E+02  0.84497658067E+02  0.00000000000E+00 0. -1.
          1   -1    0    0  501    0 -0.00000000000E+00 -0.00000000000E+00 -0.13017465330E+04  0.13017465330E+04  0.00000000000E+00 0. -1.
         25    2    1    2    0    0 -0.13824443078E+03 -0.15579512121E+03 -0.33884302776E+03  0.41692068141E+03  0.12499845878E+03 0.  0.
          2    1    1    2  501    0  0.50476613559E+02  0.83604992276E+00 -0.74525263591E+03  0.74696056043E+03  0.00000000000E+00 0. -1.
          1    1    1    2  502    0  0.87767817222E+02  0.15495907129E+03 -0.13315321123E+03  0.22236294920E+03  0.00000000000E+00 0. -1.
         22    1    3    3    0    0  0.12805728026E+01 -0.74459632478E+02 -0.64255122835E+02  0.98359532054E+02  0.00000000000E+00 0.  1.
         22    1    3    3    0    0 -0.13952500358E+03 -0.81335488731E+02 -0.27458790492E+03  0.31856114936E+03  0.00000000000E+00 0.  1.
</event>
<event>
 7    1  0.9036454E-005  0.1159605E+03  0.7818608E-02  0.1282307E+00
          2   -1    0    0  502    0  0.00000000000E+00  0.00000000000E+00  0.11114566899E+04  0.11114566899E+04  0.00000000000E+00 0. -1.
          1   -1    0    0  501    0 -0.00000000000E+00 -0.00000000000E+00 -0.88489762787E+03  0.88489762787E+03  0.00000000000E+00 0. -1.
         25    2    1    2    0    0 -0.15353979475E+03 -0.75967633650E+02  0.11312121329E+03  0.24034539766E+03  0.12499580532E+03 0.  0.
          2    1    1    2  501    0  0.70300621453E+02  0.91110740975E+02 -0.81532198840E+03  0.82340347902E+03  0.00000000000E+00 0. -1.
          1    1    1    2  502    0  0.83239173297E+02 -0.15143107325E+02  0.92875983717E+03  0.93260544113E+03  0.00000000000E+00 0. -1.
         22    1    3    3    0    0 -0.16286778435E+03 -0.39580127505E+02  0.66122847304E+02  0.18017972307E+03  0.00000000000E+00 0. -1.
         22    1    3    3    0    0  0.93279895969E+01 -0.36387506145E+02  0.46998365984E+02  0.60165674587E+02  0.00000000000E+00 0. -1.
</event>
<event>
 7    1  0.9036454E-005  0.1557367E+03  0.7818608E-02  0.1262709E+00
          2   -1    0    0  502    0  0.00000000000E+00  0.00000000000E+00  0.95764027630E+02  0.95764027630E+02  0.00000000000E+00 0. -1.
          1   -1    0    0  501    0 -0.00000000000E+00 -0.00000000000E+00 -0.18215989437E+04  0.18215989437E+04  0.00000000000E+00 0. -1.
         25    2    1    2    0    0  0.10163885302E+03 -0.78210250801E+02 -0.57822291247E+02  0.18818913893E+03  0.12499773946E+03 0.  0.
          2    1    1    2  501    0 -0.64347701532E+02  0.14452758330E+03 -0.16407412454E+04  0.16483508981E+04  0.00000000000E+00 0. -1.
          1    1    1    2  502    0 -0.37291151489E+02 -0.66317332495E+02 -0.27271379429E+02  0.80822934273E+02  0.00000000000E+00 0. -1.
         22    1    3    3    0    0  0.31917202764E+02 -0.11163167657E+02 -0.81817087778E+02  0.88528865331E+02  0.00000000000E+00 0.  1.
         22    1    3    3    0    0  0.69721650257E+02 -0.67047083144E+02  0.23994796530E+02  0.99660273595E+02  0.00000000000E+00 0.  1.
</event>
<event>
 7    1  0.9036454E-005  0.1699183E+03  0.7818608E-02  0.1313539E+00
          2   -1    0    0  502    0  0.00000000000E+00  0.00000000000E+00  0.22259085581E+04  0.22259085581E+04  0.00000000000E+00 0. -1.
          1   -1    0    0  501    0 -0.00000000000E+00 -0.00000000000E+00 -0.69991765740E+03  0.69991765740E+03  0.00000000000E+00 0. -1.
         25    2    1    2    0    0 -0.15466009506E+03  0.13220642285E+03  0.54024123049E+03  0.59067078545E+03  0.12503242145E+03 0.  0.
          2    1    1    2  501    0  0.11169104898E+03 -0.12726512041E+03 -0.66379125974E+03  0.68504754419E+03  0.00000000000E+00 0. -1.
          1    1    1    2  502    0  0.42969046076E+02 -0.49413024459E+01  0.16495409299E+04  0.16501078859E+04  0.00000000000E+00 0. -1.
         22    1    3    3    0    0 -0.11330586547E+03  0.59138123508E+02  0.17991342015E+03  0.22069067845E+03  0.00000000000E+00 0.  1.
         22    1    3    3    0    0 -0.41354229586E+02  0.73068299346E+02  0.36032781033E+03  0.36998010700E+03  0.00000000000E+00 0.  1.
</event>
<event>
 7    1  0.9036454E-005  0.7524184E+02  0.7818608E-02  0.1349359E+00
          2   -1    0    0  502    0  0.00000000000E+00  0.00000000000E+00  0.13159905178E+04  0.13159905178E+04  0.00000000000E+00 0. -1.
          1   -1    0    0  501    0 -0.00000000000E+00 -0.00000000000E+00 -0.25481489535E+02  0.25481489535E+02  0.00000000000E+00 0. -1.
         25    2    1    2    0    0  0.52739400203E+02 -0.52854876664E+02  0.30207064877E+03  0.33533321635E+03  0.12500642712E+03 0.  0.
          2    1    1    2  501    0  0.81714107910E+01  0.89959211298E+02  0.28211033111E+03  0.29621895714E+03  0.00000000000E+00 0. -1.
          1    1    1    2  502    0 -0.60910810994E+02 -0.37104334634E+02  0.70632804839E+03  0.70991983384E+03  0.00000000000E+00 0. -1.
         22    1    3    3    0    0 -0.37680091872E+02 -0.13705478435E+02  0.46344178727E+02  0.61281419407E+02  0.00000000000E+00 0.  1.
         22    1    3    3    0    0  0.90419492075E+02 -0.39149398229E+02  0.25572647004E+03  0.27405179695E+03  0.00000000000E+00 0.  1.
</event>
<event>
 7    1  0.9036454E-005  0.1089014E+03  0.7818608E-02  0.1272334E+00
          2   -1    0    0  502    0  0.00000000000E+00  0.00000000000E+00  0.22528970950E+03  0.22528970950E+03  0.00000000000E+00 0. -1.
          1   -1    0    0  501    0 -0.00000000000E+00 -0.00000000000E+00 -0.21987796159E+04  0.21987796159E+04  0.00000000000E+00 0. -1.
         25    2    1    2    0    0 -0.71868019369E+01 -0.14610304415E+03 -0.44979920403E+03  0.48922633662E+03  0.12500133945E+03 0.  0.
          2    1    1    2  501    0  0.76930165722E+02  0.62466920721E+02 -0.17133121133E+04  0.17161756216E+04  0.00000000000E+00 0. -1.
          1    1    1    2  502    0 -0.69743363786E+02  0.83636123426E+02  0.18962141100E+03  0.21866736712E+03  0.00000000000E+00 0. -1.
         22    1    3    3    0    0 -0.31844134471E+02 -0.11948685222E+03 -0.43094918384E+03  0.44833955414E+03  0.00000000000E+00 0. -1.
         22    1    3    3    0    0  0.24657332534E+02 -0.26616191926E+02 -0.18850020191E+02  0.40886782480E+02  0.00000000000E+00 0. -1.
</event>
<event>
 7    1  0.9036454E-005  0.3819044E+03  0.7818608E-02  0.1104513E+00
          2   -1    0    0  502    0  0.00000000000E+00  0.00000000000E+00  0.11512472523E+04  0.11512472523E+04  0.00000000000E+00 0. -1.
          1   -1    0    0  501    0 -0.00000000000E+00 -0.00000000000E+00 -0.28977819261E+03  0.28977819261E+03  0.00000000000E+00 0. -1.
         25    2    1    2    0    0  0.47384659721E+03  0.10393342059E+03  0.65324780877E+03  0.82322021514E+03  0.12500427732E+03 0.  0.
          2    1    1    2  501    0 -0.30908152576E+03 -0.18375977778E+03  0.27629732476E+02  0.36064171641E+03  0.00000000000E+00 0. -1.
          1    1    1    2  502    0 -0.16476507144E+03  0.79826357191E+02  0.18059151844E+03  0.25716351336E+03  0.00000000000E+00 0. -1.
         22    1    3    3    0    0  0.91871206093E+02 -0.17452573756E+02  0.76160577054E+02  0.12060408093E+03  0.00000000000E+00 0. -1.
         22    1    3    3    0    0  0.38197539111E+03  0.12138599435E+03  0.57708723172E+03  0.70261613421E+03  0.00000000000E+00 0. -1.
</event>
<event>
 7    1  0.9036454E-005  0.3936088E+03  0.7818608E-02  0.1163527E+00
          2   -1    0    0  502    0  0.00000000000E+00  0.00000000000E+00  0.21784437640E+04  0.21784437640E+04  0.00000000000E+00 0. -1.
          1   -1    0    0  501    0 -0.00000000000E+00 -0.00000000000E+00 -0.26798487825E+03  0.26798487825E+03  0.00000000000E+00 0. -1.
         25    2    1    2    0    0  0.26060314790E+03  0.24938316060E+03  0.18708993066E+03  0.42512765806E+03  0.12499968804E+03 0.  0.
          2    1    1    2  501    0 -0.34703721088E+03 -0.25198373986E+03  0.16341167347E+03  0.45894880533E+03  0.00000000000E+00 0. -1.
          1    1    1    2  502    0  0.86434062977E+02  0.26005792692E+01  0.15599572816E+04  0.15623521788E+04  0.00000000000E+00 0. -1.
         22    1    3    3    0    0  0.21278862625E+03  0.13344459734E+03  0.15684953926E+03  0.29612199849E+03  0.00000000000E+00 0.  1.
         22    1    3    3    0    0  0.47814521648E+02  0.11593856326E+03  0.30240391401E+02  0.12900565958E+03  0.00000000000E+00 0.  1.
</event>
<event>
 7    1  0.9036454E-005  0.9240906E+03  0.7818608E-02  0.1196212E+00
          2   -1    0    0  502    0  0.00000000000E+00  0.00000000000E+00  0.67350476343E+03  0.67350476343E+03  0.00000000000E+00 0. -1.
          1   -1    0    0  501    0 -0.00000000000E+00 -0.00000000000E+00 -0.18920037934E+04  0.18920037934E+04  0.00000000000E+00 0. -1.
         25    2    1    2    0    0  0.69938127077E+03  0.57969376520E+03 -0.15738140429E+03  0.93036183412E+03  0.12500085068E+03 0.  0.
          2    1    1    2  501    0 -0.72449824005E+03 -0.58412472710E+03 -0.11860794621E+04  0.15076086651E+04  0.00000000000E+00 0. -1.
          1    1    1    2  502    0  0.25116969287E+02  0.44309618979E+01  0.12496183644E+03  0.12753805760E+03  0.00000000000E+00 0. -1.
         22    1    3    3    0    0  0.15098475086E+03  0.74491527818E+02 -0.58329068665E+02  0.17817873880E+03  0.00000000000E+00 0. -1.
         22    1    3    3    0    0  0.54839651990E+03  0.50520223738E+03 -0.99052335623E+02  0.75218309532E+03  0.00000000000E+00 0. -1.
</event>
<event>
 7    1  0.9036454E-005  0.1332923E+03  0.7818608E-02  0.1294064E+00
          2   -1    0    0  502    0  0.00000000000E+00  0.00000000000E+00  0.22414388143E+04  0.22414388143E+04  0.00000000000E+00 0. -1.
          1   -1    0    0  501    0 -0.00000000000E+00 -0.00000000000E+00 -0.16139697109E+03  0.16139697109E+03  0.00000000000E+00 0. -1.
         25    2    1    2    0    0 -0.79456373048E+02 -0.13905888417E+03  0.85180389374E+03  0.87569730127E+03  0.12500080635E+03 0.  0.
          2    1    1    2  501    0  0.10672631110E+03  0.79055618438E+02 -0.11897606098E+03  0.17831320583E+03  0.00000000000E+00 0. -1.
          1    1    1    2  502    0 -0.27269938052E+02  0.60003265734E+02  0.13472140105E+04  0.13488252783E+04  0.00000000000E+00 0. -1.
         22    1    3    3    0    0  0.26078825061E+02 -0.34530438833E+02  0.94121202739E+02  0.10359178118E+03  0.00000000000E+00 0. -1.
         22    1    3    3    0    0 -0.10553519811E+03 -0.10452844534E+03  0.75768269100E+03  0.77210552010E+03  0.00000000000E+00 0. -1.
</event>
<event>
 7    1  0.9036454E-005  0.1118470E+04  0.7818608E-02  0.1050243E+00
          2   -1    0    0  502    0  0.00000000000E+00  0.00000000000E+00  0.15398283548E+04  0.15398283548E+04  0.00000000000E+00 0. -1.
          1   -1    0    0  501    0 -0.00000000000E+00 -0.00000000000E+00 -0.97311463440E+03  0.97311463440E+03  0.00000000000E+00 0. -1.
         25    2    1    2    0    0  0.29729540238E+03  0.10483376004E+04  0.31666859250E+03  0.11416215758E+04  0.12499817677E+03 0.  0.
          2    1    1    2  501    0 -0.42687637850E+03 -0.10627600770E+04  0.67869275850E+02  0.11472962401E+04  0.00000000000E+00 0. -1.
          1    1    1    2  502    0  0.12958097612E+03  0.14422476606E+02  0.18217585203E+03  0.22402517329E+03  0.00000000000E+00 0. -1.
         22    1    3    3    0    0  0.30896586116E+03  0.98281693772E+03  0.29530566149E+03  0.10717249974E+04  0.00000000000E+00 0. -1.
         22    1    3    3    0    0 -0.11670458788E+02  0.65520662701E+02  0.21362931002E+02  0.69896578386E+02  0.00000000000E+00 0. -1.
</event>
<event>
 7    1  0.9036454E-005  0.2789292E+02  0.7818608E-02  0.1641308E+00
          2   -1    0    0  502    0  0.00000000000E+00  0.00000000000E+00  0.12678816278E+03  0.12678816278E+03  0.00000000000E+00 0. -1.
          1   -1    0    0  501    0 -0.00000000000E+00 -0.00000000000E+00 -0.56385669637E+03  0.56385669637E+03  0.00000000000E+00 0. -1.
         25    2    1    2    0    0  0.18648911526E+01 -0.26990904850E+01 -0.91704328949E+02  0.15507031151E+03  0.12500541850E+03 0.  0.
          2    1    1    2  501    0 -0.11166090180E+02  0.25946285574E+02 -0.43835885888E+03  0.43926800528E+03  0.00000000000E+00 0. -1.
          1    1    1    2  502    0  0.93011990279E+01 -0.23247195089E+02  0.92994654238E+02  0.96306542352E+02  0.00000000000E+00 0. -1.
         22    1    3    3    0    0 -0.17882094425E+02 -0.53117304286E+02 -0.83114403390E+02  0.10024580473E+03  0.00000000000E+00 0. -1.
         22    1    3    3    0    0  0.19746985578E+02  0.50418213801E+02 -0.85899255592E+01  0.54824506778E+02  0.00000000000E+00 0. -1.
</event>
<event>
 7    1  0.9036454E-005  0.3917273E+03  0.7818608E-02  0.1094627E+00
          2   -1    0    0  502    0  0.00000000000E+00  0.00000000000E+00  0.90589556010E+03  0.90589556010E+03  0.00000000000E+00 0. -1.
          1   -1    0    0  501    0 -0.00000000000E+00 -0.00000000000E+00 -0.12317289934E+04  0.12317289934E+04  0.00000000000E+00 0. -1.
         25    2    1    2    0    0 -0.47487802646E+02  0.21467482315E+03 -0.30339608126E+03  0.39498702634E+03  0.12500079104E+03 0.  0.
          2    1    1    2  501    0 -0.10417100509E+03  0.17416362438E+03 -0.81877754777E+03  0.84355274826E+03  0.00000000000E+00 0. -1.
          1    1    1    2  502    0  0.15165880773E+03 -0.38883844753E+03  0.79634019575E+03  0.89908477888E+03  0.00000000000E+00 0. -1.
         22    1    3    3    0    0 -0.65494146524E+02  0.40980748452E+02 -0.77098022399E+02  0.10914673623E+03  0.00000000000E+00 0.  1.
         22    1    3    3    0    0  0.18006343879E+02  0.17369407469E+03 -0.22629805886E+03  0.28584029010E+03  0.00000000000E+00 0.  1.
</event>
<event>
 7    1  0.9036454E-005  0.4923150E+03  0.7818608E-02  0.1262247E+00
          2   -1    0    0  502    0  0.00000000000E+00  0.00000000000E+00  0.19289941552E+04  0.19289941552E+04  0.00000000000E+00 0. -1.
          1   -1    0    0  501    0 -0.00000000000E+00 -0.00000000000E+00 -0.45856770920E+03  0.45856770920E+03  0.00000000000E+00 0. -1.
         25    2    1    2    0    0 -0.50855047981E+03 -0.68737337382E+02  0.90669314407E+03  0.10493140143E+04  0.12497612204E+03 0.  0.
          2    1    1    2  501    0  0.48447592590E+03  0.66516217584E+02 -0.23261921599E+03  0.54152841996E+03  0.00000000000E+00 0. -1.
          1    1    1    2  502    0  0.24074553908E+02  0.22211197977E+01  0.79635251797E+03  0.79671943016E+03  0.00000000000E+00 0. -1.
         22    1    3    3    0    0 -0.62882651008E+01  0.39228069465E+01 -0.27100297187E+01  0.78914481176E+01  0.00000000000E+00 0.  1.
         22    1    3    3    0    0 -0.50226221471E+03 -0.72660144329E+02  0.90940317379E+03  0.10414225662E+04  0.00000000000E+00 0.  1.
</event>
<event>
 7    1  0.9036454E-005  0.1043544E+03  0.7818608E-02  0.1293592E+00
          2   -1    0    0  502    0  0.00000000000E+00  0.00000000000E+00  0.99472462691E+03  0.99472462691E+03  0.00000000000E+00 0. -1.
          1   -1    0    0  501    0 -0.00000000000E+00 -0.00000000000E+00 -0.11825554472E+03  0.11825554472E+03  0.00000000000E+00 0. -1.
         25    2    1    2    0    0  0.26416259274E+02  0.90230193329E+02 -0.21780187537E+02  0.15791973127E+03  0.12499983365E+03 0.  0.
          2    1    1    2  501    0  0.35570661266E+02 -0.14774121936E+03  0.19734373998E+03  0.24907286394E+03  0.00000000000E+00 0. -1.
          1    1    1    2  502    0 -0.61986920540E+02  0.57511026036E+02  0.70090552975E+03  0.70598757642E+03  0.00000000000E+00 0. -1.
         22    1    3    3    0    0 -0.77424858101E+00  0.11559461877E+03 -0.30854538381E+02  0.11964413019E+03  0.00000000000E+00 0. -1.
         22    1    3    3    0    0  0.27190507855E+02 -0.25364425440E+02  0.90743508437E+01  0.38275601087E+02  0.00000000000E+00 0. -1.
</event>
<event>
 7    1  0.9036454E-005  0.3420131E+02  0.7818608E-02  0.1612259E+00
          2   -1    0    0  502    0  0.00000000000E+00  0.00000000000E+00  0.14103884650E+03  0.14103884650E+03  0.00000000000E+00 0. -1.
          1   -1    0    0  501    0 -0.00000000000E+00 -0.00000000000E+00 -0.93413268720E+03  0.93413268720E+03  0.00000000000E+00 0. -1.
         25    2    1    2    0    0 -0.56330477558E+02 -0.12652935054E+02 -0.49270345463E+03  0.51158091172E+03  0.12500046226E+03 0.  0.
          2    1    1    2  501    0  0.24136588581E+02  0.14142419680E+01 -0.42943585669E+03  0.43011594948E+03  0.00000000000E+00 0. -1.
          1    1    1    2  502    0  0.32193888977E+02  0.11238693086E+02  0.12904547062E+03  0.13347467250E+03  0.00000000000E+00 0. -1.
         22    1    3    3    0    0 -0.72780635843E+02 -0.52919469025E+02 -0.38604396041E+03  0.39639302532E+03  0.00000000000E+00 0. -1.
         22    1    3    3    0    0  0.16450158286E+02  0.40266533971E+02 -0.10665949422E+03  0.11518788640E+03  0.00000000000E+00 0. -1.
</event>
<event>
 7    1  0.9036454E-005  0.1461600E+03  0.7818608E-02  0.1369135E+00
          2   -1    0    0  502    0  0.00000000000E+00  0.00000000000E+00  0.15142209992E+04  0.15142209992E+04  0.00000000000E+00 0. -1.
          1   -1    0    0  501    0 -0.00000000000E+00 -0.00000000000E+00 -0.11231714168E+03  0.11231714168E+03  0.00000000000E+00 0. -1.
         25    2    1    2    0    0 -0.23687065017E+02  0.15546684454E+03  0.30052368224E+03  0.36148283134E+03  0.12499734784E+03 0.  0.
          2    1    1    2  501    0 -0.24692475921E+02 -0.18888175426E+02 -0.74267865354E+02  0.80512094509E+02  0.00000000000E+00 0. -1.
          1    1    1    2  502    0  0.48379540939E+02 -0.13657866912E+03  0.11756480407E+04  0.11845432151E+04  0.00000000000E+00 0. -1.
         22    1    3    3    0    0  0.39074973975E+02  0.11570410956E+02  0.90667425427E+02  0.99404778730E+02  0.00000000000E+00 0.  1.
         22    1    3    3    0    0 -0.62762038992E+02  0.14389643358E+03  0.20985625681E+03  0.26207805261E+03  0.00000000000E+00 0.  1.
</event>
