<event>
 7    1  0.6520971E-006  0.7571183E+02  0.7818608E-02  0.1378055E+00
          2   -1    0    0  502    0  0.00000000000E+00  0.00000000000E+00  0.20663293120E+04  0.20663293120E+04  0.00000000000E+00 0. -1.
          1   -1    0    0  501    0 -0.00000000000E+00 -0.00000000000E+00 -0.67411491889E+02  0.67411491889E+02  0.00000000000E+00 0. -1.
         25    2    1    2    0    0  0.36725126539E+02 -0.12261373426E+03  0.39918891809E+03  0.43744591318E+03  0.12499708749E+03 0.  0.
          2    1    1    2  501    0 -0.72608136496E+01  0.55290970339E+02 -0.31072758580E+02  0.63838288994E+02  0.00000000000E+00 0. -1.
          1    1    1    2  502    0 -0.29464312889E+02  0.67322763916E+02  0.16308016606E+04  0.16324566017E+04  0.00000000000E+00 0. -1.
         22    1    3    3    0    0  0.24165305950E+02 -0.72223830209E+02  0.37023734343E+03  0.37798933072E+03  0.00000000000E+00 0.  1.
         22    1    3    3    0    0  0.12559820589E+02 -0.50389904047E+02  0.28951574659E+02  0.59456582464E+02  0.00000000000E+00 0.  1.
</event>
<event>
 7    1  0.6520971E-006  0.8592981E+02  0.7818608E-02  0.1413645E+00
          2   -1    0    0  502    0  0.00000000000E+00  0.00000000000E+00  0.38564952359E+03  0.38564952359E+03  0.00000000000E+00 0. -1.
          1   -1    0    0  501    0 -0.00000000000E+00 -0.00000000000E+00 -0.17666872621E+03  0.17666872621E+03  0.00000000000E+00 0. -1.
         25    2    1    2    0    0 -0.83399670265E+02  0.84991787218E+02  0.75204852361E+02  0.18830929514E+03  0.12500204768E+03 0.  0.
          2    1    1    2  501    0  0.60287284059E+02 -0.56094866124E+02 -0.10440425205E+03  0.13297157016E+03  0.00000000000E+00 0. -1.
          1    1    1    2  502    0  0.23112386206E+02 -0.28896921094E+02  0.23818019707E+03  0.24103738449E+03  0.00000000000E+00 0. -1.
         22    1    3    3    0    0 -0.83216964251E+02  0.10474860401E+03  0.27366279194E+02  0.13655125930E+03  0.00000000000E+00 0.  1.
         22    1    3    3    0    0 -0.18270601467E+00 -0.19756816790E+02  0.47838573167E+02  0.51758035838E+02  0.00000000000E+00 0.  1.
</event>
<event>
 7    1  0.6520971E-006  0.7795142E+02  0.7818608E-02  0.1445970E+00
          2   -1    0    0  502    0  0.00000000000E+00  0.00000000000E+00  0.17197929678E+03  0.17197929678E+03  0.00000000000E+00 0. -1.
          1   -1    0    0  501    0 -0.00000000000E+00 -0.00000000000E+00 -0.35952839062E+03  0.35952839062E+03  0.00000000000E+00 0. -1.
         25    2    1    2    0    0 -0.89782647202E+02  0.52214258529E+02 -0.86856141387E+02  0.18427236956E+03  0.12500025742E+03 0.  0.
          2    1    1    2  501    0  0.18680337456E+02 -0.25885738143E+02 -0.21099016135E+03  0.21339136495E+03  0.00000000000E+00 0. -1.
          1    1    1    2  502    0  0.71102309747E+02 -0.26328520387E+02  0.11029720890E+03  0.13384395290E+03  0.00000000000E+00 0. -1.
         22    1    3    3    0    0 -0.40752171989E+02  0.40184424768E+02 -0.11355512779E+03  0.12716247309E+03  0.00000000000E+00 0.  1.
         22    1    3    3    0    0 -0.49030475214E+02  0.12029833761E+02  0.26698986399E+02  0.57109896470E+02  0.00000000000E+00 0.  1.
</event>
<event>
 7    1  0.6520971E-006  0.1073486E+03  0.7818608E-02  0.1347799E+00
          2   -1    0    0  502    0  0.00000000000E+00  0.00000000000E+00  0.99091846963E+03  0.99091846963E+03  0.00000000000E+00 0. -1.
          1   -1    0    0  501    0 -0.00000000000E+00 -0.00000000000E+00 -0.17096966220E+03  0.17096966220E+03  0.00000000000E+00 0. -1.
         25    2    1    2    0    0  0.10531098193E+03 -0.38338905219E+02  0.46479996593E+03  0.49419109481E+03  0.12500222115E+03 0.  0.
          2    1    1    2  501    0 -0.10690339930E+03 -0.12297736143E+02 -0.13629177974E+03  0.17365200926E+03  0.00000000000E+00 0. -1.
          1    1    1    2  502    0  0.15924173682E+01  0.50636641362E+02  0.49144062124E+03  0.49404502775E+03  0.00000000000E+00 0. -1.
         22    1    3    3    0    0  0.38532166154E+02  0.39886670368E+02  0.24944488891E+03  0.25553556876E+03  0.00000000000E+00 0. -1.
         22    1    3    3    0    0  0.66778815775E+02 -0.78225575587E+02  0.21535507702E+03  0.23865552604E+03  0.00000000000E+00 0. -1.
</event>
<event>
 7    1  0.6520971E-006  0.8977070E+02  0.7818608E-02  0.1408932E+00
          2   -1    0    0  502    0  0.00000000000E+00  0.00000000000E+00  0.16028475385E+04  0.16028475385E+04  0.00000000000E+00 0. -1.
          1   -1    0    0  501    0 -0.00000000000E+00 -0.00000000000E+00 -0.23883688371E+03  0.23883688371E+03  0.00000000000E+00 0. -1.
         25    2    1    2    0    0 -0.54173033614E+02 -0.13465744007E+02  0.98025422768E+02  0.16837306940E+03  0.12499785261E+03 0.  0.
          2    1    1    2  501    0  0.88749456332E+02  0.25899247857E+02 -0.19292792523E+03  0.21393555425E+03  0.00000000000E+00 0. -1.
          1    1    1    2  502    0 -0.34576422719E+02 -0.12433503850E+02  0.14589131573E+04  0.14593757986E+04  0.00000000000E+00 0. -1.
         22    1    3    3    0    0 -0.32154871105E+02  0.50061263761E+02  0.78229409296E+02  0.98284822551E+02  0.00000000000E+00 0. -1.
         22    1    3    3    0    0 -0.22018162509E+02 -0.63527007769E+02  0.19796013472E+02  0.70088246844E+02  0.00000000000E+00 0. -1.
</event>
<event>
 7    1  0.6520971E-006  0.6308497E+02  0.7818608E-02  0.1420781E+00
          2   -1    0    0  502    0  0.00000000000E+00  0.00000000000E+00  0.51136207913E+03  0.51136207913E+03  0.00000000000E+00 0. -1.
          1   -1    0    0  501    0 -0.00000000000E+00 -0.00000000000E+00 -0.21476011279E+03  0.21476011279E+03  0.00000000000E+00 0. -1.
         25    2    1    2    0    0  0.79954841849E+02  0.24793528653E+02  0.30360161405E+03  0.33883141028E+03  0.12500115495E+03 0.  0.
          2    1    1    2  501    0 -0.22219807284E+02 -0.42209347013E+02 -0.18933000256E+03  0.19524650747E+03  0.00000000000E+00 0. -1.
          1    1    1    2  502    0 -0.57735034565E+02  0.17415818359E+02  0.18233035484E+03  0.19204427417E+03  0.00000000000E+00 0. -1.
         22    1    3    3    0    0  0.79892814530E+02  0.19944967854E+02  0.78789069738E+02  0.11396657873E+03  0.00000000000E+00 0. -1.
         22    1    3    3    0    0  0.62027318340E-01  0.48485607992E+01  0.22481254431E+03  0.22486483155E+03  0.00000000000E+00 0. -1.
</event>
<event>
 7    1  0.6520971E-006  0.6175907E+02  0.7818608E-02  0.1473679E+00
          2   -1    0    0  502    0  0.00000000000E+00  0.00000000000E+00  0.28989088432E+04  0.28989088432E+04  0.00000000000E+00 0. -1.
          1   -1    0    0  501    0 -0.00000000000E+00 -0.00000000000E+00 -0.32320009366E+03  0.32320009366E+03  0.00000000000E+00 0. -1.
         25    2    1    2    0    0  0.45135030783E+02  0.75003492700E+01  0.10143294010E+04  0.10230262524E+04  0.12500061229E+03 0.  0.
          2    1    1    2  501    0  0.54186964708E+01  0.32495099906E+02 -0.31744649962E+03  0.31915133387E+03  0.00000000000E+00 0. -1.
          1    1    1    2  502    0 -0.50553727254E+02 -0.39995449176E+02  0.18788258481E+04  0.18799313506E+04  0.00000000000E+00 0. -1.
         22    1    3    3    0    0  0.81595491416E+02 -0.17568510895E+02  0.78832518335E+03  0.79273139934E+03  0.00000000000E+00 0.  1.
         22    1    3    3    0    0 -0.36460460633E+02  0.25068860165E+02  0.22600421770E+03  0.23029485309E+03  0.00000000000E+00 0.  1.
</event>
<event>
 7    1  0.6520971E-006  0.3851105E+02  0.7818608E-02  0.1618975E+00
          2   -1    0    0  502    0  0.00000000000E+00  0.00000000000E+00  0.15614580498E+04  0.15614580498E+04  0.00000000000E+00 0. -1.
          1   -1    0    0  501    0 -0.00000000000E+00 -0.00000000000E+00 -0.12258515251E+03  0.12258515251E+03  0.00000000000E+00 0. -1.
         25    2    1    2    0    0 -0.22892305608E+02 -0.53941988182E+02  0.11289293926E+04  0.11373397603E+04  0.12500544396E+03 0.  0.
          2    1    1    2  501    0  0.11605714270E+02  0.36663241433E+02 -0.11499973135E+03  0.12125932577E+03  0.00000000000E+00 0. -1.
          1    1    1    2  502    0  0.11286591339E+02  0.17278746749E+02  0.42494323603E+03  0.42544411628E+03  0.00000000000E+00 0. -1.
         22    1    3    3    0    0  0.20954702644E+02 -0.17226548992E+02  0.92889135030E+03  0.92928735825E+03  0.00000000000E+00 0. -1.
         22    1    3    3    0    0 -0.43847008253E+02 -0.36715439190E+02  0.20003804235E+03  0.20805240204E+03  0.00000000000E+00 0. -1.
</event>
<event>
 7    1  0.6520971E-006  0.1417777E+03  0.7818608E-02  0.1238387E+00
          2   -1    0    0  502    0  0.00000000000E+00  0.00000000000E+00  0.33902928395E+03  0.33902928395E+03  0.00000000000E+00 0. -1.
          1   -1    0    0  501    0 -0.00000000000E+00 -0.00000000000E+00 -0.33586436590E+03  0.33586436590E+03  0.00000000000E+00 0. -1.
         25    2    1    2    0    0 -0.59577250799E+02 -0.25673097909E+02  0.79330314761E+02  0.16165437893E+03  0.12502112869E+03 0.  0.
          2    1    1    2  501    0  0.15623304085E+03 -0.19136632090E+02 -0.25815694070E+03  0.30235737095E+03  0.00000000000E+00 0. -1.
          1    1    1    2  502    0 -0.96655790049E+02  0.44809729998E+02  0.18199154399E+03  0.21088189997E+03  0.00000000000E+00 0. -1.
         22    1    3    3    0    0 -0.73871096208E+02 -0.44144218251E+02  0.98960775603E+02  0.13114452321E+03  0.00000000000E+00 0.  1.
         22    1    3    3    0    0  0.14293845409E+02  0.18471120343E+02 -0.19630460842E+02  0.30509855722E+02  0.00000000000E+00 0.  1.
</event>
<event>
 7    1  0.6520971E-006  0.3419583E+02  0.7818608E-02  0.1574986E+00
          2   -1    0    0  502    0  0.00000000000E+00  0.00000000000E+00  0.43594199239E+03  0.43594199239E+03  0.00000000000E+00 0. -1.
          1   -1    0    0  501    0 -0.00000000000E+00 -0.00000000000E+00 -0.22480048703E+03  0.22480048703E+03  0.00000000000E+00 0. -1.
         25    2    1    2    0    0 -0.61352177633E+02 -0.17552886822E+02  0.17405991751E+03  0.22359470384E+03  0.12500217265E+03 0.  0.
          2    1    1    2  501    0  0.33535875253E+02  0.54937435382E+01 -0.19760763386E+03  0.20050838662E+03  0.00000000000E+00 0. -1.
          1    1    1    2  502    0  0.27816302380E+02  0.12059143284E+02  0.23468922171E+03  0.23663938895E+03  0.00000000000E+00 0. -1.
         22    1    3    3    0    0  0.89096086656E+01 -0.18682209875E+02 -0.12540998444E+02  0.24200882926E+02  0.00000000000E+00 0.  1.
         22    1    3    3    0    0 -0.70261786298E+02  0.11293230533E+01  0.18660091596E+03  0.19939382092E+03  0.00000000000E+00 0.  1.
</event>
<event>
 7    1  0.6520971E-006  0.8779409E+02  0.7818608E-02  0.1442471E+00
          2   -1    0    0  502    0  0.00000000000E+00  0.00000000000E+00  0.11532555576E+04  0.11532555576E+04  0.00000000000E+00 0. -1.
          1   -1    0    0  501    0 -0.00000000000E+00 -0.00000000000E+00 -0.16167784061E+03  0.16167784061E+03  0.00000000000E+00 0. -1.
         25    2    1    2    0    0 -0.44434770314E+02  0.62671761534E+02  0.56279217713E+03  0.58160365643E+03  0.12500232007E+03 0.  0.
          2    1    1    2  501    0  0.14217287232E+02  0.25378602534E+02 -0.14711015249E+03  0.14995866660E+03  0.00000000000E+00 0. -1.
          1    1    1    2  502    0  0.30217483082E+02 -0.88050364069E+02  0.57589569234E+03  0.58337107518E+03  0.00000000000E+00 0. -1.
         22    1    3    3    0    0 -0.29488525236E+02  0.73687173151E+02  0.16216035449E+03  0.18054183220E+03  0.00000000000E+00 0. -1.
         22    1    3    3    0    0 -0.14946245078E+02 -0.11015411617E+02  0.40063182265E+03  0.40106182423E+03  0.00000000000E+00 0. -1.
</event>
<event>
 7    1  0.6520971E-006  0.9753468E+02  0.7818608E-02  0.1372117E+00
          2   -1    0    0  502    0  0.00000000000E+00  0.00000000000E+00  0.65787114105E+03  0.65787114105E+03  0.00000000000E+00 0. -1.
          1   -1    0    0  501    0 -0.00000000000E+00 -0.00000000000E+00 -0.85487341772E+03  0.85487341772E+03  0.00000000000E+00 0. -1.
         25    2    1    2    0    0  0.78233621877E+02  0.12832733589E+01 -0.38244407099E+03  0.40989500516E+03  0.12501320503E+03 0.  0.
          2    1    1    2  501    0  0.95230230020E+01 -0.44443701657E+02 -0.45385025040E+03  0.45612057657E+03  0.00000000000E+00 0. -1.
          1    1    1    2  502    0 -0.87756644879E+02  0.43160428298E+02  0.63929204472E+03  0.64672897704E+03  0.00000000000E+00 0. -1.
         22    1    3    3    0    0 -0.30273345891E+02  0.20982538387E+02 -0.83719840842E+02  0.91464496605E+02  0.00000000000E+00 0.  1.
         22    1    3    3    0    0  0.10850696777E+03 -0.19699265028E+02 -0.29872423015E+03  0.31843050855E+03  0.00000000000E+00 0.  1.
</event>
<event>
 7    1  0.6520971E-006  0.7953173E+02  0.7818608E-02  0.1451730E+00
          2   -1    0    0  502    0  0.00000000000E+00  0.00000000000E+00  0.14497227440E+04  0.14497227440E+04  0.00000000000E+00 0. -1.
          1   -1    0    0  501    0 -0.00000000000E+00 -0.00000000000E+00 -0.22253113513E+04  0.22253113513E+04  0.00000000000E+00 0. -1.
         25    2    1    2    0    0  0.43466635140E+02 -0.94872784743E+02  0.80117870971E+03  0.81755885920E+03  0.12499987879E+03 0.  0.
          2    1    1    2  501    0 -0.45822578293E+02  0.64979672501E+02 -0.22160568676E+04  0.22174828313E+04  0.00000000000E+00 0. -1.
          1    1    1    2  502    0  0.23559431535E+01  0.29893112243E+02  0.63928955063E+03  0.63999240478E+03  0.00000000000E+00 0. -1.
         22    1    3    3    0    0 -0.41649631039E+02 -0.43755524468E+02  0.22921654518E+03  0.23704316542E+03  0.00000000000E+00 0. -1.
         22    1    3    3    0    0  0.85116266179E+02 -0.51117260276E+02  0.57196216454E+03  0.58051569378E+03  0.00000000000E+00 0. -1.
</event>
<event>
 7    1  0.6520971E-006  0.1518476E+03  0.7818608E-02  0.1233404E+00
          2   -1    0    0  502    0  0.00000000000E+00  0.00000000000E+00  0.51715243117E+03  0.51715243117E+03  0.00000000000E+00 0. -1.
          1   -1    0    0  501    0 -0.00000000000E+00 -0.00000000000E+00 -0.14959552054E+04  0.14959552054E+04  0.00000000000E+00 0. -1.
         25    2    1    2    0    0 -0.49735965705E+02 -0.15994732997E+03 -0.28614018607E+01  0.20901931639E+03  0.12499628937E+03 0.  0.
          2    1    1    2  501    0 -0.76316996551E+02  0.71635955617E+02 -0.13736527170E+04  0.13776348504E+04  0.00000000000E+00 0. -1.
          1    1    1    2  502    0  0.12605296226E+03  0.88311374351E+02  0.39771134470E+03  0.42645346972E+03  0.00000000000E+00 0. -1.
         22    1    3    3    0    0 -0.38563433139E+02 -0.11612584993E+03 -0.59893267432E+02  0.13623345728E+03  0.00000000000E+00 0. -1.
         22    1    3    3    0    0 -0.11172532565E+02 -0.43821480038E+02  0.57031865571E+02  0.72785859116E+02  0.00000000000E+00 0. -1.
</event>
<event>
 7    1  0.6520971E-006  0.1061801E+03  0.7818608E-02  0.1442969E+00
          2   -1    0    0  502    0  0.00000000000E+00  0.00000000000E+00  0.23365159029E+03  0.23365159029E+03  0.00000000000E+00 0. -1.
          1   -1    0    0  501    0 -0.00000000000E+00 -0.00000000000E+00 -0.63693477607E+03  0.63693477607E+03  0.00000000000E+00 0. -1.
         25    2    1    2    0    0 -0.26827437373E+02 -0.11932594313E+03 -0.13480180062E+02  0.17540189896E+03  0.12500287518E+03 0.  0.
          2    1    1    2  501    0  0.17469428158E+02  0.16403295096E+02 -0.52470151521E+03  0.52524844509E+03  0.00000000000E+00 0. -1.
          1    1    1    2  502    0  0.93580092144E+01  0.10292264803E+03  0.13489850949E+03  0.16993602230E+03  0.00000000000E+00 0. -1.
         22    1    3    3    0    0 -0.21550126148E+02  0.81477127586E+01  0.32455568919E+02  0.39801471255E+02  0.00000000000E+00 0. -1.
         22    1    3    3    0    0 -0.52773112248E+01 -0.12747365589E+03 -0.45935748981E+02  0.13560042770E+03  0.00000000000E+00 0. -1.
</event>
<event>
 7    1  0.6520971E-006  0.6962937E+02  0.7818608E-02  0.1459213E+00
          2   -1    0    0  502    0  0.00000000000E+00  0.00000000000E+00  0.13173459429E+04  0.13173459429E+04  0.00000000000E+00 0. -1.
          1   -1    0    0  501    0 -0.00000000000E+00 -0.00000000000E+00 -0.19813136786E+03  0.19813136786E+03  0.00000000000E+00 0. -1.
         25    2    1    2    0    0 -0.45229274205E+02 -0.49606347628E+02  0.12956866113E+03  0.19212897417E+03  0.12497610891E+03 0.  0.
          2    1    1    2  501    0  0.27012727148E+02 -0.17939417227E+02 -0.16420617516E+03  0.16737735235E+03  0.00000000000E+00 0. -1.
          1    1    1    2  502    0  0.18216547057E+02  0.67545764855E+02  0.11538520891E+04  0.11559709843E+04  0.00000000000E+00 0. -1.
         22    1    3    3    0    0  0.37890203789E+02 -0.24448568507E+02  0.13311480796E+02  0.47016971044E+02  0.00000000000E+00 0. -1.
         22    1    3    3    0    0 -0.83119477993E+02 -0.25157779121E+02  0.11625718033E+03  0.14511200312E+03  0.00000000000E+00 0. -1.
</event>
<event>
 7    1  0.6520971E-006  0.5336289E+02  0.7818608E-02  0.1430403E+00
          2   -1    0    0  502    0  0.00000000000E+00  0.00000000000E+00  0.11893186989E+04  0.11893186989E+04  0.00000000000E+00 0. -1.
          1   -1    0    0  501    0 -0.00000000000E+00 -0.00000000000E+00 -0.96974902774E+03  0.96974902774E+03  0.00000000000E+00 0. -1.
         25    2    1    2    0    0  0.66820887339E+02 -0.58637900521E+01  0.22485906466E+02  0.14363320780E+03  0.12500186948E+03 0.  0.
          2    1    1    2  501    0 -0.37820789995E+02 -0.37779601942E+02 -0.90776809764E+03  0.90934076648E+03  0.00000000000E+00 0. -1.
          1    1    1    2  502    0 -0.29000097344E+02  0.43643391994E+02  0.11048518623E+04  0.11060937523E+04  0.00000000000E+00 0. -1.
         22    1    3    3    0    0  0.27999631737E+02  0.65315032112E+01 -0.51605320535E+02  0.59074097700E+02  0.00000000000E+00 0. -1.
         22    1    3    3    0    0  0.38821255602E+02 -0.12395293263E+02  0.74091227001E+02  0.84559110095E+02  0.00000000000E+00 0. -1.
</event>
<event>
 7    1  0.6520971E-006  0.5854958E+02  0.7818608E-02  0.1407295E+00
          2   -1    0    0  502    0  0.00000000000E+00  0.00000000000E+00  0.58448713479E+03  0.58448713479E+03  0.00000000000E+00 0. -1.
          1   -1    0    0  501    0 -0.00000000000E+00 -0.00000000000E+00 -0.25800584516E+03  0.25800584516E+03  0.00000000000E+00 0. -1.
         25    2    1    2    0    0  0.31988386622E+02 -0.90548414109E+02  0.83850983649E+01  0.15785443322E+03  0.12500176013E+03 0.  0.
          2    1    1    2  501    0  0.13223885507E+02  0.55733053107E+02 -0.17711668813E+03  0.18614877269E+03  0.00000000000E+00 0. -1.
          1    1    1    2  502    0 -0.45212272128E+02  0.34815361002E+02  0.49521287939E+03  0.49848977405E+03  0.00000000000E+00 0. -1.
         22    1    3    3    0    0  0.33004282249E+01  0.25465152389E+02 -0.22805573405E+02  0.34343281599E+02  0.00000000000E+00 0.  1.
         22    1    3    3    0    0  0.28687958397E+02 -0.11601356650E+03  0.31190671770E+02  0.12351115162E+03  0.00000000000E+00 0.  1.
</event>
<event>
 7    1  0.6520971E-006  0.7292848E+02  0.7818608E-02  0.1356159E+00
          2   -1    0    0  502    0  0.00000000000E+00  0.00000000000E+00  0.17239220723E+04  0.17239220723E+04  0.00000000000E+00 0. -1.
          1   -1    0    0  501    0 -0.00000000000E+00 -0.00000000000E+00 -0.13215845049E+02  0.13215845049E+02  0.00000000000E+00 0. -1.
         25    2    1    2    0    0  0.33951584764E+01  0.38215598320E+02  0.72829884087E+03  0.73994033208E+03  0.12498213618E+03 0.  0.
          2    1    1    2  501    0  0.41206388936E+02 -0.91456353691E+02  0.51770423516E+03  0.52733282301E+03  0.00000000000E+00 0. -1.
          1    1    1    2  502    0 -0.44601547413E+02  0.53240755372E+02  0.46470315126E+03  0.46986476230E+03  0.00000000000E+00 0. -1.
         22    1    3    3    0    0  0.44911827491E+01  0.65871247260E+02  0.68735878726E+03  0.69052247926E+03  0.00000000000E+00 0.  1.
         22    1    3    3    0    0 -0.10960242727E+01 -0.27655648940E+02  0.40940053611E+02  0.49417852819E+02  0.00000000000E+00 0.  1.
</event>
<event>
 7    1  0.6520971E-006  0.9138690E+02  0.7818608E-02  0.1361627E+00
          2   -1    0    0  502    0  0.00000000000E+00  0.00000000000E+00  0.14934870119E+03  0.14934870119E+03  0.00000000000E+00 0. -1.
          1   -1    0    0  501    0 -0.00000000000E+00 -0.00000000000E+00 -0.15863029556E+04  0.15863029556E+04  0.00000000000E+00 0. -1.
         25    2    1    2    0    0 -0.21846110329E+02  0.48758551713E+02 -0.28824007651E+02  0.13896336098E+03  0.12500137350E+03 0.  0.
          2    1    1    2  501    0 -0.45352657279E+01  0.52737566594E+02 -0.14726240044E+04  0.14735749991E+04  0.00000000000E+00 0. -1.
          1    1    1    2  502    0  0.26381376057E+02 -0.10149611831E+03  0.64493757711E+02  0.12311329667E+03  0.00000000000E+00 0. -1.
         22    1    3    3    0    0  0.34646242258E+02  0.64090951459E+02 -0.33604117359E+02  0.80232467648E+02  0.00000000000E+00 0.  1.
         22    1    3    3    0    0 -0.56492352587E+02 -0.15332399746E+02  0.47801097078E+01  0.58730893332E+02  0.00000000000E+00 0.  1.
</event>
<event>
 7    1  0.6520971E-006  0.3173925E+02  0.7818608E-02  0.1620622E+00
          2   -1    0    0  502    0  0.00000000000E+00  0.00000000000E+00  0.55602394195E+03  0.55602394195E+03  0.00000000000E+00 0. -1.
          1   -1    0    0  501    0 -0.00000000000E+00 -0.00000000000E+00 -0.19613263163E+03  0.19613263163E+03  0.00000000000E+00 0. -1.
         25    2    1    2    0    0  0.48243696081E+01 -0.55746245770E+02  0.46618214274E+02  0.14466211970E+03  0.12499180979E+03 0.  0.
          2    1    1    2  501    0 -0.48201364825E+01  0.30945307943E+02 -0.14510479789E+03  0.14844611201E+03  0.00000000000E+00 0. -1.
          1    1    1    2  502    0 -0.42331255324E-02  0.24800937827E+02  0.45837789393E+03  0.45904834188E+03  0.00000000000E+00 0. -1.
         22    1    3    3    0    0 -0.49282653793E+02 -0.61008626605E+02  0.98735288845E+01  0.79046309577E+02  0.00000000000E+00 0.  1.
         22    1    3    3    0    0  0.54107023401E+02  0.52623808343E+01  0.36744685390E+02  0.65615810120E+02  0.00000000000E+00 0.  1.
</event>
<event>
 7    1  0.6520971E-006  0.2092685E+03  0.7818608E-02  0.1322002E+00
          2   -1    0    0  502    0  0.00000000000E+00  0.00000000000E+00  0.21277725118E+03  0.21277725118E+03  0.00000000000E+00 0. -1.
          1   -1    0    0  501    0 -0.00000000000E+00 -0.00000000000E+00 -0.52799399014E+03  0.52799399014E+03  0.00000000000E+00 0. -1.
         25    2    1    2    0    0 -0.34006194494E+02 -0.22333090191E+03 -0.20411182497E+03  0.32911544551E+03  0.12498890498E+03 0.  0.
          2    1    1    2  501    0 -0.20274830529E+02  0.25468553579E+02 -0.18930630523E+03  0.19208485931E+03  0.00000000000E+00 0. -1.
          1    1    1    2  502    0  0.54281025023E+02  0.19786234834E+03  0.78201391242E+02  0.21957093651E+03  0.00000000000E+00 0. -1.
         22    1    3    3    0    0 -0.64216348290E+02 -0.11567824797E+03 -0.56324518546E+02  0.14379724556E+03  0.00000000000E+00 0.  1.
         22    1    3    3    0    0  0.30210153796E+02 -0.10765265394E+03 -0.14778730642E+03  0.18531819995E+03  0.00000000000E+00 0.  1.
</event>
<event>
 7    1  0.6520971E-006  0.7404594E+02  0.7818608E-02  0.1357344E+00
          2   -1    0    0  502    0  0.00000000000E+00  0.00000000000E+00  0.99197029681E+02  0.99197029681E+02  0.00000000000E+00 0. -1.
          1   -1    0    0  501    0 -0.00000000000E+00 -0.00000000000E+00 -0.60436309442E+03  0.60436309442E+03  0.00000000000E+00 0. -1.
         25    2    1    2    0    0  0.84293946038E+02 -0.62339447034E+02 -0.19447036652E+03  0.25384166050E+03  0.12500075662E+03 0.  0.
          2    1    1    2  501    0 -0.72718257551E+02 -0.43883597339E+01 -0.35913798712E+03  0.36645231133E+03  0.00000000000E+00 0. -1.
          1    1    1    2  502    0 -0.11575688487E+02  0.66727806768E+02  0.48442288906E+02  0.83266152273E+02  0.00000000000E+00 0. -1.
         22    1    3    3    0    0 -0.81983839741E+01  0.14681204400E+02 -0.98437415987E+02  0.99863287191E+02  0.00000000000E+00 0.  1.
         22    1    3    3    0    0  0.92492330012E+02 -0.77020651434E+02 -0.96032950531E+02  0.15397837331E+03  0.00000000000E+00 0.  1.
</event>
<event>
 7    1  0.6520971E-006  0.1267824E+03  0.7818608E-02  0.1284299E+00
          2   -1    0    0  502    0  0.00000000000E+00  0.00000000000E+00  0.23956216384E+04  0.23956216384E+04  0.00000000000E+00 0. -1.
          1   -1    0    0  501    0 -0.00000000000E+00 -0.00000000000E+00 -0.33810011478E+03  0.33810011478E+03  0.00000000000E+00 0. -1.
         25    2    1    2    0    0 -0.35232489341E+02 -0.16081904333E+03  0.57911531037E+03  0.61490107766E+03  0.12499879840E+03 0.  0.
          2    1    1    2  501    0  0.64354548601E+02  0.40312436161E+02 -0.31353291709E+03  0.32259803244E+03  0.00000000000E+00 0. -1.
          1    1    1    2  502    0 -0.29122059260E+02  0.12050660717E+03  0.17919391303E+04  0.17962226431E+04  0.00000000000E+00 0. -1.
         22    1    3    3    0    0 -0.33570732236E+02 -0.18019799641E+03  0.47815873747E+03  0.51208797115E+03  0.00000000000E+00 0.  1.
         22    1    3    3    0    0 -0.16617571054E+01  0.19378953085E+02  0.10095657290E+03  0.10281310651E+03  0.00000000000E+00 0.  1.
</event>
<event>
 7    1  0.6520971E-006  0.8917929E+02  0.7818608E-02  0.1333868E+00
          2   -1    0    0  502    0  0.00000000000E+00  0.00000000000E+00  0.11350059055E+04  0.11350059055E+04  0.00000000000E+00 0. -1.
          1   -1    0    0  501    0 -0.00000000000E+00 -0.00000000000E+00 -0.26518635026E+03  0.26518635026E+03  0.00000000000E+00 0. -1.
         25    2    1    2    0    0  0.21847174906E+01 -0.14590503216E+03  0.53975238106E+02  0.19957889478E+03  0.12500143004E+03 0.  0.
          2    1    1    2  501    0  0.27327131528E+02  0.63134350737E+02 -0.18424563465E+03  0.19667021190E+03  0.00000000000E+00 0. -1.
          1    1    1    2  502    0 -0.29511849019E+02  0.82770681426E+02  0.10000899518E+04  0.10039431491E+04  0.00000000000E+00 0. -1.
         22    1    3    3    0    0 -0.24531817201E+02  0.15184605900E+02  0.82734860799E+01  0.30013878180E+02  0.00000000000E+00 0.  1.
         22    1    3    3    0    0  0.26716534692E+02 -0.16108963806E+03  0.45701752026E+02  0.16956501660E+03  0.00000000000E+00 0.  1.
</event>
<event>
 7    1  0.6520971E-006  0.8365313E+02  0.7818608E-02  0.1392146E+00
          2   -1    0    0  502    0  0.00000000000E+00  0.00000000000E+00  0.16870151289E+04  0.16870151289E+04  0.00000000000E+00 0. -1.
          1   -1    0    0  501    0 -0.00000000000E+00 -0.00000000000E+00 -0.32729955265E+02  0.32729955265E+02  0.00000000000E+00 0. -1.
         25    2    1    2    0    0 -0.27365405775E+02 -0.64187239498E+02  0.34237487569E+03  0.37109910480E+03  0.12500049171E+03 0.  0.
          2    1    1    2  501    0  0.39906156048E+02 -0.20864378208E+02  0.12967520570E+02  0.46861286349E+02  0.00000000000E+00 0. -1.
          1    1    1    2  502    0 -0.12540750273E+02  0.85051617706E+02  0.12989427774E+04  0.13017846930E+04  0.00000000000E+00 0. -1.
         22    1    3    3    0    0 -0.16770819138E+02 -0.25064470039E+01 -0.53547403014E+01  0.17782460315E+02  0.00000000000E+00 0. -1.
         22    1    3    3    0    0 -0.10594586637E+02 -0.61680792494E+02  0.34772961600E+03  0.35331664448E+03  0.00000000000E+00 0. -1.
</event>
<event>
 7    1  0.6520971E-006  0.6750163E+02  0.7818608E-02  0.1489257E+00
          2   -1    0    0  502    0  0.00000000000E+00  0.00000000000E+00  0.27882986836E+04  0.27882986836E+04  0.00000000000E+00 0. -1.
          1   -1    0    0  501    0 -0.00000000000E+00 -0.00000000000E+00 -0.19426739093E+03  0.19426739093E+03  0.00000000000E+00 0. -1.
         25    2    1    2    0    0  0.12547298175E+02  0.87871082583E+02  0.10075283092E+04  0.10191253844E+04  0.12499797406E+03 0.  0.
          2    1    1    2  501    0  0.80491242117E+01 -0.25779055050E+02 -0.18689517797E+03  0.18883631968E+03  0.00000000000E+00 0. -1.
          1    1    1    2  502    0 -0.20596422387E+02 -0.62092027533E+02  0.17733981614E+04  0.17746043704E+04  0.00000000000E+00 0. -1.
         22    1    3    3    0    0  0.11892268242E+02  0.74764611731E+01  0.73130050788E+03  0.73143540818E+03  0.00000000000E+00 0.  1.
         22    1    3    3    0    0  0.65502993330E+00  0.80394621410E+02  0.27622780132E+03  0.28768997626E+03  0.00000000000E+00 0.  1.
</event>
<event>
 7    1  0.6520971E-006  0.6971207E+02  0.7818608E-02  0.1432944E+00
          2   -1    0    0  502    0  0.00000000000E+00  0.00000000000E+00  0.24595415950E+04  0.24595415950E+04  0.00000000000E+00 0. -1.
          1   -1    0    0  501    0 -0.00000000000E+00 -0.00000000000E+00 -0.23191070891E+03  0.23191070891E+03  0.00000000000E+00 0. -1.
         25    2    1    2    0    0  0.19722398332E+00  0.76942851772E+02  0.33902301140E+03  0.36943774808E+03  0.12500962408E+03 0.  0.
          2    1    1    2  501    0 -0.35602237479E+02 -0.16754151374E+02 -0.21433291691E+03  0.21791470848E+03  0.00000000000E+00 0. -1.
          1    1    1    2  502    0  0.35405013495E+02 -0.60188700398E+02  0.21029407916E+04  0.21040998474E+04  0.00000000000E+00 0. -1.
         22    1    3    3    0    0 -0.47958814980E+02 -0.72622074543E+01  0.90996337093E+02  0.10311702554E+03  0.00000000000E+00 0.  1.
         22    1    3    3    0    0  0.48156038964E+02  0.84205059227E+02  0.24802667431E+03  0.26632072255E+03  0.00000000000E+00 0.  1.
</event>
<event>
 7    1  0.6520971E-006  0.8217997E+02  0.7818608E-02  0.1380676E+00
          2   -1    0    0  502    0  0.00000000000E+00  0.00000000000E+00  0.31002397307E+04  0.31002397307E+04  0.00000000000E+00 0. -1.
          1   -1    0    0  501    0 -0.00000000000E+00 -0.00000000000E+00 -0.26264850828E+02  0.26264850828E+02  0.00000000000E+00 0. -1.
         25    2    1    2    0    0 -0.29725730819E+02  0.11102075481E+03  0.91987947637E+03  0.93542079177E+03  0.12499831822E+03 0.  0.
          2    1    1    2  501    0  0.47593820143E+02 -0.64013188036E+02  0.69254285922E+02  0.10563624414E+03  0.00000000000E+00 0. -1.
          1    1    1    2  502    0 -0.17868089324E+02 -0.47007566778E+02  0.20848411176E+04  0.20854475456E+04  0.00000000000E+00 0. -1.
         22    1    3    3    0    0  0.50393138755E+01  0.10187197152E+03  0.35401047963E+03  0.36841106519E+03  0.00000000000E+00 0. -1.
         22    1    3    3    0    0 -0.34765044694E+02  0.91487832994E+01  0.56586899674E+03  0.56700972659E+03  0.00000000000E+00 0. -1.
</event>
<event>
 7    1  0.6520971E-006  0.6372347E+02  0.7818608E-02  0.1444482E+00
          2   -1    0    0  502    0  0.00000000000E+00  0.00000000000E+00  0.22590682967E+03  0.22590682967E+03  0.00000000000E+00 0. -1.
          1   -1    0    0  501    0 -0.00000000000E+00 -0.00000000000E+00 -0.79415969517E+03  0.79415969517E+03  0.00000000000E+00 0. -1.
         25    2    1    2    0    0  0.75863640377E+02  0.31359143583E+02 -0.10131973624E+03  0.18063504181E+03  0.12499856624E+03 0.  0.
          2    1    1    2  501    0 -0.40434107652E+02 -0.48785160467E+02 -0.64953067219E+03  0.65261397707E+03  0.00000000000E+00 0. -1.
          1    1    1    2  502    0 -0.35429532725E+02  0.17426016883E+02  0.18259754293E+03  0.18681750597E+03  0.00000000000E+00 0. -1.
         22    1    3    3    0    0  0.21630073602E+02 -0.35453277629E+02 -0.82770277755E+02  0.92605150279E+02  0.00000000000E+00 0. -1.
         22    1    3    3    0    0  0.54233566775E+02  0.66812421212E+02 -0.18549458480E+02  0.88029891533E+02  0.00000000000E+00 0. -1.
</event>
<event>
 7    1  0.6520971E-006  0.5932723E+02  0.7818608E-02  0.1475278E+00
          2   -1    0    0  502    0  0.00000000000E+00  0.00000000000E+00  0.79968224553E+03  0.79968224553E+03  0.00000000000E+00 0. -1.
          1   -1    0    0  501    0 -0.00000000000E+00 -0.00000000000E+00 -0.22101677652E+03  0.22101677652E+03  0.00000000000E+00 0. -1.
         25    2    1    2    0    0 -0.41562839840E+02 -0.16469387677E+01  0.27660649465E+03  0.30637666143E+03  0.12500129489E+03 0.  0.
          2    1    1    2  501    0 -0.13279309503E+02  0.31197499041E+02 -0.20280986322E+03  0.20562457204E+03  0.00000000000E+00 0. -1.
          1    1    1    2  502    0  0.54842149343E+02 -0.29550560273E+02  0.50486883757E+03  0.50869778858E+03  0.00000000000E+00 0. -1.
         22    1    3    3    0    0 -0.19057915130E+02 -0.60494302953E+02  0.18178574970E+03  0.19253265597E+03  0.00000000000E+00 0. -1.
         22    1    3    3    0    0 -0.22504924710E+02  0.58847364185E+02  0.94820744947E+02  0.11384400546E+03  0.00000000000E+00 0. -1.
</event>
<event>
 7    1  0.6520971E-006  0.7943958E+02  0.7818608E-02  0.1398185E+00
          2   -1    0    0  502    0  0.00000000000E+00  0.00000000000E+00  0.49200936474E+03  0.49200936474E+03  0.00000000000E+00 0. -1.
          1   -1    0    0  501    0 -0.00000000000E+00 -0.00000000000E+00 -0.17466285009E+03  0.17466285009E+03  0.00000000000E+00 0. -1.
         25    2    1    2    0    0  0.44605877684E+02  0.10500988775E+03  0.29354127552E+03  0.33883617804E+03  0.12500685687E+03 0.  0.
          2    1    1    2  501    0 -0.17667484024E+02 -0.41593625286E+02 -0.14160948652E+03  0.14864527012E+03  0.00000000000E+00 0. -1.
          1    1    1    2  502    0 -0.26938393660E+02 -0.63416262467E+02  0.16541472565E+03  0.17919076668E+03  0.00000000000E+00 0. -1.
         22    1    3    3    0    0  0.15427451449E+02  0.99319480037E+02  0.29228231566E+03  0.30908140905E+03  0.00000000000E+00 0. -1.
         22    1    3    3    0    0  0.29178426235E+02  0.56904077154E+01  0.12589598564E+01  0.29754768986E+02  0.00000000000E+00 0. -1.
</event>
<event>
 7    1  0.6520971E-006  0.8776835E+02  0.7818608E-02  0.1333533E+00
          2   -1    0    0  502    0  0.00000000000E+00  0.00000000000E+00  0.61498209810E+03  0.61498209810E+03  0.00000000000E+00 0. -1.
          1   -1    0    0  501    0 -0.00000000000E+00 -0.00000000000E+00 -0.26014934458E+04  0.26014934458E+04  0.00000000000E+00 0. -1.
         25    2    1    2    0    0 -0.37212849348E+02 -0.15430423789E+02 -0.71497656392E+03  0.72693778074E+03  0.12499662385E+03 0.  0.
          2    1    1    2  501    0  0.97638912848E+02 -0.20115739945E+02 -0.18771917137E+04  0.18798368892E+04  0.00000000000E+00 0. -1.
          1    1    1    2  502    0 -0.60426063500E+02  0.35546163734E+02  0.60565692990E+03  0.60970087390E+03  0.00000000000E+00 0. -1.
         22    1    3    3    0    0  0.68307615502E+01 -0.62377713467E+02 -0.44443902675E+03  0.44884706408E+03  0.00000000000E+00 0.  1.
         22    1    3    3    0    0 -0.44043610898E+02  0.46947289677E+02 -0.27053753718E+03  0.27809071666E+03  0.00000000000E+00 0.  1.
</event>
<event>
 7    1  0.6520971E-006  0.1918141E+03  0.7818608E-02  0.1266031E+00
          2   -1    0    0  502    0  0.00000000000E+00  0.00000000000E+00  0.19744768335E+04  0.19744768335E+04  0.00000000000E+00 0. -1.
          1   -1    0    0  501    0 -0.00000000000E+00 -0.00000000000E+00 -0.27172051027E+03  0.27172051027E+03  0.00000000000E+00 0. -1.
         25    2    1    2    0    0 -0.14014731480E+03 -0.64181096972E+02  0.13094554227E+03  0.23775388073E+03  0.12497875703E+03 0.  0.
          2    1    1    2  501    0 -0.12838396593E+02 -0.58408395475E+02 -0.20873752656E+03  0.21713525758E+03  0.00000000000E+00 0. -1.
          1    1    1    2  502    0  0.15298571139E+03  0.12258949245E+03  0.17805483075E+04  0.17913082055E+04  0.00000000000E+00 0. -1.
         22    1    3    3    0    0 -0.67482999454E+01  0.47512227736E+01  0.78152536798E+02  0.78587102492E+02  0.00000000000E+00 0. -1.
         22    1    3    3    0    0 -0.13339901485E+03 -0.68932319746E+02  0.52793005471E+02  0.15916677824E+03  0.00000000000E+00 0. -1.
</event>
<event>
 7    1  0.6520971E-006  0.1134262E+03  0.7818608E-02  0.1429618E+00
          2   -1    0    0  502    0  0.00000000000E+00  0.00000000000E+00  0.18865614371E+04  0.18865614371E+04  0.00000000000E+00 0. -1.
          1   -1    0    0  501    0 -0.00000000000E+00 -0.00000000000E+00 -0.18174947680E+03  0.18174947680E+03  0.00000000000E+00 0. -1.
         25    2    1    2    0    0 -0.65118106720E+02  0.67693952663E+02  0.44726750236E+03  0.47381083377E+03  0.12500259386E+03 0.  0.
          2    1    1    2  501    0 -0.84059322095E+01  0.23331244870E+02 -0.16515018768E+03  0.16700176997E+03  0.00000000000E+00 0. -1.
          1    1    1    2  502    0  0.73524038929E+02 -0.91025197534E+02  0.14226946457E+04  0.14274983102E+04  0.00000000000E+00 0. -1.
         22    1    3    3    0    0  0.19357112127E+02  0.36116237330E+02  0.28701048611E+03  0.28992085045E+03  0.00000000000E+00 0.  1.
         22    1    3    3    0    0 -0.84475218847E+02  0.31577715333E+02  0.16025701625E+03  0.18388998331E+03  0.00000000000E+00 0.  1.
</event>
<event>
 7    1  0.6520971E-006  0.3183219E+03  0.7818608E-02  0.1207067E+00
          2   -1    0    0  502    0  0.00000000000E+00  0.00000000000E+00  0.10598708575E+04  0.10598708575E+04  0.00000000000E+00 0. -1.
          1   -1    0    0  501    0 -0.00000000000E+00 -0.00000000000E+00 -0.20814986988E+04  0.20814986988E+04  0.00000000000E+00 0. -1.
         25    2    1    2    0    0  0.15517139764E+03  0.31071328617E+03 -0.10673026548E+03  0.38423573330E+03  0.12499936132E+03 0.  0.
          2    1    1    2  501    0 -0.65325819079E+02 -0.81238689819E+01 -0.18083580101E+04  0.18095557887E+04  0.00000000000E+00 0. -1.
          1    1    1    2  502    0 -0.89845578559E+02 -0.30258941718E+03  0.89346043433E+03  0.94757803430E+03  0.00000000000E+00 0. -1.
         22    1    3    3    0    0  0.87151397003E+02  0.12013856527E+03  0.13214800945E+02  0.14900762339E+03  0.00000000000E+00 0. -1.
         22    1    3    3    0    0  0.68020000635E+02  0.19057472090E+03 -0.11994506642E+03  0.23522810991E+03  0.00000000000E+00 0. -1.
</event>
<event>
 7    1  0.6520971E-006  0.5198295E+02  0.7818608E-02  0.1525178E+00
          2   -1    0    0  502    0  0.00000000000E+00  0.00000000000E+00  0.23748109901E+03  0.23748109901E+03  0.00000000000E+00 0. -1.
          1   -1    0    0  501    0 -0.00000000000E+00 -0.00000000000E+00 -0.17002750314E+03  0.17002750314E+03  0.00000000000E+00 0. -1.
         25    2    1    2    0    0  0.18883126199E+02 -0.44606889857E+02 -0.14446788064E+02  0.13483372311E+03  0.12500030450E+03 0.  0.
          2    1    1    2  501    0  0.73653792894E+01  0.52687474259E+02 -0.86771497623E+02  0.10178168576E+03  0.00000000000E+00 0. -1.
          1    1    1    2  502    0 -0.26248505488E+02 -0.80805844019E+01  0.16867188156E+03  0.17089319329E+03  0.00000000000E+00 0. -1.
         22    1    3    3    0    0  0.60741775814E+02 -0.13177825995E+01 -0.36299671138E+02  0.70774048950E+02  0.00000000000E+00 0. -1.
         22    1    3    3    0    0 -0.41858649615E+02 -0.43289107258E+02  0.21852883074E+02  0.64059674160E+02  0.00000000000E+00 0. -1.
</event>
<event>
 7    1  0.6520971E-006  0.6239497E+02  0.7818608E-02  0.1448353E+00
          2   -1    0    0  502    0  0.00000000000E+00  0.00000000000E+00  0.11200918869E+04  0.11200918869E+04  0.00000000000E+00 0. -1.
          1   -1    0    0  501    0 -0.00000000000E+00 -0.00000000000E+00 -0.10999841136E+04  0.10999841136E+04  0.00000000000E+00 0. -1.
         25    2    1    2    0    0  0.32542038902E+02 -0.33908180318E+01 -0.16461251389E+03  0.20926740739E+03  0.12500034450E+03 0.  0.
          2    1    1    2  501    0 -0.58680417621E+02 -0.25801526922E+02 -0.91156858291E+03  0.91381967124E+03  0.00000000000E+00 0. -1.
          1    1    1    2  502    0  0.26138378719E+02  0.29192344954E+02  0.10962888702E+04  0.10969889219E+04  0.00000000000E+00 0. -1.
         22    1    3    3    0    0 -0.13214102004E+02  0.54116632557E+02 -0.72563729851E+02  0.91480693596E+02  0.00000000000E+00 0. -1.
         22    1    3    3    0    0  0.45756140905E+02 -0.57507450589E+02 -0.92048784035E+02  0.11778671379E+03  0.00000000000E+00 0. -1.
</event>
<event>
 7    1  0.6520971E-006  0.9235765E+02  0.7818608E-02  0.1365505E+00
          2   -1    0    0  502    0  0.00000000000E+00  0.00000000000E+00  0.12929563652E+04  0.12929563652E+04  0.00000000000E+00 0. -1.
          1   -1    0    0  501    0 -0.00000000000E+00 -0.00000000000E+00 -0.10891274041E+04  0.10891274041E+04  0.00000000000E+00 0. -1.
         25    2    1    2    0    0 -0.64504922047E+02  0.11791610569E+03  0.18262139811E+03  0.25892315728E+03  0.12500213350E+03 0.  0.
          2    1    1    2  501    0  0.22744801423E+02 -0.89156231223E+02 -0.10483608787E+04  0.10523909405E+04  0.00000000000E+00 0. -1.
          1    1    1    2  502    0  0.41760120624E+02 -0.28759874471E+02  0.10695684416E+04  0.10707696715E+04  0.00000000000E+00 0. -1.
         22    1    3    3    0    0 -0.41832829611E+02 -0.18079396218E+02  0.49208419650E+02  0.67069506971E+02  0.00000000000E+00 0. -1.
         22    1    3    3    0    0 -0.22672092436E+02  0.13599550191E+03  0.13341297846E+03  0.19185365031E+03  0.00000000000E+00 0. -1.
</event>
<event>
 7    1  0.6520971E-006  0.9955838E+02  0.7818608E-02  0.1404564E+00
          2   -1    0    0  502    0  0.00000000000E+00  0.00000000000E+00  0.15953876811E+04  0.15953876811E+04  0.00000000000E+00 0. -1.
          1   -1    0    0  501    0 -0.00000000000E+00 -0.00000000000E+00 -0.34126270135E+03  0.34126270135E+03  0.00000000000E+00 0. -1.
         25    2    1    2    0    0  0.23245234416E+02  0.85410371580E+02  0.11873758857E+04  0.11972143182E+04  0.12500142904E+03 0.  0.
          2    1    1    2  501    0  0.80876966364E+01 -0.99330740810E+02 -0.32820210719E+03  0.34299946074E+03  0.00000000000E+00 0. -1.
          1    1    1    2  502    0 -0.31332931052E+02  0.13920369230E+02  0.39495120125E+03  0.39643660352E+03  0.00000000000E+00 0. -1.
         22    1    3    3    0    0  0.52980676568E+02  0.99017553553E+02  0.72099892743E+03  0.72969231965E+03  0.00000000000E+00 0.  1.
         22    1    3    3    0    0 -0.29735442153E+02 -0.13607181973E+02  0.46637695830E+03  0.46752199858E+03  0.00000000000E+00 0.  1.
</event>
<event>
 7    1  0.6520971E-006  0.1033155E+03  0.7818608E-02  0.1462226E+00
          2   -1    0    0  502    0  0.00000000000E+00  0.00000000000E+00  0.65148049046E+03  0.65148049046E+03  0.00000000000E+00 0. -1.
          1   -1    0    0  501    0 -0.00000000000E+00 -0.00000000000E+00 -0.64725861711E+03  0.64725861711E+03  0.00000000000E+00 0. -1.
         25    2    1    2    0    0  0.11530250639E+03  0.46701017593E+02  0.29644129564E+03  0.34493096165E+03  0.12499709406E+03 0.  0.
          2    1    1    2  501    0 -0.95775340197E+02 -0.37991373515E+02 -0.61840132919E+03  0.62692620315E+03  0.00000000000E+00 0. -1.
          1    1    1    2  502    0 -0.19527166196E+02 -0.87096440788E+01  0.32618190690E+03  0.32688194277E+03  0.00000000000E+00 0. -1.
         22    1    3    3    0    0 -0.30767829412E+01  0.25458540111E+02  0.68191421448E+00  0.25652852958E+02  0.00000000000E+00 0. -1.
         22    1    3    3    0    0  0.11837928933E+03  0.21242477482E+02  0.29575938142E+03  0.31927810870E+03  0.00000000000E+00 0. -1.
</event>
<event>
 7    1  0.6520971E-006  0.1116805E+03  0.7818608E-02  0.1318109E+00
          2   -1    0    0  502    0  0.00000000000E+00  0.00000000000E+00  0.13979292556E+04  0.13979292556E+04  0.00000000000E+00 0. -1.
          1   -1    0    0  501    0 -0.00000000000E+00 -0.00000000000E+00 -0.74985470294E+03  0.74985470294E+03  0.00000000000E+00 0. -1.
         25    2    1    2    0    0  0.14504819658E+03 -0.68614761694E+02  0.55598045543E+03  0.59201829048E+03  0.12499769832E+03 0.  0.
          2    1    1    2  501    0 -0.82226605757E+02  0.75116196981E+02 -0.72637498724E+03  0.73486344298E+03  0.00000000000E+00 0. -1.
          1    1    1    2  502    0 -0.62821590825E+02 -0.65014352873E+01  0.81846908451E+03  0.82090222514E+03  0.00000000000E+00 0. -1.
         22    1    3    3    0    0 -0.12793916609E+01  0.24208291763E+02  0.32119727839E+02  0.40241212078E+02  0.00000000000E+00 0.  1.
         22    1    3    3    0    0  0.14632758824E+03 -0.92823053457E+02  0.52386072759E+03  0.55177707840E+03  0.00000000000E+00 0.  1.
</event>
<event>
 7    1  0.6520971E-006  0.9141689E+02  0.7818608E-02  0.1386360E+00
          2   -1    0    0  502    0  0.00000000000E+00  0.00000000000E+00  0.81577497335E+02  0.81577497335E+02  0.00000000000E+00 0. -1.
          1   -1    0    0  501    0 -0.00000000000E+00 -0.00000000000E+00 -0.24316490395E+04  0.24316490395E+04  0.00000000000E+00 0. -1.
         25    2    1    2    0    0 -0.70225981571E+02 -0.10580554252E+03 -0.28495450116E+03  0.33609828314E+03  0.12504593909E+03 0.  0.
          2    1    1    2  501    0  0.10191147479E+02  0.41950291051E+02 -0.20864723558E+04  0.20869189199E+04  0.00000000000E+00 0. -1.
          1    1    1    2  502    0  0.60034834092E+02  0.63855251469E+02  0.21355314807E+02  0.90209333858E+02  0.00000000000E+00 0. -1.
         22    1    3    3    0    0 -0.37361358071E+02 -0.51743497285E+02 -0.24980792271E+02  0.68536855565E+02  0.00000000000E+00 0.  1.
         22    1    3    3    0    0 -0.32864623500E+02 -0.54062045235E+02 -0.25997370888E+03  0.26756142757E+03  0.00000000000E+00 0.  1.
</event>
<event>
 7    1  0.6520971E-006  0.5438311E+02  0.7818608E-02  0.1438686E+00
          2   -1    0    0  502    0  0.00000000000E+00  0.00000000000E+00  0.48604737317E+03  0.48604737317E+03  0.00000000000E+00 0. -1.
          1   -1    0    0  501    0 -0.00000000000E+00 -0.00000000000E+00 -0.26719212890E+03  0.26719212890E+03  0.00000000000E+00 0. -1.
         25    2    1    2    0    0  0.75239034931E+02 -0.54481118884E+02  0.25337761854E+03  0.29741338391E+03  0.12500159462E+03 0.  0.
          2    1    1    2  501    0 -0.27856271580E+02  0.39466767075E+02 -0.23979962655E+03  0.24461696275E+03  0.00000000000E+00 0. -1.
          1    1    1    2  502    0 -0.47382763351E+02  0.15014351810E+02  0.20527725229E+03  0.21120915541E+03  0.00000000000E+00 0. -1.
         22    1    3    3    0    0  0.74010805683E+02 -0.10880592105E+02  0.51359688160E+02  0.90740311936E+02  0.00000000000E+00 0.  1.
         22    1    3    3    0    0  0.12282292486E+01 -0.43600526779E+02  0.20201793038E+03  0.20667307197E+03  0.00000000000E+00 0.  1.
</event>
<event>
 7    1  0.6520971E-006  0.6536781E+02  0.7818608E-02  0.1388776E+00
          2   -1    0    0  502    0  0.00000000000E+00  0.00000000000E+00  0.89017812089E+03  0.89017812089E+03  0.00000000000E+00 0. -1.
          1   -1    0    0  501    0 -0.00000000000E+00 -0.00000000000E+00 -0.64108488451E+03  0.64108488451E+03  0.00000000000E+00 0. -1.
         25    2    1    2    0    0 -0.12983261495E+02 -0.63385226118E+01 -0.29470246238E+03  0.32044101680E+03  0.12499664781E+03 0.  0.
          2    1    1    2  501    0  0.72011940129E+02 -0.21742888338E+02 -0.32803239251E+03  0.33654676235E+03  0.00000000000E+00 0. -1.
          1    1    1    2  502    0 -0.59028678634E+02  0.28081410949E+02  0.87182809126E+03  0.87427522626E+03  0.00000000000E+00 0. -1.
         22    1    3    3    0    0 -0.65280663810E+02 -0.97537819495E+01 -0.21620510317E+03  0.22605607261E+03  0.00000000000E+00 0. -1.
         22    1    3    3    0    0  0.52297402314E+02  0.34152593377E+01 -0.78497359213E+02  0.94384944184E+02  0.00000000000E+00 0. -1.
</event>
<event>
 7    1  0.6520971E-006  0.1805580E+03  0.7818608E-02  0.1228617E+00
          2   -1    0    0  502    0  0.00000000000E+00  0.00000000000E+00  0.24362374007E+04  0.24362374007E+04  0.00000000000E+00 0. -1.
          1   -1    0    0  501    0 -0.00000000000E+00 -0.00000000000E+00 -0.33809731862E+03  0.33809731862E+03  0.00000000000E+00 0. -1.
         25    2    1    2    0    0 -0.11766362480E+03 -0.19873255272E+03 -0.24202863518E+02  0.26371679389E+03  0.12498564983E+03 0.  0.
          2    1    1    2  501    0  0.12965933462E+03  0.10703461641E+03 -0.15662101280E+03  0.22977835802E+03  0.00000000000E+00 0. -1.
          1    1    1    2  502    0 -0.11995709820E+02  0.91697936315E+02  0.22789639583E+04  0.22808395674E+04  0.00000000000E+00 0. -1.
         22    1    3    3    0    0 -0.12667044590E+03 -0.10542576228E+03 -0.37561695275E+02  0.16902921100E+03  0.00000000000E+00 0. -1.
         22    1    3    3    0    0  0.90068210973E+01 -0.93306790439E+02  0.13358831757E+02  0.94687582894E+02  0.00000000000E+00 0. -1.
</event>
<event>
 7    1  0.6520971E-006  0.4706029E+03  0.7818608E-02  0.1178968E+00
          2   -1    0    0  502    0  0.00000000000E+00  0.00000000000E+00  0.79373524772E+03  0.79373524772E+03  0.00000000000E+00 0. -1.
          1   -1    0    0  501    0 -0.00000000000E+00 -0.00000000000E+00 -0.10330975299E+04  0.10330975299E+04  0.00000000000E+00 0. -1.
         25    2    1    2    0    0 -0.27912627375E+03  0.36425879422E+03  0.30502410035E+03  0.56503144365E+03  0.12499953862E+03 0.  0.
          2    1    1    2  501    0 -0.59111445687E+02 -0.13531663798E+02 -0.73580410715E+03  0.73829868823E+03  0.00000000000E+00 0. -1.
          1    1    1    2  502    0  0.33823771944E+03 -0.35072713042E+03  0.19141772458E+03  0.52350264579E+03  0.00000000000E+00 0. -1.
         22    1    3    3    0    0 -0.65622665565E+02  0.14870409022E+03  0.54066443896E+02  0.17129629605E+03  0.00000000000E+00 0. -1.
         22    1    3    3    0    0 -0.21350360819E+03  0.21555470400E+03  0.25095765645E+03  0.39373514760E+03  0.00000000000E+00 0. -1.
</event>
<event>
 7    1  0.6520971E-006  0.7340344E+02  0.7818608E-02  0.1423583E+00
          2   -1    0    0  502    0  0.00000000000E+00  0.00000000000E+00  0.75809241802E+03  0.75809241802E+03  0.00000000000E+00 0. -1.
          1   -1    0    0  501    0 -0.00000000000E+00 -0.00000000000E+00 -0.14295874758E+03  0.14295874758E+03  0.00000000000E+00 0. -1.
         25    2    1    2    0    0  0.46082183320E+02 -0.75877611421E+01  0.15441952941E+02  0.13432862977E+03  0.12499834049E+03 0.  0.
          2    1    1    2  501    0  0.12848099194E+02 -0.38011240503E+02 -0.76528690691E+02  0.86409308274E+02  0.00000000000E+00 0. -1.
          1    1    1    2  502    0 -0.58930282514E+02  0.45599001645E+02  0.67622040819E+03  0.68031322757E+03  0.00000000000E+00 0. -1.
         22    1    3    3    0    0  0.85400223671E+02 -0.47248956503E+01 -0.11897231465E+02  0.86354310596E+02  0.00000000000E+00 0. -1.
         22    1    3    3    0    0 -0.39318040351E+02 -0.28628654918E+01  0.27339184406E+02  0.47974319171E+02  0.00000000000E+00 0. -1.
</event>
<event>
 7    1  0.6520971E-006  0.1370548E+03  0.7818608E-02  0.1300559E+00
          2   -1    0    0  502    0  0.00000000000E+00  0.00000000000E+00  0.35711025909E+03  0.35711025909E+03  0.00000000000E+00 0. -1.
          1   -1    0    0  501    0 -0.00000000000E+00 -0.00000000000E+00 -0.61725904341E+03  0.61725904341E+03  0.00000000000E+00 0. -1.
         25    2    1    2    0    0  0.46729686667E+02 -0.71960575764E+02  0.33354649549E+02  0.15523899299E+03  0.12499849686E+03 0.  0.
          2    1    1    2  501    0 -0.52774921311E+02  0.13201616134E+03 -0.54358375814E+03  0.56186898943E+03  0.00000000000E+00 0. -1.
          1    1    1    2  502    0  0.60452346444E+01 -0.60055585581E+02  0.25008032428E+03  0.25726132008E+03  0.00000000000E+00 0. -1.
         22    1    3    3    0    0  0.59966339711E+02  0.17828753014E+01 -0.20024364202E+02  0.63246467920E+02  0.00000000000E+00 0. -1.
         22    1    3    3    0    0 -0.13236653044E+02 -0.73743451066E+02  0.53379013750E+02  0.91992525065E+02  0.00000000000E+00 0. -1.
</event>
<event>
 7    1  0.6520971E-006  0.5639489E+02  0.7818608E-02  0.1460089E+00
          2   -1    0    0  502    0  0.00000000000E+00  0.00000000000E+00  0.14669739093E+02  0.14669739093E+02  0.00000000000E+00 0. -1.
          1   -1    0    0  501    0 -0.00000000000E+00 -0.00000000000E+00 -0.18400788010E+04  0.18400788010E+04  0.00000000000E+00 0. -1.
         25    2    1    2    0    0 -0.15023350709E+02  0.21233552119E+02 -0.10290173450E+04  0.10369076593E+04  0.12499693065E+03 0.  0.
          2    1    1    2  501    0 -0.39759761814E+02  0.13563763975E+01 -0.72029570647E+03  0.72139350092E+03  0.00000000000E+00 0. -1.
          1    1    1    2  502    0  0.54783112523E+02 -0.22589928516E+02 -0.76096010360E+02  0.96447379855E+02  0.00000000000E+00 0. -1.
         22    1    3    3    0    0  0.13322159717E+02  0.82990191205E+01 -0.97037669385E+03  0.97050362267E+03  0.00000000000E+00 0.  1.
         22    1    3    3    0    0 -0.28345510427E+02  0.12934532998E+02 -0.58640651199E+02  0.66404036611E+02  0.00000000000E+00 0.  1.
</event>
<event>
 7    1  0.6520971E-006  0.7661020E+02  0.7818608E-02  0.1449749E+00
          2   -1    0    0  502    0  0.00000000000E+00  0.00000000000E+00  0.76599476491E+02  0.76599476491E+02  0.00000000000E+00 0. -1.
          1   -1    0    0  501    0 -0.00000000000E+00 -0.00000000000E+00 -0.72349997151E+03  0.72349997151E+03  0.00000000000E+00 0. -1.
         25    2    1    2    0    0 -0.31858817774E+02  0.34097606795E+02 -0.41812828004E+03  0.43890078488E+03  0.12500003733E+03 0.  0.
          2    1    1    2  501    0 -0.21135621169E+02  0.23473363196E+02 -0.27062381641E+03  0.27246093898E+03  0.00000000000E+00 0. -1.
          1    1    1    2  502    0  0.52994438944E+02 -0.57570969990E+02  0.41851601431E+02  0.88737724148E+02  0.00000000000E+00 0. -1.
         22    1    3    3    0    0 -0.72622283367E+01  0.10804990091E+02 -0.40050301866E+03  0.40071455642E+03  0.00000000000E+00 0. -1.
         22    1    3    3    0    0 -0.24596589438E+02  0.23292616703E+02 -0.17625261384E+02  0.38186228456E+02  0.00000000000E+00 0. -1.
</event>
<event>
 7    1  0.6520971E-006  0.6624505E+02  0.7818608E-02  0.1381704E+00
          2   -1    0    0  502    0  0.00000000000E+00  0.00000000000E+00  0.81069943759E+03  0.81069943759E+03  0.00000000000E+00 0. -1.
          1   -1    0    0  501    0 -0.00000000000E+00 -0.00000000000E+00 -0.66138757360E+02  0.66138757360E+02  0.00000000000E+00 0. -1.
         25    2    1    2    0    0  0.19978260365E+02  0.29180663901E+02  0.13229859126E+03  0.18541167836E+03  0.12499572469E+03 0.  0.
          2    1    1    2  501    0 -0.76727084947E+02 -0.45443025079E+01  0.82336652364E+00  0.76865949432E+02  0.00000000000E+00 0. -1.
          1    1    1    2  502    0  0.56748824582E+02 -0.24636361394E+02  0.61143872244E+03  0.61456056715E+03  0.00000000000E+00 0. -1.
         22    1    3    3    0    0 -0.46146245715E+02 -0.40972054386E+01  0.87164646368E+02  0.98711390743E+02  0.00000000000E+00 0.  1.
         22    1    3    3    0    0  0.66124506080E+02  0.33277869340E+02  0.45133944893E+02  0.86700287622E+02  0.00000000000E+00 0.  1.
</event>
<event>
 7    1  0.6520971E-006  0.4521641E+02  0.7818608E-02  0.1529046E+00
          2   -1    0    0  502    0  0.00000000000E+00  0.00000000000E+00  0.16522817520E+03  0.16522817520E+03  0.00000000000E+00 0. -1.
          1   -1    0    0  501    0 -0.00000000000E+00 -0.00000000000E+00 -0.31340475047E+03  0.31340475047E+03  0.00000000000E+00 0. -1.
         25    2    1    2    0    0 -0.30871289638E+02  0.30327315930E+02  0.74660182826E+02  0.15189466618E+03  0.12500025640E+03 0.  0.
          2    1    1    2  501    0  0.39551108281E+01 -0.45249099121E+02 -0.26814576665E+03  0.27196557879E+03  0.00000000000E+00 0. -1.
          1    1    1    2  502    0  0.26916178810E+02  0.14921783190E+02  0.45309008554E+02  0.54772680704E+02  0.00000000000E+00 0. -1.
         22    1    3    3    0    0  0.32835384478E+02  0.50448766716E+01 -0.17099094722E+02  0.37362980271E+02  0.00000000000E+00 0.  1.
         22    1    3    3    0    0 -0.63706674116E+02  0.25282439259E+02  0.91759277547E+02  0.11453168591E+03  0.00000000000E+00 0.  1.
</event>
<event>
 7    1  0.6520971E-006  0.1535258E+03  0.7818608E-02  0.1351857E+00
          2   -1    0    0  502    0  0.00000000000E+00  0.00000000000E+00  0.75210186920E+03  0.75210186920E+03  0.00000000000E+00 0. -1.
          1   -1    0    0  501    0 -0.00000000000E+00 -0.00000000000E+00 -0.14069266736E+04  0.14069266736E+04  0.00000000000E+00 0. -1.
         25    2    1    2    0    0  0.15128604914E+03  0.75004699552E+02 -0.13732783498E+03  0.25099013330E+03  0.12499575647E+03 0.  0.
          2    1    1    2  501    0 -0.14682252988E+03 -0.41079116251E+02 -0.12075504883E+04  0.12171370222E+04  0.00000000000E+00 0. -1.
          1    1    1    2  502    0 -0.44635192603E+01 -0.33925583301E+02  0.69005351881E+03  0.69090138734E+03  0.00000000000E+00 0. -1.
         22    1    3    3    0    0  0.17149572541E+03  0.76833170026E+02 -0.13304717397E+03  0.23025131998E+03  0.00000000000E+00 0.  1.
         22    1    3    3    0    0 -0.20209676275E+02 -0.18284704736E+01 -0.42806610128E+01  0.20738813325E+02  0.00000000000E+00 0.  1.
</event>
<event>
 7    1  0.6520971E-006  0.1016454E+03  0.7818608E-02  0.1403679E+00
          2   -1    0    0  502    0  0.00000000000E+00  0.00000000000E+00  0.10461188048E+04  0.10461188048E+04  0.00000000000E+00 0. -1.
          1   -1    0    0  501    0 -0.00000000000E+00 -0.00000000000E+00 -0.85177091548E+02  0.85177091548E+02  0.00000000000E+00 0. -1.
         25    2    1    2    0    0  0.10695862025E+03 -0.68274639155E+02  0.37217445216E+03  0.41259101377E+03  0.12496379081E+03 0.  0.
          2    1    1    2  501    0 -0.73158330586E+02  0.67221233109E+02 -0.26247809853E+02  0.10276080496E+03  0.00000000000E+00 0. -1.
          1    1    1    2  502    0 -0.33800289660E+02  0.10534060465E+01  0.61501507091E+03  0.61594407757E+03  0.00000000000E+00 0. -1.
         22    1    3    3    0    0  0.74255150132E+02 -0.24197487726E+02  0.34024801220E+03  0.34909605489E+03  0.00000000000E+00 0.  1.
         22    1    3    3    0    0  0.32703470114E+02 -0.44077151429E+02  0.31926439956E+02  0.63494958885E+02  0.00000000000E+00 0.  1.
</event>
<event>
 7    1  0.6520971E-006  0.4408046E+02  0.7818608E-02  0.1524928E+00
          2   -1    0    0  502    0  0.00000000000E+00  0.00000000000E+00  0.67499638231E+03  0.67499638231E+03  0.00000000000E+00 0. -1.
          1   -1    0    0  501    0 -0.00000000000E+00 -0.00000000000E+00 -0.11680211859E+04  0.11680211859E+04  0.00000000000E+00 0. -1.
         25    2    1    2    0    0  0.16753645057E+02  0.51679030851E+02  0.34020854200E+03  0.36649355737E+03  0.12499707472E+03 0.  0.
          2    1    1    2  501    0  0.19120798990E+02 -0.26207968209E+02 -0.11531449139E+04  0.11536011681E+04  0.00000000000E+00 0. -1.
          1    1    1    2  502    0 -0.35874444047E+02 -0.25471062643E+02  0.31991156836E+03  0.32292284270E+03  0.00000000000E+00 0. -1.
         22    1    3    3    0    0  0.70964193279E+02  0.24606520799E+02  0.20505936304E+03  0.21838209626E+03  0.00000000000E+00 0. -1.
         22    1    3    3    0    0 -0.54210548223E+02  0.27072510052E+02  0.13514917896E+03  0.14811146111E+03  0.00000000000E+00 0. -1.
</event>
<event>
 7    1  0.6520971E-006  0.1887318E+03  0.7818608E-02  0.1215023E+00
          2   -1    0    0  502    0  0.00000000000E+00  0.00000000000E+00  0.13402734435E+04  0.13402734435E+04  0.00000000000E+00 0. -1.
          1   -1    0    0  501    0 -0.00000000000E+00 -0.00000000000E+00 -0.16244350005E+04  0.16244350005E+04  0.00000000000E+00 0. -1.
         25    2    1    2    0    0  0.65515162616E+02 -0.14999063958E+03 -0.16650353007E+03  0.26483980780E+03  0.12500907877E+03 0.  0.
          2    1    1    2  501    0  0.26824544150E+02  0.19332672827E+03 -0.13999679793E+04  0.14135080910E+04  0.00000000000E+00 0. -1.
          1    1    1    2  502    0 -0.92339706767E+02 -0.43336088689E+02  0.12823099525E+04  0.12863605452E+04  0.00000000000E+00 0. -1.
         22    1    3    3    0    0  0.44881243104E+01 -0.24899906802E+02  0.19912016378E+02  0.32196847901E+02  0.00000000000E+00 0. -1.
         22    1    3    3    0    0  0.61027038306E+02 -0.12509073277E+03 -0.18641554645E+03  0.23264295989E+03  0.00000000000E+00 0. -1.
</event>
<event>
 7    1  0.6520971E-006  0.1476011E+03  0.7818608E-02  0.1272564E+00
          2   -1    0    0  502    0  0.00000000000E+00  0.00000000000E+00  0.12327329720E+04  0.12327329720E+04  0.00000000000E+00 0. -1.
          1   -1    0    0  501    0 -0.00000000000E+00 -0.00000000000E+00 -0.81716533382E+03  0.81716533382E+03  0.00000000000E+00 0. -1.
         25    2    1    2    0    0  0.15254954432E+03  0.15744732165E+00 -0.33543033038E+03  0.38911351955E+03  0.12499774517E+03 0.  0.
          2    1    1    2  501    0 -0.13344637509E+03 -0.70565222485E+02 -0.44122418249E+03  0.46633267617E+03  0.00000000000E+00 0. -1.
          1    1    1    2  502    0 -0.19103169232E+02  0.70407775163E+02  0.11922221510E+04  0.11944521101E+04  0.00000000000E+00 0. -1.
         22    1    3    3    0    0  0.15939040416E+03 -0.25986202449E+02 -0.23521521540E+03  0.28531873617E+03  0.00000000000E+00 0.  1.
         22    1    3    3    0    0 -0.68408598386E+01  0.26143649770E+02 -0.10021511498E+03  0.10379478338E+03  0.00000000000E+00 0.  1.
</event>
<event>
 7    1  0.6520971E-006  0.1467415E+03  0.7818608E-02  0.1229086E+00
          2   -1    0    0  502    0  0.00000000000E+00  0.00000000000E+00  0.19506187440E+04  0.19506187440E+04  0.00000000000E+00 0. -1.
          1   -1    0    0  501    0 -0.00000000000E+00 -0.00000000000E+00 -0.24131734724E+04  0.24131734724E+04  0.00000000000E+00 0. -1.
         25    2    1    2    0    0  0.23540134106E+02 -0.49524945927E+02  0.97813029573E+01  0.13684570358E+03  0.12499685803E+03 0.  0.
          2    1    1    2  501    0  0.36200023072E+02  0.14572529191E+03 -0.23455307433E+04  0.23503320553E+04  0.00000000000E+00 0. -1.
          1    1    1    2  502    0 -0.59740157178E+02 -0.96200345986E+02  0.18731947120E+04  0.18766144575E+04  0.00000000000E+00 0. -1.
         22    1    3    3    0    0  0.53459096839E+02 -0.79430175055E+01 -0.38575137553E+02  0.66400359933E+02  0.00000000000E+00 0. -1.
         22    1    3    3    0    0 -0.29918962733E+02 -0.41581928421E+02  0.48356440510E+02  0.70445343644E+02  0.00000000000E+00 0. -1.
</event>
<event>
 7    1  0.6520971E-006  0.1312331E+03  0.7818608E-02  0.1319270E+00
          2   -1    0    0  502    0  0.00000000000E+00  0.00000000000E+00  0.25300102516E+03  0.25300102516E+03  0.00000000000E+00 0. -1.
          1   -1    0    0  501    0 -0.00000000000E+00 -0.00000000000E+00 -0.39084891666E+03  0.39084891666E+03  0.00000000000E+00 0. -1.
         25    2    1    2    0    0 -0.36644193818E+02 -0.87933220958E+02  0.59105569472E+02  0.16790821684E+03  0.12499861060E+03 0.  0.
          2    1    1    2  501    0  0.87155229190E+02  0.10460655593E+03 -0.31680074750E+03  0.34482064778E+03  0.00000000000E+00 0. -1.
          1    1    1    2  502    0 -0.50511035372E+02 -0.16673334974E+02  0.11984728654E+03  0.13112107719E+03  0.00000000000E+00 0. -1.
         22    1    3    3    0    0  0.93266599278E+01  0.24438285289E+02  0.35706942300E+02  0.44262874983E+02  0.00000000000E+00 0. -1.
         22    1    3    3    0    0 -0.45970853746E+02 -0.11237150625E+03  0.23398627172E+02  0.12364534186E+03  0.00000000000E+00 0. -1.
</event>
<event>
 7    1  0.6520971E-006  0.6465525E+02  0.7818608E-02  0.1434259E+00
          2   -1    0    0  502    0  0.00000000000E+00  0.00000000000E+00  0.21218841913E+03  0.21218841913E+03  0.00000000000E+00 0. -1.
          1   -1    0    0  501    0 -0.00000000000E+00 -0.00000000000E+00 -0.35981011654E+03  0.35981011654E+03  0.00000000000E+00 0. -1.
         25    2    1    2    0    0  0.63728424099E+02 -0.39703664379E+02  0.10037771404E+03  0.17702768758E+03  0.12500169475E+03 0.  0.
          2    1    1    2  501    0 -0.64663843797E+02 -0.22921217401E+01 -0.31187743031E+03  0.31851875620E+03  0.00000000000E+00 0. -1.
          1    1    1    2  502    0  0.93541969883E+00  0.41995786119E+02  0.63878018853E+02  0.76452091890E+02  0.00000000000E+00 0. -1.
         22    1    3    3    0    0  0.23985868904E+01 -0.38649240905E+02  0.10845358007E+03  0.11515943762E+03  0.00000000000E+00 0.  1.
         22    1    3    3    0    0  0.61329837208E+02 -0.10544234736E+01 -0.80758660362E+01  0.61868249960E+02  0.00000000000E+00 0.  1.
</event>
<event>
 7    1  0.6520971E-006  0.6097633E+02  0.7818608E-02  0.1526775E+00
          2   -1    0    0  502    0  0.00000000000E+00  0.00000000000E+00  0.31186200221E+03  0.31186200221E+03  0.00000000000E+00 0. -1.
          1   -1    0    0  501    0 -0.00000000000E+00 -0.00000000000E+00 -0.69569721300E+03  0.69569721300E+03  0.00000000000E+00 0. -1.
         25    2    1    2    0    0  0.67538392266E+02 -0.20564767025E+02 -0.74763054099E+01  0.14375554822E+03  0.12500167371E+03 0.  0.
          2    1    1    2  501    0 -0.60821741662E+02 -0.16069948280E+01 -0.61803353980E+03  0.62102119369E+03  0.00000000000E+00 0. -1.
          1    1    1    2  502    0 -0.67166506040E+01  0.22171761853E+02  0.24167463442E+03  0.24278247330E+03  0.00000000000E+00 0. -1.
         22    1    3    3    0    0  0.67043708092E+02 -0.62472779472E+02  0.19795595467E+02  0.93752720332E+02  0.00000000000E+00 0. -1.
         22    1    3    3    0    0  0.49468417400E+00  0.41908012447E+02 -0.27271900877E+02  0.50002827891E+02  0.00000000000E+00 0. -1.
</event>
<event>
 7    1  0.6520971E-006  0.8576027E+02  0.7818608E-02  0.1400948E+00
          2   -1    0    0  502    0  0.00000000000E+00  0.00000000000E+00  0.14532487565E+04  0.14532487565E+04  0.00000000000E+00 0. -1.
          1   -1    0    0  501    0 -0.00000000000E+00 -0.00000000000E+00 -0.10915939071E+04  0.10915939071E+04  0.00000000000E+00 0. -1.
         25    2    1    2    0    0  0.56212267960E+02 -0.13920490853E+02  0.22683673067E+03  0.26539297365E+03  0.12499971578E+03 0.  0.
          2    1    1    2  501    0  0.31346503329E+02  0.26355124323E+02 -0.10703038677E+04  0.10710870950E+04  0.00000000000E+00 0. -1.
          1    1    1    2  502    0 -0.87558771289E+02 -0.12434633470E+02  0.12051219865E+04  0.12083625949E+04  0.00000000000E+00 0. -1.
         22    1    3    3    0    0  0.73437043846E+02 -0.36436777358E+02  0.22197551263E+03  0.23663001999E+03  0.00000000000E+00 0. -1.
         22    1    3    3    0    0 -0.17224775886E+02  0.22516286504E+02  0.48612180412E+01  0.28762953658E+02  0.00000000000E+00 0. -1.
</event>
<event>
 7    1  0.6520971E-006  0.8151790E+02  0.7818608E-02  0.1335388E+00
          2   -1    0    0  502    0  0.00000000000E+00  0.00000000000E+00  0.22946061932E+03  0.22946061932E+03  0.00000000000E+00 0. -1.
          1   -1    0    0  501    0 -0.00000000000E+00 -0.00000000000E+00 -0.16619476566E+04  0.16619476566E+04  0.00000000000E+00 0. -1.
         25    2    1    2    0    0  0.14259978801E+03  0.33683565913E+02 -0.53343299676E+02  0.19984930709E+03  0.12499982308E+03 0.  0.
          2    1    1    2  501    0 -0.68811871514E+02 -0.42112826363E+02 -0.15253972166E+04  0.15275291265E+04  0.00000000000E+00 0. -1.
          1    1    1    2  502    0 -0.73787916501E+02  0.84292604498E+01  0.14625347902E+03  0.16402984234E+03  0.00000000000E+00 0. -1.
         22    1    3    3    0    0  0.10100524215E+03 -0.38937477135E+02 -0.21871929935E+02  0.11043807037E+03  0.00000000000E+00 0. -1.
         22    1    3    3    0    0  0.41594545867E+02  0.72621043048E+02 -0.31471369741E+02  0.89411236725E+02  0.00000000000E+00 0. -1.
</event>
<event>
 7    1  0.6520971E-006  0.9923607E+02  0.7818608E-02  0.1373931E+00
          2   -1    0    0  502    0  0.00000000000E+00  0.00000000000E+00  0.17576354272E+04  0.17576354272E+04  0.00000000000E+00 0. -1.
          1   -1    0    0  501    0 -0.00000000000E+00 -0.00000000000E+00 -0.52052214059E+02  0.52052214059E+02  0.00000000000E+00 0. -1.
         25    2    1    2    0    0  0.33143146776E+02  0.74600151651E+02  0.39513661204E+03  0.42239604208E+03  0.12498729289E+03 0.  0.
          2    1    1    2  501    0  0.19168824705E+00 -0.10333510444E+03  0.32126474361E+02  0.10821409755E+03  0.00000000000E+00 0. -1.
          1    1    1    2  502    0 -0.33334835023E+02  0.28734952792E+02  0.12783201267E+04  0.12790775016E+04  0.00000000000E+00 0. -1.
         22    1    3    3    0    0 -0.40758713199E+02  0.60344105446E+02  0.22107269207E+03  0.23275699548E+03  0.00000000000E+00 0.  1.
         22    1    3    3    0    0  0.73901859975E+02  0.14256046205E+02  0.17406391997E+03  0.18963904660E+03  0.00000000000E+00 0.  1.
</event>
<event>
 7    1  0.6520971E-006  0.7593371E+02  0.7818608E-02  0.1441644E+00
          2   -1    0    0  502    0  0.00000000000E+00  0.00000000000E+00  0.17673805230E+04  0.17673805230E+04  0.00000000000E+00 0. -1.
          1   -1    0    0  501    0 -0.00000000000E+00 -0.00000000000E+00 -0.47077530000E+03  0.47077530000E+03  0.00000000000E+00 0. -1.
         25    2    1    2    0    0  0.55292536747E+02  0.25989514726E+02 -0.49158642215E+02  0.14756419571E+03  0.12500360098E+03 0.  0.
          2    1    1    2  501    0 -0.72606933415E+01  0.33053158147E+02 -0.37080005763E+03  0.37234112272E+03  0.00000000000E+00 0. -1.
          1    1    1    2  502    0 -0.48031843405E+02 -0.59042672873E+02  0.17165639228E+04  0.17182505045E+04  0.00000000000E+00 0. -1.
         22    1    3    3    0    0  0.93727653411E+02  0.21021983158E+01 -0.36135827950E+02  0.10047432664E+03  0.00000000000E+00 0.  1.
         22    1    3    3    0    0 -0.38435116664E+02  0.23887316411E+02 -0.13022814265E+02  0.47089869077E+02  0.00000000000E+00 0.  1.
</event>
<event>
 7    1  0.6520971E-006  0.9767226E+02  0.7818608E-02  0.1321436E+00
          2   -1    0    0  502    0  0.00000000000E+00  0.00000000000E+00  0.20687430792E+04  0.20687430792E+04  0.00000000000E+00 0. -1.
          1   -1    0    0  501    0 -0.00000000000E+00 -0.00000000000E+00 -0.68055641542E+03  0.68055641542E+03  0.00000000000E+00 0. -1.
         25    2    1    2    0    0  0.18097740729E+02 -0.13157272233E+03  0.19259292474E+03  0.26523959242E+03  0.12498438802E+03 0.  0.
          2    1    1    2  501    0 -0.55972475110E+02  0.42202206713E+02 -0.64104082577E+03  0.64486222136E+03  0.00000000000E+00 0. -1.
          1    1    1    2  502    0  0.37874734380E+02  0.89370515613E+02  0.18366345648E+04  0.18391976809E+04  0.00000000000E+00 0. -1.
         22    1    3    3    0    0 -0.13465888137E+01  0.62461503097E+01  0.95083150303E+02  0.95297603153E+02  0.00000000000E+00 0.  1.
         22    1    3    3    0    0  0.19444329543E+02 -0.13781887264E+03  0.97509774435E+02  0.16994198927E+03  0.00000000000E+00 0.  1.
</event>
<event>
 7    1  0.6520971E-006  0.1134752E+03  0.7818608E-02  0.1364724E+00
          2   -1    0    0  502    0  0.00000000000E+00  0.00000000000E+00  0.91391030473E+03  0.91391030473E+03  0.00000000000E+00 0. -1.
          1   -1    0    0  501    0 -0.00000000000E+00 -0.00000000000E+00 -0.13294779399E+03  0.13294779399E+03  0.00000000000E+00 0. -1.
         25    2    1    2    0    0 -0.13728698744E+03  0.58350877843E+02  0.28314016916E+03  0.34357721381E+03  0.12499761833E+03 0.  0.
          2    1    1    2  501    0  0.37223482658E+02 -0.18436249681E+02 -0.93454265516E+02  0.10227014573E+03  0.00000000000E+00 0. -1.
          1    1    1    2  502    0  0.10006350479E+03 -0.39914628162E+02  0.59127660709E+03  0.60101073919E+03  0.00000000000E+00 0. -1.
         22    1    3    3    0    0 -0.36130600472E+02  0.66589467467E+02  0.54206570426E+02  0.93155406420E+02  0.00000000000E+00 0.  1.
         22    1    3    3    0    0 -0.10115638697E+03 -0.82385896244E+01  0.22893359874E+03  0.25042180739E+03  0.00000000000E+00 0.  1.
</event>
<event>
 7    1  0.6520971E-006  0.9867061E+02  0.7818608E-02  0.1401812E+00
          2   -1    0    0  502    0  0.00000000000E+00  0.00000000000E+00  0.22427713356E+04  0.22427713356E+04  0.00000000000E+00 0. -1.
          1   -1    0    0  501    0 -0.00000000000E+00 -0.00000000000E+00 -0.53377626945E+02  0.53377626945E+02  0.00000000000E+00 0. -1.
         25    2    1    2    0    0  0.58133438738E+02  0.63638117769E+02  0.13415943602E+04  0.13501590267E+04  0.12499865392E+03 0.  0.
          2    1    1    2  501    0 -0.37184407489E+02 -0.92115646933E+02  0.19037628307E+01  0.99355910157E+02  0.00000000000E+00 0. -1.
          1    1    1    2  502    0 -0.20949031248E+02  0.28477529164E+02  0.84589558564E+03  0.84663402565E+03  0.00000000000E+00 0. -1.
         22    1    3    3    0    0  0.52710573462E+02 -0.20187421569E+02  0.81046505467E+03  0.81242817614E+03  0.00000000000E+00 0.  1.
         22    1    3    3    0    0  0.54228652752E+01  0.83825539338E+02  0.53112930552E+03  0.53773085061E+03  0.00000000000E+00 0.  1.
</event>
<event>
 7    1  0.6520971E-006  0.7143801E+02  0.7818608E-02  0.1500584E+00
          2   -1    0    0  502    0  0.00000000000E+00  0.00000000000E+00  0.48902082414E+03  0.48902082414E+03  0.00000000000E+00 0. -1.
          1   -1    0    0  501    0 -0.00000000000E+00 -0.00000000000E+00 -0.19657530683E+04  0.19657530683E+04  0.00000000000E+00 0. -1.
         25    2    1    2    0    0 -0.82716834385E+02  0.36770707031E+02 -0.70508945526E+03  0.72178174646E+03  0.12499435995E+03 0.  0.
          2    1    1    2  501    0  0.59129448487E+02 -0.36182369342E+02 -0.12510678068E+04  0.12529868765E+04  0.00000000000E+00 0. -1.
          1    1    1    2  502    0  0.23587385898E+02 -0.58833768908E+00  0.47942501790E+03  0.48000526945E+03  0.00000000000E+00 0. -1.
         22    1    3    3    0    0 -0.14276229993E+02 -0.90271591042E+00 -0.20923279128E+01  0.14456952477E+02  0.00000000000E+00 0. -1.
         22    1    3    3    0    0 -0.68440604391E+02  0.37673422941E+02 -0.70299712734E+03  0.70732479398E+03  0.00000000000E+00 0. -1.
</event>
<event>
 7    1  0.6520971E-006  0.5223141E+02  0.7818608E-02  0.1440673E+00
          2   -1    0    0  502    0  0.00000000000E+00  0.00000000000E+00  0.47103364328E+02  0.47103364328E+02  0.00000000000E+00 0. -1.
          1   -1    0    0  501    0 -0.00000000000E+00 -0.00000000000E+00 -0.10736698330E+04  0.10736698330E+04  0.00000000000E+00 0. -1.
         25    2    1    2    0    0 -0.15733355837E+01  0.47811067759E+02 -0.19565375024E+03  0.23705190913E+03  0.12499937622E+03 0.  0.
          2    1    1    2  501    0 -0.45844754082E+02 -0.18816232714E+02 -0.82648010045E+03  0.82796446091E+03  0.00000000000E+00 0. -1.
          1    1    1    2  502    0  0.47418089666E+02 -0.28994835045E+02 -0.44326179813E+01  0.55756827286E+02  0.00000000000E+00 0. -1.
         22    1    3    3    0    0  0.18926576590E+02  0.87263073515E+02 -0.13462544144E+03  0.16154587207E+03  0.00000000000E+00 0. -1.
         22    1    3    3    0    0 -0.20499912174E+02 -0.39452005757E+02 -0.61028308808E+02  0.75506037065E+02  0.00000000000E+00 0. -1.
</event>
<event>
 7    1  0.6520971E-006  0.9959700E+02  0.7818608E-02  0.1461447E+00
          2   -1    0    0  502    0  0.00000000000E+00  0.00000000000E+00  0.67770536413E+03  0.67770536413E+03  0.00000000000E+00 0. -1.
          1   -1    0    0  501    0 -0.00000000000E+00 -0.00000000000E+00 -0.52836132046E+02  0.52836132046E+02  0.00000000000E+00 0. -1.
         25    2    1    2    0    0 -0.94024553193E+02 -0.20317968709E+02  0.30487479958E+03  0.34325976120E+03  0.12500073513E+03 0.  0.
          2    1    1    2  501    0  0.10085297650E+03 -0.91640408564E+00  0.43415251970E+02  0.10980458446E+03  0.00000000000E+00 0. -1.
          1    1    1    2  502    0 -0.68284233069E+01  0.21234372795E+02  0.27657918054E+03  0.27747715052E+03  0.00000000000E+00 0. -1.
         22    1    3    3    0    0 -0.52747468883E+02 -0.73072742777E+02  0.18979467033E+03  0.21010458847E+03  0.00000000000E+00 0.  1.
         22    1    3    3    0    0 -0.41277084310E+02  0.52754774068E+02  0.11508012925E+03  0.13315517272E+03  0.00000000000E+00 0.  1.
</event>
<event>
 7    1  0.1395083E-005  0.8590088E+02  0.7818608E-02  0.1320172E+00
          2   -1    0    0  502    0  0.00000000000E+00  0.00000000000E+00  0.13093814160E+04  0.13093814160E+04  0.00000000000E+00 0. -1.
          1   -1    0    0  501    0 -0.00000000000E+00 -0.00000000000E+00 -0.21196462863E+04  0.21196462863E+04  0.00000000000E+00 0. -1.
         25    2    1    2    0    0  0.18802105843E+02  0.13785754124E+03 -0.55881601172E+03  0.58928683236E+03  0.12500165989E+03 0.  0.
          2    1    1    2  501    0 -0.54194263807E+02 -0.59673661224E+02 -0.15431188762E+04  0.15452229063E+04  0.00000000000E+00 0. -1.
          1    1    1    2  502    0  0.35392157964E+02 -0.78183880016E+02  0.12916700176E+04  0.12945179637E+04  0.00000000000E+00 0. -1.
         22    1    3    3    0    0  0.27628682521E+02  0.15145997083E+03 -0.38390874547E+03  0.41362953437E+03  0.00000000000E+00 0.  1.
         22    1    3    3    0    0 -0.88265766784E+01 -0.13602429589E+02 -0.17490726625E+03  0.17565729798E+03  0.00000000000E+00 0.  1.
</event>
<event>
 7    1  0.6520971E-006  0.5153210E+02  0.7818608E-02  0.1487261E+00
          2   -1    0    0  502    0  0.00000000000E+00  0.00000000000E+00  0.13162857437E+04  0.13162857437E+04  0.00000000000E+00 0. -1.
          1   -1    0    0  501    0 -0.00000000000E+00 -0.00000000000E+00 -0.12095618838E+03  0.12095618838E+03  0.00000000000E+00 0. -1.
         25    2    1    2    0    0 -0.93344480835E+01 -0.29201219417E+02  0.50761214967E+03  0.52368842505E+03  0.12505850192E+03 0.  0.
          2    1    1    2  501    0 -0.35836084320E+02 -0.16129011529E+01 -0.10910822517E+03  0.11485395592E+03  0.00000000000E+00 0. -1.
          1    1    1    2  502    0  0.45170532403E+02  0.30814120570E+02  0.79682563079E+03  0.79869955109E+03  0.00000000000E+00 0. -1.
         22    1    3    3    0    0 -0.59376300371E+02 -0.45280092706E+02  0.33649567731E+03  0.34468126246E+03  0.00000000000E+00 0.  1.
         22    1    3    3    0    0  0.50041852287E+02  0.16078873290E+02  0.17111647236E+03  0.17900716259E+03  0.00000000000E+00 0.  1.
</event>
<event>
 7    1  0.6520971E-006  0.6526148E+02  0.7818608E-02  0.1396260E+00
          2   -1    0    0  502    0  0.00000000000E+00  0.00000000000E+00  0.30290227405E+03  0.30290227405E+03  0.00000000000E+00 0. -1.
          1   -1    0    0  501    0 -0.00000000000E+00 -0.00000000000E+00 -0.69295950534E+03  0.69295950534E+03  0.00000000000E+00 0. -1.
         25    2    1    2    0    0  0.48924742570E+02  0.92854883580E+01  0.10846461568E+03  0.17282650620E+03  0.12499831063E+03 0.  0.
          2    1    1    2  501    0 -0.12771507706E+02  0.54376826156E+02 -0.65126336802E+03  0.65365428566E+03  0.00000000000E+00 0. -1.
          1    1    1    2  502    0 -0.36153234864E+02 -0.63662314514E+02  0.15274152106E+03  0.16938098753E+03  0.00000000000E+00 0. -1.
         22    1    3    3    0    0  0.54342363494E+02 -0.27361132591E+02  0.28556517731E+01  0.60908774358E+02  0.00000000000E+00 0.  1.
         22    1    3    3    0    0 -0.54176209238E+01  0.36646620949E+02  0.10560896391E+03  0.11191773184E+03  0.00000000000E+00 0.  1.
</event>
<event>
 7    1  0.6520971E-006  0.8232270E+02  0.7818608E-02  0.1386313E+00
          2   -1    0    0  502    0  0.00000000000E+00  0.00000000000E+00  0.31283206631E+04  0.31283206631E+04  0.00000000000E+00 0. -1.
          1   -1    0    0  501    0 -0.00000000000E+00 -0.00000000000E+00 -0.18272873471E+03  0.18272873471E+03  0.00000000000E+00 0. -1.
         25    2    1    2    0    0  0.17742811832E+02  0.48500616784E+02 -0.86907348914E+01  0.13552966253E+03  0.12500257338E+03 0.  0.
          2    1    1    2  501    0 -0.60610319257E+02 -0.70001882551E+02 -0.91019490366E+02  0.12983998609E+03  0.00000000000E+00 0. -1.
          1    1    1    2  502    0  0.42867507424E+02  0.21501265767E+02  0.30453021537E+04  0.30456797492E+04  0.00000000000E+00 0. -1.
         22    1    3    3    0    0 -0.27573675566E+02  0.47760727831E+02 -0.49825500836E+02  0.74323450140E+02  0.00000000000E+00 0. -1.
         22    1    3    3    0    0  0.45316487398E+02  0.73988895306E+00  0.41134765944E+02  0.61206212390E+02  0.00000000000E+00 0. -1.
</event>
<event>
 7    1  0.6520971E-006  0.1323576E+03  0.7818608E-02  0.1288004E+00
          2   -1    0    0  502    0  0.00000000000E+00  0.00000000000E+00  0.34851514352E+03  0.34851514352E+03  0.00000000000E+00 0. -1.
          1   -1    0    0  501    0 -0.00000000000E+00 -0.00000000000E+00 -0.13977630321E+04  0.13977630321E+04  0.00000000000E+00 0. -1.
         25    2    1    2    0    0  0.13666745623E+03 -0.10780136137E+03 -0.10478171818E+03  0.23853786118E+03  0.12498790199E+03 0.  0.
          2    1    1    2  501    0 -0.66582979602E+02  0.11252541455E+03 -0.12181699261E+04  0.12251666135E+04  0.00000000000E+00 0. -1.
          1    1    1    2  502    0 -0.70084476624E+02 -0.47240531711E+01  0.27370375571E+03  0.28257370089E+03  0.00000000000E+00 0. -1.
         22    1    3    3    0    0  0.37868256375E+02 -0.99863430188E+02 -0.87187490742E+02  0.13787083837E+03  0.00000000000E+00 0. -1.
         22    1    3    3    0    0  0.98799199851E+02 -0.79379311866E+01 -0.17594227440E+02  0.10066702281E+03  0.00000000000E+00 0. -1.
</event>
<event>
 7    1  0.6520971E-006  0.3422852E+03  0.7818608E-02  0.1193648E+00
          2   -1    0    0  502    0  0.00000000000E+00  0.00000000000E+00  0.22421242889E+04  0.22421242889E+04  0.00000000000E+00 0. -1.
          1   -1    0    0  501    0 -0.00000000000E+00 -0.00000000000E+00 -0.17088335571E+04  0.17088335571E+04  0.00000000000E+00 0. -1.
         25    2    1    2    0    0  0.35381326882E+03  0.20781118957E+03  0.33616090310E+03  0.54497605429E+03  0.12500170909E+03 0.  0.
          2    1    1    2  501    0 -0.29271152990E+03 -0.17200876741E+03 -0.15857543446E+04  0.16216916776E+04  0.00000000000E+00 0. -1.
          1    1    1    2  502    0 -0.61101738915E+02 -0.35802422156E+02  0.17828841732E+04  0.17842901141E+04  0.00000000000E+00 0. -1.
         22    1    3    3    0    0  0.19289187748E+03  0.50713636115E+02  0.19798725720E+03  0.28103043127E+03  0.00000000000E+00 0. -1.
         22    1    3    3    0    0  0.16092139134E+03  0.15709755345E+03  0.13817364590E+03  0.26394562302E+03  0.00000000000E+00 0. -1.
</event>
<event>
 7    1  0.6520971E-006  0.1144549E+03  0.7818608E-02  0.1360833E+00
          2   -1    0    0  502    0  0.00000000000E+00  0.00000000000E+00  0.47426564935E+03  0.47426564935E+03  0.00000000000E+00 0. -1.
          1   -1    0    0  501    0 -0.00000000000E+00 -0.00000000000E+00 -0.10034745318E+03  0.10034745318E+03  0.00000000000E+00 0. -1.
         25    2    1    2    0    0 -0.97370782097E+02 -0.54166159579E+02  0.59035188636E+02  0.17754937364E+03  0.12499433801E+03 0.  0.
          2    1    1    2  501    0  0.77454463943E+02  0.91763155844E+02  0.52165353357E+02  0.13092324028E+03  0.00000000000E+00 0. -1.
          1    1    1    2  502    0  0.19916318154E+02 -0.37596996265E+02  0.26271765418E+03  0.26614048860E+03  0.00000000000E+00 0. -1.
         22    1    3    3    0    0 -0.32345151696E+02  0.39828623673E+02  0.63623665347E+01  0.51701139348E+02  0.00000000000E+00 0.  1.
         22    1    3    3    0    0 -0.65025630401E+02 -0.93994783252E+02  0.52672822101E+02  0.12584823430E+03  0.00000000000E+00 0.  1.
</event>
<event>
 7    1  0.6520971E-006  0.1597033E+03  0.7818608E-02  0.1237469E+00
          2   -1    0    0  502    0  0.00000000000E+00  0.00000000000E+00  0.33271474054E+03  0.33271474054E+03  0.00000000000E+00 0. -1.
          1   -1    0    0  501    0 -0.00000000000E+00 -0.00000000000E+00 -0.32883971313E+04  0.32883971313E+04  0.00000000000E+00 0. -1.
         25    2    1    2    0    0 -0.13842922333E+01  0.23419720457E+03 -0.35058855175E+03  0.43975609127E+03  0.12499136088E+03 0.  0.
          2    1    1    2  501    0  0.45865167715E+02 -0.14972518600E+03 -0.28831334388E+04  0.28873828410E+04  0.00000000000E+00 0. -1.
          1    1    1    2  502    0 -0.44480875482E+02 -0.84472018572E+02  0.27803959971E+03  0.29397293959E+03  0.00000000000E+00 0. -1.
         22    1    3    3    0    0 -0.29623764607E+02  0.37165893947E+02 -0.15468465569E+02  0.49981441850E+02  0.00000000000E+00 0. -1.
         22    1    3    3    0    0  0.28239472374E+02  0.19703131063E+03 -0.33512008618E+03  0.38977464942E+03  0.00000000000E+00 0. -1.
</event>
<event>
 7    1  0.6520971E-006  0.2437510E+03  0.7818608E-02  0.1263960E+00
          2   -1    0    0  502    0  0.00000000000E+00  0.00000000000E+00  0.15861469869E+04  0.15861469869E+04  0.00000000000E+00 0. -1.
          1   -1    0    0  501    0 -0.00000000000E+00 -0.00000000000E+00 -0.87370762507E+03  0.87370762507E+03  0.00000000000E+00 0. -1.
         25    2    1    2    0    0 -0.14077763254E+03 -0.15210431577E+03  0.40148795881E+03  0.46879823796E+03  0.12500056858E+03 0.  0.
          2    1    1    2  501    0  0.14191273819E+03  0.20011115760E+03 -0.82162215767E+03  0.85746525914E+03  0.00000000000E+00 0. -1.
          1    1    1    2  502    0 -0.11351056479E+01 -0.48006841824E+02  0.11325735607E+04  0.11335911149E+04  0.00000000000E+00 0. -1.
         22    1    3    3    0    0 -0.52550952091E+02 -0.10340035040E+03  0.31610826368E+03  0.33671600703E+03  0.00000000000E+00 0.  1.
         22    1    3    3    0    0 -0.88226680447E+02 -0.48703965377E+02  0.85379695137E+02  0.13208223093E+03  0.00000000000E+00 0.  1.
</event>
<event>
 7    1  0.6520971E-006  0.6468530E+02  0.7818608E-02  0.1441414E+00
          2   -1    0    0  502    0  0.00000000000E+00  0.00000000000E+00  0.66567279009E+03  0.66567279009E+03  0.00000000000E+00 0. -1.
          1   -1    0    0  501    0 -0.00000000000E+00 -0.00000000000E+00 -0.93323374300E+02  0.93323374300E+02  0.00000000000E+00 0. -1.
         25    2    1    2    0    0  0.73351099651E+02 -0.10167125381E+02  0.22136389540E+03  0.26478476138E+03  0.12500096565E+03 0.  0.
          2    1    1    2  501    0 -0.14417561125E+02  0.37090720368E+02 -0.63365617629E+02  0.74825056657E+02  0.00000000000E+00 0. -1.
          1    1    1    2  502    0 -0.58933538526E+02 -0.26923594988E+02  0.41435113803E+03  0.41938634636E+03  0.00000000000E+00 0. -1.
         22    1    3    3    0    0  0.48694852695E+02 -0.13949933877E+02  0.95982154959E+01  0.51554971388E+02  0.00000000000E+00 0. -1.
         22    1    3    3    0    0  0.24656246957E+02  0.37828084959E+01  0.21176567990E+03  0.21322978999E+03  0.00000000000E+00 0. -1.
</event>
<event>
 7    1  0.6520971E-006  0.1594933E+03  0.7818608E-02  0.1391087E+00
          2   -1    0    0  502    0  0.00000000000E+00  0.00000000000E+00  0.11572692874E+04  0.11572692874E+04  0.00000000000E+00 0. -1.
          1   -1    0    0  501    0 -0.00000000000E+00 -0.00000000000E+00 -0.31535856017E+03  0.31535856017E+03  0.00000000000E+00 0. -1.
         25    2    1    2    0    0  0.99425450202E+02 -0.14662802503E+03  0.43360639536E+03  0.48479883332E+03  0.12502081756E+03 0.  0.
          2    1    1    2  501    0 -0.10181566793E+02  0.21534507144E+02 -0.28079544226E+03  0.28180397388E+03  0.00000000000E+00 0. -1.
          1    1    1    2  502    0 -0.89243883409E+02  0.12509351789E+03  0.68909977409E+03  0.70602504035E+03  0.00000000000E+00 0. -1.
         22    1    3    3    0    0  0.88319945630E+02 -0.16092397008E+03  0.31313134611E+03  0.36297131686E+03  0.00000000000E+00 0. -1.
         22    1    3    3    0    0  0.11105504572E+02  0.14295945055E+02  0.12047504925E+03  0.12182751646E+03  0.00000000000E+00 0. -1.
</event>
<event>
 7    1  0.6520971E-006  0.7723892E+02  0.7818608E-02  0.1405645E+00
          2   -1    0    0  502    0  0.00000000000E+00  0.00000000000E+00  0.28863878424E+03  0.28863878424E+03  0.00000000000E+00 0. -1.
          1   -1    0    0  501    0 -0.00000000000E+00 -0.00000000000E+00 -0.12600592435E+04  0.12600592435E+04  0.00000000000E+00 0. -1.
         25    2    1    2    0    0  0.90999191355E+02  0.43718460260E+02  0.14600228262E+03  0.21710221258E+03  0.12499819032E+03 0.  0.
          2    1    1    2  501    0 -0.42973217680E+02  0.85697752123E+01 -0.12123023014E+04  0.12130939817E+04  0.00000000000E+00 0. -1.
          1    1    1    2  502    0 -0.48025973675E+02 -0.52288235473E+02  0.94879559521E+02  0.11850183345E+03  0.00000000000E+00 0. -1.
         22    1    3    3    0    0 -0.68082216933E+01 -0.34255729215E+02  0.24041520242E+02  0.42400490117E+02  0.00000000000E+00 0. -1.
         22    1    3    3    0    0  0.97807413048E+02  0.77974189475E+02  0.12196076238E+03  0.17470172246E+03  0.00000000000E+00 0. -1.
</event>
<event>
 7    1  0.6520971E-006  0.5636919E+02  0.7818608E-02  0.1426916E+00
          2   -1    0    0  502    0  0.00000000000E+00  0.00000000000E+00  0.38895718880E+02  0.38895718880E+02  0.00000000000E+00 0. -1.
          1   -1    0    0  501    0 -0.00000000000E+00 -0.00000000000E+00 -0.39704511403E+04  0.39704511403E+04  0.00000000000E+00 0. -1.
         25    2    1    2    0    0  0.76809985315E+01  0.50762263113E+02 -0.81794300273E+03  0.82903023018E+03  0.12499824695E+03 0.  0.
          2    1    1    2  501    0 -0.51791896567E+02 -0.25291147010E+02 -0.31270946982E+04  0.31276258239E+04  0.00000000000E+00 0. -1.
          1    1    1    2  502    0  0.44110898035E+02 -0.25471116103E+02  0.13482279531E+02  0.52690805102E+02  0.00000000000E+00 0. -1.
         22    1    3    3    0    0 -0.57028316332E+02  0.33959258423E+02 -0.33823297442E+03  0.34468392055E+03  0.00000000000E+00 0. -1.
         22    1    3    3    0    0  0.64709314864E+02  0.16803004690E+02 -0.47971002831E+03  0.48434630963E+03  0.00000000000E+00 0. -1.
</event>
<event>
 7    1  0.6520971E-006  0.7944106E+02  0.7818608E-02  0.1388164E+00
          2   -1    0    0  502    0  0.00000000000E+00  0.00000000000E+00  0.11953041387E+04  0.11953041387E+04  0.00000000000E+00 0. -1.
          1   -1    0    0  501    0 -0.00000000000E+00 -0.00000000000E+00 -0.20411965650E+02  0.20411965650E+02  0.00000000000E+00 0. -1.
         25    2    1    2    0    0 -0.70771057341E+02 -0.56144083795E+02  0.38840873407E+03  0.41790828381E+03  0.12500115308E+03 0.  0.
          2    1    1    2  501    0 -0.84788177423E+01  0.48220656503E+02  0.19821043624E+03  0.20416782091E+03  0.00000000000E+00 0. -1.
          1    1    1    2  502    0  0.79249875083E+02  0.79234272922E+01  0.58827300270E+03  0.59363999958E+03  0.00000000000E+00 0. -1.
         22    1    3    3    0    0 -0.64317817321E+02 -0.83360900418E+02  0.18731415277E+03  0.21487767025E+03  0.00000000000E+00 0. -1.
         22    1    3    3    0    0 -0.64532400197E+01  0.27216816622E+02  0.20109458130E+03  0.20303061356E+03  0.00000000000E+00 0. -1.
</event>
<event>
 7    1  0.6520971E-006  0.3061985E+03  0.7818608E-02  0.1237036E+00
          2   -1    0    0  502    0  0.00000000000E+00  0.00000000000E+00  0.23074301021E+04  0.23074301021E+04  0.00000000000E+00 0. -1.
          1   -1    0    0  501    0 -0.00000000000E+00 -0.00000000000E+00 -0.10360282357E+04  0.10360282357E+04  0.00000000000E+00 0. -1.
         25    2    1    2    0    0  0.78650455906E+02 -0.24889138646E+03  0.15134449724E+02  0.28980451329E+03  0.12499915155E+03 0.  0.
          2    1    1    2  501    0  0.25767956539E+02 -0.42864118924E+02 -0.88684506833E+03  0.88825418406E+03  0.00000000000E+00 0. -1.
          1    1    1    2  502    0 -0.10441841245E+03  0.29175550538E+03  0.21431124850E+04  0.21653996405E+04  0.00000000000E+00 0. -1.
         22    1    3    3    0    0  0.47494610902E+02 -0.19800175698E+02  0.27366103398E+02  0.58281117333E+02  0.00000000000E+00 0. -1.
         22    1    3    3    0    0  0.31155845005E+02 -0.22909121076E+03 -0.12231653674E+02  0.23152339596E+03  0.00000000000E+00 0. -1.
</event>
<event>
 7    1  0.6520971E-006  0.7406465E+02  0.7818608E-02  0.1355452E+00
          2   -1    0    0  502    0  0.00000000000E+00  0.00000000000E+00  0.14822655707E+04  0.14822655707E+04  0.00000000000E+00 0. -1.
          1   -1    0    0  501    0 -0.00000000000E+00 -0.00000000000E+00 -0.12674165329E+03  0.12674165329E+03  0.00000000000E+00 0. -1.
         25    2    1    2    0    0 -0.33505048677E+02  0.13036086530E+03  0.27744368839E+03  0.33274346631E+03  0.12500668244E+03 0.  0.
          2    1    1    2  501    0  0.36601099997E+02 -0.61632150650E+02 -0.84977742721E+02  0.11117274519E+03  0.00000000000E+00 0. -1.
          1    1    1    2  502    0 -0.30960513198E+01 -0.68728714648E+02  0.11630579717E+04  0.11650910125E+04  0.00000000000E+00 0. -1.
         22    1    3    3    0    0  0.24108481995E+02 -0.89480597682E+01  0.81857102503E+02  0.85801351434E+02  0.00000000000E+00 0.  1.
         22    1    3    3    0    0 -0.57613530672E+02  0.13930892507E+03  0.19558658588E+03  0.24694211487E+03  0.00000000000E+00 0.  1.
</event>
<event>
 7    1  0.6520971E-006  0.9542869E+02  0.7818608E-02  0.1380640E+00
          2   -1    0    0  502    0  0.00000000000E+00  0.00000000000E+00  0.18051770727E+04  0.18051770727E+04  0.00000000000E+00 0. -1.
          1   -1    0    0  501    0 -0.00000000000E+00 -0.00000000000E+00 -0.82408486109E+03  0.82408486109E+03  0.00000000000E+00 0. -1.
         25    2    1    2    0    0  0.65044810161E+02  0.12097229213E+03 -0.32101740117E+01  0.18574074823E+03  0.12499679013E+03 0.  0.
          2    1    1    2  501    0 -0.45047792107E+02 -0.82544240476E+02 -0.72630404953E+03  0.73236632062E+03  0.00000000000E+00 0. -1.
          1    1    1    2  502    0 -0.19997018054E+02 -0.38428051652E+02  0.17106064351E+04  0.17111548649E+04  0.00000000000E+00 0. -1.
         22    1    3    3    0    0  0.73629664090E+02  0.10046080554E+03  0.45173061900E+02  0.13249266548E+03  0.00000000000E+00 0.  1.
         22    1    3    3    0    0 -0.85848539289E+01  0.20511486583E+02 -0.48383235911E+02  0.53248082746E+02  0.00000000000E+00 0.  1.
</event>
<event>
 7    1  0.6520971E-006  0.6351987E+02  0.7818608E-02  0.1501659E+00
          2   -1    0    0  502    0  0.00000000000E+00  0.00000000000E+00  0.86365512721E+03  0.86365512721E+03  0.00000000000E+00 0. -1.
          1   -1    0    0  501    0 -0.00000000000E+00 -0.00000000000E+00 -0.12225474038E+03  0.12225474038E+03  0.00000000000E+00 0. -1.
         25    2    1    2    0    0  0.63014443948E+02 -0.60442953885E+02  0.71751358306E+02  0.16851462237E+03  0.12499899885E+03 0.  0.
          2    1    1    2  501    0 -0.43163681308E+02  0.43128292266E+02 -0.60995339814E+02  0.86276210261E+02  0.00000000000E+00 0. -1.
          1    1    1    2  502    0 -0.19850762640E+02  0.17314661619E+02  0.73064436834E+03  0.73111903496E+03  0.00000000000E+00 0. -1.
         22    1    3    3    0    0 -0.35822355265E+02 -0.28499217040E+02  0.75229998273E+01  0.46390107081E+02  0.00000000000E+00 0.  1.
         22    1    3    3    0    0  0.98836799213E+02 -0.31943736846E+02  0.64228358479E+02  0.12212451529E+03  0.00000000000E+00 0.  1.
</event>
<event>
 7    1  0.6520971E-006  0.1274262E+03  0.7818608E-02  0.1243503E+00
          2   -1    0    0  502    0  0.00000000000E+00  0.00000000000E+00  0.64498595886E+03  0.64498595886E+03  0.00000000000E+00 0. -1.
          1   -1    0    0  501    0 -0.00000000000E+00 -0.00000000000E+00 -0.36652074675E+04  0.36652074675E+04  0.00000000000E+00 0. -1.
         25    2    1    2    0    0  0.61978072916E+02  0.15165698573E+03 -0.91284710005E+03  0.93581869608E+03  0.12500272405E+03 0.  0.
          2    1    1    2  501    0  0.54001193296E+02 -0.98742137642E+02 -0.27332915627E+04  0.27356075935E+04  0.00000000000E+00 0. -1.
          1    1    1    2  502    0 -0.11597926621E+03 -0.52914848087E+02  0.62591715409E+03  0.63876713685E+03  0.00000000000E+00 0. -1.
         22    1    3    3    0    0  0.55948233171E+02  0.67458843920E+02 -0.71988802734E+03  0.72520319382E+03  0.00000000000E+00 0. -1.
         22    1    3    3    0    0  0.60298397454E+01  0.84198141808E+02 -0.19295907271E+03  0.21061550226E+03  0.00000000000E+00 0. -1.
</event>
<event>
 7    1  0.6520971E-006  0.6266925E+02  0.7818608E-02  0.1492260E+00
          2   -1    0    0  502    0  0.00000000000E+00  0.00000000000E+00  0.13201222884E+03  0.13201222884E+03  0.00000000000E+00 0. -1.
          1   -1    0    0  501    0 -0.00000000000E+00 -0.00000000000E+00 -0.56005622616E+03  0.56005622616E+03  0.00000000000E+00 0. -1.
         25    2    1    2    0    0 -0.40572908868E+02 -0.13180102698E+02  0.40535029013E+02  0.13816163258E+03  0.12500268836E+03 0.  0.
          2    1    1    2  501    0  0.48439060084E+02  0.40559853865E+02 -0.50428618194E+03  0.50822829278E+03  0.00000000000E+00 0. -1.
          1    1    1    2  502    0 -0.78661512165E+01 -0.27379751167E+02  0.35707155609E+02  0.45678529646E+02  0.00000000000E+00 0. -1.
         22    1    3    3    0    0 -0.46044661327E+02  0.13883028337E+02 -0.33854667372E+02  0.58813160223E+02  0.00000000000E+00 0. -1.
         22    1    3    3    0    0  0.54717524591E+01 -0.27063131034E+02  0.74389696386E+02  0.79348472353E+02  0.00000000000E+00 0. -1.
</event>
<event>
 7    1  0.6520971E-006  0.9329392E+02  0.7818608E-02  0.1327587E+00
          2   -1    0    0  502    0  0.00000000000E+00  0.00000000000E+00  0.85252945820E+02  0.85252945820E+02  0.00000000000E+00 0. -1.
          1   -1    0    0  501    0 -0.00000000000E+00 -0.00000000000E+00 -0.74005318562E+03  0.74005318562E+03  0.00000000000E+00 0. -1.
         25    2    1    2    0    0  0.30366956871E+02  0.14179891324E+03 -0.10611251518E+03  0.21890375876E+03  0.12501962189E+03 0.  0.
          2    1    1    2  501    0 -0.20585681424E+02 -0.66373117701E+02 -0.52076535313E+03  0.52538149382E+03  0.00000000000E+00 0. -1.
          1    1    1    2  502    0 -0.97812754470E+01 -0.75425795534E+02 -0.27922371501E+02  0.81020878862E+02  0.00000000000E+00 0. -1.
         22    1    3    3    0    0  0.79151276640E+02  0.87773639683E+02 -0.58060861114E+02  0.13168219322E+03  0.00000000000E+00 0.  1.
         22    1    3    3    0    0 -0.48784319769E+02  0.54025273552E+02 -0.48051654061E+02  0.87221565543E+02  0.00000000000E+00 0.  1.
</event>
<event>
 7    1  0.6520971E-006  0.6926224E+02  0.7818608E-02  0.1435554E+00
          2   -1    0    0  502    0  0.00000000000E+00  0.00000000000E+00  0.58310644968E+03  0.58310644968E+03  0.00000000000E+00 0. -1.
          1   -1    0    0  501    0 -0.00000000000E+00 -0.00000000000E+00 -0.28741343416E+04  0.28741343416E+04  0.00000000000E+00 0. -1.
         25    2    1    2    0    0 -0.78654414933E+01  0.42487041614E+02 -0.56510505630E+02  0.14382880004E+03  0.12500509029E+03 0.  0.
          2    1    1    2  501    0  0.30822720229E+02  0.23619258008E+02 -0.27715586174E+04  0.27718306368E+04  0.00000000000E+00 0. -1.
          1    1    1    2  502    0 -0.22957278735E+02 -0.66106299622E+02  0.53704123115E+03  0.54158135441E+03  0.00000000000E+00 0. -1.
         22    1    3    3    0    0  0.29705963965E+02  0.52648919599E+02 -0.78536140573E+02  0.99107408433E+02  0.00000000000E+00 0. -1.
         22    1    3    3    0    0 -0.37571405458E+02 -0.10161877985E+02  0.22025634943E+02  0.44721391603E+02  0.00000000000E+00 0. -1.
</event>
<event>
 7    1  0.6520971E-006  0.7627622E+02  0.7818608E-02  0.1367312E+00
          2   -1    0    0  502    0  0.00000000000E+00  0.00000000000E+00  0.11035557900E+03  0.11035557900E+03  0.00000000000E+00 0. -1.
          1   -1    0    0  501    0 -0.00000000000E+00 -0.00000000000E+00 -0.15651306038E+04  0.15651306038E+04  0.00000000000E+00 0. -1.
         25    2    1    2    0    0  0.47429606355E+02  0.74132727301E+02 -0.30036556536E+03  0.33703163378E+03  0.12500248197E+03 0.  0.
          2    1    1    2  501    0 -0.74287363661E+02 -0.19943900961E+02 -0.12351676395E+04  0.12375602891E+04  0.00000000000E+00 0. -1.
          1    1    1    2  502    0  0.26857757305E+02 -0.54188826340E+02  0.80758180072E+02  0.10089425988E+03  0.00000000000E+00 0. -1.
         22    1    3    3    0    0 -0.15868083259E+02  0.15510256918E+02  0.23018307464E+01  0.22308351817E+02  0.00000000000E+00 0. -1.
         22    1    3    3    0    0  0.63297689614E+02  0.58622470383E+02 -0.30266739611E+03  0.31472328196E+03  0.00000000000E+00 0. -1.
</event>
<event>
 7    1  0.6520971E-006  0.7652670E+02  0.7818608E-02  0.1415260E+00
          2   -1    0    0  502    0  0.00000000000E+00  0.00000000000E+00  0.14173048159E+04  0.14173048159E+04  0.00000000000E+00 0. -1.
          1   -1    0    0  501    0 -0.00000000000E+00 -0.00000000000E+00 -0.15927815219E+04  0.15927815219E+04  0.00000000000E+00 0. -1.
         25    2    1    2    0    0  0.41123369900E+02 -0.10753033846E+03 -0.14206352230E+03  0.22149726233E+03  0.12500035044E+03 0.  0.
          2    1    1    2  501    0 -0.18586497767E+02  0.73240974501E+02 -0.14096834992E+04  0.14117072169E+04  0.00000000000E+00 0. -1.
          1    1    1    2  502    0 -0.22536872133E+02  0.34289363956E+02  0.13762703156E+04  0.13768818586E+04  0.00000000000E+00 0. -1.
         22    1    3    3    0    0  0.18479128782E+02 -0.14197239629E+02  0.21574815710E+02  0.31757085612E+02  0.00000000000E+00 0. -1.
         22    1    3    3    0    0  0.22644241118E+02 -0.93333098828E+02 -0.16363833801E+03  0.18974017671E+03  0.00000000000E+00 0. -1.
</event>
<event>
 7    1  0.6520971E-006  0.3889375E+02  0.7818608E-02  0.1593840E+00
          2   -1    0    0  502    0  0.00000000000E+00  0.00000000000E+00  0.15509142498E+04  0.15509142498E+04  0.00000000000E+00 0. -1.
          1   -1    0    0  501    0 -0.00000000000E+00 -0.00000000000E+00 -0.18316160315E+03  0.18316160315E+03  0.00000000000E+00 0. -1.
         25    2    1    2    0    0 -0.35757659019E+02  0.16911466028E+02  0.50183922057E+03  0.51868285834E+03  0.12499878547E+03 0.  0.
          2    1    1    2  501    0  0.16419417851E+02  0.17149282005E+02 -0.17356277091E+03  0.17517913860E+03  0.00000000000E+00 0. -1.
          1    1    1    2  502    0  0.19338241168E+02 -0.34060748034E+02  0.10394761970E+04  0.10402138560E+04  0.00000000000E+00 0. -1.
         22    1    3    3    0    0  0.30267524928E+02 -0.32498130252E+02  0.24298365980E+03  0.24700872548E+03  0.00000000000E+00 0.  1.
         22    1    3    3    0    0 -0.66025183947E+02  0.49409596280E+02  0.25885556078E+03  0.27167413286E+03  0.00000000000E+00 0.  1.
</event>
<event>
 7    1  0.6520971E-006  0.6900918E+02  0.7818608E-02  0.1444779E+00
          2   -1    0    0  502    0  0.00000000000E+00  0.00000000000E+00  0.36966283074E+04  0.36966283074E+04  0.00000000000E+00 0. -1.
          1   -1    0    0  501    0 -0.00000000000E+00 -0.00000000000E+00 -0.27967256949E+02  0.27967256949E+02  0.00000000000E+00 0. -1.
         25    2    1    2    0    0 -0.86895282412E+01  0.36478826607E+02  0.10969503558E+04  0.11046861629E+04  0.12500089106E+03 0.  0.
          2    1    1    2  501    0  0.73862276729E+00  0.36370963050E+02 -0.95480572576E+01  0.37610609064E+02  0.00000000000E+00 0. -1.
          1    1    1    2  502    0  0.79509054739E+01 -0.72849789657E+02  0.25812587520E+04  0.25822987924E+04  0.00000000000E+00 0. -1.
         22    1    3    3    0    0 -0.49668845788E+02 -0.87979907377E+01  0.79632253837E+03  0.79791853219E+03  0.00000000000E+00 0.  1.
         22    1    3    3    0    0  0.40979317547E+02  0.45276817345E+02  0.30062781739E+03  0.30676763070E+03  0.00000000000E+00 0.  1.
</event>
<event>
 7    1  0.6520971E-006  0.7220570E+02  0.7818608E-02  0.1367158E+00
          2   -1    0    0  502    0  0.00000000000E+00  0.00000000000E+00  0.16043238352E+03  0.16043238352E+03  0.00000000000E+00 0. -1.
          1   -1    0    0  501    0 -0.00000000000E+00 -0.00000000000E+00 -0.42334872537E+03  0.42334872537E+03  0.00000000000E+00 0. -1.
         25    2    1    2    0    0 -0.10218510362E+03 -0.13440884570E+02 -0.48439528452E+02  0.16909762302E+03  0.12500066166E+03 0.  0.
          2    1    1    2  501    0  0.41056265606E+02  0.49057880004E+02 -0.29824972918E+03  0.30503310229E+03  0.00000000000E+00 0. -1.
          1    1    1    2  502    0  0.61128838010E+02 -0.35616995434E+02  0.83772915785E+02  0.10965038358E+03  0.00000000000E+00 0. -1.
         22    1    3    3    0    0 -0.24995842641E+02 -0.83425217428E+01  0.42313988345E+02  0.49848404468E+02  0.00000000000E+00 0.  1.
         22    1    3    3    0    0 -0.77189260975E+02 -0.50983628269E+01 -0.90753516797E+02  0.11924921855E+03  0.00000000000E+00 0.  1.
</event>
<event>
 7    1  0.6520971E-006  0.9216508E+02  0.7818608E-02  0.1297744E+00
          2   -1    0    0  502    0  0.00000000000E+00  0.00000000000E+00  0.21794738554E+03  0.21794738554E+03  0.00000000000E+00 0. -1.
          1   -1    0    0  501    0 -0.00000000000E+00 -0.00000000000E+00 -0.79514107781E+03  0.79514107781E+03  0.00000000000E+00 0. -1.
         25    2    1    2    0    0  0.97402972206E+01  0.14369202048E+01 -0.86288186399E+02  0.15220744070E+03  0.12499806303E+03 0.  0.
          2    1    1    2  501    0  0.90170839279E+02  0.19068877894E+02 -0.65837648870E+03  0.66479621181E+03  0.00000000000E+00 0. -1.
          1    1    1    2  502    0 -0.99911136500E+02 -0.20505798099E+02  0.16747098283E+03  0.19608481084E+03  0.00000000000E+00 0. -1.
         22    1    3    3    0    0  0.54637629727E+02  0.62835025961E+01 -0.91492559242E+02  0.10675036948E+03  0.00000000000E+00 0.  1.
         22    1    3    3    0    0 -0.44897332507E+02 -0.48465823912E+01  0.52043728435E+01  0.45457071219E+02  0.00000000000E+00 0.  1.
</event>
<event>
 7    1  0.6520971E-006  0.7009707E+02  0.7818608E-02  0.1372752E+00
          2   -1    0    0  502    0  0.00000000000E+00  0.00000000000E+00  0.65235006264E+02  0.65235006264E+02  0.00000000000E+00 0. -1.
          1   -1    0    0  501    0 -0.00000000000E+00 -0.00000000000E+00 -0.86423073502E+03  0.86423073502E+03  0.00000000000E+00 0. -1.
         25    2    1    2    0    0  0.49280837682E+02 -0.75416965957E+02 -0.20326192867E+03  0.25506136191E+03  0.12499826790E+03 0.  0.
          2    1    1    2  501    0 -0.62594131869E+02  0.63264134449E+01 -0.60058934066E+03  0.60387548797E+03  0.00000000000E+00 0. -1.
          1    1    1    2  502    0  0.13313294187E+02  0.69090552512E+02  0.48555405730E+01  0.70528891405E+02  0.00000000000E+00 0. -1.
         22    1    3    3    0    0 -0.25746508639E+02 -0.32340748980E+00  0.20011158282E-02  0.25748539832E+02  0.00000000000E+00 0.  1.
         22    1    3    3    0    0  0.75027346320E+02 -0.75093558467E+02 -0.20326392979E+03  0.22931282208E+03  0.00000000000E+00 0.  1.
</event>
<event>
 7    1  0.6520971E-006  0.1457315E+03  0.7818608E-02  0.1349878E+00
          2   -1    0    0  502    0  0.00000000000E+00  0.00000000000E+00  0.11702937443E+04  0.11702937443E+04  0.00000000000E+00 0. -1.
          1   -1    0    0  501    0 -0.00000000000E+00 -0.00000000000E+00 -0.34870596507E+02  0.34870596507E+02  0.00000000000E+00 0. -1.
         25    2    1    2    0    0 -0.78006541963E+02 -0.93997710451E+02  0.56505511860E+03  0.59146651985E+03  0.12499906759E+03 0.  0.
          2    1    1    2  501    0  0.10659710772E+03  0.11694589678E+03  0.28497897358E+03  0.32596365063E+03  0.00000000000E+00 0. -1.
          1    1    1    2  502    0 -0.28590565762E+02 -0.22948186326E+02  0.28538905557E+03  0.28773417027E+03  0.00000000000E+00 0. -1.
         22    1    3    3    0    0 -0.77973567076E+02 -0.51247248243E+02  0.16846450560E+03  0.19257841848E+03  0.00000000000E+00 0. -1.
         22    1    3    3    0    0 -0.32974886638E-01 -0.42750462207E+02  0.39659061299E+03  0.39888810138E+03  0.00000000000E+00 0. -1.
</event>
<event>
 7    1  0.6520971E-006  0.5894763E+02  0.7818608E-02  0.1425415E+00
          2   -1    0    0  502    0  0.00000000000E+00  0.00000000000E+00  0.11147277875E+04  0.11147277875E+04  0.00000000000E+00 0. -1.
          1   -1    0    0  501    0 -0.00000000000E+00 -0.00000000000E+00 -0.27137392568E+03  0.27137392568E+03  0.00000000000E+00 0. -1.
         25    2    1    2    0    0  0.51647010085E+02  0.16371893480E+01  0.16639670138E+03  0.21443590531E+03  0.12499920487E+03 0.  0.
          2    1    1    2  501    0 -0.12967542925E+02 -0.47531924670E+02 -0.24391423272E+03  0.24884049903E+03  0.00000000000E+00 0. -1.
          1    1    1    2  502    0 -0.38679467160E+02  0.45894735322E+02  0.92087139319E+03  0.92282530888E+03  0.00000000000E+00 0. -1.
         22    1    3    3    0    0 -0.39982446948E+02 -0.24584877423E+01  0.74569158269E+02  0.84647501976E+02  0.00000000000E+00 0. -1.
         22    1    3    3    0    0  0.91629457033E+02  0.40956770903E+01  0.91827543110E+02  0.12978840334E+03  0.00000000000E+00 0. -1.
</event>
<event>
 7    1  0.6520971E-006  0.5192742E+02  0.7818608E-02  0.1494959E+00
          2   -1    0    0  502    0  0.00000000000E+00  0.00000000000E+00  0.68119168243E+03  0.68119168243E+03  0.00000000000E+00 0. -1.
          1   -1    0    0  501    0 -0.00000000000E+00 -0.00000000000E+00 -0.63505540325E+03  0.63505540325E+03  0.00000000000E+00 0. -1.
         25    2    1    2    0    0  0.21343255778E+02  0.35972932600E+02  0.50273374591E+02  0.14107935119E+03  0.12500553865E+03 0.  0.
          2    1    1    2  501    0 -0.49295439750E+02 -0.17071134744E+02 -0.58801050372E+03  0.59032009665E+03  0.00000000000E+00 0. -1.
          1    1    1    2  502    0  0.27952183973E+02 -0.18901797856E+02  0.58387340831E+03  0.58484763783E+03  0.00000000000E+00 0. -1.
         22    1    3    3    0    0 -0.16362721159E+02 -0.36042746860E+02  0.44540965663E+02  0.59587883560E+02  0.00000000000E+00 0.  1.
         22    1    3    3    0    0  0.37705976937E+02  0.72015679460E+02  0.57324089280E+01  0.81491467633E+02  0.00000000000E+00 0.  1.
</event>
<event>
 7    1  0.6520971E-006  0.1887663E+03  0.7818608E-02  0.1370658E+00
          2   -1    0    0  502    0  0.00000000000E+00  0.00000000000E+00  0.13843767127E+04  0.13843767127E+04  0.00000000000E+00 0. -1.
          1   -1    0    0  501    0 -0.00000000000E+00 -0.00000000000E+00 -0.35435002881E+03  0.35435002881E+03  0.00000000000E+00 0. -1.
         25    2    1    2    0    0 -0.15540182107E+03 -0.14266174863E+03  0.36469307190E+03  0.43946507188E+03  0.12500564866E+03 0.  0.
          2    1    1    2  501    0  0.13690179013E+03  0.12773695506E+03 -0.28915109443E+03  0.34448103756E+03  0.00000000000E+00 0. -1.
          1    1    1    2  502    0  0.18500030938E+02  0.14924793569E+02  0.95448470645E+03  0.95478063211E+03  0.00000000000E+00 0. -1.
         22    1    3    3    0    0 -0.13895870091E+03 -0.11750390633E+03  0.19340464102E+03  0.26555986845E+03  0.00000000000E+00 0.  1.
         22    1    3    3    0    0 -0.16443120165E+02 -0.25157842305E+02  0.17128843087E+03  0.17390520343E+03  0.00000000000E+00 0.  1.
</event>
<event>
 7    1  0.6520971E-006  0.9116049E+02  0.7818608E-02  0.1364496E+00
          2   -1    0    0  502    0  0.00000000000E+00  0.00000000000E+00  0.26907048387E+03  0.26907048387E+03  0.00000000000E+00 0. -1.
          1   -1    0    0  501    0 -0.00000000000E+00 -0.00000000000E+00 -0.76748895150E+03  0.76748895150E+03  0.00000000000E+00 0. -1.
         25    2    1    2    0    0 -0.93100922499E+02  0.61073249796E+02 -0.54824681361E+03  0.57323419457E+03  0.12500059834E+03 0.  0.
          2    1    1    2  501    0  0.42094848948E+02 -0.70138427988E+02 -0.19584880846E+03  0.21224545027E+03  0.00000000000E+00 0. -1.
          1    1    1    2  502    0  0.51006073552E+02  0.90651781921E+01  0.24567715443E+03  0.25107979051E+03  0.00000000000E+00 0. -1.
         22    1    3    3    0    0 -0.17915499127E+02  0.68117902019E+02 -0.12656137713E+03  0.14484058777E+03  0.00000000000E+00 0.  1.
         22    1    3    3    0    0 -0.75185423372E+02 -0.70446522228E+01 -0.42168543648E+03  0.42839360680E+03  0.00000000000E+00 0.  1.
</event>
<event>
 7    1  0.6520971E-006  0.7886432E+02  0.7818608E-02  0.1499330E+00
          2   -1    0    0  502    0  0.00000000000E+00  0.00000000000E+00  0.16803995153E+04  0.16803995153E+04  0.00000000000E+00 0. -1.
          1   -1    0    0  501    0 -0.00000000000E+00 -0.00000000000E+00 -0.82816373774E+02  0.82816373774E+02  0.00000000000E+00 0. -1.
         25    2    1    2    0    0 -0.52172372565E+02 -0.29586181425E+02  0.19813410543E+02  0.14005154077E+03  0.12499825697E+03 0.  0.
          2    1    1    2  501    0 -0.10474148111E+02 -0.18842429694E+02 -0.16364038997E+02  0.27065230605E+02  0.00000000000E+00 0. -1.
          1    1    1    2  502    0  0.62646520675E+02  0.48428611118E+02  0.15941337700E+04  0.15960991177E+04  0.00000000000E+00 0. -1.
         22    1    3    3    0    0 -0.13560959169E+02  0.45576271170E+02  0.27956228785E+02  0.55160192487E+02  0.00000000000E+00 0.  1.
         22    1    3    3    0    0 -0.38611413395E+02 -0.75162452595E+02 -0.81428182423E+01  0.84891348283E+02  0.00000000000E+00 0.  1.
</event>
<event>
 7    1  0.6520971E-006  0.1082125E+03  0.7818608E-02  0.1320130E+00
          2   -1    0    0  502    0  0.00000000000E+00  0.00000000000E+00  0.24322101425E+04  0.24322101425E+04  0.00000000000E+00 0. -1.
          1   -1    0    0  501    0 -0.00000000000E+00 -0.00000000000E+00 -0.59675184947E+03  0.59675184947E+03  0.00000000000E+00 0. -1.
         25    2    1    2    0    0 -0.61707746308E+02 -0.71117941276E+01  0.36912764421E+03  0.39463765591E+03  0.12500095266E+03 0.  0.
          2    1    1    2  501    0 -0.36039056959E+02 -0.52904655040E+02 -0.58063227725E+03  0.58415028677E+03  0.00000000000E+00 0. -1.
          1    1    1    2  502    0  0.97746803266E+02  0.60016449167E+02  0.20469629261E+04  0.20501740493E+04  0.00000000000E+00 0. -1.
         22    1    3    3    0    0 -0.41925663908E+02 -0.16989802092E+02  0.28874973753E+02  0.53667297104E+02  0.00000000000E+00 0.  1.
         22    1    3    3    0    0 -0.19782082400E+02  0.98780079640E+01  0.34025267046E+03  0.34097035880E+03  0.00000000000E+00 0.  1.
</event>
<event>
 7    1  0.6520971E-006  0.9081774E+02  0.7818608E-02  0.1378601E+00
          2   -1    0    0  502    0  0.00000000000E+00  0.00000000000E+00  0.30945216712E+04  0.30945216712E+04  0.00000000000E+00 0. -1.
          1   -1    0    0  501    0 -0.00000000000E+00 -0.00000000000E+00 -0.91528719412E+02  0.91528719412E+02  0.00000000000E+00 0. -1.
         25    2    1    2    0    0 -0.37507142524E+02  0.54508955217E+02  0.45842874759E+03  0.47975217982E+03  0.12500890164E+03 0.  0.
          2    1    1    2  501    0  0.10438171691E+02 -0.92050508114E+02 -0.54061164547E+02  0.10726071501E+03  0.00000000000E+00 0. -1.
          1    1    1    2  502    0  0.27068970834E+02  0.37541552897E+02  0.25986253687E+04  0.25990374958E+04  0.00000000000E+00 0. -1.
         22    1    3    3    0    0  0.42770740881E+02 -0.22601698155E+01  0.15352098698E+03  0.15938361926E+03  0.00000000000E+00 0.  1.
         22    1    3    3    0    0 -0.80277883406E+02  0.56769125033E+02  0.30490776060E+03  0.32036856056E+03  0.00000000000E+00 0.  1.
</event>
<event>
 7    1  0.6520971E-006  0.2356179E+03  0.7818608E-02  0.1274625E+00
          2   -1    0    0  502    0  0.00000000000E+00  0.00000000000E+00  0.56430007324E+03  0.56430007324E+03  0.00000000000E+00 0. -1.
          1   -1    0    0  501    0 -0.00000000000E+00 -0.00000000000E+00 -0.21832564145E+04  0.21832564145E+04  0.00000000000E+00 0. -1.
         25    2    1    2    0    0  0.13650531556E+03  0.22733684888E+03 -0.22020735852E+02  0.29398197786E+03  0.12499898584E+03 0.  0.
          2    1    1    2  501    0 -0.93495346520E+02 -0.21478374496E+03 -0.20172868952E+04  0.20308421540E+04  0.00000000000E+00 0. -1.
          1    1    1    2  502    0 -0.43009969043E+02 -0.12553103923E+02  0.42035128981E+03  0.42273235587E+03  0.00000000000E+00 0. -1.
         22    1    3    3    0    0  0.45282857365E+01  0.12613719027E+03 -0.19024268782E+02  0.12764411049E+03  0.00000000000E+00 0.  1.
         22    1    3    3    0    0  0.13197702983E+03  0.10119965861E+03 -0.29964670697E+01  0.16633786737E+03  0.00000000000E+00 0.  1.
</event>
<event>
 7    1  0.6520971E-006  0.3176617E+02  0.7818608E-02  0.1591175E+00
          2   -1    0    0  502    0  0.00000000000E+00  0.00000000000E+00  0.47153079802E+03  0.47153079802E+03  0.00000000000E+00 0. -1.
          1   -1    0    0  501    0 -0.00000000000E+00 -0.00000000000E+00 -0.16228137197E+03  0.16228137197E+03  0.00000000000E+00 0. -1.
         25    2    1    2    0    0  0.58467569126E+01  0.55757614563E+02  0.20726576449E+02  0.13855784560E+03  0.12500235781E+03 0.  0.
          2    1    1    2  501    0  0.92535764489E+01 -0.28057399778E+02 -0.10060314229E+03  0.10485150737E+03  0.00000000000E+00 0. -1.
          1    1    1    2  502    0 -0.15100333362E+02 -0.27700214785E+02  0.38912599189E+03  0.39040281702E+03  0.00000000000E+00 0. -1.
         22    1    3    3    0    0  0.24457238079E+02 -0.22050420106E+02  0.44259341176E+02  0.55165811901E+02  0.00000000000E+00 0.  1.
         22    1    3    3    0    0 -0.18610481166E+02  0.77808034669E+02 -0.23532764727E+02  0.83392033696E+02  0.00000000000E+00 0.  1.
</event>
<event>
 7    1  0.6520971E-006  0.7224706E+02  0.7818608E-02  0.1451625E+00
          2   -1    0    0  502    0  0.00000000000E+00  0.00000000000E+00  0.66208190210E+03  0.66208190210E+03  0.00000000000E+00 0. -1.
          1   -1    0    0  501    0 -0.00000000000E+00 -0.00000000000E+00 -0.73659129651E+03  0.73659129651E+03  0.00000000000E+00 0. -1.
         25    2    1    2    0    0 -0.66587248514E+01 -0.66612236493E+02  0.15418234526E+02  0.14263183290E+03  0.12499835653E+03 0.  0.
          2    1    1    2  501    0  0.33015550107E+02 -0.11285829971E+01 -0.67031071857E+03  0.67112425055E+03  0.00000000000E+00 0. -1.
          1    1    1    2  502    0 -0.26356825255E+02  0.67740819490E+02  0.58038308963E+03  0.58491711515E+03  0.00000000000E+00 0. -1.
         22    1    3    3    0    0  0.29862562073E+02 -0.82927043365E+02  0.38797071986E+02  0.96300986130E+02  0.00000000000E+00 0.  1.
         22    1    3    3    0    0 -0.36521286924E+02  0.16314806873E+02 -0.23378837460E+02  0.46330846775E+02  0.00000000000E+00 0.  1.
</event>
<event>
 7    1  0.6520971E-006  0.7524685E+02  0.7818608E-02  0.1433642E+00
          2   -1    0    0  502    0  0.00000000000E+00  0.00000000000E+00  0.23042537032E+02  0.23042537032E+02  0.00000000000E+00 0. -1.
          1   -1    0    0  501    0 -0.00000000000E+00 -0.00000000000E+00 -0.11736462919E+04  0.11736462919E+04  0.00000000000E+00 0. -1.
         25    2    1    2    0    0  0.60815718448E+02 -0.14650872163E+01 -0.31950276348E+03  0.34843721531E+03  0.12500311616E+03 0.  0.
          2    1    1    2  501    0  0.20494237307E+02 -0.29914872852E+02 -0.60265268507E+03  0.60374263739E+03  0.00000000000E+00 0. -1.
          1    1    1    2  502    0 -0.81309955755E+02  0.31379960068E+02 -0.22844830628E+03  0.24450897620E+03  0.00000000000E+00 0. -1.
         22    1    3    3    0    0 -0.62718744262E+01  0.42019079403E+02 -0.20131381530E+03  0.20574788376E+03  0.00000000000E+00 0. -1.
         22    1    3    3    0    0  0.67087592874E+02 -0.43484166619E+02 -0.11818894818E+03  0.14268933154E+03  0.00000000000E+00 0. -1.
</event>
<event>
 7    1  0.6520971E-006  0.4101010E+02  0.7818608E-02  0.1541439E+00
          2   -1    0    0  502    0  0.00000000000E+00  0.00000000000E+00  0.24457344941E+03  0.24457344941E+03  0.00000000000E+00 0. -1.
          1   -1    0    0  501    0 -0.00000000000E+00 -0.00000000000E+00 -0.18033675962E+04  0.18033675962E+04  0.00000000000E+00 0. -1.
         25    2    1    2    0    0  0.22242276406E+02  0.32378979845E+02 -0.48313058065E+02  0.13964998834E+03  0.12499940187E+03 0.  0.
          2    1    1    2  501    0  0.18454573603E+02 -0.25263905257E+02 -0.17070958717E+04  0.17073825439E+04  0.00000000000E+00 0. -1.
          1    1    1    2  502    0 -0.40696850009E+02 -0.71150745889E+01  0.19661478292E+03  0.20090851339E+03  0.00000000000E+00 0. -1.
         22    1    3    3    0    0 -0.13818763056E+02  0.56949106211E+02  0.17075329650E+02  0.61038723720E+02  0.00000000000E+00 0. -1.
         22    1    3    3    0    0  0.36061039462E+02 -0.24570126366E+02 -0.65388387715E+02  0.78611264617E+02  0.00000000000E+00 0. -1.
</event>
<event>
 7    1  0.6520971E-006  0.3592231E+02  0.7818608E-02  0.1553741E+00
          2   -1    0    0  502    0  0.00000000000E+00  0.00000000000E+00  0.64642566197E+03  0.64642566197E+03  0.00000000000E+00 0. -1.
          1   -1    0    0  501    0 -0.00000000000E+00 -0.00000000000E+00 -0.89073232182E+02  0.89073232182E+02  0.00000000000E+00 0. -1.
         25    2    1    2    0    0  0.16817774038E+02  0.32655809036E+02  0.11361238877E+03  0.17286121078E+03  0.12499593563E+03 0.  0.
          2    1    1    2  501    0  0.18969838019E+02 -0.26997337623E+02 -0.54160920374E+02  0.63420156803E+02  0.00000000000E+00 0. -1.
          1    1    1    2  502    0 -0.35787612058E+02 -0.56584714132E+01  0.49790096140E+03  0.49921752657E+03  0.00000000000E+00 0. -1.
         22    1    3    3    0    0  0.67395853461E+02  0.25273893185E+02  0.37454551175E+02  0.81140705840E+02  0.00000000000E+00 0.  1.
         22    1    3    3    0    0 -0.50578079423E+02  0.73819158507E+01  0.76157837594E+02  0.91720504941E+02  0.00000000000E+00 0.  1.
</event>
<event>
 7    1  0.6520971E-006  0.5219013E+02  0.7818608E-02  0.1466153E+00
          2   -1    0    0  502    0  0.00000000000E+00  0.00000000000E+00  0.61376980247E+03  0.61376980247E+03  0.00000000000E+00 0. -1.
          1   -1    0    0  501    0 -0.00000000000E+00 -0.00000000000E+00 -0.23874103002E+02  0.23874103002E+02  0.00000000000E+00 0. -1.
         25    2    1    2    0    0  0.32812383930E+02  0.27385657083E+02  0.27472966500E+03  0.30483944436E+03  0.12499628497E+03 0.  0.
          2    1    1    2  501    0 -0.84285748270E+01 -0.60525010939E+02  0.13801872949E+03  0.15094200049E+03  0.00000000000E+00 0. -1.
          1    1    1    2  502    0 -0.24383809103E+02  0.33139353855E+02  0.17714730498E+03  0.18186246062E+03  0.00000000000E+00 0. -1.
         22    1    3    3    0    0  0.54083406697E+02 -0.30817982334E+02  0.85767316396E+02  0.10597544752E+03  0.00000000000E+00 0. -1.
         22    1    3    3    0    0 -0.21271022767E+02  0.58203639417E+02  0.18896234860E+03  0.19886399684E+03  0.00000000000E+00 0. -1.
</event>
<event>
 7    1  0.6520971E-006  0.5447945E+02  0.7818608E-02  0.1431928E+00
          2   -1    0    0  502    0  0.00000000000E+00  0.00000000000E+00  0.11591560473E+04  0.11591560473E+04  0.00000000000E+00 0. -1.
          1   -1    0    0  501    0 -0.00000000000E+00 -0.00000000000E+00 -0.27070529714E+04  0.27070529714E+04  0.00000000000E+00 0. -1.
         25    2    1    2    0    0  0.98920774887E+02 -0.19903467277E+02  0.49320513515E+03  0.51870744015E+03  0.12499854162E+03 0.  0.
          2    1    1    2  501    0 -0.48156818251E+02  0.15974163722E+02 -0.26930703071E+04  0.26935482049E+04  0.00000000000E+00 0. -1.
          1    1    1    2  502    0 -0.50763956636E+02  0.39293035552E+01  0.65196824781E+03  0.65395337362E+03  0.00000000000E+00 0. -1.
         22    1    3    3    0    0  0.67093376071E+02 -0.69945688574E+02  0.36146432264E+03  0.37423305173E+03  0.00000000000E+00 0.  1.
         22    1    3    3    0    0  0.31827398815E+02  0.50042221297E+02  0.13174081251E+03  0.14447438842E+03  0.00000000000E+00 0.  1.
</event>
<event>
 7    1  0.6520971E-006  0.1434362E+03  0.7818608E-02  0.1240144E+00
          2   -1    0    0  502    0  0.00000000000E+00  0.00000000000E+00  0.15939542231E+04  0.15939542231E+04  0.00000000000E+00 0. -1.
          1   -1    0    0  501    0 -0.00000000000E+00 -0.00000000000E+00 -0.19694267670E+03  0.19694267670E+03  0.00000000000E+00 0. -1.
         25    2    1    2    0    0 -0.31838474162E+02  0.42119241334E+02  0.24650441972E+03  0.28138784189E+03  0.12500787853E+03 0.  0.
          2    1    1    2  501    0  0.11251051872E+03 -0.10686476585E+03 -0.14351137653E+03  0.21136274553E+03  0.00000000000E+00 0. -1.
          1    1    1    2  502    0 -0.80672044559E+02  0.64745524511E+02  0.12940185032E+04  0.12981463124E+04  0.00000000000E+00 0. -1.
         22    1    3    3    0    0  0.23487850627E+02  0.66781493549E+02  0.16741318735E+03  0.18176529456E+03  0.00000000000E+00 0. -1.
         22    1    3    3    0    0 -0.55326324789E+02 -0.24662252215E+02  0.79091232364E+02  0.99622547326E+02  0.00000000000E+00 0. -1.
</event>
<event>
 7    1  0.6520971E-006  0.8368278E+02  0.7818608E-02  0.1439791E+00
          2   -1    0    0  502    0  0.00000000000E+00  0.00000000000E+00  0.13683444501E+03  0.13683444501E+03  0.00000000000E+00 0. -1.
          1   -1    0    0  501    0 -0.00000000000E+00 -0.00000000000E+00 -0.67156346541E+03  0.67156346541E+03  0.00000000000E+00 0. -1.
         25    2    1    2    0    0 -0.74686652625E+01  0.58873076077E+02 -0.33620088181E+03  0.36356186177E+03  0.12499749742E+03 0.  0.
          2    1    1    2  501    0  0.18258983997E+02  0.25219337176E+02 -0.30620710970E+03  0.30778596378E+03  0.00000000000E+00 0. -1.
          1    1    1    2  502    0 -0.10790318735E+02 -0.84092413253E+02  0.10767897111E+03  0.13705008487E+03  0.00000000000E+00 0. -1.
         22    1    3    3    0    0 -0.49943480529E+02  0.11255723694E+02 -0.25602648227E+03  0.26109500606E+03  0.00000000000E+00 0. -1.
         22    1    3    3    0    0  0.42474815267E+02  0.47617352383E+02 -0.80174399534E+02  0.10246685572E+03  0.00000000000E+00 0. -1.
</event>
<event>
 7    1  0.6520971E-006  0.4788633E+02  0.7818608E-02  0.1473347E+00
          2   -1    0    0  502    0  0.00000000000E+00  0.00000000000E+00  0.28715331494E+04  0.28715331494E+04  0.00000000000E+00 0. -1.
          1   -1    0    0  501    0 -0.00000000000E+00 -0.00000000000E+00 -0.13750822975E+03  0.13750822975E+03  0.00000000000E+00 0. -1.
         25    2    1    2    0    0  0.55612315052E+02  0.41055236112E+02  0.25180920041E+03  0.28950015602E+03  0.12499681967E+03 0.  0.
          2    1    1    2  501    0 -0.13296631221E+02 -0.45867206220E+02 -0.11367620824E+03  0.12329996483E+03  0.00000000000E+00 0. -1.
          1    1    1    2  502    0 -0.42315683831E+02  0.48119701080E+01  0.25958919275E+04  0.25962412583E+04  0.00000000000E+00 0. -1.
         22    1    3    3    0    0  0.63315915833E+02  0.18410332456E+02  0.25674480827E+03  0.26507686076E+03  0.00000000000E+00 0. -1.
         22    1    3    3    0    0 -0.77036007813E+01  0.22644903656E+02 -0.49356078534E+01  0.24423295262E+02  0.00000000000E+00 0. -1.
</event>
<event>
 7    1  0.6520971E-006  0.5640778E+02  0.7818608E-02  0.1557468E+00
          2   -1    0    0  502    0  0.00000000000E+00  0.00000000000E+00  0.26222678259E+04  0.26222678259E+04  0.00000000000E+00 0. -1.
          1   -1    0    0  501    0 -0.00000000000E+00 -0.00000000000E+00 -0.95898946644E+03  0.95898946644E+03  0.00000000000E+00 0. -1.
         25    2    1    2    0    0 -0.25079029631E+02 -0.25940667501E+02  0.14486810595E+02  0.13090446236E+03  0.12499693847E+03 0.  0.
          2    1    1    2  501    0 -0.12508554380E+02 -0.16265738053E+02 -0.90035052175E+03  0.90058431042E+03  0.00000000000E+00 0. -1.
          1    1    1    2  502    0  0.37587584011E+02  0.42206405554E+02  0.25491420706E+04  0.25497685196E+04  0.00000000000E+00 0. -1.
         22    1    3    3    0    0  0.67435140419E+01  0.47265940341E+02  0.17944902605E+02  0.51005525460E+02  0.00000000000E+00 0.  1.
         22    1    3    3    0    0 -0.31822543673E+02 -0.73206607842E+02 -0.34580920091E+01  0.79898936901E+02  0.00000000000E+00 0.  1.
</event>
<event>
 7    1  0.6520971E-006  0.1467663E+03  0.7818608E-02  0.1242399E+00
          2   -1    0    0  502    0  0.00000000000E+00  0.00000000000E+00  0.29995312791E+04  0.29995312791E+04  0.00000000000E+00 0. -1.
          1   -1    0    0  501    0 -0.00000000000E+00 -0.00000000000E+00 -0.14594953457E+04  0.14594953457E+04  0.00000000000E+00 0. -1.
         25    2    1    2    0    0  0.78943828503E+01  0.20972838423E+03  0.31457394890E+03  0.39828522266E+03  0.12500413125E+03 0.  0.
          2    1    1    2  501    0 -0.63087991281E+02 -0.76048360021E+02 -0.14139358087E+04  0.14173841818E+04  0.00000000000E+00 0. -1.
          1    1    1    2  502    0  0.55193608430E+02 -0.13368002421E+03  0.26393977933E+04  0.26433572203E+04  0.00000000000E+00 0. -1.
         22    1    3    3    0    0 -0.99347715887E+01 -0.15028762247E+02  0.32684800549E+02  0.37321033857E+02  0.00000000000E+00 0.  1.
         22    1    3    3    0    0  0.17829154439E+02  0.22475714647E+03  0.28188914836E+03  0.36096418881E+03  0.00000000000E+00 0.  1.
</event>
<event>
 7    1  0.6520971E-006  0.5304769E+02  0.7818608E-02  0.1511426E+00
          2   -1    0    0  502    0  0.00000000000E+00  0.00000000000E+00  0.18516136801E+03  0.18516136801E+03  0.00000000000E+00 0. -1.
          1   -1    0    0  501    0 -0.00000000000E+00 -0.00000000000E+00 -0.22642312372E+03  0.22642312372E+03  0.00000000000E+00 0. -1.
         25    2    1    2    0    0  0.56288370391E+02 -0.36698232455E+02  0.74261213729E+02  0.16017096020E+03  0.12499947088E+03 0.  0.
          2    1    1    2  501    0 -0.52249663195E+02  0.74646438506E+01 -0.17620278561E+03  0.18393795114E+03  0.00000000000E+00 0. -1.
          1    1    1    2  502    0 -0.40387071956E+01  0.29233588604E+02  0.60679816169E+02  0.67475580389E+02  0.00000000000E+00 0. -1.
         22    1    3    3    0    0  0.87761416848E+02 -0.22594221379E+02  0.15360498364E+02  0.91915776866E+02  0.00000000000E+00 0.  1.
         22    1    3    3    0    0 -0.31473046457E+02 -0.14104011076E+02  0.58900715366E+02  0.68255183337E+02  0.00000000000E+00 0.  1.
</event>
<event>
 7    1  0.6520971E-006  0.8193026E+02  0.7818608E-02  0.1383988E+00
          2   -1    0    0  502    0  0.00000000000E+00  0.00000000000E+00  0.14490642086E+03  0.14490642086E+03  0.00000000000E+00 0. -1.
          1   -1    0    0  501    0 -0.00000000000E+00 -0.00000000000E+00 -0.30170963934E+03  0.30170963934E+03  0.00000000000E+00 0. -1.
         25    2    1    2    0    0 -0.30783260831E+02 -0.82459667098E+02 -0.88176902923E+02  0.17648451705E+03  0.12499765080E+03 0.  0.
          2    1    1    2  501    0 -0.18303552810E+02  0.81219141671E+02 -0.15203750891E+03  0.17334062748E+03  0.00000000000E+00 0. -1.
          1    1    1    2  502    0  0.49086813642E+02  0.12405254265E+01  0.83411193354E+02  0.96790915656E+02  0.00000000000E+00 0. -1.
         22    1    3    3    0    0 -0.45807169890E+01 -0.11870625501E+02  0.32130191820E+02  0.34557834775E+02  0.00000000000E+00 0. -1.
         22    1    3    3    0    0 -0.26202543842E+02 -0.70589041597E+02 -0.12030709474E+03  0.14192668228E+03  0.00000000000E+00 0. -1.
</event>
<event>
 7    1  0.6520971E-006  0.3098217E+03  0.7818608E-02  0.1248268E+00
          2   -1    0    0  502    0  0.00000000000E+00  0.00000000000E+00  0.67937818316E+03  0.67937818316E+03  0.00000000000E+00 0. -1.
          1   -1    0    0  501    0 -0.00000000000E+00 -0.00000000000E+00 -0.87538608118E+03  0.87538608118E+03  0.00000000000E+00 0. -1.
         25    2    1    2    0    0 -0.27102666811E+03 -0.42669051125E+02  0.36489964232E+03  0.47334142633E+03  0.12499701662E+03 0.  0.
          2    1    1    2  501    0  0.30398348756E+03  0.72005645979E+02 -0.78926576051E+03  0.84884110084E+03  0.00000000000E+00 0. -1.
          1    1    1    2  502    0 -0.32956819450E+02 -0.29336594854E+02  0.22835822017E+03  0.23258173717E+03  0.00000000000E+00 0. -1.
         22    1    3    3    0    0 -0.10995286635E+03  0.28486224683E+02  0.21030915972E+03  0.23902100426E+03  0.00000000000E+00 0. -1.
         22    1    3    3    0    0 -0.16107380176E+03 -0.71155275808E+02  0.15459048260E+03  0.23432042207E+03  0.00000000000E+00 0. -1.
</event>
<event>
 7    1  0.6520971E-006  0.8316614E+02  0.7818608E-02  0.1438642E+00
          2   -1    0    0  502    0  0.00000000000E+00  0.00000000000E+00  0.71645644706E+03  0.71645644706E+03  0.00000000000E+00 0. -1.
          1   -1    0    0  501    0 -0.00000000000E+00 -0.00000000000E+00 -0.76384493418E+03  0.76384493418E+03  0.00000000000E+00 0. -1.
         25    2    1    2    0    0  0.89575448102E+01  0.55276163366E+02 -0.19599571523E+03  0.23911293969E+03  0.12499994278E+03 0.  0.
          2    1    1    2  501    0 -0.13571427264E+02 -0.86536491688E+02 -0.54241594077E+03  0.54944317343E+03  0.00000000000E+00 0. -1.
          1    1    1    2  502    0  0.46138824540E+01  0.31260328322E+02  0.69102316888E+03  0.69174526812E+03  0.00000000000E+00 0. -1.
         22    1    3    3    0    0 -0.46237931886E+02 -0.71845694144E+01 -0.37231041672E+02  0.59797281266E+02  0.00000000000E+00 0. -1.
         22    1    3    3    0    0  0.55195476697E+02  0.62460732780E+02 -0.15876467355E+03  0.17931565842E+03  0.00000000000E+00 0. -1.
</event>
<event>
 7    1  0.6520971E-006  0.8366711E+02  0.7818608E-02  0.1365194E+00
          2   -1    0    0  502    0  0.00000000000E+00  0.00000000000E+00  0.58039799980E+04  0.58039799980E+04  0.00000000000E+00 0. -1.
          1   -1    0    0  501    0 -0.00000000000E+00 -0.00000000000E+00 -0.84546549887E+01  0.84546549887E+01  0.00000000000E+00 0. -1.
         25    2    1    2    0    0 -0.33270891367E+02  0.98654972155E+02  0.12569781156E+04  0.12674614724E+04  0.12499938046E+03 0.  0.
          2    1    1    2  501    0 -0.18641963241E+02 -0.77341484948E+02  0.52144698461E+03  0.52748098151E+03  0.00000000000E+00 0. -1.
          1    1    1    2  502    0  0.51912854608E+02 -0.21313487207E+02  0.40171002428E+04  0.40174921991E+04  0.00000000000E+00 0. -1.
         22    1    3    3    0    0  0.27485106280E+02  0.74785470389E+01  0.65333289380E+03  0.65395353799E+03  0.00000000000E+00 0. -1.
         22    1    3    3    0    0 -0.60755997647E+02  0.91176425116E+02  0.60364522180E+03  0.61350793438E+03  0.00000000000E+00 0. -1.
</event>
<event>
 7    1  0.6520971E-006  0.6210945E+02  0.7818608E-02  0.1464498E+00
          2   -1    0    0  502    0  0.00000000000E+00  0.00000000000E+00  0.18039240649E+04  0.18039240649E+04  0.00000000000E+00 0. -1.
          1   -1    0    0  501    0 -0.00000000000E+00 -0.00000000000E+00 -0.31215192340E+02  0.31215192340E+02  0.00000000000E+00 0. -1.
         25    2    1    2    0    0  0.52746633472E+02  0.25204851726E+01  0.11995324434E+04  0.12071846412E+04  0.12501245989E+03 0.  0.
          2    1    1    2  501    0  0.64287348397E+01  0.34391733781E+02 -0.13237427635E+02  0.37407879845E+02  0.00000000000E+00 0. -1.
          1    1    1    2  502    0 -0.59175368312E+02 -0.36912218954E+02  0.58641385681E+03  0.59054673615E+03  0.00000000000E+00 0. -1.
         22    1    3    3    0    0  0.51648092440E+02  0.27707657106E+02  0.23085157540E+03  0.23817575355E+03  0.00000000000E+00 0.  1.
         22    1    3    3    0    0  0.10985410324E+01 -0.25187171933E+02  0.96868086797E+03  0.96900888767E+03  0.00000000000E+00 0.  1.
</event>
<event>
 7    1  0.6520971E-006  0.1227193E+03  0.7818608E-02  0.1364626E+00
          2   -1    0    0  502    0  0.00000000000E+00  0.00000000000E+00  0.55091403473E+03  0.55091403473E+03  0.00000000000E+00 0. -1.
          1   -1    0    0  501    0 -0.00000000000E+00 -0.00000000000E+00 -0.52234164304E+03  0.52234164304E+03  0.00000000000E+00 0. -1.
         25    2    1    2    0    0 -0.59514589657E+02  0.66724358083E+02 -0.25100460994E+03  0.29431810270E+03  0.12500282005E+03 0.  0.
          2    1    1    2  501    0 -0.36947448664E+02  0.10612437892E+02 -0.24091516253E+03  0.24396281138E+03  0.00000000000E+00 0. -1.
          1    1    1    2  502    0  0.96462038320E+02 -0.77336795975E+02  0.52049216415E+03  0.53497476370E+03  0.00000000000E+00 0. -1.
         22    1    3    3    0    0 -0.88279819517E+02  0.28712287839E+02 -0.21622332103E+03  0.23530883231E+03  0.00000000000E+00 0.  1.
         22    1    3    3    0    0  0.28765229860E+02  0.38012070244E+02 -0.34781288904E+02  0.59009270381E+02  0.00000000000E+00 0.  1.
</event>
<event>
 7    1  0.6520971E-006  0.1609207E+03  0.7818608E-02  0.1347198E+00
          2   -1    0    0  502    0  0.00000000000E+00  0.00000000000E+00  0.16681611974E+03  0.16681611974E+03  0.00000000000E+00 0. -1.
          1   -1    0    0  501    0 -0.00000000000E+00 -0.00000000000E+00 -0.62322282871E+03  0.62322282871E+03  0.00000000000E+00 0. -1.
         25    2    1    2    0    0  0.90811102982E+02  0.11399815054E+03 -0.15599930363E+03  0.24740093452E+03  0.12501681853E+03 0.  0.
          2    1    1    2  501    0 -0.12466331699E+03 -0.11116950825E+03 -0.40210488639E+03  0.43541697467E+03  0.00000000000E+00 0. -1.
          1    1    1    2  502    0  0.33852214009E+02 -0.28286422925E+01  0.10169748104E+03  0.10722103927E+03  0.00000000000E+00 0. -1.
         22    1    3    3    0    0 -0.16487725009E+02  0.26702445081E+02  0.84616613762E+01  0.32503313100E+02  0.00000000000E+00 0. -1.
         22    1    3    3    0    0  0.10729882799E+03  0.87295705462E+02 -0.16446096500E+03  0.21489762142E+03  0.00000000000E+00 0. -1.
</event>
<event>
 7    1  0.6520971E-006  0.2445744E+02  0.7818608E-02  0.1686434E+00
          2   -1    0    0  502    0  0.00000000000E+00  0.00000000000E+00  0.43964517259E+03  0.43964517259E+03  0.00000000000E+00 0. -1.
          1   -1    0    0  501    0 -0.00000000000E+00 -0.00000000000E+00 -0.13654654137E+03  0.13654654137E+03  0.00000000000E+00 0. -1.
         25    2    1    2    0    0  0.63322263095E+01 -0.28939336788E+02  0.23616309017E+03  0.26884182957E+03  0.12500136746E+03 0.  0.
          2    1    1    2  501    0 -0.21132519585E+02  0.12354614416E+02 -0.11828951123E+03  0.12079581263E+03  0.00000000000E+00 0. -1.
          1    1    1    2  502    0  0.14800293276E+02  0.16584722371E+02  0.18522505228E+03  0.18655407176E+03  0.00000000000E+00 0. -1.
         22    1    3    3    0    0 -0.67567617085E+01 -0.77525476515E+02  0.13394727070E+03  0.15491199006E+03  0.00000000000E+00 0.  1.
         22    1    3    3    0    0  0.13088988018E+02  0.48586139727E+02  0.10221581947E+03  0.11392983951E+03  0.00000000000E+00 0.  1.
</event>
<event>
 7    1  0.6520971E-006  0.8438325E+02  0.7818608E-02  0.1392572E+00
          2   -1    0    0  502    0  0.00000000000E+00  0.00000000000E+00  0.14413529568E+04  0.14413529568E+04  0.00000000000E+00 0. -1.
          1   -1    0    0  501    0 -0.00000000000E+00 -0.00000000000E+00 -0.16244667356E+03  0.16244667356E+03  0.00000000000E+00 0. -1.
         25    2    1    2    0    0 -0.73585126039E+02  0.94086203485E+02 -0.20627264040E+01  0.17290381423E+03  0.12499795868E+03 0.  0.
          2    1    1    2  501    0  0.62065216668E+01 -0.44054783790E+02 -0.66940391624E+02  0.80376370388E+02  0.00000000000E+00 0. -1.
          1    1    1    2  502    0  0.67378604373E+02 -0.50031419695E+02  0.13479094013E+04  0.13505194458E+04  0.00000000000E+00 0. -1.
         22    1    3    3    0    0  0.18406477071E+02  0.32449742117E+02  0.39774121398E+02  0.54532237205E+02  0.00000000000E+00 0. -1.
         22    1    3    3    0    0 -0.91991603111E+02  0.61636461368E+02 -0.41836847802E+02  0.11837157702E+03  0.00000000000E+00 0. -1.
</event>
<event>
 7    1  0.6520971E-006  0.9110560E+02  0.7818608E-02  0.1304734E+00
          2   -1    0    0  502    0  0.00000000000E+00  0.00000000000E+00  0.68706579125E+02  0.68706579125E+02  0.00000000000E+00 0. -1.
          1   -1    0    0  501    0 -0.00000000000E+00 -0.00000000000E+00 -0.15051202544E+04  0.15051202544E+04  0.00000000000E+00 0. -1.
         25    2    1    2    0    0  0.40049280260E+02  0.34472785904E+02 -0.39683517457E+03  0.41940077435E+03  0.12500614358E+03 0.  0.
          2    1    1    2  501    0 -0.73887157467E+02  0.53300259678E+02 -0.10551503287E+04  0.10590762228E+04  0.00000000000E+00 0. -1.
          1    1    1    2  502    0  0.33837877207E+02 -0.87773045582E+02  0.15571827944E+02  0.95349836340E+02  0.00000000000E+00 0. -1.
         22    1    3    3    0    0  0.67583259032E+02  0.21246699307E+01 -0.34872776822E+03  0.35522256045E+03  0.00000000000E+00 0.  1.
         22    1    3    3    0    0 -0.27533978772E+02  0.32348115973E+02 -0.48107406348E+02  0.64178213901E+02  0.00000000000E+00 0.  1.
</event>
<event>
 7    1  0.6520971E-006  0.8542241E+02  0.7818608E-02  0.1372206E+00
          2   -1    0    0  502    0  0.00000000000E+00  0.00000000000E+00  0.12506788429E+04  0.12506788429E+04  0.00000000000E+00 0. -1.
          1   -1    0    0  501    0 -0.00000000000E+00 -0.00000000000E+00 -0.87862707101E+02  0.87862707101E+02  0.00000000000E+00 0. -1.
         25    2    1    2    0    0 -0.54893102956E+02  0.22926527738E+02  0.69787422558E+03  0.71147353735E+03  0.12500912446E+03 0.  0.
          2    1    1    2  501    0 -0.29366343634E+02  0.42743082436E+02 -0.66875823016E+02  0.84626998875E+02  0.00000000000E+00 0. -1.
          1    1    1    2  502    0  0.84259446590E+02 -0.65669610173E+02  0.53181773322E+03  0.54244101376E+03  0.00000000000E+00 0. -1.
         22    1    3    3    0    0 -0.34760731312E+01  0.62234144263E+02  0.20212880330E+03  0.21152121624E+03  0.00000000000E+00 0.  1.
         22    1    3    3    0    0 -0.51417029825E+02 -0.39307616525E+02  0.49574542228E+03  0.49995232111E+03  0.00000000000E+00 0.  1.
</event>
<event>
 7    1  0.6520971E-006  0.6910206E+02  0.7818608E-02  0.1441387E+00
          2   -1    0    0  502    0  0.00000000000E+00  0.00000000000E+00  0.38215362140E+03  0.38215362140E+03  0.00000000000E+00 0. -1.
          1   -1    0    0  501    0 -0.00000000000E+00 -0.00000000000E+00 -0.42591110081E+03  0.42591110081E+03  0.00000000000E+00 0. -1.
         25    2    1    2    0    0 -0.58875054335E+02  0.11016574665E+02  0.14757351625E+03  0.20245176289E+03  0.12498454568E+03 0.  0.
          2    1    1    2  501    0  0.50742977621E+02 -0.47376405925E+02 -0.39373504451E+03  0.39980827767E+03  0.00000000000E+00 0. -1.
          1    1    1    2  502    0  0.81320767138E+01  0.36359831259E+02  0.20240404884E+03  0.20580468165E+03  0.00000000000E+00 0. -1.
         22    1    3    3    0    0 -0.73737708641E+02  0.22150451962E+02  0.16171632731E+03  0.17910908050E+03  0.00000000000E+00 0.  1.
         22    1    3    3    0    0  0.14862654306E+02 -0.11133877296E+02 -0.14142811059E+02  0.23342682393E+02  0.00000000000E+00 0.  1.
</event>
<event>
 7    1  0.6520971E-006  0.2407277E+03  0.7818608E-02  0.1150602E+00
          2   -1    0    0  502    0  0.00000000000E+00  0.00000000000E+00  0.36201457573E+04  0.36201457573E+04  0.00000000000E+00 0. -1.
          1   -1    0    0  501    0 -0.00000000000E+00 -0.00000000000E+00 -0.10652542537E+04  0.10652542537E+04  0.00000000000E+00 0. -1.
         25    2    1    2    0    0 -0.37408358137E+03  0.10531569969E+03  0.34577375378E+02  0.40969461922E+03  0.12499665467E+03 0.  0.
          2    1    1    2  501    0  0.13686693927E+03 -0.91206382605E+02 -0.86578954953E+03  0.88127334430E+03  0.00000000000E+00 0. -1.
          1    1    1    2  502    0  0.23721664209E+03 -0.14109317085E+02  0.33861036778E+04  0.33944320474E+04  0.00000000000E+00 0. -1.
         22    1    3    3    0    0 -0.26378906936E+03  0.17658794980E+02 -0.10218555672E+01  0.26438144856E+03  0.00000000000E+00 0. -1.
         22    1    3    3    0    0 -0.11029451200E+03  0.87656904710E+02  0.35599230945E+02  0.14531317065E+03  0.00000000000E+00 0. -1.
</event>
<event>
 7    1  0.6520971E-006  0.4180695E+02  0.7818608E-02  0.1509711E+00
          2   -1    0    0  502    0  0.00000000000E+00  0.00000000000E+00  0.60920197309E+03  0.60920197309E+03  0.00000000000E+00 0. -1.
          1   -1    0    0  501    0 -0.00000000000E+00 -0.00000000000E+00 -0.11485614586E+04  0.11485614586E+04  0.00000000000E+00 0. -1.
         25    2    1    2    0    0 -0.39552418396E+02  0.74858762336E+01  0.24771212977E+03  0.28036757077E+03  0.12499697341E+03 0.  0.
          2    1    1    2  501    0  0.29986849808E+02  0.29170116256E+02 -0.11308063047E+04  0.11315798715E+04  0.00000000000E+00 0. -1.
          1    1    1    2  502    0  0.95655685884E+01 -0.36655992490E+02  0.34373468937E+03  0.34581598946E+03  0.00000000000E+00 0. -1.
         22    1    3    3    0    0  0.11032014895E+02  0.98041377140E+01 -0.99351116487E+01  0.17791371853E+02  0.00000000000E+00 0. -1.
         22    1    3    3    0    0 -0.50584433291E+02 -0.23182614804E+01  0.25764724142E+03  0.26257619892E+03  0.00000000000E+00 0. -1.
</event>
<event>
 7    1  0.6520971E-006  0.7649565E+02  0.7818608E-02  0.1350778E+00
          2   -1    0    0  502    0  0.00000000000E+00  0.00000000000E+00  0.18067429470E+04  0.18067429470E+04  0.00000000000E+00 0. -1.
          1   -1    0    0  501    0 -0.00000000000E+00 -0.00000000000E+00 -0.71560740104E+03  0.71560740104E+03  0.00000000000E+00 0. -1.
         25    2    1    2    0    0  0.87766029838E+02 -0.19113414158E+02  0.44273666237E+02  0.16016876038E+03  0.12500270271E+03 0.  0.
          2    1    1    2  501    0 -0.62103555295E+02 -0.45269682894E+02 -0.65470679755E+03  0.65920193152E+03  0.00000000000E+00 0. -1.
          1    1    1    2  502    0 -0.25662474543E+02  0.64383097052E+02  0.17015686772E+04  0.17029796561E+04  0.00000000000E+00 0. -1.
         22    1    3    3    0    0  0.26667512601E+02 -0.68773535784E+02  0.10541072542E+02  0.74512211502E+02  0.00000000000E+00 0.  1.
         22    1    3    3    0    0  0.61098517237E+02  0.49660121626E+02  0.33732593695E+02  0.85656548879E+02  0.00000000000E+00 0.  1.
</event>
<event>
 7    1  0.6520971E-006  0.7260122E+02  0.7818608E-02  0.1424323E+00
          2   -1    0    0  502    0  0.00000000000E+00  0.00000000000E+00  0.57677157699E+03  0.57677157699E+03  0.00000000000E+00 0. -1.
          1   -1    0    0  501    0 -0.00000000000E+00 -0.00000000000E+00 -0.98874949891E+03  0.98874949891E+03  0.00000000000E+00 0. -1.
         25    2    1    2    0    0  0.20431543709E+02  0.10977644957E+03 -0.10456800986E+03  0.19756404758E+03  0.12501506850E+03 0.  0.
          2    1    1    2  501    0 -0.12772129639E+02 -0.70171818964E+02 -0.83539448366E+03  0.83843375099E+03  0.00000000000E+00 0. -1.
          1    1    1    2  502    0 -0.76594140701E+01 -0.39604630604E+02  0.52798457160E+03  0.52952327733E+03  0.00000000000E+00 0. -1.
         22    1    3    3    0    0  0.62405911858E+02  0.71231320306E+02 -0.21973407861E+02  0.97217434035E+02  0.00000000000E+00 0.  1.
         22    1    3    3    0    0 -0.41974368149E+02  0.38545129262E+02 -0.82594601995E+02  0.10034661354E+03  0.00000000000E+00 0.  1.
</event>
<event>
 7    1  0.6520971E-006  0.6328527E+02  0.7818608E-02  0.1509351E+00
          2   -1    0    0  502    0  0.00000000000E+00  0.00000000000E+00  0.73983532872E+03  0.73983532872E+03  0.00000000000E+00 0. -1.
          1   -1    0    0  501    0 -0.00000000000E+00 -0.00000000000E+00 -0.66632731553E+03  0.66632731553E+03  0.00000000000E+00 0. -1.
         25    2    1    2    0    0 -0.31205237380E+01  0.39676876591E+02  0.17843014785E+03  0.22146578989E+03  0.12500314487E+03 0.  0.
          2    1    1    2  501    0  0.15326218943E+02 -0.61594931886E+02 -0.64295447677E+03  0.64607993919E+03  0.00000000000E+00 0. -1.
          1    1    1    2  502    0 -0.12205695205E+02  0.21918055295E+02  0.53803234212E+03  0.53861691517E+03  0.00000000000E+00 0. -1.
         22    1    3    3    0    0 -0.53086085776E+02  0.21480077817E+01  0.31418507681E+02  0.61724136813E+02  0.00000000000E+00 0.  1.
         22    1    3    3    0    0  0.49965562038E+02  0.37528868810E+02  0.14701164017E+03  0.15974165308E+03  0.00000000000E+00 0.  1.
</event>
<event>
 7    1  0.6520971E-006  0.1751495E+03  0.7818608E-02  0.1237912E+00
          2   -1    0    0  502    0  0.00000000000E+00  0.00000000000E+00  0.19384591510E+04  0.19384591510E+04  0.00000000000E+00 0. -1.
          1   -1    0    0  501    0 -0.00000000000E+00 -0.00000000000E+00 -0.23342621412E+04  0.23342621412E+04  0.00000000000E+00 0. -1.
         25    2    1    2    0    0 -0.19162037959E+03  0.13636181864E+03 -0.89338917819E+02  0.28092625135E+03  0.12500080401E+03 0.  0.
          2    1    1    2  501    0  0.26068012520E+02 -0.82642750683E+02 -0.21441424063E+04  0.21458928268E+04  0.00000000000E+00 0. -1.
          1    1    1    2  502    0  0.16555236707E+03 -0.53719067959E+02  0.18376783339E+04  0.18459022140E+04  0.00000000000E+00 0. -1.
         22    1    3    3    0    0 -0.35893884592E+02  0.78331209988E+02  0.10897493542E+02  0.86849897955E+02  0.00000000000E+00 0. -1.
         22    1    3    3    0    0 -0.15572649500E+03  0.58030608654E+02 -0.10023641136E+03  0.19407635340E+03  0.00000000000E+00 0. -1.
</event>
<event>
 7    1  0.6520971E-006  0.5747745E+02  0.7818608E-02  0.1458500E+00
          2   -1    0    0  502    0  0.00000000000E+00  0.00000000000E+00  0.22580272353E+04  0.22580272353E+04  0.00000000000E+00 0. -1.
          1   -1    0    0  501    0 -0.00000000000E+00 -0.00000000000E+00 -0.16338497217E+03  0.16338497217E+03  0.00000000000E+00 0. -1.
         25    2    1    2    0    0  0.24958949735E+02 -0.12369457543E+02  0.14494070354E+04  0.14550537516E+04  0.12499885297E+03 0.  0.
          2    1    1    2  501    0 -0.56455199960E+02 -0.11446916526E+02 -0.15489242690E+03  0.16525702832E+03  0.00000000000E+00 0. -1.
          1    1    1    2  502    0  0.31496250225E+02  0.23816374069E+02  0.80012765468E+03  0.80110142756E+03  0.00000000000E+00 0. -1.
         22    1    3    3    0    0 -0.18763721262E+01 -0.39920225166E+02  0.15479913743E+03  0.15987469499E+03  0.00000000000E+00 0.  1.
         22    1    3    3    0    0  0.26835321861E+02  0.27550767623E+02  0.12946078979E+04  0.12951790566E+04  0.00000000000E+00 0.  1.
</event>
<event>
 7    1  0.6520971E-006  0.1229641E+03  0.7818608E-02  0.1341670E+00
          2   -1    0    0  502    0  0.00000000000E+00  0.00000000000E+00  0.50270526927E+03  0.50270526927E+03  0.00000000000E+00 0. -1.
          1   -1    0    0  501    0 -0.00000000000E+00 -0.00000000000E+00 -0.14968461947E+03  0.14968461947E+03  0.00000000000E+00 0. -1.
         25    2    1    2    0    0 -0.80198415509E+02 -0.48840096782E+02  0.37181154450E+02  0.16070208768E+03  0.12500232731E+03 0.  0.
          2    1    1    2  501    0  0.11330721059E+03  0.81663697266E+02 -0.29887745321E+02  0.14283123168E+03  0.00000000000E+00 0. -1.
          1    1    1    2  502    0 -0.33108795084E+02 -0.32823600484E+02  0.34572724066E+03  0.34885656938E+03  0.00000000000E+00 0. -1.
         22    1    3    3    0    0 -0.86128463448E+02 -0.83104000197E+02  0.18123630255E+02  0.12104896959E+03  0.00000000000E+00 0. -1.
         22    1    3    3    0    0  0.59300479396E+01  0.34263903415E+02  0.19057524194E+02  0.39653118089E+02  0.00000000000E+00 0. -1.
</event>
<event>
 7    1  0.6520971E-006  0.5731455E+02  0.7818608E-02  0.1448032E+00
          2   -1    0    0  502    0  0.00000000000E+00  0.00000000000E+00  0.33503530209E+03  0.33503530209E+03  0.00000000000E+00 0. -1.
          1   -1    0    0  501    0 -0.00000000000E+00 -0.00000000000E+00 -0.12888799105E+04  0.12888799105E+04  0.00000000000E+00 0. -1.
         25    2    1    2    0    0  0.70954628676E+02  0.51894087162E+02  0.20690258956E+03  0.25721749250E+03  0.12499840506E+03 0.  0.
          2    1    1    2  501    0 -0.41317186369E+02 -0.11009267116E+02 -0.12571463735E+04  0.12578733316E+04  0.00000000000E+00 0. -1.
          1    1    1    2  502    0 -0.29637442308E+02 -0.40884820046E+02  0.96399175532E+02  0.10882438853E+03  0.00000000000E+00 0. -1.
         22    1    3    3    0    0 -0.88733526471E+01 -0.33122255411E+02  0.65458806991E+02  0.73896384238E+02  0.00000000000E+00 0.  1.
         22    1    3    3    0    0  0.79827981323E+02  0.85016342573E+02  0.14144378257E+03  0.18332110826E+03  0.00000000000E+00 0.  1.
</event>
<event>
 7    1  0.6520971E-006  0.6272698E+02  0.7818608E-02  0.1490153E+00
          2   -1    0    0  502    0  0.00000000000E+00  0.00000000000E+00  0.35837610934E+03  0.35837610934E+03  0.00000000000E+00 0. -1.
          1   -1    0    0  501    0 -0.00000000000E+00 -0.00000000000E+00 -0.49241912516E+03  0.49241912516E+03  0.00000000000E+00 0. -1.
         25    2    1    2    0    0 -0.61579363426E+02  0.61835870162E+02  0.50903914802E+02  0.16072276195E+03  0.12499961931E+03 0.  0.
          2    1    1    2  501    0  0.26327322794E+02 -0.11874316732E+02 -0.43332101170E+03  0.43428242712E+03  0.00000000000E+00 0. -1.
          1    1    1    2  502    0  0.35252040632E+02 -0.49961553430E+02  0.24837408108E+03  0.25579004544E+03  0.00000000000E+00 0. -1.
         22    1    3    3    0    0  0.89914710230E+01  0.14089767737E+02  0.71198372242E+02  0.73133961440E+02  0.00000000000E+00 0. -1.
         22    1    3    3    0    0 -0.70570834449E+02  0.47746102425E+02 -0.20294457440E+02  0.87588800507E+02  0.00000000000E+00 0. -1.
</event>
<event>
 7    1  0.6520971E-006  0.6492634E+02  0.7818608E-02  0.1467904E+00
          2   -1    0    0  502    0  0.00000000000E+00  0.00000000000E+00  0.33205056478E+02  0.33205056478E+02  0.00000000000E+00 0. -1.
          1   -1    0    0  501    0 -0.00000000000E+00 -0.00000000000E+00 -0.15390328403E+04  0.15390328403E+04  0.00000000000E+00 0. -1.
         25    2    1    2    0    0  0.10738647763E+02  0.94928350117E+02 -0.99571009325E+03  0.10080624822E+04  0.12499867210E+03 0.  0.
          2    1    1    2  501    0  0.25537572461E+01 -0.32558653357E+02 -0.49823884687E+03  0.49930805733E+03  0.00000000000E+00 0. -1.
          1    1    1    2  502    0 -0.13292405009E+02 -0.62369696760E+02 -0.11878843678E+02  0.64867357214E+02  0.00000000000E+00 0. -1.
         22    1    3    3    0    0  0.17216640858E+02 -0.32671306465E+01 -0.60148667585E+03  0.60174189491E+03  0.00000000000E+00 0.  1.
         22    1    3    3    0    0 -0.64779930956E+01  0.98195480763E+02 -0.39422341740E+03  0.40632058730E+03  0.00000000000E+00 0.  1.
</event>
<event>
 7    1  0.6520971E-006  0.8771466E+02  0.7818608E-02  0.1359132E+00
          2   -1    0    0  502    0  0.00000000000E+00  0.00000000000E+00  0.15050744666E+04  0.15050744666E+04  0.00000000000E+00 0. -1.
          1   -1    0    0  501    0 -0.00000000000E+00 -0.00000000000E+00 -0.16736667406E+03  0.16736667406E+03  0.00000000000E+00 0. -1.
         25    2    1    2    0    0  0.11306478318E+03  0.13492154251E+02  0.52593650185E+03  0.55244737293E+03  0.12499284963E+03 0.  0.
          2    1    1    2  501    0 -0.33530640612E+02 -0.45245855423E+02 -0.14699336485E+03  0.15741200908E+03  0.00000000000E+00 0. -1.
          1    1    1    2  502    0 -0.79534142566E+02  0.31753701172E+02  0.95876465549E+03  0.96258175860E+03  0.00000000000E+00 0. -1.
         22    1    3    3    0    0  0.55708114988E+02 -0.31869310378E+02  0.90700016026E+02  0.11111048522E+03  0.00000000000E+00 0.  1.
         22    1    3    3    0    0  0.57356668189E+02  0.45361464629E+02  0.43523648583E+03  0.44133688771E+03  0.00000000000E+00 0.  1.
</event>
<event>
 7    1  0.6520971E-006  0.1315111E+03  0.7818608E-02  0.1255706E+00
          2   -1    0    0  502    0  0.00000000000E+00  0.00000000000E+00  0.91647086519E+02  0.91647086519E+02  0.00000000000E+00 0. -1.
          1   -1    0    0  501    0 -0.00000000000E+00 -0.00000000000E+00 -0.17084531086E+04  0.17084531086E+04  0.00000000000E+00 0. -1.
         25    2    1    2    0    0  0.50848161899E+02 -0.43914083985E+02 -0.91848334138E+03  0.92938207064E+03  0.12500161002E+03 0.  0.
          2    1    1    2  501    0 -0.31790142327E+02 -0.91140822006E+02 -0.72528986417E+03  0.73168480212E+03  0.00000000000E+00 0. -1.
          1    1    1    2  502    0 -0.19058019572E+02  0.13505490599E+03  0.26967183462E+02  0.13903332236E+03  0.00000000000E+00 0. -1.
         22    1    3    3    0    0 -0.34750276563E+02 -0.37743818890E+02 -0.46740863950E+03  0.47021592260E+03  0.00000000000E+00 0.  1.
         22    1    3    3    0    0  0.85598438462E+02 -0.61702650951E+01 -0.45107470188E+03  0.45916614805E+03  0.00000000000E+00 0.  1.
</event>
<event>
 7    1  0.6520971E-006  0.1413705E+03  0.7818608E-02  0.1224224E+00
          2   -1    0    0  502    0  0.00000000000E+00  0.00000000000E+00  0.30379285331E+04  0.30379285331E+04  0.00000000000E+00 0. -1.
          1   -1    0    0  501    0 -0.00000000000E+00 -0.00000000000E+00 -0.21175186168E+03  0.21175186168E+03  0.00000000000E+00 0. -1.
         25    2    1    2    0    0  0.16977164914E+03 -0.10146644785E+03  0.12853813924E+03  0.26695267919E+03  0.12499530711E+03 0.  0.
          2    1    1    2  501    0 -0.29998138121E+02  0.11993350005E+03 -0.11363612781E+03  0.16791992814E+03  0.00000000000E+00 0. -1.
          1    1    1    2  502    0 -0.13977351102E+03 -0.18467052198E+02  0.28112746600E+04  0.28148077875E+04  0.00000000000E+00 0. -1.
         22    1    3    3    0    0  0.15959871535E+03 -0.34108367267E+02  0.10837698913E+03  0.19590993449E+03  0.00000000000E+00 0.  1.
         22    1    3    3    0    0  0.10172933790E+02 -0.67358080582E+02  0.20161150116E+02  0.71042744708E+02  0.00000000000E+00 0.  1.
</event>
<event>
 7    1  0.6520971E-006  0.5329910E+02  0.7818608E-02  0.1523544E+00
          2   -1    0    0  502    0  0.00000000000E+00  0.00000000000E+00  0.30627223626E+04  0.30627223626E+04  0.00000000000E+00 0. -1.
          1   -1    0    0  501    0 -0.00000000000E+00 -0.00000000000E+00 -0.60946650049E+02  0.60946650049E+02  0.00000000000E+00 0. -1.
         25    2    1    2    0    0 -0.58501855210E+02 -0.24899344908E+02  0.35929688857E+03  0.38569641837E+03  0.12500011427E+03 0.  0.
          2    1    1    2  501    0  0.22822267428E+02 -0.14573749831E+02 -0.43622851095E+02  0.51343969581E+02  0.00000000000E+00 0. -1.
          1    1    1    2  502    0  0.35679587782E+02  0.39473094739E+02  0.26861016751E+04  0.26866286247E+04  0.00000000000E+00 0. -1.
         22    1    3    3    0    0 -0.86948289332E+02 -0.17854614114E+01  0.32146516015E+03  0.33302108354E+03  0.00000000000E+00 0. -1.
         22    1    3    3    0    0  0.28446434122E+02 -0.23113883496E+02  0.37831728420E+02  0.52675334833E+02  0.00000000000E+00 0. -1.
</event>
<event>
 7    1  0.6520971E-006  0.5366448E+02  0.7818608E-02  0.1507520E+00
          2   -1    0    0  502    0  0.00000000000E+00  0.00000000000E+00  0.29862952810E+03  0.29862952810E+03  0.00000000000E+00 0. -1.
          1   -1    0    0  501    0 -0.00000000000E+00 -0.00000000000E+00 -0.36744378791E+03  0.36744378791E+03  0.00000000000E+00 0. -1.
         25    2    1    2    0    0 -0.99635992878E+01 -0.33812643796E+02  0.69639962642E+02  0.14736174886E+03  0.12499276954E+03 0.  0.
          2    1    1    2  501    0  0.39775685165E+02  0.36738209334E+02 -0.32515017642E+03  0.32962772696E+03  0.00000000000E+00 0. -1.
          1    1    1    2  502    0 -0.29812085877E+02 -0.29255655380E+01  0.18669595396E+03  0.18908384020E+03  0.00000000000E+00 0. -1.
         22    1    3    3    0    0 -0.15493087837E+01 -0.75555768787E+02  0.72444744252E+02  0.10468674952E+03  0.00000000000E+00 0. -1.
         22    1    3    3    0    0 -0.84142905041E+01  0.41743124991E+02 -0.28047816100E+01  0.42674999339E+02  0.00000000000E+00 0. -1.
</event>
<event>
 7    1  0.6520971E-006  0.3927973E+02  0.7818608E-02  0.1532096E+00
          2   -1    0    0  502    0  0.00000000000E+00  0.00000000000E+00  0.14151006694E+04  0.14151006694E+04  0.00000000000E+00 0. -1.
          1   -1    0    0  501    0 -0.00000000000E+00 -0.00000000000E+00 -0.51516108054E+02  0.51516108054E+02  0.00000000000E+00 0. -1.
         25    2    1    2    0    0 -0.56871529269E+02 -0.34523756487E+01  0.61786716590E+03  0.63295437153E+03  0.12500044799E+03 0.  0.
          2    1    1    2  501    0  0.32748637499E+02 -0.21521561502E+02 -0.34778468475E+02  0.52394586905E+02  0.00000000000E+00 0. -1.
          1    1    1    2  502    0  0.24122891770E+02  0.24973937151E+02  0.78049586393E+03  0.78126781903E+03  0.00000000000E+00 0. -1.
         22    1    3    3    0    0 -0.56487825705E+02 -0.54622600375E+02  0.46901841996E+03  0.47555523464E+03  0.00000000000E+00 0.  1.
         22    1    3    3    0    0 -0.38370356320E+00  0.51170224727E+02  0.14884874594E+03  0.15739913689E+03  0.00000000000E+00 0.  1.
</event>
<event>
 7    1  0.6520971E-006  0.1103038E+03  0.7818608E-02  0.1408850E+00
          2   -1    0    0  502    0  0.00000000000E+00  0.00000000000E+00  0.29303541313E+03  0.29303541313E+03  0.00000000000E+00 0. -1.
          1   -1    0    0  501    0 -0.00000000000E+00 -0.00000000000E+00 -0.10560976777E+04  0.10560976777E+04  0.00000000000E+00 0. -1.
         25    2    1    2    0    0  0.98132980560E+02 -0.49219433844E+01  0.70144064389E+02  0.17377870870E+03  0.12499816970E+03 0.  0.
          2    1    1    2  501    0 -0.10821798863E+03 -0.23250600247E+02 -0.99989414736E+03  0.10060020027E+04  0.00000000000E+00 0. -1.
          1    1    1    2  502    0  0.10085008075E+02  0.28172543632E+02  0.16668781843E+03  0.16935237942E+03  0.00000000000E+00 0. -1.
         22    1    3    3    0    0  0.11127938658E+03  0.33479542598E+02  0.64184715586E+02  0.13275413125E+03  0.00000000000E+00 0.  1.
         22    1    3    3    0    0 -0.13146406017E+02 -0.38401485982E+02  0.59593488038E+01  0.41024577450E+02  0.00000000000E+00 0.  1.
</event>
<event>
 7    1  0.6520971E-006  0.4430139E+02  0.7818608E-02  0.1487089E+00
          2   -1    0    0  502    0  0.00000000000E+00  0.00000000000E+00  0.23017575551E+03  0.23017575551E+03  0.00000000000E+00 0. -1.
          1   -1    0    0  501    0 -0.00000000000E+00 -0.00000000000E+00 -0.11468639318E+03  0.11468639318E+03  0.00000000000E+00 0. -1.
         25    2    1    2    0    0 -0.44254171953E+02  0.15870509214E+02  0.97540479879E+02  0.16539818552E+03  0.12502843580E+03 0.  0.
          2    1    1    2  501    0  0.30381455119E+02  0.28676226459E+02 -0.69072469244E+02  0.80724003781E+02  0.00000000000E+00 0. -1.
          1    1    1    2  502    0  0.13872716834E+02 -0.44546735673E+02  0.87021351691E+02  0.98739959396E+02  0.00000000000E+00 0. -1.
         22    1    3    3    0    0 -0.38594184377E+02 -0.52354335650E+02  0.50276339123E+02  0.82208258737E+02  0.00000000000E+00 0. -1.
         22    1    3    3    0    0 -0.56599875761E+01  0.68224844864E+02  0.47264140756E+02  0.83189926779E+02  0.00000000000E+00 0. -1.
</event>
<event>
 7    1  0.6520971E-006  0.5539230E+02  0.7818608E-02  0.1513189E+00
          2   -1    0    0  502    0  0.00000000000E+00  0.00000000000E+00  0.20710003879E+03  0.20710003879E+03  0.00000000000E+00 0. -1.
          1   -1    0    0  501    0 -0.00000000000E+00 -0.00000000000E+00 -0.95810407122E+03  0.95810407122E+03  0.00000000000E+00 0. -1.
         25    2    1    2    0    0  0.37933449239E+02 -0.17134851033E+02  0.15709404259E+03  0.20502947859E+03  0.12500399667E+03 0.  0.
          2    1    1    2  501    0 -0.55275475044E+02 -0.47559218532E+01 -0.92557045003E+03  0.92723171586E+03  0.00000000000E+00 0. -1.
          1    1    1    2  502    0  0.17342025805E+02  0.21890772886E+02  0.17472375006E+02  0.32942915550E+02  0.00000000000E+00 0. -1.
         22    1    3    3    0    0  0.38650461590E+02 -0.57606966845E+02  0.37686320577E+02  0.78947321480E+02  0.00000000000E+00 0.  1.
         22    1    3    3    0    0 -0.71701235104E+00  0.40472115812E+02  0.11940772202E+03  0.12608215711E+03  0.00000000000E+00 0.  1.
</event>
<event>
 7    1  0.6520971E-006  0.9216159E+02  0.7818608E-02  0.1315777E+00
          2   -1    0    0  502    0  0.00000000000E+00  0.00000000000E+00  0.10750366586E+04  0.10750366586E+04  0.00000000000E+00 0. -1.
          1   -1    0    0  501    0 -0.00000000000E+00 -0.00000000000E+00 -0.15690195583E+03  0.15690195583E+03  0.00000000000E+00 0. -1.
         25    2    1    2    0    0 -0.87222482201E+02 -0.18674487118E+02  0.25267586766E+03  0.29567996727E+03  0.12500020432E+03 0.  0.
          2    1    1    2  501    0  0.73968206590E+02 -0.58346024801E+02 -0.11682606794E+03  0.15007959337E+03  0.00000000000E+00 0. -1.
          1    1    1    2  502    0  0.13254275611E+02  0.77020511920E+02  0.78228490304E+03  0.78617905378E+03  0.00000000000E+00 0. -1.
         22    1    3    3    0    0 -0.46920705985E+02  0.19437147171E+02  0.16988439185E+02  0.53553360364E+02  0.00000000000E+00 0. -1.
         22    1    3    3    0    0 -0.40301776215E+02 -0.38111634289E+02  0.23568742847E+03  0.24212660691E+03  0.00000000000E+00 0. -1.
</event>
<event>
 7    1  0.6520971E-006  0.1592459E+03  0.7818608E-02  0.1210034E+00
          2   -1    0    0  502    0  0.00000000000E+00  0.00000000000E+00  0.74026424815E+03  0.74026424815E+03  0.00000000000E+00 0. -1.
          1   -1    0    0  501    0 -0.00000000000E+00 -0.00000000000E+00 -0.40446962059E+03  0.40446962059E+03  0.00000000000E+00 0. -1.
         25    2    1    2    0    0  0.35664203197E+02  0.94811145586E+02  0.14091574184E+03  0.21387308458E+03  0.12499344500E+03 0.  0.
          2    1    1    2  501    0 -0.88523868004E+02  0.91723931726E+02 -0.33936921501E+03  0.36252064625E+03  0.00000000000E+00 0. -1.
          1    1    1    2  502    0  0.52859664806E+02 -0.18653507731E+03  0.53424810073E+03  0.56834013791E+03  0.00000000000E+00 0. -1.
         22    1    3    3    0    0  0.98198758719E+01  0.11250836368E+03  0.14330656209E+03  0.18245912583E+03  0.00000000000E+00 0.  1.
         22    1    3    3    0    0  0.25844327325E+02 -0.17697218095E+02 -0.23908202437E+01  0.31413958754E+02  0.00000000000E+00 0.  1.
</event>
<event>
 7    1  0.6520971E-006  0.2861535E+03  0.7818608E-02  0.1203128E+00
          2   -1    0    0  502    0  0.00000000000E+00  0.00000000000E+00  0.40653918420E+03  0.40653918420E+03  0.00000000000E+00 0. -1.
          1   -1    0    0  501    0 -0.00000000000E+00 -0.00000000000E+00 -0.61376598938E+03  0.61376598938E+03  0.00000000000E+00 0. -1.
         25    2    1    2    0    0 -0.24544120826E+03 -0.57468766841E+02  0.12831394194E+03  0.30924597669E+03  0.12499824209E+03 0.  0.
          2    1    1    2  501    0  0.26257723177E+03  0.13192353247E+03 -0.47122646784E+03  0.55534224138E+03  0.00000000000E+00 0. -1.
          1    1    1    2  502    0 -0.17136023510E+02 -0.74454765626E+02  0.13568572072E+03  0.15571695551E+03  0.00000000000E+00 0. -1.
         22    1    3    3    0    0 -0.41661292026E+02 -0.59364736824E+02  0.89544871595E+01  0.73075427277E+02  0.00000000000E+00 0. -1.
         22    1    3    3    0    0 -0.20377991624E+03  0.18959699839E+01  0.11935945478E+03  0.23617054941E+03  0.00000000000E+00 0. -1.
</event>
<event>
 7    1  0.6520971E-006  0.9216527E+02  0.7818608E-02  0.1380074E+00
          2   -1    0    0  502    0  0.00000000000E+00  0.00000000000E+00  0.96241239387E+03  0.96241239387E+03  0.00000000000E+00 0. -1.
          1   -1    0    0  501    0 -0.00000000000E+00 -0.00000000000E+00 -0.74067607118E+03  0.74067607118E+03  0.00000000000E+00 0. -1.
         25    2    1    2    0    0  0.50959209534E+02 -0.71181093285E+02  0.40680781117E+03  0.43448915499E+03  0.12499856598E+03 0.  0.
          2    1    1    2  501    0  0.35028319944E+02  0.28346620776E+02 -0.72186872789E+03  0.72327378938E+03  0.00000000000E+00 0. -1.
          1    1    1    2  502    0 -0.85987529478E+02  0.42834472508E+02  0.53679723941E+03  0.54532552068E+03  0.00000000000E+00 0. -1.
         22    1    3    3    0    0  0.58194455744E+02 -0.93177833694E+01  0.67920315184E+02  0.89925441233E+02  0.00000000000E+00 0.  1.
         22    1    3    3    0    0 -0.72352462098E+01 -0.61863309915E+02  0.33888749599E+03  0.34456371376E+03  0.00000000000E+00 0.  1.
</event>
<event>
 7    1  0.6520971E-006  0.1446335E+03  0.7818608E-02  0.1286749E+00
          2   -1    0    0  502    0  0.00000000000E+00  0.00000000000E+00  0.49092394702E+03  0.49092394702E+03  0.00000000000E+00 0. -1.
          1   -1    0    0  501    0 -0.00000000000E+00 -0.00000000000E+00 -0.10425074979E+04  0.10425074979E+04  0.00000000000E+00 0. -1.
         25    2    1    2    0    0 -0.11143901361E+03  0.10496146741E+02 -0.29939938381E+03  0.34321023313E+03  0.12499780097E+03 0.  0.
          2    1    1    2  501    0  0.15535930958E+03  0.37481202355E+02 -0.71002196702E+03  0.72778606008E+03  0.00000000000E+00 0. -1.
          1    1    1    2  502    0 -0.43920295969E+02 -0.47977349095E+02  0.45783779998E+03  0.46243515168E+03  0.00000000000E+00 0. -1.
         22    1    3    3    0    0 -0.13415334567E+03 -0.94233723128E+01 -0.26671476615E+03  0.29870166820E+03  0.00000000000E+00 0.  1.
         22    1    3    3    0    0  0.22714332065E+02  0.19919519054E+02 -0.32684617659E+02  0.44508564929E+02  0.00000000000E+00 0.  1.
</event>
<event>
 7    1  0.6520971E-006  0.9534724E+02  0.7818608E-02  0.1396636E+00
          2   -1    0    0  502    0  0.00000000000E+00  0.00000000000E+00  0.19583863076E+04  0.19583863076E+04  0.00000000000E+00 0. -1.
          1   -1    0    0  501    0 -0.00000000000E+00 -0.00000000000E+00 -0.52620124756E+02  0.52620124756E+02  0.00000000000E+00 0. -1.
         25    2    1    2    0    0 -0.59906057973E+02 -0.10483688135E+03  0.13608267433E+03  0.22073295595E+03  0.12500014447E+03 0.  0.
          2    1    1    2  501    0 -0.66970173658E+01  0.37524497750E+02  0.31324464762E+02  0.49337207720E+02  0.00000000000E+00 0. -1.
          1    1    1    2  502    0  0.66603075339E+02  0.67312383599E+02  0.17383590437E+04  0.17409362687E+04  0.00000000000E+00 0. -1.
         22    1    3    3    0    0 -0.90784951716E+02 -0.10782762492E+03  0.12295206528E+03  0.18704522050E+03  0.00000000000E+00 0. -1.
         22    1    3    3    0    0  0.30878893744E+02  0.29907435714E+01  0.13130609048E+02  0.33687735452E+02  0.00000000000E+00 0. -1.
</event>
<event>
 7    1  0.6520971E-006  0.1306637E+03  0.7818608E-02  0.1350450E+00
          2   -1    0    0  502    0  0.00000000000E+00  0.00000000000E+00  0.72482591835E+03  0.72482591835E+03  0.00000000000E+00 0. -1.
          1   -1    0    0  501    0 -0.00000000000E+00 -0.00000000000E+00 -0.22180910954E+04  0.22180910954E+04  0.00000000000E+00 0. -1.
         25    2    1    2    0    0 -0.15402927686E+03  0.51629506211E+01 -0.96675710950E+03  0.98691273930E+03  0.12500308811E+03 0.  0.
          2    1    1    2  501    0  0.28139308410E+02  0.29391152480E+02 -0.12349573648E+04  0.12356275141E+04  0.00000000000E+00 0. -1.
          1    1    1    2  502    0  0.12588996845E+03 -0.34554103101E+02  0.70844929725E+03  0.72037676043E+03  0.00000000000E+00 0. -1.
         22    1    3    3    0    0 -0.16158072264E+03  0.19365029168E+02 -0.94940848926E+03  0.96325480210E+03  0.00000000000E+00 0.  1.
         22    1    3    3    0    0  0.75514457837E+01 -0.14202078547E+02 -0.17348620239E+02  0.23657937202E+02  0.00000000000E+00 0.  1.
</event>
<event>
 7    1  0.6520971E-006  0.5388441E+02  0.7818608E-02  0.1471138E+00
          2   -1    0    0  502    0  0.00000000000E+00  0.00000000000E+00  0.52403537754E+03  0.52403537754E+03  0.00000000000E+00 0. -1.
          1   -1    0    0  501    0 -0.00000000000E+00 -0.00000000000E+00 -0.39640064510E+03  0.39640064510E+03  0.00000000000E+00 0. -1.
         25    2    1    2    0    0 -0.31600898230E+02  0.70287500907E+02  0.27086664322E+03  0.30811063050E+03  0.12499789065E+03 0.  0.
          2    1    1    2  501    0 -0.80185943462E+01 -0.37603878131E+02 -0.37396937621E+03  0.37594074513E+03  0.00000000000E+00 0. -1.
          1    1    1    2  502    0  0.39619492576E+02 -0.32683622775E+02  0.23073746542E+03  0.23638464700E+03  0.00000000000E+00 0. -1.
         22    1    3    3    0    0 -0.65980071653E+02  0.40207486860E+02  0.24209065150E+03  0.25412181212E+03  0.00000000000E+00 0. -1.
         22    1    3    3    0    0  0.34379173423E+02  0.30080014047E+02  0.28775991728E+02  0.53988818381E+02  0.00000000000E+00 0. -1.
</event>
<event>
 7    1  0.6520971E-006  0.8896181E+02  0.7818608E-02  0.1393620E+00
          2   -1    0    0  502    0  0.00000000000E+00  0.00000000000E+00  0.94183478985E+02  0.94183478985E+02  0.00000000000E+00 0. -1.
          1   -1    0    0  501    0 -0.00000000000E+00 -0.00000000000E+00 -0.48585379080E+03  0.48585379080E+03  0.00000000000E+00 0. -1.
         25    2    1    2    0    0 -0.70433585651E+02  0.62016550283E+02 -0.37679440094E+03  0.40792896886E+03  0.12500032224E+03 0.  0.
          2    1    1    2  501    0  0.36469011772E+02  0.20524512908E+02 -0.59164471184E+02  0.72468469697E+02  0.00000000000E+00 0. -1.
          1    1    1    2  502    0  0.33964573880E+02 -0.82541063190E+02  0.44288560313E+02  0.99639831222E+02  0.00000000000E+00 0. -1.
         22    1    3    3    0    0  0.12673937929E+02 -0.15552908154E+02 -0.17637437644E+03  0.17751180895E+03  0.00000000000E+00 0.  1.
         22    1    3    3    0    0 -0.83107523581E+02  0.77569458437E+02 -0.20042002450E+03  0.23041715991E+03  0.00000000000E+00 0.  1.
</event>
<event>
 7    1  0.6520971E-006  0.5938003E+02  0.7818608E-02  0.1532058E+00
          2   -1    0    0  502    0  0.00000000000E+00  0.00000000000E+00  0.41487930427E+03  0.41487930427E+03  0.00000000000E+00 0. -1.
          1   -1    0    0  501    0 -0.00000000000E+00 -0.00000000000E+00 -0.77144879368E+03  0.77144879368E+03  0.00000000000E+00 0. -1.
         25    2    1    2    0    0  0.78187017109E+02 -0.20795164443E+02 -0.55983130844E+03  0.57929725125E+03  0.12501425076E+03 0.  0.
          2    1    1    2  501    0 -0.22960078839E+02 -0.80243761834E+00 -0.19905037639E+03  0.20037180806E+03  0.00000000000E+00 0. -1.
          1    1    1    2  502    0 -0.55226938270E+02  0.21597602061E+02  0.40231219541E+03  0.40665903863E+03  0.00000000000E+00 0. -1.
         22    1    3    3    0    0  0.13344865092E+02  0.36969468167E+01 -0.44467019594E+03  0.44488575612E+03  0.00000000000E+00 0. -1.
         22    1    3    3    0    0  0.64842152017E+02 -0.24492111259E+02 -0.11516111250E+03  0.13441149513E+03  0.00000000000E+00 0. -1.
</event>
<event>
 7    1  0.6520971E-006  0.1846310E+03  0.7818608E-02  0.1280144E+00
          2   -1    0    0  502    0  0.00000000000E+00  0.00000000000E+00  0.44808358274E+03  0.44808358274E+03  0.00000000000E+00 0. -1.
          1   -1    0    0  501    0 -0.00000000000E+00 -0.00000000000E+00 -0.10456067716E+04  0.10456067716E+04  0.00000000000E+00 0. -1.
         25    2    1    2    0    0 -0.11822182069E+03  0.13029752955E+03 -0.10470101328E+03  0.23987786505E+03  0.12500097148E+03 0.  0.
          2    1    1    2  501    0  0.38293350876E+02  0.38413758631E+02 -0.84950109214E+03  0.85123093407E+03  0.00000000000E+00 0. -1.
          1    1    1    2  502    0  0.79928469809E+02 -0.16871128818E+03  0.35667891658E+03  0.40258155518E+03  0.00000000000E+00 0. -1.
         22    1    3    3    0    0 -0.21870594290E+02  0.20037783460E+02 -0.87564284338E+02  0.92451822872E+02  0.00000000000E+00 0.  1.
         22    1    3    3    0    0 -0.96351226396E+02  0.11025974609E+03 -0.17136728939E+02  0.14742604218E+03  0.00000000000E+00 0.  1.
</event>
<event>
 7    1  0.6520971E-006  0.1090347E+03  0.7818608E-02  0.1291571E+00
          2   -1    0    0  502    0  0.00000000000E+00  0.00000000000E+00  0.62494557501E+03  0.62494557501E+03  0.00000000000E+00 0. -1.
          1   -1    0    0  501    0 -0.00000000000E+00 -0.00000000000E+00 -0.44292386775E+03  0.44292386775E+03  0.00000000000E+00 0. -1.
         25    2    1    2    0    0  0.18238920196E+02 -0.99057067760E+02  0.61973963907E+02  0.17207865188E+03  0.12500131738E+03 0.  0.
          2    1    1    2  501    0 -0.92272959628E+02  0.62728498318E+02 -0.37637490832E+03  0.39256494392E+03  0.00000000000E+00 0. -1.
          1    1    1    2  502    0  0.74034039432E+02  0.36328569442E+02  0.49642265168E+03  0.50322584696E+03  0.00000000000E+00 0. -1.
         22    1    3    3    0    0  0.55768358955E+02 -0.14417196865E+01  0.25272434745E+02  0.61244464029E+02  0.00000000000E+00 0. -1.
         22    1    3    3    0    0 -0.37529438760E+02 -0.97615348074E+02  0.36701529163E+02  0.11083418785E+03  0.00000000000E+00 0. -1.
</event>
<event>
 7    1  0.6520971E-006  0.4957695E+02  0.7818608E-02  0.1451411E+00
          2   -1    0    0  502    0  0.00000000000E+00  0.00000000000E+00  0.14562177651E+04  0.14562177651E+04  0.00000000000E+00 0. -1.
          1   -1    0    0  501    0 -0.00000000000E+00 -0.00000000000E+00 -0.96123010542E+02  0.96123010542E+02  0.00000000000E+00 0. -1.
         25    2    1    2    0    0 -0.14672489899E+02  0.15057125688E+02  0.32341970635E+03  0.34737360801E+03  0.12500447229E+03 0.  0.
          2    1    1    2  501    0 -0.23178709163E+02 -0.44925716938E+02 -0.75983867490E+02  0.91264016565E+02  0.00000000000E+00 0. -1.
          1    1    1    2  502    0  0.37851199062E+02  0.29868591250E+02  0.11126589157E+04  0.11137031510E+04  0.00000000000E+00 0. -1.
         22    1    3    3    0    0  0.44992518848E+02 -0.25280809586E+02  0.98452579465E+02  0.11115914937E+03  0.00000000000E+00 0. -1.
         22    1    3    3    0    0 -0.59665008747E+02  0.40337935274E+02  0.22496712689E+03  0.23621445864E+03  0.00000000000E+00 0. -1.
</event>
<event>
 7    1  0.6520971E-006  0.5665768E+02  0.7818608E-02  0.1419907E+00
          2   -1    0    0  502    0  0.00000000000E+00  0.00000000000E+00  0.41812749933E+03  0.41812749933E+03  0.00000000000E+00 0. -1.
          1   -1    0    0  501    0 -0.00000000000E+00 -0.00000000000E+00 -0.13347303302E+04  0.13347303302E+04  0.00000000000E+00 0. -1.
         25    2    1    2    0    0 -0.59388641746E+02  0.64650938450E+02 -0.16762987961E+03  0.22678532367E+03  0.12500020753E+03 0.  0.
          2    1    1    2  501    0  0.52784077889E+02 -0.85342968872E+01 -0.11348356791E+04  0.11360946315E+04  0.00000000000E+00 0. -1.
          1    1    1    2  502    0  0.66045638571E+01 -0.56116641562E+02  0.38586272787E+03  0.38997787435E+03  0.00000000000E+00 0. -1.
         22    1    3    3    0    0 -0.83668093625E+02  0.63929098334E+00 -0.82008445429E+02  0.11715862625E+03  0.00000000000E+00 0.  1.
         22    1    3    3    0    0  0.24279451880E+02  0.64011647466E+02 -0.85621434184E+02  0.10962669742E+03  0.00000000000E+00 0.  1.
</event>
<event>
 7    1  0.6520971E-006  0.5388158E+02  0.7818608E-02  0.1515568E+00
          2   -1    0    0  502    0  0.00000000000E+00  0.00000000000E+00  0.91906485281E+03  0.91906485281E+03  0.00000000000E+00 0. -1.
          1   -1    0    0  501    0 -0.00000000000E+00 -0.00000000000E+00 -0.62702328966E+02  0.62702328966E+02  0.00000000000E+00 0. -1.
         25    2    1    2    0    0  0.37650406123E+02 -0.69938507925E+01  0.45545432550E+03  0.47384471905E+03  0.12499483237E+03 0.  0.
          2    1    1    2  501    0 -0.41823156614E+02  0.34937958939E+02 -0.39059584685E+02  0.67048404603E+02  0.00000000000E+00 0. -1.
          1    1    1    2  502    0  0.41727504902E+01 -0.27944108147E+02  0.43996778303E+03  0.44087405813E+03  0.00000000000E+00 0. -1.
         22    1    3    3    0    0  0.27970528730E+02 -0.53952177185E+02  0.11536891587E+03  0.13039622176E+03  0.00000000000E+00 0. -1.
         22    1    3    3    0    0  0.96798773937E+01  0.46958326392E+02  0.34008540963E+03  0.34344849729E+03  0.00000000000E+00 0. -1.
</event>
<event>
 7    1  0.6520971E-006  0.1959143E+03  0.7818608E-02  0.1227171E+00
          2   -1    0    0  502    0  0.00000000000E+00  0.00000000000E+00  0.95407617157E+03  0.95407617157E+03  0.00000000000E+00 0. -1.
          1   -1    0    0  501    0 -0.00000000000E+00 -0.00000000000E+00 -0.64958849212E+03  0.64958849212E+03  0.00000000000E+00 0. -1.
         25    2    1    2    0    0  0.75167727300E+02  0.10766355562E+03  0.64231048982E+01  0.18140512085E+03  0.12499973262E+03 0.  0.
          2    1    1    2  501    0 -0.15441863137E+03 -0.14237071482E+03 -0.54017241910E+03  0.57956947514E+03  0.00000000000E+00 0. -1.
          1    1    1    2  502    0  0.79250904075E+02  0.34707159193E+02  0.83823699365E+03  0.84269006771E+03  0.00000000000E+00 0. -1.
         22    1    3    3    0    0  0.42810076603E+01  0.57815804464E+02 -0.51192537550E+02  0.77341257898E+02  0.00000000000E+00 0.  1.
         22    1    3    3    0    0  0.70886719640E+02  0.49847751159E+02  0.57615642448E+02  0.10406386295E+03  0.00000000000E+00 0.  1.
</event>
<event>
 7    1  0.6520971E-006  0.1347125E+03  0.7818608E-02  0.1328716E+00
          2   -1    0    0  502    0  0.00000000000E+00  0.00000000000E+00  0.10721618741E+04  0.10721618741E+04  0.00000000000E+00 0. -1.
          1   -1    0    0  501    0 -0.00000000000E+00 -0.00000000000E+00 -0.12182476896E+04  0.12182476896E+04  0.00000000000E+00 0. -1.
         25    2    1    2    0    0 -0.28242023097E+01  0.16941244215E+03 -0.18586597586E+03  0.28085509169E+03  0.12499947950E+03 0.  0.
          2    1    1    2  501    0 -0.23440135104E+02 -0.12965519106E+03 -0.97992174918E+03  0.98873987632E+03  0.00000000000E+00 0. -1.
          1    1    1    2  502    0  0.26264337413E+02 -0.39757251094E+02  0.10197019096E+04  0.10208145957E+04  0.00000000000E+00 0. -1.
         22    1    3    3    0    0  0.35050395836E+02  0.12464377871E+02 -0.78765797374E+02  0.87108792896E+02  0.00000000000E+00 0. -1.
         22    1    3    3    0    0 -0.37874598146E+02  0.15694806428E+03 -0.10710017848E+03  0.19374629880E+03  0.00000000000E+00 0. -1.
</event>
<event>
 7    1  0.1310031E-005  0.8475806E+02  0.7818608E-02  0.1338900E+00
          2   -1    0    0  502    0  0.00000000000E+00  0.00000000000E+00  0.24640343736E+04  0.24640343736E+04  0.00000000000E+00 0. -1.
          1   -1    0    0  501    0 -0.00000000000E+00 -0.00000000000E+00 -0.19457359674E+04  0.19457359674E+04  0.00000000000E+00 0. -1.
         25    2    1    2    0    0 -0.23957863697E+02  0.83574577327E+02 -0.65865726307E+03  0.67602739234E+03  0.12499982318E+03 0.  0.
          2    1    1    2  501    0  0.68345490424E+02 -0.11335273149E+02 -0.12767222723E+04  0.12786005455E+04  0.00000000000E+00 0. -1.
          1    1    1    2  502    0 -0.44387626727E+02 -0.72239304178E+02  0.24536779416E+04  0.24551424031E+04  0.00000000000E+00 0. -1.
         22    1    3    3    0    0  0.18479456677E+02 -0.22743521200E+02 -0.63162559576E+02  0.69629498116E+02  0.00000000000E+00 0. -1.
         22    1    3    3    0    0 -0.42437320375E+02  0.10631809853E+03 -0.59549470349E+03  0.60639789423E+03  0.00000000000E+00 0. -1.
</event>
<event>
 7    1  0.6520971E-006  0.1242669E+03  0.7818608E-02  0.1263154E+00
          2   -1    0    0  502    0  0.00000000000E+00  0.00000000000E+00  0.20100515411E+03  0.20100515411E+03  0.00000000000E+00 0. -1.
          1   -1    0    0  501    0 -0.00000000000E+00 -0.00000000000E+00 -0.40601828464E+03  0.40601828464E+03  0.00000000000E+00 0. -1.
         25    2    1    2    0    0  0.31917301042E+02 -0.13303555056E+03 -0.47263541915E+02  0.19124900446E+03  0.12500066998E+03 0.  0.
          2    1    1    2  501    0 -0.92831791709E+02  0.19878636569E+02 -0.24345193143E+03  0.26130775852E+03  0.00000000000E+00 0. -1.
          1    1    1    2  502    0  0.60914490667E+02  0.11315691399E+03  0.85702342816E+02  0.15446667576E+03  0.00000000000E+00 0. -1.
         22    1    3    3    0    0 -0.24108637199E+02 -0.43807026369E+00  0.20962998123E+02  0.31950987206E+02  0.00000000000E+00 0. -1.
         22    1    3    3    0    0  0.56025938241E+02 -0.13259748030E+03 -0.68226540037E+02  0.15929801726E+03  0.00000000000E+00 0. -1.
</event>
<event>
 7    1  0.6520971E-006  0.2672315E+03  0.7818608E-02  0.1164054E+00
          2   -1    0    0  502    0  0.00000000000E+00  0.00000000000E+00  0.16925447422E+04  0.16925447422E+04  0.00000000000E+00 0. -1.
          1   -1    0    0  501    0 -0.00000000000E+00 -0.00000000000E+00 -0.12822844171E+04  0.12822844171E+04  0.00000000000E+00 0. -1.
         25    2    1    2    0    0 -0.45610468373E+01  0.14533860621E+03  0.10538812668E+04  0.10711841259E+04  0.12500237360E+03 0.  0.
          2    1    1    2  501    0  0.46207167981E+02 -0.26488624374E+03 -0.12528617205E+04  0.12813907738E+04  0.00000000000E+00 0. -1.
          1    1    1    2  502    0 -0.41646121144E+02  0.11954763754E+03  0.60924077881E+03  0.62225425962E+03  0.00000000000E+00 0. -1.
         22    1    3    3    0    0  0.45579856256E+02  0.10918432303E+03  0.49731969986E+03  0.51120017954E+03  0.00000000000E+00 0.  1.
         22    1    3    3    0    0 -0.50140903093E+02  0.36154283174E+02  0.55656156695E+03  0.55998394634E+03  0.00000000000E+00 0.  1.
</event>
<event>
 7    1  0.6520971E-006  0.9700477E+02  0.7818608E-02  0.1403615E+00
          2   -1    0    0  502    0  0.00000000000E+00  0.00000000000E+00  0.93588271596E+03  0.93588271596E+03  0.00000000000E+00 0. -1.
          1   -1    0    0  501    0 -0.00000000000E+00 -0.00000000000E+00 -0.16850142880E+03  0.16850142880E+03  0.00000000000E+00 0. -1.
         25    2    1    2    0    0  0.12960149075E+02 -0.93754497356E+02  0.29644664458E+03  0.33535552724E+03  0.12499938131E+03 0.  0.
          2    1    1    2  501    0 -0.47353132575E+02  0.85152723501E+02 -0.13254764690E+03  0.16450587887E+03  0.00000000000E+00 0. -1.
          1    1    1    2  502    0  0.34392983500E+02  0.86017738548E+01  0.60348228948E+03  0.60452273864E+03  0.00000000000E+00 0. -1.
         22    1    3    3    0    0  0.19066528353E+01  0.27297666621E+02  0.21713863219E+02  0.34932646391E+02  0.00000000000E+00 0. -1.
         22    1    3    3    0    0  0.11053496240E+02 -0.12105216398E+03  0.27473278136E+03  0.30042288085E+03  0.00000000000E+00 0. -1.
</event>
<event>
 7    1  0.6520971E-006  0.2171050E+03  0.7818608E-02  0.1373458E+00
          2   -1    0    0  502    0  0.00000000000E+00  0.00000000000E+00  0.78901331391E+03  0.78901331391E+03  0.00000000000E+00 0. -1.
          1   -1    0    0  501    0 -0.00000000000E+00 -0.00000000000E+00 -0.36982293648E+03  0.36982293648E+03  0.00000000000E+00 0. -1.
         25    2    1    2    0    0  0.15247786744E+03  0.13647606504E+03  0.15059798629E+03  0.28315930832E+03  0.12499689608E+03 0.  0.
          2    1    1    2  501    0 -0.15370763276E+03 -0.15663368309E+03 -0.26366063446E+03  0.34304092643E+03  0.00000000000E+00 0. -1.
          1    1    1    2  502    0  0.12297653203E+01  0.20157618048E+02  0.53225302560E+03  0.53263601563E+03  0.00000000000E+00 0. -1.
         22    1    3    3    0    0  0.45496518909E+02 -0.11693730244E+02  0.67897335751E+02  0.82563458999E+02  0.00000000000E+00 0.  1.
         22    1    3    3    0    0  0.10698134853E+03  0.14816979528E+03  0.82700650535E+02  0.20059584932E+03  0.00000000000E+00 0.  1.
</event>
<event>
 7    1  0.6520971E-006  0.1305814E+03  0.7818608E-02  0.1318915E+00
          2   -1    0    0  502    0  0.00000000000E+00  0.00000000000E+00  0.39268017807E+02  0.39268017807E+02  0.00000000000E+00 0. -1.
          1   -1    0    0  501    0 -0.00000000000E+00 -0.00000000000E+00 -0.29389353316E+04  0.29389353316E+04  0.00000000000E+00 0. -1.
         25    2    1    2    0    0 -0.59877902574E+02 -0.91469813257E+02 -0.97145511115E+03  0.98554653385E+03  0.12499938980E+03 0.  0.
          2    1    1    2  501    0 -0.51366454120E+02  0.15407071032E+02 -0.18173851808E+04  0.18181762252E+04  0.00000000000E+00 0. -1.
          1    1    1    2  502    0  0.11124435669E+03  0.76062742225E+02 -0.11082702189E+03  0.17448059042E+03  0.00000000000E+00 0. -1.
         22    1    3    3    0    0 -0.67837683926E+00 -0.10006885728E+03 -0.46996505374E+03  0.48050118431E+03  0.00000000000E+00 0.  1.
         22    1    3    3    0    0 -0.59199525735E+02  0.85990440211E+01 -0.50149005741E+03  0.50504534954E+03  0.00000000000E+00 0.  1.
</event>
<event>
 7    1  0.6520971E-006  0.6629553E+02  0.7818608E-02  0.1409738E+00
          2   -1    0    0  502    0  0.00000000000E+00  0.00000000000E+00  0.91625089679E+03  0.91625089679E+03  0.00000000000E+00 0. -1.
          1   -1    0    0  501    0 -0.00000000000E+00 -0.00000000000E+00 -0.63702776298E+02  0.63702776298E+02  0.00000000000E+00 0. -1.
         25    2    1    2    0    0  0.60859806223E+02 -0.41744974964E+02  0.26799621016E+03  0.30478579683E+03  0.12500341733E+03 0.  0.
          2    1    1    2  501    0 -0.66685295238E+02 -0.73532548417E+01 -0.18894486256E+02  0.69699358452E+02  0.00000000000E+00 0. -1.
          1    1    1    2  502    0  0.58254890147E+01  0.49098229806E+02  0.60344639659E+03  0.60546851780E+03  0.00000000000E+00 0. -1.
         22    1    3    3    0    0 -0.28881152622E+02 -0.35042101000E+02  0.14790042829E+03  0.15471459694E+03  0.00000000000E+00 0.  1.
         22    1    3    3    0    0  0.89740958845E+02 -0.67028739647E+01  0.12009578187E+03  0.15007119989E+03  0.00000000000E+00 0.  1.
</event>
<event>
 7    1  0.6520971E-006  0.1461319E+03  0.7818608E-02  0.1380192E+00
          2   -1    0    0  502    0  0.00000000000E+00  0.00000000000E+00  0.75363901058E+03  0.75363901058E+03  0.00000000000E+00 0. -1.
          1   -1    0    0  501    0 -0.00000000000E+00 -0.00000000000E+00 -0.11053497219E+04  0.11053497219E+04  0.00000000000E+00 0. -1.
         25    2    1    2    0    0 -0.94923710569E+02 -0.82293513817E+02 -0.16235840544E+03  0.24035027425E+03  0.12500107707E+03 0.  0.
          2    1    1    2  501    0  0.10126774457E+03  0.10996831450E+03 -0.89752857441E+03  0.90989325098E+03  0.00000000000E+00 0. -1.
          1    1    1    2  502    0 -0.63440340006E+01 -0.27674800684E+02  0.70817626858E+03  0.70874520720E+03  0.00000000000E+00 0. -1.
         22    1    3    3    0    0 -0.10531511770E+03 -0.10629801774E+03 -0.12634950098E+03  0.19584365956E+03  0.00000000000E+00 0. -1.
         22    1    3    3    0    0  0.10391407129E+02  0.24004503923E+02 -0.36008904459E+02  0.44506614689E+02  0.00000000000E+00 0. -1.
</event>
<event>
 7    1  0.6520971E-006  0.7856048E+02  0.7818608E-02  0.1389846E+00
          2   -1    0    0  502    0  0.00000000000E+00  0.00000000000E+00  0.22690327003E+04  0.22690327003E+04  0.00000000000E+00 0. -1.
          1   -1    0    0  501    0 -0.00000000000E+00 -0.00000000000E+00 -0.44459406400E+03  0.44459406400E+03  0.00000000000E+00 0. -1.
         25    2    1    2    0    0 -0.72859077113E+02 -0.26681591674E+02  0.11869416534E+04  0.11960251752E+04  0.12500151439E+03 0.  0.
          2    1    1    2  501    0 -0.69787704593E+01  0.48342712969E+02 -0.43710232324E+03  0.43982287584E+03  0.00000000000E+00 0. -1.
          1    1    1    2  502    0  0.79837847573E+02 -0.21661121295E+02  0.10745993061E+04  0.10777787133E+04  0.00000000000E+00 0. -1.
         22    1    3    3    0    0 -0.68834630083E+02  0.39578361529E+02  0.56527060234E+03  0.57082003020E+03  0.00000000000E+00 0. -1.
         22    1    3    3    0    0 -0.40244470303E+01 -0.66259953203E+02  0.62167105107E+03  0.62520514498E+03  0.00000000000E+00 0. -1.
</event>
<event>
 7    1  0.6520971E-006  0.1620789E+03  0.7818608E-02  0.1212861E+00
          2   -1    0    0  502    0  0.00000000000E+00  0.00000000000E+00  0.48529370729E+03  0.48529370729E+03  0.00000000000E+00 0. -1.
          1   -1    0    0  501    0 -0.00000000000E+00 -0.00000000000E+00 -0.66912990670E+03  0.66912990670E+03  0.00000000000E+00 0. -1.
         25    2    1    2    0    0 -0.17999625652E+03  0.47378991879E+01  0.14988791338E+03  0.26553980668E+03  0.12499560916E+03 0.  0.
          2    1    1    2  501    0  0.55918744431E+02  0.10790184028E+03 -0.57911593911E+03  0.59173049950E+03  0.00000000000E+00 0. -1.
          1    1    1    2  502    0  0.12407751208E+03 -0.11263973946E+03  0.24539182632E+03  0.29715330780E+03  0.00000000000E+00 0. -1.
         22    1    3    3    0    0 -0.73739662564E+02 -0.25903120314E+02 -0.13685176148E+01  0.78168934478E+02  0.00000000000E+00 0.  1.
         22    1    3    3    0    0 -0.10625659395E+03  0.30641019502E+02  0.15125643099E+03  0.18737087220E+03  0.00000000000E+00 0.  1.
</event>
<event>
 7    1  0.6520971E-006  0.1533771E+03  0.7818608E-02  0.1314668E+00
          2   -1    0    0  502    0  0.00000000000E+00  0.00000000000E+00  0.10266025108E+04  0.10266025108E+04  0.00000000000E+00 0. -1.
          1   -1    0    0  501    0 -0.00000000000E+00 -0.00000000000E+00 -0.12704041788E+04  0.12704041788E+04  0.00000000000E+00 0. -1.
         25    2    1    2    0    0 -0.14803056545E+03 -0.85633262165E+02 -0.41479831729E+02  0.21585049938E+03  0.12499903098E+03 0.  0.
          2    1    1    2  501    0  0.69861255421E-01  0.47431536892E+02 -0.11350259989E+04  0.11360166256E+04  0.00000000000E+00 0. -1.
          1    1    1    2  502    0  0.14796070420E+03  0.38201725274E+02  0.93270416257E+03  0.94513956465E+03  0.00000000000E+00 0. -1.
         22    1    3    3    0    0 -0.16012818212E+03 -0.56280519392E+02 -0.58871795364E+02  0.17965082761E+03  0.00000000000E+00 0. -1.
         22    1    3    3    0    0  0.12097616666E+02 -0.29352742773E+02  0.17391963635E+02  0.36199671772E+02  0.00000000000E+00 0. -1.
</event>
<event>
 7    1  0.6520971E-006  0.1025880E+03  0.7818608E-02  0.1361327E+00
          2   -1    0    0  502    0  0.00000000000E+00  0.00000000000E+00  0.42046095112E+03  0.42046095112E+03  0.00000000000E+00 0. -1.
          1   -1    0    0  501    0 -0.00000000000E+00 -0.00000000000E+00 -0.38736091448E+03  0.38736091448E+03  0.00000000000E+00 0. -1.
         25    2    1    2    0    0 -0.76407134663E+01 -0.11084487143E+03  0.26038866093E+03  0.30947176319E+03  0.12500220577E+03 0.  0.
          2    1    1    2  501    0 -0.37132361968E+02  0.95680193093E+02 -0.35111485673E+03  0.36580753720E+03  0.00000000000E+00 0. -1.
          1    1    1    2  502    0  0.44773075434E+02  0.15164678333E+02  0.12382623244E+03  0.13254256521E+03  0.00000000000E+00 0. -1.
         22    1    3    3    0    0 -0.91093216620E+01 -0.55703212744E+02  0.24610039798E+03  0.25249006621E+03  0.00000000000E+00 0.  1.
         22    1    3    3    0    0  0.14686081958E+01 -0.55141658683E+02  0.14288262955E+02  0.56981696979E+02  0.00000000000E+00 0.  1.
</event>
<event>
 7    1  0.6520971E-006  0.3862062E+02  0.7818608E-02  0.1562084E+00
          2   -1    0    0  502    0  0.00000000000E+00  0.00000000000E+00  0.10274073029E+04  0.10274073029E+04  0.00000000000E+00 0. -1.
          1   -1    0    0  501    0 -0.00000000000E+00 -0.00000000000E+00 -0.73786323579E+02  0.73786323579E+02  0.00000000000E+00 0. -1.
         25    2    1    2    0    0  0.42901228621E+02 -0.30079467213E+02  0.30016813753E+03  0.32936227794E+03  0.12503323389E+03 0.  0.
          2    1    1    2  501    0 -0.45051442698E+01  0.28754400448E+02 -0.55059101279E+02  0.62278539672E+02  0.00000000000E+00 0. -1.
          1    1    1    2  502    0 -0.38396084351E+02  0.13250667647E+01  0.70851194310E+03  0.70955280889E+03  0.00000000000E+00 0. -1.
         22    1    3    3    0    0  0.28640059596E+02 -0.71287801388E+02  0.25606434754E+03  0.26734089422E+03  0.00000000000E+00 0. -1.
         22    1    3    3    0    0  0.14261169025E+02  0.41208334175E+02  0.44103789985E+02  0.62021383720E+02  0.00000000000E+00 0. -1.
</event>
<event>
 7    1  0.6520971E-006  0.2434883E+02  0.7818608E-02  0.1690047E+00
          2   -1    0    0  502    0  0.00000000000E+00  0.00000000000E+00  0.12746850730E+04  0.12746850730E+04  0.00000000000E+00 0. -1.
          1   -1    0    0  501    0 -0.00000000000E+00 -0.00000000000E+00 -0.74308224581E+02  0.74308224581E+02  0.00000000000E+00 0. -1.
         25    2    1    2    0    0 -0.42175013798E+02 -0.14346247246E+02  0.27599292183E+03  0.30625522888E+03  0.12504249566E+03 0.  0.
          2    1    1    2  501    0  0.21860872271E+02  0.12622847049E+01 -0.56997595031E+02  0.61059126578E+02  0.00000000000E+00 0. -1.
          1    1    1    2  502    0  0.20314141528E+02  0.13083962541E+02  0.98138152161E+03  0.98167894210E+03  0.00000000000E+00 0. -1.
         22    1    3    3    0    0  0.27506881873E+02  0.11095305613E+02  0.19165065531E+03  0.19393222538E+03  0.00000000000E+00 0. -1.
         22    1    3    3    0    0 -0.69681895672E+02 -0.25441552859E+02  0.84342266514E+02  0.11232300351E+03  0.00000000000E+00 0. -1.
</event>
<event>
 7    1  0.6520971E-006  0.6094951E+02  0.7818608E-02  0.1397865E+00
          2   -1    0    0  502    0  0.00000000000E+00  0.00000000000E+00  0.16325307713E+04  0.16325307713E+04  0.00000000000E+00 0. -1.
          1   -1    0    0  501    0 -0.00000000000E+00 -0.00000000000E+00 -0.18456575164E+03  0.18456575164E+03  0.00000000000E+00 0. -1.
         25    2    1    2    0    0 -0.54926500118E+02  0.13848228324E+02  0.45830472082E+03  0.47841317168E+03  0.12500900714E+03 0.  0.
          2    1    1    2  501    0  0.13553890354E+02 -0.59423355552E+02 -0.16834733306E+03  0.17904096647E+03  0.00000000000E+00 0. -1.
          1    1    1    2  502    0  0.41372609764E+02  0.45575127228E+02  0.11580076318E+04  0.11596423847E+04  0.00000000000E+00 0. -1.
         22    1    3    3    0    0 -0.31704776349E+02 -0.38975278209E+02  0.36686403413E+03  0.37028838044E+03  0.00000000000E+00 0. -1.
         22    1    3    3    0    0 -0.23221723769E+02  0.52823506533E+02  0.91440686699E+02  0.10812479124E+03  0.00000000000E+00 0. -1.
</event>
<event>
 7    1  0.6520971E-006  0.7596012E+02  0.7818608E-02  0.1429232E+00
          2   -1    0    0  502    0  0.00000000000E+00  0.00000000000E+00  0.11824038238E+04  0.11824038238E+04  0.00000000000E+00 0. -1.
          1   -1    0    0  501    0 -0.00000000000E+00 -0.00000000000E+00 -0.12787521069E+03  0.12787521069E+03  0.00000000000E+00 0. -1.
         25    2    1    2    0    0  0.71794928638E+01  0.11011182672E+03  0.15533685305E+03  0.22788691920E+03  0.12500700191E+03 0.  0.
          2    1    1    2  501    0 -0.10752414493E+02 -0.35549325806E+02 -0.86365136960E+02  0.94012264438E+02  0.00000000000E+00 0. -1.
          1    1    1    2  502    0  0.35729216294E+01 -0.74562500918E+02  0.98555689705E+03  0.98837985089E+03  0.00000000000E+00 0. -1.
         22    1    3    3    0    0 -0.35091998787E+02 -0.11712700889E+02  0.25758284550E+02  0.45079096752E+02  0.00000000000E+00 0. -1.
         22    1    3    3    0    0  0.42271491651E+02  0.12182452761E+03  0.12957856850E+03  0.18280782245E+03  0.00000000000E+00 0. -1.
</event>
<event>
 7    1  0.6520971E-006  0.4194997E+02  0.7818608E-02  0.1585389E+00
          2   -1    0    0  502    0  0.00000000000E+00  0.00000000000E+00  0.25612848080E+03  0.25612848080E+03  0.00000000000E+00 0. -1.
          1   -1    0    0  501    0 -0.00000000000E+00 -0.00000000000E+00 -0.36292067557E+03  0.36292067557E+03  0.00000000000E+00 0. -1.
         25    2    1    2    0    0  0.24433155795E+02  0.82786592383E+01 -0.15010547588E+02  0.12851367649E+03  0.12499973282E+03 0.  0.
          2    1    1    2  501    0  0.47641990362E+01  0.22681590001E+02 -0.28841755012E+03  0.28934725735E+03  0.00000000000E+00 0. -1.
          1    1    1    2  502    0 -0.29197354832E+02 -0.30960249239E+02  0.19663590294E+03  0.20118822253E+03  0.00000000000E+00 0. -1.
         22    1    3    3    0    0 -0.43433149447E+02  0.33409293343E+02 -0.11921564636E+02  0.56078008666E+02  0.00000000000E+00 0.  1.
         22    1    3    3    0    0  0.67866305242E+02 -0.25130634104E+02 -0.30889829521E+01  0.72435667826E+02  0.00000000000E+00 0.  1.
</event>
<event>
 7    1  0.6520971E-006  0.2242200E+03  0.7818608E-02  0.1201413E+00
          2   -1    0    0  502    0  0.00000000000E+00  0.00000000000E+00  0.15242893451E+04  0.15242893451E+04  0.00000000000E+00 0. -1.
          1   -1    0    0  501    0 -0.00000000000E+00 -0.00000000000E+00 -0.11652502887E+04  0.11652502887E+04  0.00000000000E+00 0. -1.
         25    2    1    2    0    0 -0.76042249812E+01  0.27300273045E+03  0.11076929289E+04  0.11476915739E+04  0.12499603576E+03 0.  0.
          2    1    1    2  501    0  0.21352307625E+02 -0.97008581142E+02 -0.11233062449E+04  0.11276894544E+04  0.00000000000E+00 0. -1.
          1    1    1    2  502    0 -0.13748082644E+02 -0.17599414930E+03  0.37465237240E+03  0.41415860550E+03  0.00000000000E+00 0. -1.
         22    1    3    3    0    0 -0.58083245062E+02  0.19176696609E+03  0.65305724214E+03  0.68310467291E+03  0.00000000000E+00 0. -1.
         22    1    3    3    0    0  0.50479020080E+02  0.81235764355E+02  0.45463568674E+03  0.46458690095E+03  0.00000000000E+00 0. -1.
</event>
<event>
 7    1  0.6520971E-006  0.9684639E+02  0.7818608E-02  0.1432793E+00
          2   -1    0    0  502    0  0.00000000000E+00  0.00000000000E+00  0.18967269648E+04  0.18967269648E+04  0.00000000000E+00 0. -1.
          1   -1    0    0  501    0 -0.00000000000E+00 -0.00000000000E+00 -0.14164174270E+04  0.14164174270E+04  0.00000000000E+00 0. -1.
         25    2    1    2    0    0  0.17547795462E+02 -0.12231751107E+03  0.12565152467E+04  0.12687494958E+04  0.12500087728E+03 0.  0.
          2    1    1    2  501    0 -0.54841484968E+01  0.96656362088E+02 -0.14083206554E+04  0.14116442882E+04  0.00000000000E+00 0. -1.
          1    1    1    2  502    0 -0.12063646965E+02  0.25661148981E+02  0.63211494638E+03  0.63275060773E+03  0.00000000000E+00 0. -1.
         22    1    3    3    0    0  0.64613303952E+02 -0.10882021277E+03  0.93550922261E+03  0.94403083813E+03  0.00000000000E+00 0.  1.
         22    1    3    3    0    0 -0.47065508490E+02 -0.13497298302E+02  0.32100602410E+03  0.32471865770E+03  0.00000000000E+00 0.  1.
</event>
<event>
 7    1  0.6520971E-006  0.3216714E+02  0.7818608E-02  0.1628803E+00
          2   -1    0    0  502    0  0.00000000000E+00  0.00000000000E+00  0.16669302307E+02  0.16669302307E+02  0.00000000000E+00 0. -1.
          1   -1    0    0  501    0 -0.00000000000E+00 -0.00000000000E+00 -0.10832962898E+04  0.10832962898E+04  0.00000000000E+00 0. -1.
         25    2    1    2    0    0  0.15612686433E+02  0.50443355722E+02 -0.70383478671E+03  0.71680016059E+03  0.12502309835E+03 0.  0.
          2    1    1    2  501    0 -0.13492092171E+02 -0.19034699125E+02 -0.34729438909E+03  0.34807721703E+03  0.00000000000E+00 0. -1.
          1    1    1    2  502    0 -0.21205942614E+01 -0.31408656597E+02 -0.15497811705E+02  0.35088214501E+02  0.00000000000E+00 0. -1.
         22    1    3    3    0    0 -0.45660461814E+02  0.57020485408E+02 -0.33713714080E+03  0.34496038213E+03  0.00000000000E+00 0. -1.
         22    1    3    3    0    0  0.61273148246E+02 -0.65771296858E+01 -0.36669764591E+03  0.37183977846E+03  0.00000000000E+00 0. -1.
</event>
<event>
 7    1  0.6520971E-006  0.6121203E+02  0.7818608E-02  0.1421555E+00
          2   -1    0    0  502    0  0.00000000000E+00  0.00000000000E+00  0.72857963974E+03  0.72857963974E+03  0.00000000000E+00 0. -1.
          1   -1    0    0  501    0 -0.00000000000E+00 -0.00000000000E+00 -0.46760019907E+03  0.46760019907E+03  0.00000000000E+00 0. -1.
         25    2    1    2    0    0  0.49780139570E+02 -0.19188686211E+02 -0.29922969242E+03  0.32864892136E+03  0.12500174682E+03 0.  0.
          2    1    1    2  501    0  0.39731208699E+01  0.48706990267E+02 -0.14841738479E+03  0.15625580532E+03  0.00000000000E+00 0. -1.
          1    1    1    2  502    0 -0.53753260440E+02 -0.29518304056E+02  0.70862651788E+03  0.71127511212E+03  0.00000000000E+00 0. -1.
         22    1    3    3    0    0  0.61639210568E+01 -0.65677252448E+02 -0.20100098627E+03  0.21154879317E+03  0.00000000000E+00 0. -1.
         22    1    3    3    0    0  0.43616218513E+02  0.46488566237E+02 -0.98228706155E+02  0.11710012819E+03  0.00000000000E+00 0. -1.
</event>
<event>
 7    1  0.6520971E-006  0.1015029E+03  0.7818608E-02  0.1346986E+00
          2   -1    0    0  502    0  0.00000000000E+00  0.00000000000E+00  0.14889693645E+03  0.14889693645E+03  0.00000000000E+00 0. -1.
          1   -1    0    0  501    0 -0.00000000000E+00 -0.00000000000E+00 -0.10803441354E+04  0.10803441354E+04  0.00000000000E+00 0. -1.
         25    2    1    2    0    0  0.20916950384E+02  0.13285274794E+03  0.19265694308E+02  0.18461852631E+03  0.12500184731E+03 0.  0.
          2    1    1    2  501    0 -0.27003468544E+02 -0.46710061585E+02 -0.95654778545E+03  0.95806820374E+03  0.00000000000E+00 0. -1.
          1    1    1    2  502    0  0.60865181604E+01 -0.86142686360E+02  0.58348922004E+01  0.86554341795E+02  0.00000000000E+00 0. -1.
         22    1    3    3    0    0  0.68986392713E+02  0.93401430440E+02  0.33444778222E+02  0.12083667812E+03  0.00000000000E+00 0.  1.
         22    1    3    3    0    0 -0.48069442328E+02  0.39451317505E+02 -0.14179083914E+02  0.63781848196E+02  0.00000000000E+00 0.  1.
</event>
<event>
 7    1  0.6520971E-006  0.7923773E+02  0.7818608E-02  0.1476642E+00
          2   -1    0    0  502    0  0.00000000000E+00  0.00000000000E+00  0.88125050335E+03  0.88125050335E+03  0.00000000000E+00 0. -1.
          1   -1    0    0  501    0 -0.00000000000E+00 -0.00000000000E+00 -0.24364180599E+03  0.24364180599E+03  0.00000000000E+00 0. -1.
         25    2    1    2    0    0  0.55373317433E+02 -0.10104322668E+02  0.78589851023E+03  0.79776543379E+03  0.12499966940E+03 0.  0.
          2    1    1    2  501    0 -0.75219341685E+02  0.25539065022E+02 -0.22910793969E+03  0.24248843526E+03  0.00000000000E+00 0. -1.
          1    1    1    2  502    0  0.19846024252E+02 -0.15434742354E+02  0.80818126828E+02  0.84638440286E+02  0.00000000000E+00 0. -1.
         22    1    3    3    0    0  0.56502210902E+01 -0.61127667588E+02  0.46622420429E+03  0.47024836566E+03  0.00000000000E+00 0.  1.
         22    1    3    3    0    0  0.49723096343E+02  0.51023344920E+02  0.31967430593E+03  0.32751706812E+03  0.00000000000E+00 0.  1.
</event>
<event>
 7    1  0.6520971E-006  0.8793641E+02  0.7818608E-02  0.1356401E+00
          2   -1    0    0  502    0  0.00000000000E+00  0.00000000000E+00  0.10090747184E+03  0.10090747184E+03  0.00000000000E+00 0. -1.
          1   -1    0    0  501    0 -0.00000000000E+00 -0.00000000000E+00 -0.32598839129E+03  0.32598839129E+03  0.00000000000E+00 0. -1.
         25    2    1    2    0    0  0.58044847579E+02  0.25873339572E+02 -0.60463065878E+02  0.15270557956E+03  0.12499831064E+03 0.  0.
          2    1    1    2  501    0  0.33593890533E+01  0.57384390041E+02 -0.16069182055E+03  0.17066374807E+03  0.00000000000E+00 0. -1.
          1    1    1    2  502    0 -0.61404236632E+02 -0.83257729613E+02 -0.39260330272E+01  0.10352653550E+03  0.00000000000E+00 0. -1.
         22    1    3    3    0    0  0.41290797106E+02  0.62567562215E+02  0.57375278974E+01  0.75183435633E+02  0.00000000000E+00 0. -1.
         22    1    3    3    0    0  0.16754050473E+02 -0.36694222643E+02 -0.66200593776E+02  0.77522143926E+02  0.00000000000E+00 0. -1.
</event>
<event>
 7    1  0.6520971E-006  0.7105868E+02  0.7818608E-02  0.1438228E+00
          2   -1    0    0  502    0  0.00000000000E+00  0.00000000000E+00  0.18842811143E+02  0.18842811143E+02  0.00000000000E+00 0. -1.
          1   -1    0    0  501    0 -0.00000000000E+00 -0.00000000000E+00 -0.87465438522E+03  0.87465438522E+03  0.00000000000E+00 0. -1.
         25    2    1    2    0    0  0.48180218561E+02  0.60676307977E+01 -0.36856642458E+03  0.39220475601E+03  0.12500084681E+03 0.  0.
          2    1    1    2  501    0 -0.79414169263E+02  0.13949807265E+02 -0.34368925189E+03  0.35302055077E+03  0.00000000000E+00 0. -1.
          1    1    1    2  502    0  0.31233950703E+02 -0.20017438062E+02 -0.14355589761E+03  0.14827188959E+03  0.00000000000E+00 0. -1.
         22    1    3    3    0    0  0.37656387427E+02 -0.15005452417E+02 -0.36630570901E+03  0.36854177453E+03  0.00000000000E+00 0. -1.
         22    1    3    3    0    0  0.10523831134E+02  0.21073083214E+02 -0.22607155725E+01  0.23662981486E+02  0.00000000000E+00 0. -1.
</event>
<event>
 7    1  0.6520971E-006  0.2190260E+03  0.7818608E-02  0.1187845E+00
          2   -1    0    0  502    0  0.00000000000E+00  0.00000000000E+00  0.78531855497E+03  0.78531855497E+03  0.00000000000E+00 0. -1.
          1   -1    0    0  501    0 -0.00000000000E+00 -0.00000000000E+00 -0.10598111832E+04  0.10598111832E+04  0.00000000000E+00 0. -1.
         25    2    1    2    0    0 -0.30366765548E+02  0.21333539039E+03 -0.25897603708E+03  0.35934456894E+03  0.12500320878E+03 0.  0.
          2    1    1    2  501    0  0.14293056929E+03 -0.17796815515E+03 -0.72833630068E+03  0.76326638782E+03  0.00000000000E+00 0. -1.
          1    1    1    2  502    0 -0.11256380374E+03 -0.35367235235E+02  0.71281970951E+03  0.72251878143E+03  0.00000000000E+00 0. -1.
         22    1    3    3    0    0  0.27519062352E+02  0.31040982712E+01 -0.12881188208E+02  0.30542744285E+02  0.00000000000E+00 0.  1.
         22    1    3    3    0    0 -0.57885827899E+02  0.21023129212E+03 -0.24609484887E+03  0.32880182466E+03  0.00000000000E+00 0.  1.
</event>
<event>
 7    1  0.6520971E-006  0.9189483E+02  0.7818608E-02  0.1330867E+00
          2   -1    0    0  502    0  0.00000000000E+00  0.00000000000E+00  0.17686932568E+04  0.17686932568E+04  0.00000000000E+00 0. -1.
          1   -1    0    0  501    0 -0.00000000000E+00 -0.00000000000E+00 -0.52725814762E+03  0.52725814762E+03  0.00000000000E+00 0. -1.
         25    2    1    2    0    0  0.89445204941E+00  0.14298471590E+03  0.11935283203E+04  0.12085451232E+04  0.12500413747E+03 0.  0.
          2    1    1    2  501    0  0.61830757982E+01 -0.68262093899E+02 -0.51498812460E+03  0.51952931810E+03  0.00000000000E+00 0. -1.
          1    1    1    2  502    0 -0.70775278476E+01 -0.74722621997E+02  0.56289491345E+03  0.56787696311E+03  0.00000000000E+00 0. -1.
         22    1    3    3    0    0 -0.51595481502E+02  0.80860284534E+02  0.42313187857E+03  0.43386756734E+03  0.00000000000E+00 0.  1.
         22    1    3    3    0    0  0.52489933552E+02  0.62124431362E+02  0.77039644177E+03  0.77467755588E+03  0.00000000000E+00 0.  1.
</event>
<event>
 7    1  0.6520971E-006  0.1016953E+03  0.7818608E-02  0.1338825E+00
          2   -1    0    0  502    0  0.00000000000E+00  0.00000000000E+00  0.21282089863E+04  0.21282089863E+04  0.00000000000E+00 0. -1.
          1   -1    0    0  501    0 -0.00000000000E+00 -0.00000000000E+00 -0.16297978979E+04  0.16297978979E+04  0.00000000000E+00 0. -1.
         25    2    1    2    0    0 -0.54967720564E+02 -0.12040129471E+02 -0.68684906342E+02  0.15331891048E+03  0.12499062737E+03 0.  0.
          2    1    1    2  501    0 -0.24521004917E+02 -0.52316993872E+02 -0.15169920033E+04  0.15180919226E+04  0.00000000000E+00 0. -1.
          1    1    1    2  502    0  0.79488725482E+02  0.64357123342E+02  0.20840879981E+04  0.20865960511E+04  0.00000000000E+00 0. -1.
         22    1    3    3    0    0  0.14256335751E+02 -0.38944584401E+02  0.12473827600E+02  0.43307275811E+02  0.00000000000E+00 0.  1.
         22    1    3    3    0    0 -0.69224056315E+02  0.26904454930E+02 -0.81158733941E+02  0.11001163467E+03  0.00000000000E+00 0.  1.
</event>
<event>
 7    1  0.6520971E-006  0.1114837E+03  0.7818608E-02  0.1378815E+00
          2   -1    0    0  502    0  0.00000000000E+00  0.00000000000E+00  0.25535339768E+03  0.25535339768E+03  0.00000000000E+00 0. -1.
          1   -1    0    0  501    0 -0.00000000000E+00 -0.00000000000E+00 -0.77740020174E+03  0.77740020174E+03  0.00000000000E+00 0. -1.
         25    2    1    2    0    0  0.34524952110E+02  0.10727110107E+03 -0.30438769437E+02  0.17103445592E+03  0.12500881963E+03 0.  0.
          2    1    1    2  501    0 -0.37318490955E+02  0.48900736344E+01 -0.65907159066E+03  0.66014539626E+03  0.00000000000E+00 0. -1.
          1    1    1    2  502    0  0.27935388444E+01 -0.11216117470E+03  0.16746355604E+03  0.20157374723E+03  0.00000000000E+00 0. -1.
         22    1    3    3    0    0  0.20612594367E+02  0.27748843674E+02 -0.72269249505E+02  0.80110684655E+02  0.00000000000E+00 0.  1.
         22    1    3    3    0    0  0.13912357744E+02  0.79522257396E+02  0.41830480068E+02  0.90923771270E+02  0.00000000000E+00 0.  1.
</event>
<event>
 7    1  0.6520971E-006  0.1106056E+03  0.7818608E-02  0.1332957E+00
          2   -1    0    0  502    0  0.00000000000E+00  0.00000000000E+00  0.32496161517E+04  0.32496161517E+04  0.00000000000E+00 0. -1.
          1   -1    0    0  501    0 -0.00000000000E+00 -0.00000000000E+00 -0.11253044900E+04  0.11253044900E+04  0.00000000000E+00 0. -1.
         25    2    1    2    0    0 -0.77543282584E+02 -0.10011088411E+03  0.23291300851E+03  0.29310606398E+03  0.12501018124E+03 0.  0.
          2    1    1    2  501    0  0.99312875238E+02  0.48610977253E+02 -0.10921545575E+04  0.10977375150E+04  0.00000000000E+00 0. -1.
          1    1    1    2  502    0 -0.21769592655E+02  0.51499906855E+02  0.29835532107E+04  0.29840770628E+04  0.00000000000E+00 0. -1.
         22    1    3    3    0    0 -0.47365822894E+02 -0.35748443777E+02  0.21029695107E+03  0.21850922186E+03  0.00000000000E+00 0.  1.
         22    1    3    3    0    0 -0.30177459690E+02 -0.64362440332E+02  0.22616057443E+02  0.74596842112E+02  0.00000000000E+00 0.  1.
</event>
<event>
 7    1  0.6520971E-006  0.3594984E+03  0.7818608E-02  0.1134848E+00
          2   -1    0    0  502    0  0.00000000000E+00  0.00000000000E+00  0.15481792832E+04  0.15481792832E+04  0.00000000000E+00 0. -1.
          1   -1    0    0  501    0 -0.00000000000E+00 -0.00000000000E+00 -0.32938849721E+03  0.32938849721E+03  0.00000000000E+00 0. -1.
         25    2    1    2    0    0  0.22296702057E+03  0.10551738473E+03 -0.49860726897E+02  0.28099706752E+03  0.12500019651E+03 0.  0.
          2    1    1    2  501    0  0.13073720018E+03  0.24748674552E+02 -0.10666651136E+03  0.17053579404E+03  0.00000000000E+00 0. -1.
          1    1    1    2  502    0 -0.35370422075E+03 -0.13026605929E+03  0.13753180242E+04  0.14260349188E+04  0.00000000000E+00 0. -1.
         22    1    3    3    0    0  0.90165414926E+02 -0.15167435618E+02 -0.43965754216E+02  0.10145363816E+03  0.00000000000E+00 0. -1.
         22    1    3    3    0    0  0.13280160564E+03  0.12068482035E+03 -0.58949726807E+01  0.17954342936E+03  0.00000000000E+00 0. -1.
</event>
<event>
 7    1  0.6520971E-006  0.5824860E+02  0.7818608E-02  0.1436816E+00
          2   -1    0    0  502    0  0.00000000000E+00  0.00000000000E+00  0.14635128487E+04  0.14635128487E+04  0.00000000000E+00 0. -1.
          1   -1    0    0  501    0 -0.00000000000E+00 -0.00000000000E+00 -0.18763543081E+04  0.18763543081E+04  0.00000000000E+00 0. -1.
         25    2    1    2    0    0 -0.10066290331E+03  0.19872172937E+01  0.16996278395E+03  0.23377093575E+03  0.12499813335E+03 0.  0.
          2    1    1    2  501    0  0.44569639382E+02  0.10272787873E+02 -0.18435131678E+04  0.18440804708E+04  0.00000000000E+00 0. -1.
          1    1    1    2  502    0  0.56093263923E+02 -0.12260005166E+02  0.12607089244E+04  0.12620157503E+04  0.00000000000E+00 0. -1.
         22    1    3    3    0    0 -0.74528484229E+02  0.45959353790E+02  0.44369010162E+02  0.98159901309E+02  0.00000000000E+00 0.  1.
         22    1    3    3    0    0 -0.26134419076E+02 -0.43972136496E+02  0.12559377378E+03  0.13561103444E+03  0.00000000000E+00 0.  1.
</event>
<event>
 7    1  0.6520971E-006  0.1417646E+03  0.7818608E-02  0.1347053E+00
          2   -1    0    0  502    0  0.00000000000E+00  0.00000000000E+00  0.15124786539E+04  0.15124786539E+04  0.00000000000E+00 0. -1.
          1   -1    0    0  501    0 -0.00000000000E+00 -0.00000000000E+00 -0.24819892023E+03  0.24819892023E+03  0.00000000000E+00 0. -1.
         25    2    1    2    0    0  0.64024053835E+01 -0.17046158698E+03  0.30869975502E+03  0.37419082208E+03  0.12500035659E+03 0.  0.
          2    1    1    2  501    0 -0.26421739223E+02  0.13744862574E+03 -0.19236315057E+03  0.23789454537E+03  0.00000000000E+00 0. -1.
          1    1    1    2  502    0  0.20019333839E+02  0.33012961242E+02  0.11479431293E+04  0.11485922067E+04  0.00000000000E+00 0. -1.
         22    1    3    3    0    0 -0.52077678921E+02 -0.12575678158E+03  0.22257060119E+03  0.26089178843E+03  0.00000000000E+00 0.  1.
         22    1    3    3    0    0  0.58480084305E+02 -0.44704805401E+02  0.86129153826E+02  0.11329903365E+03  0.00000000000E+00 0.  1.
</event>
<event>
 7    1  0.6520971E-006  0.5158290E+02  0.7818608E-02  0.1505956E+00
          2   -1    0    0  502    0  0.00000000000E+00  0.00000000000E+00  0.11561934350E+04  0.11561934350E+04  0.00000000000E+00 0. -1.
          1   -1    0    0  501    0 -0.00000000000E+00 -0.00000000000E+00 -0.66374127301E+02  0.66374127301E+02  0.00000000000E+00 0. -1.
         25    2    1    2    0    0  0.53871541516E+02  0.48451923431E+02  0.10738155693E+03  0.18001657229E+03  0.12500174263E+03 0.  0.
          2    1    1    2  501    0 -0.22750403568E+02 -0.43594971005E+02 -0.95250725672E+01  0.50088215848E+02  0.00000000000E+00 0. -1.
          1    1    1    2  502    0 -0.31121137948E+02 -0.48569524259E+01  0.99196282333E+03  0.99246277415E+03  0.00000000000E+00 0. -1.
         22    1    3    3    0    0  0.37611376639E+02 -0.10932212973E+02  0.11162806938E+03  0.11830027390E+03  0.00000000000E+00 0. -1.
         22    1    3    3    0    0  0.16260164877E+02  0.59384136404E+02 -0.42465124490E+01  0.61716298384E+02  0.00000000000E+00 0. -1.
</event>
<event>
 7    1  0.6520971E-006  0.1085732E+03  0.7818608E-02  0.1336686E+00
          2   -1    0    0  502    0  0.00000000000E+00  0.00000000000E+00  0.16780489904E+04  0.16780489904E+04  0.00000000000E+00 0. -1.
          1   -1    0    0  501    0 -0.00000000000E+00 -0.00000000000E+00 -0.43989356606E+03  0.43989356606E+03  0.00000000000E+00 0. -1.
         25    2    1    2    0    0  0.20075685709E+02  0.12559030378E+03  0.14502850407E+03  0.22985686250E+03  0.12499981074E+03 0.  0.
          2    1    1    2  501    0 -0.61470576379E+02 -0.89173038309E+02 -0.38957947447E+03  0.40435458381E+03  0.00000000000E+00 0. -1.
          1    1    1    2  502    0  0.41394890670E+02 -0.36417265468E+02  0.14827063947E+04  0.14837311101E+04  0.00000000000E+00 0. -1.
         22    1    3    3    0    0 -0.86895927743E+01  0.46398453751E+02  0.13737091650E+03  0.14525527265E+03  0.00000000000E+00 0.  1.
         22    1    3    3    0    0  0.28765278483E+02  0.79191850026E+02  0.76575875657E+01  0.84601589844E+02  0.00000000000E+00 0.  1.
</event>
<event>
 7    1  0.6520971E-006  0.7271892E+02  0.7818608E-02  0.1509264E+00
          2   -1    0    0  502    0  0.00000000000E+00  0.00000000000E+00  0.26631473708E+03  0.26631473708E+03  0.00000000000E+00 0. -1.
          1   -1    0    0  501    0 -0.00000000000E+00 -0.00000000000E+00 -0.32544988735E+03  0.32544988735E+03  0.00000000000E+00 0. -1.
         25    2    1    2    0    0 -0.30661640718E+02  0.82172457827E+02 -0.14153349119E+03  0.20820536971E+03  0.12500119124E+03 0.  0.
          2    1    1    2  501    0  0.18968700642E+02 -0.10836469769E+02 -0.14413016092E+03  0.14577634914E+03  0.00000000000E+00 0. -1.
          1    1    1    2  502    0  0.11692940076E+02 -0.71335988058E+02  0.22652850184E+03  0.23778290558E+03  0.00000000000E+00 0. -1.
         22    1    3    3    0    0  0.27507448166E+02  0.45741172037E+02 -0.28314408474E+01  0.53450272040E+02  0.00000000000E+00 0.  1.
         22    1    3    3    0    0 -0.58169088883E+02  0.36431285790E+02 -0.13870205034E+03  0.15475509767E+03  0.00000000000E+00 0.  1.
</event>
<event>
 7    1  0.6520971E-006  0.4439643E+02  0.7818608E-02  0.1509848E+00
          2   -1    0    0  502    0  0.00000000000E+00  0.00000000000E+00  0.26866278258E+02  0.26866278258E+02  0.00000000000E+00 0. -1.
          1   -1    0    0  501    0 -0.00000000000E+00 -0.00000000000E+00 -0.12684315832E+04  0.12684315832E+04  0.00000000000E+00 0. -1.
         25    2    1    2    0    0  0.39508018887E+02 -0.26998996927E+02 -0.22381593752E+03  0.26078156474E+03  0.12499448478E+03 0.  0.
          2    1    1    2  501    0  0.62366997454E+01  0.35090876929E+02 -0.95880100513E+03  0.95946320070E+03  0.00000000000E+00 0. -1.
          1    1    1    2  502    0 -0.45744718633E+02 -0.80918800022E+01 -0.58948362277E+02  0.75053096004E+02  0.00000000000E+00 0. -1.
         22    1    3    3    0    0  0.65978246138E+02 -0.55926342790E+02 -0.19092539029E+03  0.20960293281E+03  0.00000000000E+00 0. -1.
         22    1    3    3    0    0 -0.26470227250E+02  0.28927345863E+02 -0.32890547228E+02  0.51178631931E+02  0.00000000000E+00 0. -1.
</event>
<event>
 7    1  0.6520971E-006  0.1849872E+03  0.7818608E-02  0.1293819E+00
          2   -1    0    0  502    0  0.00000000000E+00  0.00000000000E+00  0.93182415300E+03  0.93182415300E+03  0.00000000000E+00 0. -1.
          1   -1    0    0  501    0 -0.00000000000E+00 -0.00000000000E+00 -0.13203191159E+04  0.13203191159E+04  0.00000000000E+00 0. -1.
         25    2    1    2    0    0  0.20682149650E+03  0.76607071985E+02  0.26277904178E+03  0.36513202361E+03  0.12499917992E+03 0.  0.
          2    1    1    2  501    0 -0.18054688250E+03 -0.36916556791E+02 -0.12615214007E+04  0.12749102923E+04  0.00000000000E+00 0. -1.
          1    1    1    2  502    0 -0.26274613998E+02 -0.39690515195E+02  0.61024739602E+03  0.61210095301E+03  0.00000000000E+00 0. -1.
         22    1    3    3    0    0  0.15236891107E+03 -0.79331348890E+01  0.14855309217E+03  0.21294891614E+03  0.00000000000E+00 0.  1.
         22    1    3    3    0    0  0.54452585424E+02  0.84540206875E+02  0.11422594961E+03  0.15218310748E+03  0.00000000000E+00 0.  1.
</event>
<event>
 7    1  0.6520971E-006  0.1066088E+03  0.7818608E-02  0.1316639E+00
          2   -1    0    0  502    0  0.00000000000E+00  0.00000000000E+00  0.14557579660E+04  0.14557579660E+04  0.00000000000E+00 0. -1.
          1   -1    0    0  501    0 -0.00000000000E+00 -0.00000000000E+00 -0.10215010023E+04  0.10215010023E+04  0.00000000000E+00 0. -1.
         25    2    1    2    0    0  0.90805478301E+02  0.81381357081E+02  0.15829581675E+03  0.23569241501E+03  0.12499915489E+03 0.  0.
          2    1    1    2  501    0 -0.63379201899E+02  0.21850190728E+02 -0.97938884073E+03  0.98168062802E+03  0.00000000000E+00 0. -1.
          1    1    1    2  502    0 -0.27426276402E+02 -0.10323154781E+03  0.12553499877E+04  0.12598859252E+04  0.00000000000E+00 0. -1.
         22    1    3    3    0    0  0.64148373429E+02  0.96831777129E+02  0.16723150178E+03  0.20361184166E+03  0.00000000000E+00 0.  1.
         22    1    3    3    0    0  0.26657104871E+02 -0.15450420049E+02 -0.89356850301E+01  0.32080573355E+02  0.00000000000E+00 0.  1.
</event>
<event>
 7    1  0.6520971E-006  0.1213382E+03  0.7818608E-02  0.1354569E+00
          2   -1    0    0  502    0  0.00000000000E+00  0.00000000000E+00  0.10753059662E+04  0.10753059662E+04  0.00000000000E+00 0. -1.
          1   -1    0    0  501    0 -0.00000000000E+00 -0.00000000000E+00 -0.39958934025E+02  0.39958934025E+02  0.00000000000E+00 0. -1.
         25    2    1    2    0    0 -0.29399121068E+02 -0.96656840542E+02  0.63162999702E+03  0.65175799655E+03  0.12500071912E+03 0.  0.
          2    1    1    2  501    0 -0.43909897919E+00  0.12665328498E+03  0.11302653931E+03  0.16975348595E+03  0.00000000000E+00 0. -1.
          1    1    1    2  502    0  0.29838220047E+02 -0.29996444438E+02  0.29069049584E+03  0.29375341772E+03  0.00000000000E+00 0. -1.
         22    1    3    3    0    0 -0.36797309638E+02  0.12456835702E+01  0.51091289449E+02  0.62975499853E+02  0.00000000000E+00 0. -1.
         22    1    3    3    0    0  0.73981885698E+01 -0.97902524112E+02  0.58053870757E+03  0.58878249669E+03  0.00000000000E+00 0. -1.
</event>
<event>
 7    1  0.6520971E-006  0.5749744E+02  0.7818608E-02  0.1495334E+00
          2   -1    0    0  502    0  0.00000000000E+00  0.00000000000E+00  0.49539004384E+03  0.49539004384E+03  0.00000000000E+00 0. -1.
          1   -1    0    0  501    0 -0.00000000000E+00 -0.00000000000E+00 -0.17622978093E+03  0.17622978093E+03  0.00000000000E+00 0. -1.
         25    2    1    2    0    0  0.57198307471E+02 -0.21078512508E+01  0.11818771217E+03  0.18129846779E+03  0.12499883880E+03 0.  0.
          2    1    1    2  501    0 -0.61151192289E+01  0.29773929161E+02 -0.14059786032E+03  0.14384588930E+03  0.00000000000E+00 0. -1.
          1    1    1    2  502    0 -0.51083188242E+02 -0.27666077910E+02  0.34157041107E+03  0.34647546768E+03  0.00000000000E+00 0. -1.
         22    1    3    3    0    0  0.70997450003E+01  0.37392183108E+01  0.12938361922E+03  0.12963220686E+03  0.00000000000E+00 0.  1.
         22    1    3    3    0    0  0.50098562471E+02 -0.58470695616E+01 -0.11195907052E+02  0.51666260933E+02  0.00000000000E+00 0.  1.
</event>
<event>
 7    1  0.6520971E-006  0.1120663E+03  0.7818608E-02  0.1350959E+00
          2   -1    0    0  502    0  0.00000000000E+00  0.00000000000E+00  0.67653539760E+03  0.67653539760E+03  0.00000000000E+00 0. -1.
          1   -1    0    0  501    0 -0.00000000000E+00 -0.00000000000E+00 -0.24541633173E+03  0.24541633173E+03  0.00000000000E+00 0. -1.
         25    2    1    2    0    0  0.30985377670E+02  0.10618729425E+03 -0.17646480266E+02  0.16784521865E+03  0.12499913627E+03 0.  0.
          2    1    1    2  501    0 -0.74305208383E+02 -0.87352965539E+02 -0.13003545634E+03  0.17338115378E+03  0.00000000000E+00 0. -1.
          1    1    1    2  502    0  0.43319830713E+02 -0.18834328714E+02  0.57880100247E+03  0.58072535689E+03  0.00000000000E+00 0. -1.
         22    1    3    3    0    0  0.25916019851E+02  0.17748856437E+02 -0.61457761080E+02  0.69019695643E+02  0.00000000000E+00 0. -1.
         22    1    3    3    0    0  0.50693578190E+01  0.88438437816E+02  0.43811280814E+02  0.98825523012E+02  0.00000000000E+00 0. -1.
</event>
<event>
 7    1  0.6520971E-006  0.1046986E+03  0.7818608E-02  0.1436108E+00
          2   -1    0    0  502    0  0.00000000000E+00  0.00000000000E+00  0.11342267317E+04  0.11342267317E+04  0.00000000000E+00 0. -1.
          1   -1    0    0  501    0 -0.00000000000E+00 -0.00000000000E+00 -0.94068087425E+03  0.94068087425E+03  0.00000000000E+00 0. -1.
         25    2    1    2    0    0 -0.73809814539E+02  0.46589457399E+02  0.47900290450E+03  0.50268239070E+03  0.12500934823E+03 0.  0.
          2    1    1    2  501    0 -0.24759804361E+02  0.64339826326E+01 -0.92379491951E+03  0.92414906664E+03  0.00000000000E+00 0. -1.
          1    1    1    2  502    0  0.98569618901E+02 -0.53023440031E+02  0.63833787248E+03  0.64807614862E+03  0.00000000000E+00 0. -1.
         22    1    3    3    0    0  0.27151023356E+02 -0.16421231168E+02  0.73037809862E+02  0.79632635093E+02  0.00000000000E+00 0.  1.
         22    1    3    3    0    0 -0.10096083790E+03  0.63010688567E+02  0.40596509463E+03  0.42304975561E+03  0.00000000000E+00 0.  1.
</event>
<event>
 7    1  0.6520971E-006  0.6171569E+02  0.7818608E-02  0.1507190E+00
          2   -1    0    0  502    0  0.00000000000E+00  0.00000000000E+00  0.71378479940E+03  0.71378479940E+03  0.00000000000E+00 0. -1.
          1   -1    0    0  501    0 -0.00000000000E+00 -0.00000000000E+00 -0.89986147726E+03  0.89986147726E+03  0.00000000000E+00 0. -1.
         25    2    1    2    0    0 -0.95837132275E+01  0.42253544722E+02 -0.41308379086E+03  0.43375198111E+03  0.12500141296E+03 0.  0.
          2    1    1    2  501    0 -0.24368488296E+02  0.93647028211E+01 -0.47472767262E+03  0.47544493270E+03  0.00000000000E+00 0. -1.
          1    1    1    2  502    0  0.33952201524E+02 -0.51618247543E+02  0.70173478562E+03  0.70444936285E+03  0.00000000000E+00 0. -1.
         22    1    3    3    0    0  0.74644356259E+01  0.78266473872E+02 -0.16844815173E+03  0.18589281469E+03  0.00000000000E+00 0. -1.
         22    1    3    3    0    0 -0.17048148853E+02 -0.36012929151E+02 -0.24463563913E+03  0.24785916642E+03  0.00000000000E+00 0. -1.
</event>
<event>
 7    1  0.6520971E-006  0.7009507E+02  0.7818608E-02  0.1371235E+00
          2   -1    0    0  502    0  0.00000000000E+00  0.00000000000E+00  0.27262981595E+03  0.27262981595E+03  0.00000000000E+00 0. -1.
          1   -1    0    0  501    0 -0.00000000000E+00 -0.00000000000E+00 -0.77151223906E+03  0.77151223906E+03  0.00000000000E+00 0. -1.
         25    2    1    2    0    0 -0.11596343406E+03  0.57460515941E+02 -0.11528882327E+02  0.18029406329E+03  0.12499522070E+03 0.  0.
          2    1    1    2  501    0  0.53949448630E+02 -0.42869169278E+02 -0.66838818902E+03  0.67193085947E+03  0.00000000000E+00 0. -1.
          1    1    1    2  502    0  0.62013985428E+02 -0.14591346663E+02  0.18103464825E+03  0.19191713225E+03  0.00000000000E+00 0. -1.
         22    1    3    3    0    0 -0.93411104515E+02  0.96693025383E+02 -0.46735593008E+01  0.13452515661E+03  0.00000000000E+00 0.  1.
         22    1    3    3    0    0 -0.22552329544E+02 -0.39232509441E+02 -0.68553230259E+01  0.45768906680E+02  0.00000000000E+00 0.  1.
</event>
<event>
 7    1  0.6520971E-006  0.8679576E+02  0.7818608E-02  0.1368069E+00
          2   -1    0    0  502    0  0.00000000000E+00  0.00000000000E+00  0.29029910326E+03  0.29029910326E+03  0.00000000000E+00 0. -1.
          1   -1    0    0  501    0 -0.00000000000E+00 -0.00000000000E+00 -0.11966998935E+03  0.11966998935E+03  0.00000000000E+00 0. -1.
         25    2    1    2    0    0 -0.45353969136E+02  0.18784528274E+00  0.15156135223E+03  0.20163681184E+03  0.12501816907E+03 0.  0.
          2    1    1    2  501    0  0.87166533203E+02 -0.32456829389E+02 -0.61852047878E+02  0.11170105689E+03  0.00000000000E+00 0. -1.
          1    1    1    2  502    0 -0.41812564067E+02  0.32268984106E+02  0.80919809554E+02  0.96631223874E+02  0.00000000000E+00 0. -1.
         22    1    3    3    0    0 -0.66366053929E+02  0.45102408847E+02  0.71564626321E+02  0.10751825956E+03  0.00000000000E+00 0.  1.
         22    1    3    3    0    0  0.21012084793E+02 -0.44914563564E+02  0.79996725909E+02  0.94118552282E+02  0.00000000000E+00 0.  1.
</event>
<event>
 7    1  0.6520971E-006  0.1124044E+03  0.7818608E-02  0.1388599E+00
          2   -1    0    0  502    0  0.00000000000E+00  0.00000000000E+00  0.23771236565E+04  0.23771236565E+04  0.00000000000E+00 0. -1.
          1   -1    0    0  501    0 -0.00000000000E+00 -0.00000000000E+00 -0.49099851282E+02  0.49099851282E+02  0.00000000000E+00 0. -1.
         25    2    1    2    0    0 -0.59933167710E+02 -0.11036676741E+03  0.20849208037E+03  0.27361649876E+03  0.12499693147E+03 0.  0.
          2    1    1    2  501    0  0.34456813996E+02  0.13041362193E+01  0.46868212791E+01  0.34798550196E+02  0.00000000000E+00 0. -1.
          1    1    1    2  502    0  0.25476353713E+02  0.10906263119E+03  0.21148449035E+04  0.21178084588E+04  0.00000000000E+00 0. -1.
         22    1    3    3    0    0 -0.29278877356E+02 -0.26581938633E+02 -0.72050973803E+01  0.40196586285E+02  0.00000000000E+00 0.  1.
         22    1    3    3    0    0 -0.30654290354E+02 -0.83784828776E+02  0.21569717776E+03  0.23341991248E+03  0.00000000000E+00 0.  1.
</event>
<event>
 7    1  0.6520971E-006  0.1817099E+03  0.7818608E-02  0.1212597E+00
          2   -1    0    0  502    0  0.00000000000E+00  0.00000000000E+00  0.17360625508E+04  0.17360625508E+04  0.00000000000E+00 0. -1.
          1   -1    0    0  501    0 -0.00000000000E+00 -0.00000000000E+00 -0.68912964789E+02  0.68912964789E+02  0.00000000000E+00 0. -1.
         25    2    1    2    0    0  0.14966655053E+03 -0.86486479905E+02  0.64549501097E+03  0.67983282817E+03  0.12501550909E+03 0.  0.
          2    1    1    2  501    0  0.47692273106E+02  0.97686163692E+02  0.28326905156E+02  0.11233678403E+03  0.00000000000E+00 0. -1.
          1    1    1    2  502    0 -0.19735882364E+03 -0.11199683787E+02  0.99332766988E+03  0.10128059034E+04  0.00000000000E+00 0. -1.
         22    1    3    3    0    0  0.56632984472E+02  0.29941942401E+02  0.17973085434E+03  0.19080617089E+03  0.00000000000E+00 0. -1.
         22    1    3    3    0    0  0.93033566059E+02 -0.11642842231E+03  0.46576415663E+03  0.48902665729E+03  0.00000000000E+00 0. -1.
</event>
<event>
 7    1  0.6520971E-006  0.1061906E+03  0.7818608E-02  0.1288002E+00
          2   -1    0    0  502    0  0.00000000000E+00  0.00000000000E+00  0.10288882489E+04  0.10288882489E+04  0.00000000000E+00 0. -1.
          1   -1    0    0  501    0 -0.00000000000E+00 -0.00000000000E+00 -0.87779739547E+02  0.87779739547E+02  0.00000000000E+00 0. -1.
         25    2    1    2    0    0 -0.74030518503E+02  0.14431526277E+03  0.37905955690E+03  0.43083541255E+03  0.12500236913E+03 0.  0.
          2    1    1    2  501    0 -0.75258566867E+01 -0.87230735773E+02 -0.24482289287E+02  0.90913267849E+02  0.00000000000E+00 0. -1.
          1    1    1    2  502    0  0.81556375190E+02 -0.57084526993E+02  0.58653124170E+03  0.59491930802E+03  0.00000000000E+00 0. -1.
         22    1    3    3    0    0 -0.10391051552E+03  0.13925971579E+03  0.30898914865E+03  0.35449253541E+03  0.00000000000E+00 0.  1.
         22    1    3    3    0    0  0.29879997016E+02  0.50555469738E+01  0.70070408251E+02  0.76342877135E+02  0.00000000000E+00 0.  1.
</event>
<event>
 7    1  0.6520971E-006  0.8281095E+02  0.7818608E-02  0.1341980E+00
          2   -1    0    0  502    0  0.00000000000E+00  0.00000000000E+00  0.44534862068E+03  0.44534862068E+03  0.00000000000E+00 0. -1.
          1   -1    0    0  501    0 -0.00000000000E+00 -0.00000000000E+00 -0.11665836369E+03  0.11665836369E+03  0.00000000000E+00 0. -1.
         25    2    1    2    0    0 -0.85990406575E+02 -0.32368148651E+02  0.21999488744E+03  0.26919719807E+03  0.12500933516E+03 0.  0.
          2    1    1    2  501    0  0.67618688770E+01  0.68710509556E+02 -0.67296826943E+02  0.96414313827E+02  0.00000000000E+00 0. -1.
          1    1    1    2  502    0  0.79228537698E+02 -0.36342360905E+02  0.17599219650E+03  0.19639547248E+03  0.00000000000E+00 0. -1.
         22    1    3    3    0    0 -0.67279938287E+02 -0.72234150672E+02  0.96337733909E+02  0.13793230801E+03  0.00000000000E+00 0.  1.
         22    1    3    3    0    0 -0.18710468288E+02  0.39866002021E+02  0.12365715353E+03  0.13126489005E+03  0.00000000000E+00 0.  1.
</event>
<event>
 7    1  0.6520971E-006  0.7140180E+02  0.7818608E-02  0.1390483E+00
          2   -1    0    0  502    0  0.00000000000E+00  0.00000000000E+00  0.61898208675E+02  0.61898208675E+02  0.00000000000E+00 0. -1.
          1   -1    0    0  501    0 -0.00000000000E+00 -0.00000000000E+00 -0.29919718768E+04  0.29919718768E+04  0.00000000000E+00 0. -1.
         25    2    1    2    0    0 -0.16247415399E+02  0.10738195314E+03 -0.16223687535E+04  0.16307957312E+04  0.12497792787E+03 0.  0.
          2    1    1    2  501    0 -0.14753546559E+02 -0.63820733056E+02 -0.13520349728E+04  0.13536208187E+04  0.00000000000E+00 0. -1.
          1    1    1    2  502    0  0.31000961957E+02 -0.43561220079E+02  0.44330058177E+02  0.69453535511E+02  0.00000000000E+00 0. -1.
         22    1    3    3    0    0  0.50212398918E+01  0.69755057662E+02 -0.31317512850E+03  0.32088883126E+03  0.00000000000E+00 0.  1.
         22    1    3    3    0    0 -0.21268655291E+02  0.37626895473E+02 -0.13091936250E+04  0.13099069000E+04  0.00000000000E+00 0.  1.
</event>
<event>
 7    1  0.6520971E-006  0.1761507E+03  0.7818608E-02  0.1222493E+00
          2   -1    0    0  502    0  0.00000000000E+00  0.00000000000E+00  0.23740852248E+04  0.23740852248E+04  0.00000000000E+00 0. -1.
          1   -1    0    0  501    0 -0.00000000000E+00 -0.00000000000E+00 -0.52129317113E+03  0.52129317113E+03  0.00000000000E+00 0. -1.
         25    2    1    2    0    0  0.22398879272E+03  0.13746551624E+03  0.73911323969E+02  0.30027267553E+03  0.12503218964E+03 0.  0.
          2    1    1    2  501    0 -0.15642407547E+03 -0.62354515981E+02 -0.38951561399E+03  0.42435714981E+03  0.00000000000E+00 0. -1.
          1    1    1    2  502    0 -0.67564717242E+02 -0.75111000258E+02  0.21683963437E+04  0.21707485706E+04  0.00000000000E+00 0. -1.
         22    1    3    3    0    0  0.19948930019E+03  0.12446567167E+03  0.10594630468E+03  0.25789979409E+03  0.00000000000E+00 0.  1.
         22    1    3    3    0    0  0.24499492526E+02  0.12999844571E+02 -0.32034980714E+02  0.42372881449E+02  0.00000000000E+00 0.  1.
</event>
<event>
 7    1  0.6520971E-006  0.5750106E+02  0.7818608E-02  0.1461712E+00
          2   -1    0    0  502    0  0.00000000000E+00  0.00000000000E+00  0.25861971642E+04  0.25861971642E+04  0.00000000000E+00 0. -1.
          1   -1    0    0  501    0 -0.00000000000E+00 -0.00000000000E+00 -0.91597102244E+01  0.91597102244E+01  0.00000000000E+00 0. -1.
         25    2    1    2    0    0  0.25787719214E+02 -0.17768689641E+02  0.15739313505E+04  0.15791980561E+04  0.12500348559E+03 0.  0.
          2    1    1    2  501    0 -0.60465294227E+02  0.90488854597E+00  0.14392743010E+03  0.15611526435E+03  0.00000000000E+00 0. -1.
          1    1    1    2  502    0  0.34677575013E+02  0.16863801095E+02  0.85917867343E+03  0.86004355405E+03  0.00000000000E+00 0. -1.
         22    1    3    3    0    0  0.39213666877E+02 -0.75077876422E+01  0.15462583456E+04  0.15467737229E+04  0.00000000000E+00 0.  1.
         22    1    3    3    0    0 -0.13425947663E+02 -0.10260901999E+02  0.27673004888E+02  0.32424333146E+02  0.00000000000E+00 0.  1.
</event>
<event>
 7    1  0.6520971E-006  0.4807270E+02  0.7818608E-02  0.1456190E+00
          2   -1    0    0  502    0  0.00000000000E+00  0.00000000000E+00  0.16256989337E+04  0.16256989337E+04  0.00000000000E+00 0. -1.
          1   -1    0    0  501    0 -0.00000000000E+00 -0.00000000000E+00 -0.12962872477E+03  0.12962872477E+03  0.00000000000E+00 0. -1.
         25    2    1    2    0    0 -0.12035046847E+02  0.49685282758E+02  0.12441474318E+04  0.12514558229E+04  0.12500150042E+03 0.  0.
          2    1    1    2  501    0 -0.38261872382E+02 -0.29006412184E+02 -0.11934557848E+03  0.12864178920E+03  0.00000000000E+00 0. -1.
          1    1    1    2  502    0  0.50296919230E+02 -0.20678870575E+02  0.37126835564E+03  0.37523004633E+03  0.00000000000E+00 0. -1.
         22    1    3    3    0    0 -0.65035124167E+02  0.44205570207E+02  0.60455247630E+03  0.60964530377E+03  0.00000000000E+00 0.  1.
         22    1    3    3    0    0  0.53000077320E+02  0.54797125514E+01  0.63959495547E+03  0.64181051917E+03  0.00000000000E+00 0.  1.
</event>
<event>
 7    1  0.6520971E-006  0.8868370E+02  0.7818608E-02  0.1419618E+00
          2   -1    0    0  502    0  0.00000000000E+00  0.00000000000E+00  0.52563123129E+03  0.52563123129E+03  0.00000000000E+00 0. -1.
          1   -1    0    0  501    0 -0.00000000000E+00 -0.00000000000E+00 -0.39197978014E+02  0.39197978014E+02  0.00000000000E+00 0. -1.
         25    2    1    2    0    0 -0.26335885970E+02  0.88913098528E+02  0.24611120584E+03  0.29119321761E+03  0.12499458535E+03 0.  0.
          2    1    1    2  501    0  0.34234595358E+02 -0.35017277109E+00  0.30893729479E+02  0.46114560189E+02  0.00000000000E+00 0. -1.
          1    1    1    2  502    0 -0.78987093881E+01 -0.88562925757E+02  0.20942831796E+03  0.22752143150E+03  0.00000000000E+00 0. -1.
         22    1    3    3    0    0 -0.22095631816E+02 -0.29595838258E+02  0.53726250004E+02  0.65196936485E+02  0.00000000000E+00 0. -1.
         22    1    3    3    0    0 -0.42402541536E+01  0.11850893679E+03  0.19238495583E+03  0.22599628113E+03  0.00000000000E+00 0. -1.
</event>
<event>
 7    1  0.6520971E-006  0.3748077E+03  0.7818608E-02  0.1236614E+00
          2   -1    0    0  502    0  0.00000000000E+00  0.00000000000E+00  0.32837941770E+03  0.32837941770E+03  0.00000000000E+00 0. -1.
          1   -1    0    0  501    0 -0.00000000000E+00 -0.00000000000E+00 -0.71080647282E+03  0.71080647282E+03  0.00000000000E+00 0. -1.
         25    2    1    2    0    0 -0.33307396736E+03 -0.20945572933E+03 -0.23182966611E+03  0.47347587376E+03  0.12499775464E+03 0.  0.
          2    1    1    2  501    0  0.39712224503E+02 -0.10334518605E+02 -0.19243965492E+03  0.19676606373E+03  0.00000000000E+00 0. -1.
          1    1    1    2  502    0  0.29336174286E+03  0.21979024793E+03  0.41842265910E+02  0.36894395303E+03  0.00000000000E+00 0. -1.
         22    1    3    3    0    0 -0.28881196341E+03 -0.16751606356E+03 -0.13734278964E+03  0.36102219271E+03  0.00000000000E+00 0.  1.
         22    1    3    3    0    0 -0.44262003950E+02 -0.41939665763E+02 -0.94486876468E+02  0.11245368105E+03  0.00000000000E+00 0.  1.
</event>
<event>
 7    1  0.6520971E-006  0.3831397E+02  0.7818608E-02  0.1583928E+00
          2   -1    0    0  502    0  0.00000000000E+00  0.00000000000E+00  0.26483481651E+04  0.26483481651E+04  0.00000000000E+00 0. -1.
          1   -1    0    0  501    0 -0.00000000000E+00 -0.00000000000E+00 -0.16283743199E+03  0.16283743199E+03  0.00000000000E+00 0. -1.
         25    2    1    2    0    0  0.89417320214E+01  0.32380998922E+02  0.96206894524E+02  0.16127464437E+03  0.12500104279E+03 0.  0.
          2    1    1    2  501    0  0.23037752230E+02 -0.11174147333E+02 -0.12889814413E+03  0.13141663196E+03  0.00000000000E+00 0. -1.
          1    1    1    2  502    0 -0.31979484252E+02 -0.21206851589E+02  0.25182019828E+04  0.25184943208E+04  0.00000000000E+00 0. -1.
         22    1    3    3    0    0 -0.57204500191E+02  0.18299848440E+02  0.58512065662E+02  0.83850468831E+02  0.00000000000E+00 0. -1.
         22    1    3    3    0    0  0.66146232212E+02  0.14081150482E+02  0.37694828862E+02  0.77424175538E+02  0.00000000000E+00 0. -1.
</event>
<event>
 7    1  0.6520971E-006  0.1048120E+03  0.7818608E-02  0.1332003E+00
          2   -1    0    0  502    0  0.00000000000E+00  0.00000000000E+00  0.31793352524E+03  0.31793352524E+03  0.00000000000E+00 0. -1.
          1   -1    0    0  501    0 -0.00000000000E+00 -0.00000000000E+00 -0.49451009774E+03  0.49451009774E+03  0.00000000000E+00 0. -1.
         25    2    1    2    0    0  0.12843923010E+03 -0.22453258397E+02 -0.34975035576E+02  0.18398036646E+03  0.12499894995E+03 0.  0.
          2    1    1    2  501    0 -0.29244899998E+02  0.51814378055E+02 -0.37156739231E+03  0.37630083840E+03  0.00000000000E+00 0. -1.
          1    1    1    2  502    0 -0.99194330102E+02 -0.29361119657E+02  0.22996585539E+03  0.25216241813E+03  0.00000000000E+00 0. -1.
         22    1    3    3    0    0  0.11748776474E+03 -0.58904645944E+02 -0.53193341512E+02  0.14178386283E+03  0.00000000000E+00 0. -1.
         22    1    3    3    0    0  0.10951465364E+02  0.36451387546E+02  0.18218305936E+02  0.42196503633E+02  0.00000000000E+00 0. -1.
</event>
<event>
 7    1  0.6520971E-006  0.2062267E+03  0.7818608E-02  0.1193978E+00
          2   -1    0    0  502    0  0.00000000000E+00  0.00000000000E+00  0.95936629099E+03  0.95936629099E+03  0.00000000000E+00 0. -1.
          1   -1    0    0  501    0 -0.00000000000E+00 -0.00000000000E+00 -0.15808850026E+04  0.15808850026E+04  0.00000000000E+00 0. -1.
         25    2    1    2    0    0  0.12443761001E+03 -0.19038740564E+03  0.23265135168E+03  0.34854465961E+03  0.12499858114E+03 0.  0.
          2    1    1    2  501    0 -0.84079757372E+01  0.20630073652E+03 -0.15107345725E+04  0.15247785533E+04  0.00000000000E+00 0. -1.
          1    1    1    2  502    0 -0.11602963427E+03 -0.15913330876E+02  0.65656450920E+03  0.66692808073E+03  0.00000000000E+00 0. -1.
         22    1    3    3    0    0  0.71513997541E+00 -0.11424417253E+03  0.10093069402E+03  0.15244424350E+03  0.00000000000E+00 0.  1.
         22    1    3    3    0    0  0.12372247003E+03 -0.76143233116E+02  0.13172065766E+03  0.19610041610E+03  0.00000000000E+00 0.  1.
</event>
<event>
 7    1  0.6520971E-006  0.8685307E+02  0.7818608E-02  0.1386639E+00
          2   -1    0    0  502    0  0.00000000000E+00  0.00000000000E+00  0.38445633437E+04  0.38445633437E+04  0.00000000000E+00 0. -1.
          1   -1    0    0  501    0 -0.00000000000E+00 -0.00000000000E+00 -0.12124557472E+02  0.12124557472E+02  0.00000000000E+00 0. -1.
         25    2    1    2    0    0  0.46237543825E+02 -0.20226929071E+02  0.20978505556E+04  0.21021769093E+04  0.12499506067E+03 0.  0.
          2    1    1    2  501    0 -0.68272864066E+02  0.59848087149E+02  0.20446359029E+03  0.22371485704E+03  0.00000000000E+00 0. -1.
          1    1    1    2  502    0  0.22035320241E+02 -0.39621158078E+02  0.15301246404E+04  0.15307961349E+04  0.00000000000E+00 0. -1.
         22    1    3    3    0    0 -0.26567306074E+01  0.40974242248E+02  0.32311882383E+03  0.32571724096E+03  0.00000000000E+00 0.  1.
         22    1    3    3    0    0  0.48894274432E+02 -0.61201171319E+02  0.17747317318E+04  0.17764596683E+04  0.00000000000E+00 0.  1.
</event>
<event>
 7    1  0.8127866E-006  0.7035102E+02  0.7818608E-02  0.1445214E+00
          2   -1    0    0  502    0  0.00000000000E+00  0.00000000000E+00  0.88601603355E+03  0.88601603355E+03  0.00000000000E+00 0. -1.
          1   -1    0    0  501    0 -0.00000000000E+00 -0.00000000000E+00 -0.97624128855E+03  0.97624128855E+03  0.00000000000E+00 0. -1.
         25    2    1    2    0    0  0.85562758632E+02 -0.54344274708E+01 -0.20247559414E+03  0.25292605608E+03  0.12499881981E+03 0.  0.
          2    1    1    2  501    0 -0.23181192883E+02 -0.26978410196E+02 -0.74668106539E+03  0.74752780265E+03  0.00000000000E+00 0. -1.
          1    1    1    2  502    0 -0.62381565749E+02  0.32412837667E+02  0.85893140454E+03  0.86180346338E+03  0.00000000000E+00 0. -1.
         22    1    3    3    0    0  0.40566612051E+02 -0.58654169652E+02 -0.14863677578E+03  0.16486010052E+03  0.00000000000E+00 0.  1.
         22    1    3    3    0    0  0.44996146581E+02  0.53219742181E+02 -0.53838818365E+02  0.88065955555E+02  0.00000000000E+00 0.  1.
</event>
<event>
 7    1  0.6520971E-006  0.1204002E+03  0.7818608E-02  0.1250445E+00
          2   -1    0    0  502    0  0.00000000000E+00  0.00000000000E+00  0.26258410205E+04  0.26258410205E+04  0.00000000000E+00 0. -1.
          1   -1    0    0  501    0 -0.00000000000E+00 -0.00000000000E+00 -0.90676751423E+02  0.90676751423E+02  0.00000000000E+00 0. -1.
         25    2    1    2    0    0 -0.16747493334E+02  0.39142914229E+01  0.10389728381E+04  0.10466049744E+04  0.12498645472E+03 0.  0.
          2    1    1    2  501    0  0.11751135079E+03  0.42866575599E+02 -0.38754539547E+02  0.13095180489E+03  0.00000000000E+00 0. -1.
          1    1    1    2  502    0 -0.10076385746E+03 -0.46780867022E+02  0.15349459705E+04  0.15389609926E+04  0.00000000000E+00 0. -1.
         22    1    3    3    0    0  0.86238978621E+01 -0.52016628123E+01  0.99482826263E+03  0.99487923942E+03  0.00000000000E+00 0.  1.
         22    1    3    3    0    0 -0.25371391196E+02  0.91159542352E+01  0.44144575489E+02  0.51725734968E+02  0.00000000000E+00 0.  1.
</event>
<event>
 7    1  0.6520971E-006  0.7923047E+02  0.7818608E-02  0.1341300E+00
          2   -1    0    0  502    0  0.00000000000E+00  0.00000000000E+00  0.10018470156E+04  0.10018470156E+04  0.00000000000E+00 0. -1.
          1   -1    0    0  501    0 -0.00000000000E+00 -0.00000000000E+00 -0.31599819532E+03  0.31599819532E+03  0.00000000000E+00 0. -1.
         25    2    1    2    0    0  0.73617524935E+02  0.67561988978E+02  0.51642205012E+03  0.54064882996E+03  0.12500104464E+03 0.  0.
          2    1    1    2  501    0 -0.71528015926E+02  0.12357785899E+02 -0.29609344242E+03  0.30486111359E+03  0.00000000000E+00 0. -1.
          1    1    1    2  502    0 -0.20895090095E+01 -0.79919774877E+02  0.46552021256E+03  0.47233526733E+03  0.00000000000E+00 0. -1.
         22    1    3    3    0    0 -0.87381481380E+01 -0.30640033865E+02  0.10424287369E+03  0.10900341106E+03  0.00000000000E+00 0. -1.
         22    1    3    3    0    0  0.82355673073E+02  0.98202022843E+02  0.41217917643E+03  0.43164541890E+03  0.00000000000E+00 0. -1.
</event>
<event>
 7    1  0.6520971E-006  0.4425120E+02  0.7818608E-02  0.1490460E+00
          2   -1    0    0  502    0  0.00000000000E+00  0.00000000000E+00  0.12859819058E+04  0.12859819058E+04  0.00000000000E+00 0. -1.
          1   -1    0    0  501    0 -0.00000000000E+00 -0.00000000000E+00 -0.24191382023E+03  0.24191382023E+03  0.00000000000E+00 0. -1.
         25    2    1    2    0    0 -0.20360163352E+02  0.31363382853E+02  0.20592322929E+03  0.24378445622E+03  0.12501314610E+03 0.  0.
          2    1    1    2  501    0  0.39835804107E+02  0.90566983548E+01 -0.22063297074E+03  0.22438320537E+03  0.00000000000E+00 0. -1.
          1    1    1    2  502    0 -0.19475640755E+02 -0.40420081208E+02  0.10587778270E+04  0.10597280644E+04  0.00000000000E+00 0. -1.
         22    1    3    3    0    0 -0.51458207070E+02  0.42060727075E+02  0.19949663337E+03  0.21027591057E+03  0.00000000000E+00 0. -1.
         22    1    3    3    0    0  0.31098043719E+02 -0.10697344222E+02  0.64265959127E+01  0.33508545649E+02  0.00000000000E+00 0. -1.
</event>
<event>
 7    1  0.6520971E-006  0.7243622E+02  0.7818608E-02  0.1427965E+00
          2   -1    0    0  502    0  0.00000000000E+00  0.00000000000E+00  0.17308620424E+04  0.17308620424E+04  0.00000000000E+00 0. -1.
          1   -1    0    0  501    0 -0.00000000000E+00 -0.00000000000E+00 -0.35865016201E+03  0.35865016201E+03  0.00000000000E+00 0. -1.
         25    2    1    2    0    0 -0.74244627747E+02  0.81217192673E+02  0.57081237164E+02  0.17604524095E+03  0.12500064836E+03 0.  0.
          2    1    1    2  501    0  0.44702687514E+02 -0.55263379781E+02 -0.29470265075E+03  0.30315346571E+03  0.00000000000E+00 0. -1.
          1    1    1    2  502    0  0.29541940233E+02 -0.25953812892E+02  0.16098332939E+04  0.16103134977E+04  0.00000000000E+00 0. -1.
         22    1    3    3    0    0 -0.62337520244E+02 -0.16788197116E+02  0.39735073556E+02  0.75806899838E+02  0.00000000000E+00 0.  1.
         22    1    3    3    0    0 -0.11907107503E+02  0.98005389789E+02  0.17346163608E+02  0.10023834111E+03  0.00000000000E+00 0.  1.
</event>
<event>
 7    1  0.6520971E-006  0.1826577E+03  0.7818608E-02  0.1307350E+00
          2   -1    0    0  502    0  0.00000000000E+00  0.00000000000E+00  0.17614402520E+04  0.17614402520E+04  0.00000000000E+00 0. -1.
          1   -1    0    0  501    0 -0.00000000000E+00 -0.00000000000E+00 -0.12878832874E+03  0.12878832874E+03  0.00000000000E+00 0. -1.
         25    2    1    2    0    0 -0.67709899794E+02  0.14773828479E+03  0.71227954455E+03  0.74120092499E+03  0.12500172116E+03 0.  0.
          2    1    1    2  501    0  0.40622304463E+02 -0.18056318086E+03 -0.38643785021E+02  0.18906764933E+03  0.00000000000E+00 0. -1.
          1    1    1    2  502    0  0.27087595331E+02  0.32824896075E+02  0.95901616372E+03  0.95996000641E+03  0.00000000000E+00 0. -1.
         22    1    3    3    0    0 -0.24123828911E+00  0.13664232751E+03  0.47831948563E+03  0.49745423327E+03  0.00000000000E+00 0. -1.
         22    1    3    3    0    0 -0.67468661505E+02  0.11095957279E+02  0.23396005892E+03  0.24374669172E+03  0.00000000000E+00 0. -1.
</event>
<event>
 7    1  0.6520971E-006  0.4422708E+02  0.7818608E-02  0.1577984E+00
          2   -1    0    0  502    0  0.00000000000E+00  0.00000000000E+00  0.17049594917E+03  0.17049594917E+03  0.00000000000E+00 0. -1.
          1   -1    0    0  501    0 -0.00000000000E+00 -0.00000000000E+00 -0.17226052106E+03  0.17226052106E+03  0.00000000000E+00 0. -1.
         25    2    1    2    0    0  0.64714634690E+02 -0.12472179329E+02  0.46717128036E+02  0.14883216083E+03  0.12499993138E+03 0.  0.
          2    1    1    2  501    0 -0.41713773001E+02  0.11843800409E+02 -0.11533762353E+03  0.12321964887E+03  0.00000000000E+00 0. -1.
          1    1    1    2  502    0 -0.23000861689E+02  0.62837891917E+00  0.66855923613E+02  0.70704660530E+02  0.00000000000E+00 0. -1.
         22    1    3    3    0    0  0.99448203886E+02 -0.16971610503E+02  0.15802299196E+02  0.10211607846E+03  0.00000000000E+00 0. -1.
         22    1    3    3    0    0 -0.34733569196E+02  0.44994311747E+01  0.30914828841E+02  0.46716082372E+02  0.00000000000E+00 0. -1.
</event>
<event>
 7    1  0.6520971E-006  0.8854033E+02  0.7818608E-02  0.1342340E+00
          2   -1    0    0  502    0  0.00000000000E+00  0.00000000000E+00  0.13527549996E+04  0.13527549996E+04  0.00000000000E+00 0. -1.
          1   -1    0    0  501    0 -0.00000000000E+00 -0.00000000000E+00 -0.15320814099E+03  0.15320814099E+03  0.00000000000E+00 0. -1.
         25    2    1    2    0    0 -0.11535943883E+03 -0.34620368177E+02  0.49348042654E+03  0.52311505254E+03  0.12498022559E+03 0.  0.
          2    1    1    2  501    0  0.57511944056E+02 -0.28921185135E+02 -0.12857756998E+03  0.14379238561E+03  0.00000000000E+00 0. -1.
          1    1    1    2  502    0  0.57847494776E+02  0.63541553312E+02  0.83464400207E+03  0.83905570247E+03  0.00000000000E+00 0. -1.
         22    1    3    3    0    0 -0.79261736691E+02 -0.36885420585E+02  0.12316945041E+03  0.15104195003E+03  0.00000000000E+00 0. -1.
         22    1    3    3    0    0 -0.36097702141E+02  0.22650524084E+01  0.37031097614E+03  0.37207310251E+03  0.00000000000E+00 0. -1.
</event>
<event>
 7    1  0.6520971E-006  0.1143367E+03  0.7818608E-02  0.1374448E+00
          2   -1    0    0  502    0  0.00000000000E+00  0.00000000000E+00  0.21025443525E+04  0.21025443525E+04  0.00000000000E+00 0. -1.
          1   -1    0    0  501    0 -0.00000000000E+00 -0.00000000000E+00 -0.42120753229E+03  0.42120753229E+03  0.00000000000E+00 0. -1.
         25    2    1    2    0    0  0.14172669436E+03  0.53203757380E+02  0.43075464111E+03  0.47338349836E+03  0.12500111995E+03 0.  0.
          2    1    1    2  501    0 -0.10786542917E+03 -0.35879238910E+02 -0.39158985839E+03  0.40775591693E+03  0.00000000000E+00 0. -1.
          1    1    1    2  502    0 -0.33861265189E+02 -0.17324518470E+02  0.16421720375E+04  0.16426124695E+04  0.00000000000E+00 0. -1.
         22    1    3    3    0    0 -0.19141677686E+02  0.27355171242E+02  0.72273633376E+02  0.79612733276E+02  0.00000000000E+00 0. -1.
         22    1    3    3    0    0  0.16086837205E+03  0.25848586138E+02  0.35848100773E+03  0.39377076508E+03  0.00000000000E+00 0. -1.
</event>
<event>
 7    1  0.6520971E-006  0.1666258E+03  0.7818608E-02  0.1234013E+00
          2   -1    0    0  502    0  0.00000000000E+00  0.00000000000E+00  0.38526696977E+03  0.38526696977E+03  0.00000000000E+00 0. -1.
          1   -1    0    0  501    0 -0.00000000000E+00 -0.00000000000E+00 -0.75015914211E+03  0.75015914211E+03  0.00000000000E+00 0. -1.
         25    2    1    2    0    0  0.10908610092E+03  0.12080115655E+03 -0.73841500204E+02  0.21810644369E+03  0.12500062716E+03 0.  0.
          2    1    1    2  501    0 -0.16526144600E+03 -0.44445320208E+02 -0.58444854077E+03  0.60898836511E+03  0.00000000000E+00 0. -1.
          1    1    1    2  502    0  0.56175345076E+02 -0.76355836342E+02  0.29339786863E+03  0.30833130308E+03  0.00000000000E+00 0. -1.
         22    1    3    3    0    0  0.79183710646E+02  0.14564600922E+03 -0.53304572633E+02  0.17413844348E+03  0.00000000000E+00 0. -1.
         22    1    3    3    0    0  0.29902390276E+02 -0.24844852674E+02 -0.20536927571E+02  0.43968000212E+02  0.00000000000E+00 0. -1.
</event>
<event>
 7    1  0.6520971E-006  0.1362930E+03  0.7818608E-02  0.1265498E+00
          2   -1    0    0  502    0  0.00000000000E+00  0.00000000000E+00  0.24661097057E+04  0.24661097057E+04  0.00000000000E+00 0. -1.
          1   -1    0    0  501    0 -0.00000000000E+00 -0.00000000000E+00 -0.63264182406E+03  0.63264182406E+03  0.00000000000E+00 0. -1.
         25    2    1    2    0    0 -0.23976524795E+02  0.85377582023E+02  0.24919804195E+02  0.15527537623E+03  0.12500096227E+03 0.  0.
          2    1    1    2  501    0 -0.84601999338E+02  0.25062199136E+00 -0.56228487908E+03  0.56861396953E+03  0.00000000000E+00 0. -1.
          1    1    1    2  502    0  0.10857852413E+03 -0.85628204014E+02  0.23708329566E+04  0.23748621840E+04  0.00000000000E+00 0. -1.
         22    1    3    3    0    0  0.49190553799E+02  0.29831068029E+02  0.26635986117E+02  0.63396206189E+02  0.00000000000E+00 0. -1.
         22    1    3    3    0    0 -0.73167078594E+02  0.55546513994E+02 -0.17161819221E+01  0.91879170040E+02  0.00000000000E+00 0. -1.
</event>
<event>
 7    1  0.6520971E-006  0.5115527E+02  0.7818608E-02  0.1531047E+00
          2   -1    0    0  502    0  0.00000000000E+00  0.00000000000E+00  0.19897209652E+04  0.19897209652E+04  0.00000000000E+00 0. -1.
          1   -1    0    0  501    0 -0.00000000000E+00 -0.00000000000E+00 -0.66750026297E+02  0.66750026297E+02  0.00000000000E+00 0. -1.
         25    2    1    2    0    0  0.24292653822E+02  0.22119763193E+02  0.57114793319E+03  0.58558886165E+03  0.12499974541E+03 0.  0.
          2    1    1    2  501    0 -0.18192192658E+02 -0.48263403051E+02 -0.48204445579E+02  0.70597312423E+02  0.00000000000E+00 0. -1.
          1    1    1    2  502    0 -0.61004611641E+01  0.26143639857E+02  0.14000274513E+04  0.14002848174E+04  0.00000000000E+00 0. -1.
         22    1    3    3    0    0 -0.99776591135E+01 -0.47083542849E+02  0.15374040675E+03  0.16109787819E+03  0.00000000000E+00 0.  1.
         22    1    3    3    0    0  0.34270312936E+02  0.69203306043E+02  0.41740752644E+03  0.42449098346E+03  0.00000000000E+00 0.  1.
</event>
<event>
 7    1  0.6520971E-006  0.1362840E+03  0.7818608E-02  0.1405623E+00
          2   -1    0    0  502    0  0.00000000000E+00  0.00000000000E+00  0.27753278663E+03  0.27753278663E+03  0.00000000000E+00 0. -1.
          1   -1    0    0  501    0 -0.00000000000E+00 -0.00000000000E+00 -0.61914817945E+03  0.61914817945E+03  0.00000000000E+00 0. -1.
         25    2    1    2    0    0  0.30800079619E+02  0.13427732323E+03  0.48859865886E+02  0.19235095747E+03  0.12503023597E+03 0.  0.
          2    1    1    2  501    0 -0.53924864398E+02 -0.12520967498E+03 -0.53785929618E+03  0.55486753031E+03  0.00000000000E+00 0. -1.
          1    1    1    2  502    0  0.23124784779E+02 -0.90676482526E+01  0.14738403748E+03  0.14946247830E+03  0.00000000000E+00 0. -1.
         22    1    3    3    0    0 -0.10148031530E+02  0.14000624083E+03  0.19684700717E+02  0.14174701922E+03  0.00000000000E+00 0. -1.
         22    1    3    3    0    0  0.40948111149E+02 -0.57289175992E+01  0.29175165169E+02  0.50603938248E+02  0.00000000000E+00 0. -1.
</event>
<event>
 7    1  0.6520971E-006  0.5709090E+02  0.7818608E-02  0.1542088E+00
          2   -1    0    0  502    0  0.00000000000E+00  0.00000000000E+00  0.12932987112E+04  0.12932987112E+04  0.00000000000E+00 0. -1.
          1   -1    0    0  501    0 -0.00000000000E+00 -0.00000000000E+00 -0.17177423495E+03  0.17177423495E+03  0.00000000000E+00 0. -1.
         25    2    1    2    0    0 -0.78566629388E+02  0.73268308256E+01  0.29976867251E+03  0.33423413323E+03  0.12499920437E+03 0.  0.
          2    1    1    2  501    0  0.56192558146E+02 -0.78161715305E+01 -0.14920137163E+03  0.15962376210E+03  0.00000000000E+00 0. -1.
          1    1    1    2  502    0  0.22374071242E+02  0.48934070492E+00  0.97095717533E+03  0.97121505077E+03  0.00000000000E+00 0. -1.
         22    1    3    3    0    0 -0.10551705334E+03 -0.20815669611E+02  0.23844143753E+03  0.26157496015E+03  0.00000000000E+00 0. -1.
         22    1    3    3    0    0  0.26950423951E+02  0.28142500436E+02  0.61327234980E+02  0.72659173077E+02  0.00000000000E+00 0. -1.
</event>
<event>
 7    1  0.6520971E-006  0.1111887E+03  0.7818608E-02  0.1424546E+00
          2   -1    0    0  502    0  0.00000000000E+00  0.00000000000E+00  0.37998439667E+03  0.37998439667E+03  0.00000000000E+00 0. -1.
          1   -1    0    0  501    0 -0.00000000000E+00 -0.00000000000E+00 -0.37485238272E+03  0.37485238272E+03  0.00000000000E+00 0. -1.
         25    2    1    2    0    0 -0.86214536328E+02 -0.61998068486E+02  0.87153276683E+02  0.18569933800E+03  0.12494736382E+03 0.  0.
          2    1    1    2  501    0  0.72904722549E+02  0.84674798289E+02 -0.31523203427E+03  0.33444903269E+03  0.00000000000E+00 0. -1.
          1    1    1    2  502    0  0.13309813780E+02 -0.22676729804E+02  0.23321077154E+03  0.23468840870E+03  0.00000000000E+00 0. -1.
         22    1    3    3    0    0 -0.34640945347E+02 -0.47902005985E+01  0.10149639209E+03  0.10735203176E+03  0.00000000000E+00 0. -1.
         22    1    3    3    0    0 -0.51573590981E+02 -0.57207867887E+02 -0.14343115405E+02  0.78347306236E+02  0.00000000000E+00 0. -1.
</event>
<event>
 7    1  0.6520971E-006  0.1205321E+03  0.7818608E-02  0.1276279E+00
          2   -1    0    0  502    0  0.00000000000E+00  0.00000000000E+00  0.11110452057E+04  0.11110452057E+04  0.00000000000E+00 0. -1.
          1   -1    0    0  501    0 -0.00000000000E+00 -0.00000000000E+00 -0.17594795688E+03  0.17594795688E+03  0.00000000000E+00 0. -1.
         25    2    1    2    0    0 -0.61781312774E+02  0.11430312861E+03  0.17485388171E+02  0.18114385654E+03  0.12500088857E+03 0.  0.
          2    1    1    2  501    0  0.86080468812E+02  0.46657605625E+01 -0.69847847851E+02  0.11095196385E+03  0.00000000000E+00 0. -1.
          1    1    1    2  502    0 -0.24299156037E+02 -0.11896888918E+03  0.98745970848E+03  0.99489734216E+03  0.00000000000E+00 0. -1.
         22    1    3    3    0    0  0.12148763653E+02 -0.21980883393E+02  0.49042812686E+01  0.25589131830E+02  0.00000000000E+00 0.  1.
         22    1    3    3    0    0 -0.73930076428E+02  0.13628401201E+03  0.12581106902E+02  0.15555472471E+03  0.00000000000E+00 0.  1.
</event>
<event>
 7    1  0.6520971E-006  0.1222870E+03  0.7818608E-02  0.1407090E+00
          2   -1    0    0  502    0  0.00000000000E+00  0.00000000000E+00  0.18063975353E+03  0.18063975353E+03  0.00000000000E+00 0. -1.
          1   -1    0    0  501    0 -0.00000000000E+00 -0.00000000000E+00 -0.12641977267E+04  0.12641977267E+04  0.00000000000E+00 0. -1.
         25    2    1    2    0    0 -0.39693982139E+02  0.12709998387E+03 -0.91576316450E+03  0.93379762406E+03  0.12500324447E+03 0.  0.
          2    1    1    2  501    0  0.47879926124E+02 -0.10098770940E+03 -0.32903277917E+03  0.34749615040E+03  0.00000000000E+00 0. -1.
          1    1    1    2  502    0 -0.81859439853E+01 -0.26112274466E+02  0.16123797052E+03  0.16354370576E+03  0.00000000000E+00 0. -1.
         22    1    3    3    0    0 -0.58587821326E+02  0.11783288486E+03 -0.48544437250E+03  0.50296457167E+03  0.00000000000E+00 0. -1.
         22    1    3    3    0    0  0.18893839187E+02  0.92670990054E+01 -0.43031879200E+03  0.43083305239E+03  0.00000000000E+00 0. -1.
</event>
<event>
 7    1  0.6520971E-006  0.5975963E+02  0.7818608E-02  0.1438281E+00
          2   -1    0    0  502    0  0.00000000000E+00  0.00000000000E+00  0.23910368028E+03  0.23910368028E+03  0.00000000000E+00 0. -1.
          1   -1    0    0  501    0 -0.00000000000E+00 -0.00000000000E+00 -0.23583724489E+03  0.23583724489E+03  0.00000000000E+00 0. -1.
         25    2    1    2    0    0  0.23938949169E+02 -0.26814959171E+01  0.12202638747E+03  0.17634133869E+03  0.12500225913E+03 0.  0.
          2    1    1    2  501    0 -0.44562535997E+02  0.41656049429E+02 -0.19840073586E+03  0.20756661114E+03  0.00000000000E+00 0. -1.
          1    1    1    2  502    0  0.20623586828E+02 -0.38974553512E+02  0.79640783795E+02  0.91032975337E+02  0.00000000000E+00 0. -1.
         22    1    3    3    0    0  0.73692584385E+02 -0.14749247706E+02  0.82979157697E+02  0.11195390977E+03  0.00000000000E+00 0. -1.
         22    1    3    3    0    0 -0.49753635217E+02  0.12067751789E+02  0.39047229769E+02  0.64387428922E+02  0.00000000000E+00 0. -1.
</event>
<event>
 7    1  0.6520971E-006  0.8476045E+02  0.7818608E-02  0.1370618E+00
          2   -1    0    0  502    0  0.00000000000E+00  0.00000000000E+00  0.65038242139E+02  0.65038242139E+02  0.00000000000E+00 0. -1.
          1   -1    0    0  501    0 -0.00000000000E+00 -0.00000000000E+00 -0.16420769859E+04  0.16420769859E+04  0.00000000000E+00 0. -1.
         25    2    1    2    0    0  0.30420145744E+02 -0.46529170314E+02 -0.29186804649E+03  0.32233810110E+03  0.12499818360E+03 0.  0.
          2    1    1    2  501    0 -0.81808337318E+02  0.33747112162E+02 -0.13189832452E+04  0.13219486649E+04  0.00000000000E+00 0. -1.
          1    1    1    2  502    0  0.51388191573E+02  0.12782058152E+02  0.33812547904E+02  0.62828462018E+02  0.00000000000E+00 0. -1.
         22    1    3    3    0    0  0.11678847965E+02  0.17625811308E+02  0.17433153961E+01  0.21215651360E+02  0.00000000000E+00 0. -1.
         22    1    3    3    0    0  0.18741297779E+02 -0.64154981622E+02 -0.29361136188E+03  0.30112244974E+03  0.00000000000E+00 0. -1.
</event>
<event>
 7    1  0.6520971E-006  0.1956088E+03  0.7818608E-02  0.1270726E+00
          2   -1    0    0  502    0  0.00000000000E+00  0.00000000000E+00  0.16976636584E+04  0.16976636584E+04  0.00000000000E+00 0. -1.
          1   -1    0    0  501    0 -0.00000000000E+00 -0.00000000000E+00 -0.17180580578E+03  0.17180580578E+03  0.00000000000E+00 0. -1.
         25    2    1    2    0    0  0.15943635037E+03  0.81820572485E+02  0.14674236279E+03  0.26319773893E+03  0.12500069135E+03 0.  0.
          2    1    1    2  501    0 -0.15217681184E+03 -0.13738138531E+03 -0.20041730079E+02  0.20599295628E+03  0.00000000000E+00 0. -1.
          1    1    1    2  502    0 -0.72595385341E+01  0.55560812825E+02  0.13991572200E+04  0.14002787690E+04  0.00000000000E+00 0. -1.
         22    1    3    3    0    0  0.15859348138E+03  0.73844245999E+02  0.73892694892E+02  0.18990786019E+03  0.00000000000E+00 0.  1.
         22    1    3    3    0    0  0.84286899401E+00  0.79763264865E+01  0.72849667900E+02  0.73289878739E+02  0.00000000000E+00 0.  1.
</event>
<event>
 7    1  0.6520971E-006  0.2762630E+02  0.7818608E-02  0.1641214E+00
          2   -1    0    0  502    0  0.00000000000E+00  0.00000000000E+00  0.54256918547E+01  0.54256918547E+01  0.00000000000E+00 0. -1.
          1   -1    0    0  501    0 -0.00000000000E+00 -0.00000000000E+00 -0.24991855225E+04  0.24991855225E+04  0.00000000000E+00 0. -1.
         25    2    1    2    0    0 -0.37478892006E+01  0.97449298648E+01 -0.23017761499E+04  0.23051911821E+04  0.12499572573E+03 0.  0.
          2    1    1    2  501    0 -0.24627372587E+02 -0.57687028961E+01 -0.88860574012E+02  0.92390405495E+02  0.00000000000E+00 0. -1.
          1    1    1    2  502    0  0.28375261787E+02 -0.39762269687E+01 -0.10312310676E+03  0.10702962678E+03  0.00000000000E+00 0. -1.
         22    1    3    3    0    0  0.68279664538E+01  0.58409361840E+02 -0.64733316402E+03  0.64999884609E+03  0.00000000000E+00 0.  1.
         22    1    3    3    0    0 -0.10575855654E+02 -0.48664431975E+02 -0.16544429858E+04  0.16551923360E+04  0.00000000000E+00 0.  1.
</event>
<event>
 7    1  0.6520971E-006  0.3002579E+03  0.7818608E-02  0.1222654E+00
          2   -1    0    0  502    0  0.00000000000E+00  0.00000000000E+00  0.65171436173E+03  0.65171436173E+03  0.00000000000E+00 0. -1.
          1   -1    0    0  501    0 -0.00000000000E+00 -0.00000000000E+00 -0.55420231733E+03  0.55420231733E+03  0.00000000000E+00 0. -1.
         25    2    1    2    0    0  0.16747079579E+03 -0.19457246545E+03  0.13769037181E+03  0.31699816808E+03  0.12499715327E+03 0.  0.
          2    1    1    2  501    0 -0.18105953893E+03  0.25216112205E+03 -0.41007223804E+03  0.51432191137E+03  0.00000000000E+00 0. -1.
          1    1    1    2  502    0  0.13588743135E+02 -0.57588656602E+02  0.36989391063E+03  0.37459659960E+03  0.00000000000E+00 0. -1.
         22    1    3    3    0    0  0.14087308352E+03 -0.10864179134E+03  0.14097544540E+03  0.22698533144E+03  0.00000000000E+00 0.  1.
         22    1    3    3    0    0  0.26597712270E+02 -0.85930674112E+02 -0.32850735925E+01  0.90012836639E+02  0.00000000000E+00 0.  1.
</event>
<event>
 7    1  0.6520971E-006  0.5714939E+02  0.7818608E-02  0.1447189E+00
          2   -1    0    0  502    0  0.00000000000E+00  0.00000000000E+00  0.18926678575E+03  0.18926678575E+03  0.00000000000E+00 0. -1.
          1   -1    0    0  501    0 -0.00000000000E+00 -0.00000000000E+00 -0.12127000088E+03  0.12127000088E+03  0.00000000000E+00 0. -1.
         25    2    1    2    0    0  0.77245977615E+02 -0.42830935193E+02  0.46866644322E+02  0.16006565833E+03  0.12499241001E+03 0.  0.
          2    1    1    2  501    0 -0.24892679196E+02  0.35246489472E+02 -0.47268966474E+02  0.64002466274E+02  0.00000000000E+00 0. -1.
          1    1    1    2  502    0 -0.52353298419E+02  0.75844457206E+01  0.68399107021E+02  0.86468662032E+02  0.00000000000E+00 0. -1.
         22    1    3    3    0    0  0.43316256033E+02  0.25081352777E+02  0.64975357952E+02  0.82019323545E+02  0.00000000000E+00 0. -1.
         22    1    3    3    0    0  0.33929721582E+02 -0.67912287969E+02 -0.18108713630E+02  0.78046334784E+02  0.00000000000E+00 0. -1.
</event>
<event>
 7    1  0.6520971E-006  0.7370232E+02  0.7818608E-02  0.1420642E+00
          2   -1    0    0  502    0  0.00000000000E+00  0.00000000000E+00  0.85428963631E+02  0.85428963631E+02  0.00000000000E+00 0. -1.
          1   -1    0    0  501    0 -0.00000000000E+00 -0.00000000000E+00 -0.14124872368E+04  0.14124872368E+04  0.00000000000E+00 0. -1.
         25    2    1    2    0    0  0.74920846100E+02 -0.28917594438E+02 -0.31025976708E+03  0.34399945758E+03  0.12500057320E+03 0.  0.
          2    1    1    2  501    0 -0.19527357067E+01  0.40825843889E+02 -0.10649186995E+04  0.10657027725E+04  0.00000000000E+00 0. -1.
          1    1    1    2  502    0 -0.72968110393E+02 -0.11908249451E+02  0.48120193472E+02  0.88213970317E+02  0.00000000000E+00 0. -1.
         22    1    3    3    0    0  0.77098740912E+02  0.24524250410E+02 -0.10894526759E+03  0.13570086970E+03  0.00000000000E+00 0. -1.
         22    1    3    3    0    0 -0.21778948124E+01 -0.53441844849E+02 -0.20131449949E+03  0.20829858788E+03  0.00000000000E+00 0. -1.
</event>
<event>
 7    1  0.6520971E-006  0.1418171E+03  0.7818608E-02  0.1342810E+00
          2   -1    0    0  502    0  0.00000000000E+00  0.00000000000E+00  0.26551367472E+04  0.26551367472E+04  0.00000000000E+00 0. -1.
          1   -1    0    0  501    0 -0.00000000000E+00 -0.00000000000E+00 -0.14284286141E+04  0.14284286141E+04  0.00000000000E+00 0. -1.
         25    2    1    2    0    0 -0.75495071965E+02 -0.71813921316E+02  0.11278394416E+01  0.16273519336E+03  0.12499890380E+03 0.  0.
          2    1    1    2  501    0  0.10963160731E+03  0.92717533143E+02 -0.13436441571E+04  0.13512939174E+04  0.00000000000E+00 0. -1.
          1    1    1    2  502    0 -0.34136535343E+02 -0.20903611827E+02  0.25692244508E+04  0.25695362505E+04  0.00000000000E+00 0. -1.
         22    1    3    3    0    0 -0.44187915351E+02 -0.92220472126E+02 -0.37565240984E+02  0.10894188668E+03  0.00000000000E+00 0. -1.
         22    1    3    3    0    0 -0.31307156614E+02  0.20406550810E+02  0.38693080426E+02  0.53793306685E+02  0.00000000000E+00 0. -1.
</event>
<event>
 7    1  0.6520971E-006  0.1132685E+03  0.7818608E-02  0.1386682E+00
          2   -1    0    0  502    0  0.00000000000E+00  0.00000000000E+00  0.18445208717E+04  0.18445208717E+04  0.00000000000E+00 0. -1.
          1   -1    0    0  501    0 -0.00000000000E+00 -0.00000000000E+00 -0.13328067047E+03  0.13328067047E+03  0.00000000000E+00 0. -1.
         25    2    1    2    0    0 -0.71149076119E+02  0.12795452724E+03 -0.46992040266E+02  0.19816172287E+03  0.12500105795E+03 0.  0.
          2    1    1    2  501    0  0.23190767742E+02 -0.25881630169E+02  0.25163254775E+02  0.42905243031E+02  0.00000000000E+00 0. -1.
          1    1    1    2  502    0  0.47958308377E+02 -0.10207289707E+03  0.17330689867E+04  0.17367345763E+04  0.00000000000E+00 0. -1.
         22    1    3    3    0    0 -0.50737687302E+02  0.22129394827E+02  0.32547591649E+02  0.64213462376E+02  0.00000000000E+00 0. -1.
         22    1    3    3    0    0 -0.20411388817E+02  0.10582513241E+03 -0.79539631915E+02  0.13394826049E+03  0.00000000000E+00 0. -1.
</event>
<event>
 7    1  0.6520971E-006  0.1110617E+03  0.7818608E-02  0.1294375E+00
          2   -1    0    0  502    0  0.00000000000E+00  0.00000000000E+00  0.13618394322E+04  0.13618394322E+04  0.00000000000E+00 0. -1.
          1   -1    0    0  501    0 -0.00000000000E+00 -0.00000000000E+00 -0.10874936547E+03  0.10874936547E+03  0.00000000000E+00 0. -1.
         25    2    1    2    0    0  0.37826706021E+02  0.48455093223E+01  0.42920367973E+03  0.44865846498E+03  0.12499712336E+03 0.  0.
          2    1    1    2  501    0 -0.11664737903E+03 -0.77267947490E+01 -0.62145498408E+02  0.13239477846E+03  0.00000000000E+00 0. -1.
          1    1    1    2  502    0  0.78820673010E+02  0.28812854267E+01  0.88603188545E+03  0.88953555428E+03  0.00000000000E+00 0. -1.
         22    1    3    3    0    0  0.76818252221E+02  0.75677314498E+00  0.17058719899E+03  0.18708716962E+03  0.00000000000E+00 0.  1.
         22    1    3    3    0    0 -0.38991546200E+02  0.40887361773E+01  0.25861648075E+03  0.26157129535E+03  0.00000000000E+00 0.  1.
</event>
<event>
 7    1  0.6520971E-006  0.1836130E+03  0.7818608E-02  0.1265460E+00
          2   -1    0    0  502    0  0.00000000000E+00  0.00000000000E+00  0.12734554714E+04  0.12734554714E+04  0.00000000000E+00 0. -1.
          1   -1    0    0  501    0 -0.00000000000E+00 -0.00000000000E+00 -0.23330326706E+03  0.23330326706E+03  0.00000000000E+00 0. -1.
         25    2    1    2    0    0 -0.74778549971E+01 -0.17218635747E+03  0.25392753376E+03  0.33137391810E+03  0.12500168472E+03 0.  0.
          2    1    1    2  501    0 -0.55036116488E+02  0.17840406205E+03 -0.14849681091E+03  0.23855457724E+03  0.00000000000E+00 0. -1.
          1    1    1    2  502    0  0.62513971485E+02 -0.62177045811E+01  0.93472148148E+03  0.93683024312E+03  0.00000000000E+00 0. -1.
         22    1    3    3    0    0  0.40313013374E+02 -0.50441694119E+02  0.15333086015E+03  0.16637264267E+03  0.00000000000E+00 0. -1.
         22    1    3    3    0    0 -0.47790868372E+02 -0.12174466335E+03  0.10059667361E+03  0.16500127544E+03  0.00000000000E+00 0. -1.
</event>
<event>
 7    1  0.6520971E-006  0.1003100E+03  0.7818608E-02  0.1379244E+00
          2   -1    0    0  502    0  0.00000000000E+00  0.00000000000E+00  0.26998429206E+03  0.26998429206E+03  0.00000000000E+00 0. -1.
          1   -1    0    0  501    0 -0.00000000000E+00 -0.00000000000E+00 -0.26796306243E+04  0.26796306243E+04  0.00000000000E+00 0. -1.
         25    2    1    2    0    0  0.11396465957E+03 -0.87398184448E+01 -0.74676354736E+03  0.76573117049E+03  0.12499640688E+03 0.  0.
          2    1    1    2  501    0 -0.95148666713E+02 -0.28455313388E+02 -0.19204244293E+04  0.19229906298E+04  0.00000000000E+00 0. -1.
          1    1    1    2  502    0 -0.18815992862E+02  0.37195131832E+02  0.25754164441E+03  0.26089311609E+03  0.00000000000E+00 0. -1.
         22    1    3    3    0    0  0.10368567327E+03  0.22034622179E+02 -0.30724210770E+03  0.32501377842E+03  0.00000000000E+00 0.  1.
         22    1    3    3    0    0  0.10278986306E+02 -0.30774440624E+02 -0.43952143966E+03  0.44071739207E+03  0.00000000000E+00 0.  1.
</event>
<event>
 7    1  0.6520971E-006  0.6908378E+02  0.7818608E-02  0.1373949E+00
          2   -1    0    0  502    0  0.00000000000E+00  0.00000000000E+00  0.99336632214E+02  0.99336632214E+02  0.00000000000E+00 0. -1.
          1   -1    0    0  501    0 -0.00000000000E+00 -0.00000000000E+00 -0.12674955188E+04  0.12674955188E+04  0.00000000000E+00 0. -1.
         25    2    1    2    0    0  0.28911668306E+02  0.12287395524E+03 -0.54724272978E+03  0.57535489442E+03  0.12499902317E+03 0.  0.
          2    1    1    2  501    0 -0.18146727317E+02 -0.60587804279E+02 -0.69284241649E+03  0.69572322070E+03  0.00000000000E+00 0. -1.
          1    1    1    2  502    0 -0.10764940989E+02 -0.62286150957E+02  0.71926259690E+02  0.95754035886E+02  0.00000000000E+00 0. -1.
         22    1    3    3    0    0  0.41145859894E+02  0.48471512116E+02 -0.43815749284E+03  0.44274649384E+03  0.00000000000E+00 0.  1.
         22    1    3    3    0    0 -0.12234191588E+02  0.74402443120E+02 -0.10908523694E+03  0.13260840058E+03  0.00000000000E+00 0.  1.
</event>
<event>
 7    1  0.6520971E-006  0.1037770E+03  0.7818608E-02  0.1371695E+00
          2   -1    0    0  502    0  0.00000000000E+00  0.00000000000E+00  0.34165051484E+04  0.34165051484E+04  0.00000000000E+00 0. -1.
          1   -1    0    0  501    0 -0.00000000000E+00 -0.00000000000E+00 -0.25084488999E+04  0.25084488999E+04  0.00000000000E+00 0. -1.
         25    2    1    2    0    0 -0.13057863698E+03 -0.36564326560E+02  0.80269804433E+03  0.82361172377E+03  0.12499756297E+03 0.  0.
          2    1    1    2  501    0  0.90262817152E+02  0.51133502690E+02 -0.24967383774E+04  0.24988926620E+04  0.00000000000E+00 0. -1.
          1    1    1    2  502    0  0.40315819828E+02 -0.14569176130E+02  0.26020965816E+04  0.26024496625E+04  0.00000000000E+00 0. -1.
         22    1    3    3    0    0 -0.12649448766E+03  0.95603707776E+01  0.69341705426E+03  0.70492515010E+03  0.00000000000E+00 0. -1.
         22    1    3    3    0    0 -0.40841493186E+01 -0.46124697337E+02  0.10928099006E+03  0.11868657367E+03  0.00000000000E+00 0. -1.
</event>
<event>
 7    1  0.6520971E-006  0.1486021E+03  0.7818608E-02  0.1292108E+00
          2   -1    0    0  502    0  0.00000000000E+00  0.00000000000E+00  0.44121275792E+04  0.44121275792E+04  0.00000000000E+00 0. -1.
          1   -1    0    0  501    0 -0.00000000000E+00 -0.00000000000E+00 -0.22389076258E+03  0.22389076258E+03  0.00000000000E+00 0. -1.
         25    2    1    2    0    0  0.62343917112E+02 -0.81607654935E+02  0.24250782484E+03  0.29150173544E+03  0.12496656877E+03 0.  0.
          2    1    1    2  501    0 -0.12094256522E+03  0.95427389436E+02 -0.16938365275E+03  0.22896356163E+03  0.00000000000E+00 0. -1.
          1    1    1    2  502    0  0.58598648108E+02 -0.13819734500E+02  0.41151126445E+04  0.41155530447E+04  0.00000000000E+00 0. -1.
         22    1    3    3    0    0  0.55647668992E+01 -0.99007939818E+02  0.17844883699E+03  0.20415074381E+03  0.00000000000E+00 0.  1.
         22    1    3    3    0    0  0.56779150213E+02  0.17400284882E+02  0.64058987854E+02  0.87350991624E+02  0.00000000000E+00 0.  1.
</event>
<event>
 7    1  0.6520971E-006  0.1054961E+03  0.7818608E-02  0.1425880E+00
          2   -1    0    0  502    0  0.00000000000E+00  0.00000000000E+00  0.16749060445E+04  0.16749060445E+04  0.00000000000E+00 0. -1.
          1   -1    0    0  501    0 -0.00000000000E+00 -0.00000000000E+00 -0.16550832565E+03  0.16550832565E+03  0.00000000000E+00 0. -1.
         25    2    1    2    0    0 -0.54307324335E+02  0.58482291243E+02  0.16253576567E+03  0.22002756821E+03  0.12499916714E+03 0.  0.
          2    1    1    2  501    0 -0.17968361528E+02  0.20728484526E+02 -0.13342768834E+03  0.13621850132E+03  0.00000000000E+00 0. -1.
          1    1    1    2  502    0  0.72275685863E+02 -0.79210775770E+02  0.14802896415E+04  0.14841683006E+04  0.00000000000E+00 0. -1.
         22    1    3    3    0    0 -0.35357447261E+02  0.22814726618E+02  0.17321308563E+03  0.17825104168E+03  0.00000000000E+00 0. -1.
         22    1    3    3    0    0 -0.18949877075E+02  0.35667564625E+02 -0.10677319960E+02  0.41776526531E+02  0.00000000000E+00 0. -1.
</event>
<event>
 7    1  0.6520971E-006  0.6896780E+02  0.7818608E-02  0.1366911E+00
          2   -1    0    0  502    0  0.00000000000E+00  0.00000000000E+00  0.40753462281E+03  0.40753462281E+03  0.00000000000E+00 0. -1.
          1   -1    0    0  501    0 -0.00000000000E+00 -0.00000000000E+00 -0.72148566035E+02  0.72148566035E+02  0.00000000000E+00 0. -1.
         25    2    1    2    0    0 -0.77388459329E+02  0.84804422647E+01  0.92751991075E+02  0.17404346895E+03  0.12500922244E+03 0.  0.
          2    1    1    2  501    0  0.35214988400E+02 -0.63051088902E+02  0.23557658078E+02  0.75963797126E+02  0.00000000000E+00 0. -1.
          1    1    1    2  502    0  0.42173470930E+02  0.54570646637E+02  0.21907640762E+03  0.22967592277E+03  0.00000000000E+00 0. -1.
         22    1    3    3    0    0 -0.26141876718E+01  0.56653469065E+02  0.23826547385E+02  0.61515476870E+02  0.00000000000E+00 0.  1.
         22    1    3    3    0    0 -0.74774271658E+02 -0.48173026800E+02  0.68925443690E+02  0.11252799208E+03  0.00000000000E+00 0.  1.
</event>
<event>
 7    1  0.6520971E-006  0.3244803E+02  0.7818608E-02  0.1606277E+00
          2   -1    0    0  502    0  0.00000000000E+00  0.00000000000E+00  0.31795053742E+02  0.31795053742E+02  0.00000000000E+00 0. -1.
          1   -1    0    0  501    0 -0.00000000000E+00 -0.00000000000E+00 -0.17752702997E+04  0.17752702997E+04  0.00000000000E+00 0. -1.
         25    2    1    2    0    0 -0.38666531778E+02  0.15522736745E+01 -0.19290964040E+03  0.23309867380E+03  0.12499340836E+03 0.  0.
          2    1    1    2  501    0  0.23071284771E+02 -0.22862286801E+02 -0.15469758908E+04  0.15473168309E+04  0.00000000000E+00 0. -1.
          1    1    1    2  502    0  0.15595247007E+02  0.21310013126E+02 -0.35897147605E+01  0.26649848794E+02  0.00000000000E+00 0. -1.
         22    1    3    3    0    0  0.82158769320E+01 -0.56009223448E+02 -0.83582372205E+02  0.10094823767E+03  0.00000000000E+00 0. -1.
         22    1    3    3    0    0 -0.46882408710E+02  0.57561497122E+02 -0.10932726820E+03  0.13215043613E+03  0.00000000000E+00 0. -1.
</event>
<event>
 7    1  0.6520971E-006  0.7165484E+02  0.7818608E-02  0.1408931E+00
          2   -1    0    0  502    0  0.00000000000E+00  0.00000000000E+00  0.47575106750E+03  0.47575106750E+03  0.00000000000E+00 0. -1.
          1   -1    0    0  501    0 -0.00000000000E+00 -0.00000000000E+00 -0.11197853408E+04  0.11197853408E+04  0.00000000000E+00 0. -1.
         25    2    1    2    0    0  0.62872254430E+02  0.30250593595E+02 -0.34480646005E+03  0.37334385369E+03  0.12500447752E+03 0.  0.
          2    1    1    2  501    0 -0.33296862316E+02 -0.65526719458E+02 -0.75777960281E+03  0.76133590382E+03  0.00000000000E+00 0. -1.
          1    1    1    2  502    0 -0.29575392114E+02  0.35276125864E+02  0.45855178956E+03  0.46085665080E+03  0.00000000000E+00 0. -1.
         22    1    3    3    0    0  0.12087859598E+02  0.51352958638E+02 -0.29326403400E+03  0.29797153614E+03  0.00000000000E+00 0.  1.
         22    1    3    3    0    0  0.50784394833E+02 -0.21102365043E+02 -0.51542426050E+02  0.75372317544E+02  0.00000000000E+00 0.  1.
</event>
<event>
 7    1  0.6520971E-006  0.5783978E+02  0.7818608E-02  0.1414671E+00
          2   -1    0    0  502    0  0.00000000000E+00  0.00000000000E+00  0.32258639081E+04  0.32258639081E+04  0.00000000000E+00 0. -1.
          1   -1    0    0  501    0 -0.00000000000E+00 -0.00000000000E+00 -0.67214679152E+03  0.67214679152E+03  0.00000000000E+00 0. -1.
         25    2    1    2    0    0  0.74171638402E+02  0.38454481340E+02  0.78823759134E+02  0.16976794859E+03  0.12501116865E+03 0.  0.
          2    1    1    2  501    0 -0.52406583766E+02  0.15096481649E+02 -0.62521818781E+03  0.62759233276E+03  0.00000000000E+00 0. -1.
          1    1    1    2  502    0 -0.21765054636E+02 -0.53550962990E+02  0.31001115453E+04  0.31006504183E+04  0.00000000000E+00 0. -1.
         22    1    3    3    0    0  0.46609738117E+02 -0.33721673683E+02  0.72067296076E+02  0.92213416199E+02  0.00000000000E+00 0. -1.
         22    1    3    3    0    0  0.27561900285E+02  0.72176155024E+02  0.67564630577E+01  0.77554532391E+02  0.00000000000E+00 0. -1.
</event>
<event>
 7    1  0.6520971E-006  0.5231449E+02  0.7818608E-02  0.1517180E+00
          2   -1    0    0  502    0  0.00000000000E+00  0.00000000000E+00  0.67848429151E+03  0.67848429151E+03  0.00000000000E+00 0. -1.
          1   -1    0    0  501    0 -0.00000000000E+00 -0.00000000000E+00 -0.89149360320E+03  0.89149360320E+03  0.00000000000E+00 0. -1.
         25    2    1    2    0    0  0.38230483075E+02 -0.66521462022E+02  0.10325680209E+03  0.17937003023E+03  0.12499986328E+03 0.  0.
          2    1    1    2  501    0 -0.14579103175E+02  0.50111054332E+02 -0.85225252821E+03  0.85384895611E+03  0.00000000000E+00 0. -1.
          1    1    1    2  502    0 -0.23651379900E+02  0.16410407690E+02  0.53598641444E+03  0.53675890837E+03  0.00000000000E+00 0. -1.
         22    1    3    3    0    0 -0.83674204948E+01 -0.82608261913E+01 -0.26894934233E+02  0.29352895300E+02  0.00000000000E+00 0. -1.
         22    1    3    3    0    0  0.46597903570E+02 -0.58260635831E+02  0.13015173632E+03  0.15001713493E+03  0.00000000000E+00 0. -1.
</event>
<event>
 7    1  0.6520971E-006  0.5864995E+02  0.7818608E-02  0.1493173E+00
          2   -1    0    0  502    0  0.00000000000E+00  0.00000000000E+00  0.52876681018E+03  0.52876681018E+03  0.00000000000E+00 0. -1.
          1   -1    0    0  501    0 -0.00000000000E+00 -0.00000000000E+00 -0.40045508653E+03  0.40045508653E+03  0.00000000000E+00 0. -1.
         25    2    1    2    0    0  0.78117701676E+02  0.40026546694E+02 -0.37413801698E+02  0.15725432794E+03  0.12499852537E+03 0.  0.
          2    1    1    2  501    0 -0.24375094607E+02 -0.17909575490E+02 -0.30055809480E+03  0.30207625938E+03  0.00000000000E+00 0. -1.
          1    1    1    2  502    0 -0.53742607070E+02 -0.22116971204E+02  0.46628362014E+03  0.46989130939E+03  0.00000000000E+00 0. -1.
         22    1    3    3    0    0  0.23003099349E+01  0.23206149485E+02  0.40824977641E+02  0.47015907937E+02  0.00000000000E+00 0.  1.
         22    1    3    3    0    0  0.75817391742E+02  0.16820397209E+02 -0.78238779339E+02  0.11023842001E+03  0.00000000000E+00 0.  1.
</event>
<event>
 7    1  0.6520971E-006  0.4188231E+02  0.7818608E-02  0.1515755E+00
          2   -1    0    0  502    0  0.00000000000E+00  0.00000000000E+00  0.11571460019E+04  0.11571460019E+04  0.00000000000E+00 0. -1.
          1   -1    0    0  501    0 -0.00000000000E+00 -0.00000000000E+00 -0.12096115568E+04  0.12096115568E+04  0.00000000000E+00 0. -1.
         25    2    1    2    0    0 -0.74913703300E+02  0.10096706929E+02  0.48410161514E+03  0.50566125655E+03  0.12499970465E+03 0.  0.
          2    1    1    2  501    0  0.34889643911E+02 -0.10031079091E+02 -0.11979517974E+04  0.11985017391E+04  0.00000000000E+00 0. -1.
          1    1    1    2  502    0  0.40024059389E+02 -0.65627838119E-01  0.66138462732E+03  0.66259456298E+03  0.00000000000E+00 0. -1.
         22    1    3    3    0    0 -0.81485916820E+02  0.56159980364E+02  0.30749506762E+03  0.32302804003E+03  0.00000000000E+00 0.  1.
         22    1    3    3    0    0  0.65722135201E+01 -0.46063273435E+02  0.17660654752E+03  0.18263321653E+03  0.00000000000E+00 0.  1.
</event>
<event>
 7    1  0.6520971E-006  0.7466026E+02  0.7818608E-02  0.1391244E+00
          2   -1    0    0  502    0  0.00000000000E+00  0.00000000000E+00  0.39244938144E+03  0.39244938144E+03  0.00000000000E+00 0. -1.
          1   -1    0    0  501    0 -0.00000000000E+00 -0.00000000000E+00 -0.18409715902E+03  0.18409715902E+03  0.00000000000E+00 0. -1.
         25    2    1    2    0    0 -0.22723799614E+02 -0.18510416235E+02  0.45528833324E+02  0.13622600758E+03  0.12500257557E+03 0.  0.
          2    1    1    2  501    0 -0.36601171716E+02 -0.35259105105E+02 -0.12850518654E+03  0.13818984489E+03  0.00000000000E+00 0. -1.
          1    1    1    2  502    0  0.59324971330E+02  0.53769521341E+02  0.29132857562E+03  0.30213068799E+03  0.00000000000E+00 0. -1.
         22    1    3    3    0    0  0.31169348142E+02  0.38769156862E+02  0.17614959418E+02  0.52771797228E+02  0.00000000000E+00 0. -1.
         22    1    3    3    0    0 -0.53893147756E+02 -0.57279573097E+02  0.27913873906E+02  0.83454210353E+02  0.00000000000E+00 0. -1.
</event>
<event>
 7    1  0.6520971E-006  0.7161624E+02  0.7818608E-02  0.1461587E+00
          2   -1    0    0  502    0  0.00000000000E+00  0.00000000000E+00  0.82951117210E+03  0.82951117210E+03  0.00000000000E+00 0. -1.
          1   -1    0    0  501    0 -0.00000000000E+00 -0.00000000000E+00 -0.13661882565E+03  0.13661882565E+03  0.00000000000E+00 0. -1.
         25    2    1    2    0    0  0.30901656346E+02 -0.79540726651E+02 -0.42434823640E+02  0.15718636615E+03  0.12500079954E+03 0.  0.
          2    1    1    2  501    0 -0.42126839792E+02  0.50656564603E+02 -0.67412848868E+01  0.66228416033E+02  0.00000000000E+00 0. -1.
          1    1    1    2  502    0  0.11225183446E+02  0.28884162048E+02  0.74206845497E+03  0.74271521556E+03  0.00000000000E+00 0. -1.
         22    1    3    3    0    0 -0.57009794936E+01 -0.10343443345E+03 -0.12806285703E+02  0.10437999878E+03  0.00000000000E+00 0. -1.
         22    1    3    3    0    0  0.36602635840E+02  0.23893706802E+02 -0.29628537937E+02  0.52806367375E+02  0.00000000000E+00 0. -1.
</event>
<event>
 7    1  0.6520971E-006  0.2463989E+03  0.7818608E-02  0.1226871E+00
          2   -1    0    0  502    0  0.00000000000E+00  0.00000000000E+00  0.21681258792E+04  0.21681258792E+04  0.00000000000E+00 0. -1.
          1   -1    0    0  501    0 -0.00000000000E+00 -0.00000000000E+00 -0.39873454167E+03  0.39873454167E+03  0.00000000000E+00 0. -1.
         25    2    1    2    0    0 -0.26460260020E+03 -0.85739208232E+02  0.82099517626E+03  0.87579910354E+03  0.12500096980E+03 0.  0.
          2    1    1    2  501    0  0.29948803990E+02  0.62167210545E+02 -0.35747061312E+03  0.36406995505E+03  0.00000000000E+00 0. -1.
          1    1    1    2  502    0  0.23465379621E+03  0.23571997687E+02  0.13058667744E+04  0.13269913623E+04  0.00000000000E+00 0. -1.
         22    1    3    3    0    0 -0.80843771035E+02  0.31406843710E+02  0.25132753832E+03  0.26587146644E+03  0.00000000000E+00 0.  1.
         22    1    3    3    0    0 -0.18375882917E+03 -0.11714605194E+03  0.56966763794E+03  0.60992763710E+03  0.00000000000E+00 0.  1.
</event>
<event>
 7    1  0.6520971E-006  0.7044798E+02  0.7818608E-02  0.1498873E+00
          2   -1    0    0  502    0  0.00000000000E+00  0.00000000000E+00  0.28687069221E+03  0.28687069221E+03  0.00000000000E+00 0. -1.
          1   -1    0    0  501    0 -0.00000000000E+00 -0.00000000000E+00 -0.23146501216E+03  0.23146501216E+03  0.00000000000E+00 0. -1.
         25    2    1    2    0    0  0.37287954906E+02 -0.39691682868E+02  0.60459248880E+02  0.14915398099E+03  0.12500307196E+03 0.  0.
          2    1    1    2  501    0 -0.61344406598E+02  0.36974393452E+02 -0.17939614417E+03  0.19316629762E+03  0.00000000000E+00 0. -1.
          1    1    1    2  502    0  0.24056451692E+02  0.27172894156E+01  0.17434257535E+03  0.17601542577E+03  0.00000000000E+00 0. -1.
         22    1    3    3    0    0 -0.25663993134E+02 -0.60795113210E+02  0.12286717493E+02  0.67124136944E+02  0.00000000000E+00 0. -1.
         22    1    3    3    0    0  0.62951948040E+02  0.21103430342E+02  0.48172531387E+02  0.82029844047E+02  0.00000000000E+00 0. -1.
</event>
<event>
 7    1  0.7127964E-006  0.9081479E+02  0.7818608E-02  0.1430883E+00
          2   -1    0    0  502    0  0.00000000000E+00  0.00000000000E+00  0.11144338906E+04  0.11144338906E+04  0.00000000000E+00 0. -1.
          1   -1    0    0  501    0 -0.00000000000E+00 -0.00000000000E+00 -0.97480549016E+03  0.97480549016E+03  0.00000000000E+00 0. -1.
         25    2    1    2    0    0  0.47948874032E+02  0.43141095785E+02 -0.23121272558E+03  0.27063885417E+03  0.12500326495E+03 0.  0.
          2    1    1    2  501    0 -0.67745590829E+02 -0.66577384273E+02 -0.72054737105E+03  0.72678093474E+03  0.00000000000E+00 0. -1.
          1    1    1    2  502    0  0.19796716797E+02  0.23436288488E+02  0.10913884970E+04  0.10918195918E+04  0.00000000000E+00 0. -1.
         22    1    3    3    0    0  0.54457793305E+02  0.46768819968E+02 -0.45960825085E+02  0.85237146921E+02  0.00000000000E+00 0. -1.
         22    1    3    3    0    0 -0.65089192737E+01 -0.36277241829E+01 -0.18525190050E+03  0.18540170725E+03  0.00000000000E+00 0. -1.
</event>
<event>
 7    1  0.6520971E-006  0.6287603E+02  0.7818608E-02  0.1422638E+00
          2   -1    0    0  502    0  0.00000000000E+00  0.00000000000E+00  0.31899263109E+04  0.31899263109E+04  0.00000000000E+00 0. -1.
          1   -1    0    0  501    0 -0.00000000000E+00 -0.00000000000E+00 -0.18835094042E+02  0.18835094042E+02  0.00000000000E+00 0. -1.
         25    2    1    2    0    0  0.19423123803E+02  0.59023098113E+02  0.63223123936E+03  0.64745878488E+03  0.12500221698E+03 0.  0.
          2    1    1    2  501    0 -0.47156364596E+02 -0.15577611664E+01  0.40650774340E+02  0.62278686532E+02  0.00000000000E+00 0. -1.
          1    1    1    2  502    0  0.27733240793E+02 -0.57465336946E+02  0.24982092032E+04  0.24990239336E+04  0.00000000000E+00 0. -1.
         22    1    3    3    0    0 -0.45731474605E+01  0.63283156041E+02  0.61336597862E+03  0.61663886939E+03  0.00000000000E+00 0. -1.
         22    1    3    3    0    0  0.23996271263E+02 -0.42600579277E+01  0.18865260739E+02  0.30819915491E+02  0.00000000000E+00 0. -1.
</event>
<event>
 7    1  0.6520971E-006  0.1091050E+03  0.7818608E-02  0.1312070E+00
          2   -1    0    0  502    0  0.00000000000E+00  0.00000000000E+00  0.38844751034E+03  0.38844751034E+03  0.00000000000E+00 0. -1.
          1   -1    0    0  501    0 -0.00000000000E+00 -0.00000000000E+00 -0.71245936476E+03  0.71245936476E+03  0.00000000000E+00 0. -1.
         25    2    1    2    0    0 -0.47482727078E+02 -0.64868643346E+02 -0.13060262653E+02  0.14918864140E+03  0.12499651996E+03 0.  0.
          2    1    1    2  501    0  0.46822935658E+02 -0.49669588677E+02 -0.61916165041E+03  0.62291299929E+03  0.00000000000E+00 0. -1.
          1    1    1    2  502    0  0.65979142030E+00  0.11453823202E+03  0.30821005864E+03  0.32880523440E+03  0.00000000000E+00 0. -1.
         22    1    3    3    0    0  0.29658105812E+02 -0.53420313042E+02  0.20274904028E+02  0.64377051961E+02  0.00000000000E+00 0.  1.
         22    1    3    3    0    0 -0.77140832890E+02 -0.11448330304E+02 -0.33335166681E+02  0.84811589440E+02  0.00000000000E+00 0.  1.
</event>
<event>
 7    1  0.6520971E-006  0.1040753E+03  0.7818608E-02  0.1414780E+00
          2   -1    0    0  502    0  0.00000000000E+00  0.00000000000E+00  0.41770679415E+03  0.41770679415E+03  0.00000000000E+00 0. -1.
          1   -1    0    0  501    0 -0.00000000000E+00 -0.00000000000E+00 -0.23527425802E+03  0.23527425802E+03  0.00000000000E+00 0. -1.
         25    2    1    2    0    0  0.79009254113E+02 -0.86965284559E+02  0.70028938668E+02  0.18529524825E+03  0.12499941527E+03 0.  0.
          2    1    1    2  501    0 -0.85377794994E+02  0.57358792041E+02 -0.16184872210E+03  0.19176654491E+03  0.00000000000E+00 0. -1.
          1    1    1    2  502    0  0.63685408810E+01  0.29606492518E+02  0.27425231956E+03  0.27591925901E+03  0.00000000000E+00 0. -1.
         22    1    3    3    0    0  0.98951651751E+02 -0.32224835909E+02  0.14975686570E+02  0.10513867329E+03  0.00000000000E+00 0. -1.
         22    1    3    3    0    0 -0.19942397639E+02 -0.54740448650E+02  0.55053252098E+02  0.80156574955E+02  0.00000000000E+00 0. -1.
</event>
<event>
 7    1  0.6520971E-006  0.9041100E+02  0.7818608E-02  0.1321036E+00
          2   -1    0    0  502    0  0.00000000000E+00  0.00000000000E+00  0.24654807833E+04  0.24654807833E+04  0.00000000000E+00 0. -1.
          1   -1    0    0  501    0 -0.00000000000E+00 -0.00000000000E+00 -0.58347121669E+02  0.58347121669E+02  0.00000000000E+00 0. -1.
         25    2    1    2    0    0 -0.69513755964E+01  0.95828735029E+02  0.14271666014E+04  0.14358482733E+04  0.12499715030E+03 0.  0.
          2    1    1    2  501    0  0.71759404137E+02 -0.56130303984E+02 -0.13071171717E+02  0.92037376307E+02  0.00000000000E+00 0. -1.
          1    1    1    2  502    0 -0.64808028541E+02 -0.39698431045E+02  0.99303823188E+03  0.99594225534E+03  0.00000000000E+00 0. -1.
         22    1    3    3    0    0  0.23801600882E+02  0.20684607193E+02  0.10292284700E+04  0.10297114221E+04  0.00000000000E+00 0. -1.
         22    1    3    3    0    0 -0.30752976478E+02  0.75144127835E+02  0.39793813141E+03  0.40613685125E+03  0.00000000000E+00 0. -1.
</event>
<event>
 7    1  0.6520971E-006  0.7608816E+02  0.7818608E-02  0.1415599E+00
          2   -1    0    0  502    0  0.00000000000E+00  0.00000000000E+00  0.28965084850E+03  0.28965084850E+03  0.00000000000E+00 0. -1.
          1   -1    0    0  501    0 -0.00000000000E+00 -0.00000000000E+00 -0.42929676367E+03  0.42929676367E+03  0.00000000000E+00 0. -1.
         25    2    1    2    0    0 -0.62795794977E+02  0.12794511811E+02  0.13127735051E+02  0.14108267984E+03  0.12499989490E+03 0.  0.
          2    1    1    2  501    0 -0.10895181106E+02 -0.39692873025E+02 -0.35685748535E+03  0.35922345969E+03  0.00000000000E+00 0. -1.
          1    1    1    2  502    0  0.73690976083E+02  0.26898361213E+02  0.20408383513E+03  0.21864147263E+03  0.00000000000E+00 0. -1.
         22    1    3    3    0    0 -0.81135737666E+02  0.36888069538E+02 -0.24835150527E+02  0.92523090645E+02  0.00000000000E+00 0.  1.
         22    1    3    3    0    0  0.18339942689E+02 -0.24093557726E+02  0.37962885577E+02  0.48559589198E+02  0.00000000000E+00 0.  1.
</event>
<event>
 7    1  0.6520971E-006  0.1194463E+03  0.7818608E-02  0.1402936E+00
          2   -1    0    0  502    0  0.00000000000E+00  0.00000000000E+00  0.45554847172E+03  0.45554847172E+03  0.00000000000E+00 0. -1.
          1   -1    0    0  501    0 -0.00000000000E+00 -0.00000000000E+00 -0.97698714739E+03  0.97698714739E+03  0.00000000000E+00 0. -1.
         25    2    1    2    0    0  0.89580743129E+02 -0.88606350862E+02  0.87729157954E+02  0.19798293602E+03  0.12500017139E+03 0.  0.
          2    1    1    2  501    0  0.11555767518E+02  0.26539363894E+02 -0.91036414388E+03  0.91082421359E+03  0.00000000000E+00 0. -1.
          1    1    1    2  502    0 -0.10113651065E+03  0.62066986968E+02  0.30119631026E+03  0.32372846951E+03  0.00000000000E+00 0. -1.
         22    1    3    3    0    0  0.11269312439E+03 -0.39876110488E+02  0.40268098748E+02  0.12614025626E+03  0.00000000000E+00 0.  1.
         22    1    3    3    0    0 -0.23112381258E+02 -0.48730240374E+02  0.47461059206E+02  0.71842679761E+02  0.00000000000E+00 0.  1.
</event>
<event>
 7    1  0.6520971E-006  0.7281543E+02  0.7818608E-02  0.1368311E+00
          2   -1    0    0  502    0  0.00000000000E+00  0.00000000000E+00  0.23258892429E+03  0.23258892429E+03  0.00000000000E+00 0. -1.
          1   -1    0    0  501    0 -0.00000000000E+00 -0.00000000000E+00 -0.37870852748E+03  0.37870852748E+03  0.00000000000E+00 0. -1.
         25    2    1    2    0    0 -0.47367545083E+02 -0.18499854650E+02 -0.10750413726E+03  0.17253378566E+03  0.12499935487E+03 0.  0.
          2    1    1    2  501    0 -0.14395875318E+02  0.61159316989E+02 -0.22723243976E+03  0.23575895521E+03  0.00000000000E+00 0. -1.
          1    1    1    2  502    0  0.61763420401E+02 -0.42659462339E+02  0.18861697384E+03  0.20300471090E+03  0.00000000000E+00 0. -1.
         22    1    3    3    0    0 -0.83355581172E+02 -0.39721137467E+02 -0.82635803851E+02  0.12391367056E+03  0.00000000000E+00 0. -1.
         22    1    3    3    0    0  0.35988036089E+02  0.21221282817E+02 -0.24868333407E+02  0.48620115100E+02  0.00000000000E+00 0. -1.
</event>
<event>
 7    1  0.6520971E-006  0.8965236E+02  0.7818608E-02  0.1418527E+00
          2   -1    0    0  502    0  0.00000000000E+00  0.00000000000E+00  0.72714851342E+03  0.72714851342E+03  0.00000000000E+00 0. -1.
          1   -1    0    0  501    0 -0.00000000000E+00 -0.00000000000E+00 -0.11756127502E+04  0.11756127502E+04  0.00000000000E+00 0. -1.
         25    2    1    2    0    0 -0.68490226467E+02  0.71149130488E+02 -0.80936716923E+02  0.17868736316E+03  0.12500124685E+03 0.  0.
          2    1    1    2  501    0  0.36083708833E+02 -0.81928317857E+02 -0.10434529717E+04  0.10472862013E+04  0.00000000000E+00 0. -1.
          1    1    1    2  502    0  0.32406517634E+02  0.10779187369E+02  0.67592545185E+03  0.67678769915E+03  0.00000000000E+00 0. -1.
         22    1    3    3    0    0 -0.33591915416E+02  0.39437684984E+02  0.28783123263E+02  0.59263951631E+02  0.00000000000E+00 0.  1.
         22    1    3    3    0    0 -0.34898311051E+02  0.31711445504E+02 -0.10971984019E+03  0.11942341153E+03  0.00000000000E+00 0.  1.
</event>
<event>
 7    1  0.6520971E-006  0.1116253E+03  0.7818608E-02  0.1340302E+00
          2   -1    0    0  502    0  0.00000000000E+00  0.00000000000E+00  0.34166900658E+04  0.34166900658E+04  0.00000000000E+00 0. -1.
          1   -1    0    0  501    0 -0.00000000000E+00 -0.00000000000E+00 -0.79892963570E+02  0.79892963570E+02  0.00000000000E+00 0. -1.
         25    2    1    2    0    0 -0.80886767002E+02  0.14702952823E+02  0.50624113559E+03  0.52788636876E+03  0.12500034026E+03 0.  0.
          2    1    1    2  501    0  0.11172867795E+03  0.27124876842E+02 -0.20822633792E+02  0.11684450564E+03  0.00000000000E+00 0. -1.
          1    1    1    2  502    0 -0.30841910944E+02 -0.41827829666E+02  0.28513786004E+04  0.28518521550E+04  0.00000000000E+00 0. -1.
         22    1    3    3    0    0 -0.37699382484E+02  0.61774877579E+02  0.37505060177E+03  0.38196902077E+03  0.00000000000E+00 0. -1.
         22    1    3    3    0    0 -0.43187384518E+02 -0.47071924756E+02  0.13119053381E+03  0.14591734799E+03  0.00000000000E+00 0. -1.
</event>
<event>
 7    1  0.6520971E-006  0.3939417E+02  0.7818608E-02  0.1543701E+00
          2   -1    0    0  502    0  0.00000000000E+00  0.00000000000E+00  0.11452424217E+04  0.11452424217E+04  0.00000000000E+00 0. -1.
          1   -1    0    0  501    0 -0.00000000000E+00 -0.00000000000E+00 -0.23063777283E+03  0.23063777283E+03  0.00000000000E+00 0. -1.
         25    2    1    2    0    0 -0.56689260700E+02  0.28060897510E+02  0.41277454387E+03  0.43590227945E+03  0.12500754746E+03 0.  0.
          2    1    1    2  501    0  0.32055468358E+02  0.15995814854E+01 -0.21737923173E+03  0.21973584619E+03  0.00000000000E+00 0. -1.
          1    1    1    2  502    0  0.24633792343E+02 -0.29660478996E+02  0.71920933673E+03  0.72024206888E+03  0.00000000000E+00 0. -1.
         22    1    3    3    0    0  0.37762128214E+02 -0.21324278650E+01  0.76930686148E+02  0.85725469068E+02  0.00000000000E+00 0.  1.
         22    1    3    3    0    0 -0.94451388914E+02  0.30193325375E+02  0.33584385772E+03  0.35017681039E+03  0.00000000000E+00 0.  1.
</event>
<event>
 7    1  0.6520971E-006  0.9545362E+02  0.7818608E-02  0.1341642E+00
          2   -1    0    0  502    0  0.00000000000E+00  0.00000000000E+00  0.92538300441E+03  0.92538300441E+03  0.00000000000E+00 0. -1.
          1   -1    0    0  501    0 -0.00000000000E+00 -0.00000000000E+00 -0.11609436122E+03  0.11609436122E+03  0.00000000000E+00 0. -1.
         25    2    1    2    0    0 -0.94303199080E+02  0.51434794977E+02  0.11632849246E+03  0.20173071499E+03  0.12499732687E+03 0.  0.
          2    1    1    2  501    0  0.44551977281E+02 -0.85103506322E+02 -0.40198020790E+02  0.10413148584E+03  0.00000000000E+00 0. -1.
          1    1    1    2  502    0  0.49751221799E+02  0.33668711345E+02  0.73315817153E+03  0.73561516479E+03  0.00000000000E+00 0. -1.
         22    1    3    3    0    0 -0.86484249475E+02  0.62727658411E+02  0.13894424501E+03  0.17527061293E+03  0.00000000000E+00 0. -1.
         22    1    3    3    0    0 -0.78189496044E+01 -0.11292863434E+02 -0.22615752553E+02  0.26460102059E+02  0.00000000000E+00 0. -1.
</event>
<event>
 7    1  0.6520971E-006  0.4627569E+02  0.7818608E-02  0.1495060E+00
          2   -1    0    0  502    0  0.00000000000E+00  0.00000000000E+00  0.25464698364E+03  0.25464698364E+03  0.00000000000E+00 0. -1.
          1   -1    0    0  501    0 -0.00000000000E+00 -0.00000000000E+00 -0.86609920895E+02  0.86609920895E+02  0.00000000000E+00 0. -1.
         25    2    1    2    0    0  0.58991987936E+02  0.47201530747E+02  0.12011626216E+02  0.14654741470E+03  0.12499530570E+03 0.  0.
          2    1    1    2  501    0 -0.26539686206E+02 -0.27745428718E+02  0.46484020107E+01  0.38675203941E+02  0.00000000000E+00 0. -1.
          1    1    1    2  502    0 -0.32452301730E+02 -0.19456102029E+02  0.15137703452E+03  0.15603428589E+03  0.00000000000E+00 0. -1.
         22    1    3    3    0    0  0.94254513466E+02  0.34012257857E+02 -0.13443221331E+02  0.10110127197E+03  0.00000000000E+00 0.  1.
         22    1    3    3    0    0 -0.35262525531E+02  0.13189272889E+02  0.25454847547E+02  0.45446142739E+02  0.00000000000E+00 0.  1.
</event>
<event>
 7    1  0.6520971E-006  0.7598323E+02  0.7818608E-02  0.1472794E+00
          2   -1    0    0  502    0  0.00000000000E+00  0.00000000000E+00  0.53259698975E+02  0.53259698975E+02  0.00000000000E+00 0. -1.
          1   -1    0    0  501    0 -0.00000000000E+00 -0.00000000000E+00 -0.18559241014E+04  0.18559241014E+04  0.00000000000E+00 0. -1.
         25    2    1    2    0    0 -0.77928940913E+02  0.63798143681E+02 -0.32908740022E+03  0.36615688444E+03  0.12501689514E+03 0.  0.
          2    1    1    2  501    0  0.61596012288E+02 -0.42366107434E+02 -0.15020009949E+04  0.15038603473E+04  0.00000000000E+00 0. -1.
          1    1    1    2  502    0  0.16332928625E+02 -0.21432036247E+02  0.28423992659E+02  0.39166568574E+02  0.00000000000E+00 0. -1.
         22    1    3    3    0    0 -0.10801999747E+03  0.25657455064E+02 -0.21004027287E+03  0.23757849457E+03  0.00000000000E+00 0. -1.
         22    1    3    3    0    0  0.30091056553E+02  0.38140688617E+02 -0.11904712735E+03  0.12857838987E+03  0.00000000000E+00 0. -1.
</event>
<event>
 7    1  0.6520971E-006  0.2893538E+02  0.7818608E-02  0.1614286E+00
          2   -1    0    0  502    0  0.00000000000E+00  0.00000000000E+00  0.12755773933E+04  0.12755773933E+04  0.00000000000E+00 0. -1.
          1   -1    0    0  501    0 -0.00000000000E+00 -0.00000000000E+00 -0.13486131536E+04  0.13486131536E+04  0.00000000000E+00 0. -1.
         25    2    1    2    0    0  0.27157597652E+02  0.14799382565E+01  0.47770500859E+03  0.49453756678E+03  0.12500241756E+03 0.  0.
          2    1    1    2  501    0 -0.10944410909E+02 -0.26030298549E+02 -0.13397739449E+04  0.13400714831E+04  0.00000000000E+00 0. -1.
          1    1    1    2  502    0 -0.16213186743E+02  0.24550360292E+02  0.78903317599E+03  0.78958149701E+03  0.00000000000E+00 0. -1.
         22    1    3    3    0    0  0.47579259074E+02  0.33782929069E+02  0.10708097133E+03  0.12194837683E+03  0.00000000000E+00 0.  1.
         22    1    3    3    0    0 -0.20421661422E+02 -0.32302990813E+02  0.37062403726E+03  0.37258918995E+03  0.00000000000E+00 0.  1.
</event>
<event>
 7    1  0.6520971E-006  0.4659385E+02  0.7818608E-02  0.1505891E+00
          2   -1    0    0  502    0  0.00000000000E+00  0.00000000000E+00  0.16214719375E+04  0.16214719375E+04  0.00000000000E+00 0. -1.
          1   -1    0    0  501    0 -0.00000000000E+00 -0.00000000000E+00 -0.13554359345E+03  0.13554359345E+03  0.00000000000E+00 0. -1.
         25    2    1    2    0    0 -0.74696543204E+02  0.85485693119E+01 -0.28145150383E+01  0.14589474488E+03  0.12499881394E+03 0.  0.
          2    1    1    2  501    0  0.32863054941E+02  0.11706604573E+02 -0.55838407488E+02  0.65840357848E+02  0.00000000000E+00 0. -1.
          1    1    1    2  502    0  0.41833488263E+02 -0.20255173885E+02  0.15445812666E+04  0.15452804282E+04  0.00000000000E+00 0. -1.
         22    1    3    3    0    0 -0.80248205571E+02 -0.86918994357E+01  0.46643038170E+02  0.93224978535E+02  0.00000000000E+00 0.  1.
         22    1    3    3    0    0  0.55516623668E+01  0.17240468748E+02 -0.49457553208E+02  0.52669766346E+02  0.00000000000E+00 0.  1.
</event>
<event>
 7    1  0.6520971E-006  0.8350570E+02  0.7818608E-02  0.1469004E+00
          2   -1    0    0  502    0  0.00000000000E+00  0.00000000000E+00  0.11626518331E+04  0.11626518331E+04  0.00000000000E+00 0. -1.
          1   -1    0    0  501    0 -0.00000000000E+00 -0.00000000000E+00 -0.17327471188E+03  0.17327471188E+03  0.00000000000E+00 0. -1.
         25    2    1    2    0    0 -0.77057028630E+02 -0.71663316234E+02  0.88507072075E+02  0.18582771044E+03  0.12500007842E+03 0.  0.
          2    1    1    2  501    0  0.64339605102E+02  0.49916181755E+02 -0.11113741623E+03  0.13777784754E+03  0.00000000000E+00 0. -1.
          1    1    1    2  502    0  0.12717423528E+02  0.21747134480E+02  0.10120074654E+04  0.10123209870E+04  0.00000000000E+00 0. -1.
         22    1    3    3    0    0 -0.53193740620E+02 -0.10751114654E+03  0.70627469122E+02  0.13919935368E+03  0.00000000000E+00 0.  1.
         22    1    3    3    0    0 -0.23863288010E+02  0.35847830304E+02  0.17879602953E+02  0.46628356757E+02  0.00000000000E+00 0.  1.
</event>
<event>
 7    1  0.6520971E-006  0.7101950E+02  0.7818608E-02  0.1418623E+00
          2   -1    0    0  502    0  0.00000000000E+00  0.00000000000E+00  0.21965488820E+04  0.21965488820E+04  0.00000000000E+00 0. -1.
          1   -1    0    0  501    0 -0.00000000000E+00 -0.00000000000E+00 -0.32171455870E+02  0.32171455870E+02  0.00000000000E+00 0. -1.
         25    2    1    2    0    0  0.16515193939E+02 -0.43580613272E+02  0.36752495825E+03  0.39098925445E+03  0.12500392263E+03 0.  0.
          2    1    1    2  501    0  0.43060746339E+02  0.13056018167E+01  0.38622307391E+01  0.43253315453E+02  0.00000000000E+00 0. -1.
          1    1    1    2  502    0 -0.59575940278E+02  0.42275011456E+02  0.17929902371E+04  0.17944777679E+04  0.00000000000E+00 0. -1.
         22    1    3    3    0    0 -0.19598359627E+02 -0.47447703127E+02  0.34378969213E+03  0.34760139908E+03  0.00000000000E+00 0.  1.
         22    1    3    3    0    0  0.36113553566E+02  0.38670898546E+01  0.23735266123E+02  0.43387855364E+02  0.00000000000E+00 0.  1.
</event>
<event>
 7    1  0.6520971E-006  0.1506068E+03  0.7818608E-02  0.1254799E+00
          2   -1    0    0  502    0  0.00000000000E+00  0.00000000000E+00  0.70253061626E+03  0.70253061626E+03  0.00000000000E+00 0. -1.
          1   -1    0    0  501    0 -0.00000000000E+00 -0.00000000000E+00 -0.53946161337E+03  0.53946161337E+03  0.00000000000E+00 0. -1.
         25    2    1    2    0    0 -0.18301459272E+03 -0.50641640754E+02 -0.58860739648E+02  0.23483869173E+03  0.12500283011E+03 0.  0.
          2    1    1    2  501    0  0.70559984598E+02 -0.47480886422E+02 -0.37876512101E+03  0.38819603668E+03  0.00000000000E+00 0. -1.
          1    1    1    2  502    0  0.11245460812E+03  0.98122527176E+02  0.60069486355E+03  0.61895750122E+03  0.00000000000E+00 0. -1.
         22    1    3    3    0    0 -0.15745732588E+03 -0.86280654420E+02 -0.64154996640E+02  0.19066469100E+03  0.00000000000E+00 0. -1.
         22    1    3    3    0    0 -0.25557266839E+02  0.35639013665E+02  0.52942569924E+01  0.44174000729E+02  0.00000000000E+00 0. -1.
</event>
<event>
 7    1  0.6520971E-006  0.1037926E+03  0.7818608E-02  0.1377448E+00
          2   -1    0    0  502    0  0.00000000000E+00  0.00000000000E+00  0.16798576061E+03  0.16798576061E+03  0.00000000000E+00 0. -1.
          1   -1    0    0  501    0 -0.00000000000E+00 -0.00000000000E+00 -0.18917970175E+04  0.18917970175E+04  0.00000000000E+00 0. -1.
         25    2    1    2    0    0 -0.43960913229E+02  0.10205686986E+03 -0.13345222372E+04  0.13449619779E+04  0.12499981595E+03 0.  0.
          2    1    1    2  501    0  0.40846007807E+02  0.16934567942E+01 -0.53464679978E+03  0.53620748285E+03  0.00000000000E+00 0. -1.
          1    1    1    2  502    0  0.31149054228E+01 -0.10375032665E+03  0.14535778004E+03  0.17861331735E+03  0.00000000000E+00 0. -1.
         22    1    3    3    0    0 -0.73390293702E+02  0.24859830005E+02 -0.84208543432E+03  0.84564296547E+03  0.00000000000E+00 0. -1.
         22    1    3    3    0    0  0.29429380472E+02  0.77197039855E+02 -0.49243680284E+03  0.49931901244E+03  0.00000000000E+00 0. -1.
</event>
<event>
 7    1  0.6520971E-006  0.6931663E+02  0.7818608E-02  0.1382204E+00
          2   -1    0    0  502    0  0.00000000000E+00  0.00000000000E+00  0.10534662569E+04  0.10534662569E+04  0.00000000000E+00 0. -1.
          1   -1    0    0  501    0 -0.00000000000E+00 -0.00000000000E+00 -0.44421399424E+02  0.44421399424E+02  0.00000000000E+00 0. -1.
         25    2    1    2    0    0  0.29226729936E+02  0.81475530784E+01  0.37894958131E+03  0.40018653999E+03  0.12500358895E+03 0.  0.
          2    1    1    2  501    0  0.44818562777E+02 -0.38192444959E+02 -0.35935360300E+01  0.58993897333E+02  0.00000000000E+00 0. -1.
          1    1    1    2  502    0 -0.74045292713E+02  0.30044891881E+02  0.63368881220E+03  0.63870721901E+03  0.00000000000E+00 0. -1.
         22    1    3    3    0    0 -0.28967847525E+01 -0.71569198314E+01 -0.82824556836E+01  0.11323070941E+02  0.00000000000E+00 0.  1.
         22    1    3    3    0    0  0.32123514688E+02  0.15304472910E+02  0.38723203699E+03  0.38886346905E+03  0.00000000000E+00 0.  1.
</event>
<event>
 7    1  0.6520971E-006  0.1484859E+03  0.7818608E-02  0.1260176E+00
          2   -1    0    0  502    0  0.00000000000E+00  0.00000000000E+00  0.58990425765E+03  0.58990425765E+03  0.00000000000E+00 0. -1.
          1   -1    0    0  501    0 -0.00000000000E+00 -0.00000000000E+00 -0.97544374815E+03  0.97544374815E+03  0.00000000000E+00 0. -1.
         25    2    1    2    0    0  0.50443793428E+02  0.14746726172E+03 -0.75772741516E+02  0.21367837122E+03  0.12500307354E+03 0.  0.
          2    1    1    2  501    0  0.63855064804E+02 -0.51132941215E+02 -0.81791271097E+03  0.82199346088E+03  0.00000000000E+00 0. -1.
          1    1    1    2  502    0 -0.11429885823E+03 -0.96334320506E+02  0.50814596199E+03  0.52967617370E+03  0.00000000000E+00 0. -1.
         22    1    3    3    0    0  0.81219818236E+02  0.79295002530E+02 -0.97790406125E+01  0.11392974123E+03  0.00000000000E+00 0. -1.
         22    1    3    3    0    0 -0.30776024808E+02  0.68172259191E+02 -0.65993700904E+02  0.99748629991E+02  0.00000000000E+00 0. -1.
</event>
<event>
 7    1  0.6520971E-006  0.4595762E+02  0.7818608E-02  0.1557667E+00
          2   -1    0    0  502    0  0.00000000000E+00  0.00000000000E+00  0.10852894696E+04  0.10852894696E+04  0.00000000000E+00 0. -1.
          1   -1    0    0  501    0 -0.00000000000E+00 -0.00000000000E+00 -0.17144057674E+03  0.17144057674E+03  0.00000000000E+00 0. -1.
         25    2    1    2    0    0  0.19970193446E+02 -0.11804263008E+02  0.64217956884E+02  0.14243352317E+03  0.12500085314E+03 0.  0.
          2    1    1    2  501    0 -0.33030764071E+02  0.33300953162E+02 -0.12800978504E+03  0.13633227762E+03  0.00000000000E+00 0. -1.
          1    1    1    2  502    0  0.13060570625E+02 -0.21496690154E+02  0.97764072103E+03  0.97796424557E+03  0.00000000000E+00 0. -1.
         22    1    3    3    0    0 -0.51218785324E+02 -0.18406003030E+02  0.37573434991E+02  0.66135527023E+02  0.00000000000E+00 0.  1.
         22    1    3    3    0    0  0.71188978770E+02  0.66017400219E+01  0.26644521894E+02  0.76297996150E+02  0.00000000000E+00 0.  1.
</event>
<event>
 7    1  0.6520971E-006  0.1230727E+03  0.7818608E-02  0.1286607E+00
          2   -1    0    0  502    0  0.00000000000E+00  0.00000000000E+00  0.96985224228E+03  0.96985224228E+03  0.00000000000E+00 0. -1.
          1   -1    0    0  501    0 -0.00000000000E+00 -0.00000000000E+00 -0.37068663678E+04  0.37068663678E+04  0.00000000000E+00 0. -1.
         25    2    1    2    0    0  0.54586570170E+02  0.59444981950E+01 -0.91218370323E+03  0.92234482820E+03  0.12500337182E+03 0.  0.
          2    1    1    2  501    0  0.52057891401E+02  0.56113115086E+02 -0.27851291347E+04  0.27861807197E+04  0.00000000000E+00 0. -1.
          1    1    1    2  502    0 -0.10664446157E+03 -0.62057613281E+02  0.96029871244E+03  0.96819306218E+03  0.00000000000E+00 0. -1.
         22    1    3    3    0    0 -0.24230482790E+02  0.19089679461E+02 -0.57482760566E+03  0.57565467807E+03  0.00000000000E+00 0.  1.
         22    1    3    3    0    0  0.78817052960E+02 -0.13145181266E+02 -0.33735609757E+03  0.34669015013E+03  0.00000000000E+00 0.  1.
</event>
<event>
 7    1  0.6520971E-006  0.9275409E+02  0.7818608E-02  0.1321317E+00
          2   -1    0    0  502    0  0.00000000000E+00  0.00000000000E+00  0.24177946809E+04  0.24177946809E+04  0.00000000000E+00 0. -1.
          1   -1    0    0  501    0 -0.00000000000E+00 -0.00000000000E+00 -0.21548172453E+02  0.21548172453E+02  0.00000000000E+00 0. -1.
         25    2    1    2    0    0 -0.13263219607E+03 -0.34762046216E+02  0.12338945250E+04  0.12477657439E+04  0.12499581433E+03 0.  0.
          2    1    1    2  501    0  0.50077482208E+02  0.54338967882E+02  0.92621327880E+02  0.11848707960E+03  0.00000000000E+00 0. -1.
          1    1    1    2  502    0  0.82554713863E+02 -0.19576921666E+02  0.10697306556E+04  0.10730900299E+04  0.00000000000E+00 0. -1.
         22    1    3    3    0    0 -0.15559075520E+03 -0.17131912137E+02  0.10524063065E+04  0.10639835617E+04  0.00000000000E+00 0. -1.
         22    1    3    3    0    0  0.22958559130E+02 -0.17630134079E+02  0.18148821845E+03  0.18378218222E+03  0.00000000000E+00 0. -1.
</event>
<event>
 7    1  0.6520971E-006  0.1082983E+03  0.7818608E-02  0.1343384E+00
          2   -1    0    0  502    0  0.00000000000E+00  0.00000000000E+00  0.26175345718E+03  0.26175345718E+03  0.00000000000E+00 0. -1.
          1   -1    0    0  501    0 -0.00000000000E+00 -0.00000000000E+00 -0.14720664438E+04  0.14720664438E+04  0.00000000000E+00 0. -1.
         25    2    1    2    0    0  0.12579272519E+03  0.53403471285E+02  0.52940854777E+01  0.18527374131E+03  0.12499036533E+03 0.  0.
          2    1    1    2  501    0 -0.10776692030E+03 -0.44589575911E+01 -0.13758278868E+04  0.13800492620E+04  0.00000000000E+00 0. -1.
          1    1    1    2  502    0 -0.18025804886E+02 -0.48944513694E+02  0.16022081470E+03  0.16849689768E+03  0.00000000000E+00 0. -1.
         22    1    3    3    0    0  0.13031157549E+01  0.60346401058E+02 -0.18198013214E+01  0.60387895378E+02  0.00000000000E+00 0. -1.
         22    1    3    3    0    0  0.12448960943E+03 -0.69429297722E+01  0.71138867990E+01  0.12488584594E+03  0.00000000000E+00 0. -1.
</event>
<event>
 7    1  0.6520971E-006  0.1084012E+03  0.7818608E-02  0.1290963E+00
          2   -1    0    0  502    0  0.00000000000E+00  0.00000000000E+00  0.14294749170E+04  0.14294749170E+04  0.00000000000E+00 0. -1.
          1   -1    0    0  501    0 -0.00000000000E+00 -0.00000000000E+00 -0.46699841457E+03  0.46699841457E+03  0.00000000000E+00 0. -1.
         25    2    1    2    0    0  0.15931318333E+03  0.98802119198E+02  0.12678142709E+03  0.25853709446E+03  0.12500139925E+03 0.  0.
          2    1    1    2  501    0 -0.82852026563E+02 -0.65443792834E+02 -0.39273373424E+03  0.40667817047E+03  0.00000000000E+00 0. -1.
          1    1    1    2  502    0 -0.76461156766E+02 -0.33358326364E+02  0.12284288096E+04  0.12312580667E+04  0.00000000000E+00 0. -1.
         22    1    3    3    0    0  0.16862845997E+03  0.70851899033E+02  0.13570583574E+03  0.22775342580E+03  0.00000000000E+00 0.  1.
         22    1    3    3    0    0 -0.93152766449E+01  0.27950220165E+02 -0.89244086510E+01  0.30783668657E+02  0.00000000000E+00 0.  1.
</event>
<event>
 7    1  0.6520971E-006  0.8002291E+02  0.7818608E-02  0.1368641E+00
          2   -1    0    0  502    0  0.00000000000E+00  0.00000000000E+00  0.19637779997E+04  0.19637779997E+04  0.00000000000E+00 0. -1.
          1   -1    0    0  501    0 -0.00000000000E+00 -0.00000000000E+00 -0.73010065372E+02  0.73010065372E+02  0.00000000000E+00 0. -1.
         25    2    1    2    0    0  0.92650414048E+01 -0.86696040534E+02  0.41138229059E+03  0.43870852990E+03  0.12501096255E+03 0.  0.
          2    1    1    2  501    0 -0.53722540876E+02  0.19095570965E+02 -0.44327564509E+02  0.72219700940E+02  0.00000000000E+00 0. -1.
          1    1    1    2  502    0  0.44457499471E+02  0.67600469568E+02  0.15237132083E+04  0.15258598343E+04  0.00000000000E+00 0. -1.
         22    1    3    3    0    0  0.25249827263E+02  0.66089619850E+01  0.25188911459E+03  0.25323775035E+03  0.00000000000E+00 0. -1.
         22    1    3    3    0    0 -0.15984785858E+02 -0.93305002519E+02  0.15949317601E+03  0.18547077955E+03  0.00000000000E+00 0. -1.
</event>
<event>
 7    1  0.6520971E-006  0.9693671E+02  0.7818608E-02  0.1399638E+00
          2   -1    0    0  502    0  0.00000000000E+00  0.00000000000E+00  0.13838464457E+04  0.13838464457E+04  0.00000000000E+00 0. -1.
          1   -1    0    0  501    0 -0.00000000000E+00 -0.00000000000E+00 -0.14418281142E+03  0.14418281142E+03  0.00000000000E+00 0. -1.
         25    2    1    2    0    0  0.47303421137E+02  0.97806634369E+02  0.46182695210E+02  0.17193016653E+03  0.12499355763E+03 0.  0.
          2    1    1    2  501    0  0.21426021764E+02 -0.29684614520E+02 -0.75250132814E+02  0.83682932766E+02  0.00000000000E+00 0. -1.
          1    1    1    2  502    0 -0.68729442901E+02 -0.68122019848E+02  0.12687310719E+04  0.12724161578E+04  0.00000000000E+00 0. -1.
         22    1    3    3    0    0  0.45889166066E+02  0.23991437648E+02 -0.34765808702E+02  0.62370394398E+02  0.00000000000E+00 0.  1.
         22    1    3    3    0    0  0.14142550707E+01  0.73815196721E+02  0.80948503913E+02  0.10955977213E+03  0.00000000000E+00 0.  1.
</event>
<event>
 7    1  0.6520971E-006  0.7682699E+02  0.7818608E-02  0.1408326E+00
          2   -1    0    0  502    0  0.00000000000E+00  0.00000000000E+00  0.93107731044E+03  0.93107731044E+03  0.00000000000E+00 0. -1.
          1   -1    0    0  501    0 -0.00000000000E+00 -0.00000000000E+00 -0.44882161766E+02  0.44882161766E+02  0.00000000000E+00 0. -1.
         25    2    1    2    0    0 -0.22998753338E+02 -0.48245319462E+02  0.27011241340E+03  0.30239265942E+03  0.12499620430E+03 0.  0.
          2    1    1    2  501    0  0.66093077037E+02  0.50193390577E+02  0.33675253717E+02  0.89563910157E+02  0.00000000000E+00 0. -1.
          1    1    1    2  502    0 -0.43094323698E+02 -0.19480711144E+01  0.58240748155E+03  0.58400290263E+03  0.00000000000E+00 0. -1.
         22    1    3    3    0    0  0.32417161779E+02  0.27092272767E+02  0.77136069463E+02  0.87947921145E+02  0.00000000000E+00 0.  1.
         22    1    3    3    0    0 -0.55415915117E+02 -0.75337592229E+02  0.19297634394E+03  0.21444473827E+03  0.00000000000E+00 0.  1.
</event>
<event>
 7    1  0.6520971E-006  0.7594317E+02  0.7818608E-02  0.1480988E+00
          2   -1    0    0  502    0  0.00000000000E+00  0.00000000000E+00  0.60803333620E+03  0.60803333620E+03  0.00000000000E+00 0. -1.
          1   -1    0    0  501    0 -0.00000000000E+00 -0.00000000000E+00 -0.43012675314E+03  0.43012675314E+03  0.00000000000E+00 0. -1.
         25    2    1    2    0    0 -0.82898387635E+02 -0.23508198077E+01  0.11216732021E+03  0.18730679908E+03  0.12499864092E+03 0.  0.
          2    1    1    2  501    0  0.71581923864E+02  0.25132947310E+02 -0.38853237579E+03  0.39586998358E+03  0.00000000000E+00 0. -1.
          1    1    1    2  502    0  0.11316463771E+02 -0.22782127502E+02  0.45427163864E+03  0.45498330668E+03  0.00000000000E+00 0. -1.
         22    1    3    3    0    0  0.25813581266E+00  0.35416271782E+02  0.84901546288E+02  0.91992670920E+02  0.00000000000E+00 0. -1.
         22    1    3    3    0    0 -0.83156523448E+02 -0.37767091590E+02  0.27265773921E+02  0.95314128158E+02  0.00000000000E+00 0. -1.
</event>
<event>
 7    1  0.6520971E-006  0.5785978E+02  0.7818608E-02  0.1504153E+00
          2   -1    0    0  502    0  0.00000000000E+00  0.00000000000E+00  0.17396891777E+04  0.17396891777E+04  0.00000000000E+00 0. -1.
          1   -1    0    0  501    0 -0.00000000000E+00 -0.00000000000E+00 -0.80071782032E+02  0.80071782032E+02  0.00000000000E+00 0. -1.
         25    2    1    2    0    0  0.15878053482E+02 -0.42142233111E+02  0.15597431767E+03  0.20489675891E+03  0.12500645441E+03 0.  0.
          2    1    1    2  501    0  0.70170237280E+01  0.58994118366E+02 -0.39574968078E+02  0.71384331069E+02  0.00000000000E+00 0. -1.
          1    1    1    2  502    0 -0.22895077210E+02 -0.16851885256E+02  0.15432180461E+04  0.15434798697E+04  0.00000000000E+00 0. -1.
         22    1    3    3    0    0 -0.23201382877E+01 -0.80176389845E+02  0.60313839199E+02  0.10035634374E+03  0.00000000000E+00 0.  1.
         22    1    3    3    0    0  0.18198191770E+02  0.38034156734E+02  0.95660478467E+02  0.10454041516E+03  0.00000000000E+00 0.  1.
</event>
<event>
 7    1  0.6520971E-006  0.1211143E+03  0.7818608E-02  0.1319319E+00
          2   -1    0    0  502    0  0.00000000000E+00  0.00000000000E+00  0.82773050628E+03  0.82773050628E+03  0.00000000000E+00 0. -1.
          1   -1    0    0  501    0 -0.00000000000E+00 -0.00000000000E+00 -0.85516547775E+03  0.85516547775E+03  0.00000000000E+00 0. -1.
         25    2    1    2    0    0  0.16981680261E+03 -0.39211093122E+02  0.96512414817E+02  0.23519017048E+03  0.12499805521E+03 0.  0.
          2    1    1    2  501    0 -0.57183519972E+02  0.70002496100E+01 -0.77957171047E+03  0.78169751836E+03  0.00000000000E+00 0. -1.
          1    1    1    2  502    0 -0.11263328264E+03  0.32210843512E+02  0.65562432418E+03  0.66600829518E+03  0.00000000000E+00 0. -1.
         22    1    3    3    0    0  0.17625177973E+03 -0.15474800212E+01  0.80074156457E+02  0.19359482194E+03  0.00000000000E+00 0. -1.
         22    1    3    3    0    0 -0.64349771176E+01 -0.37663613101E+02  0.16438258361E+02  0.41595348541E+02  0.00000000000E+00 0. -1.
</event>
<event>
 7    1  0.6520971E-006  0.1450047E+03  0.7818608E-02  0.1207122E+00
          2   -1    0    0  502    0  0.00000000000E+00  0.00000000000E+00  0.11377212264E+03  0.11377212264E+03  0.00000000000E+00 0. -1.
          1   -1    0    0  501    0 -0.00000000000E+00 -0.00000000000E+00 -0.75456451978E+03  0.75456451978E+03  0.00000000000E+00 0. -1.
         25    2    1    2    0    0 -0.53304799120E+02 -0.17102833625E+03 -0.19286482939E+03  0.29139988585E+03  0.12499983061E+03 0.  0.
          2    1    1    2  501    0 -0.83747417062E+02  0.12366750449E+03 -0.39547228820E+03  0.42273586584E+03  0.00000000000E+00 0. -1.
          1    1    1    2  502    0  0.13705221618E+03  0.47360831757E+02 -0.52455279550E+02  0.15420089072E+03  0.00000000000E+00 0. -1.
         22    1    3    3    0    0 -0.13477193606E+02 -0.14188814799E+01 -0.85897936500E+02  0.86960355721E+02  0.00000000000E+00 0. -1.
         22    1    3    3    0    0 -0.39827605513E+02 -0.16960945477E+03 -0.10696689289E+03  0.20443953013E+03  0.00000000000E+00 0. -1.
</event>
<event>
 7    1  0.6520971E-006  0.7240990E+02  0.7818608E-02  0.1460691E+00
          2   -1    0    0  502    0  0.00000000000E+00  0.00000000000E+00  0.20996667873E+04  0.20996667873E+04  0.00000000000E+00 0. -1.
          1   -1    0    0  501    0 -0.00000000000E+00 -0.00000000000E+00 -0.25128886596E+02  0.25128886596E+02  0.00000000000E+00 0. -1.
         25    2    1    2    0    0  0.34763928653E+02 -0.54702131545E+02  0.19244269101E+04  0.19295712282E+04  0.12500135443E+03 0.  0.
          2    1    1    2  501    0 -0.61430080542E+02  0.39191922422E+02  0.44913852951E+02  0.85597405133E+02  0.00000000000E+00 0. -1.
          1    1    1    2  502    0  0.26666151889E+02  0.15510209122E+02  0.10519713772E+03  0.10962704059E+03  0.00000000000E+00 0. -1.
         22    1    3    3    0    0 -0.46476623797E+02 -0.10888966258E+02  0.56383377873E+03  0.56585084270E+03  0.00000000000E+00 0.  1.
         22    1    3    3    0    0  0.81240552450E+02 -0.43813165287E+02  0.13605931313E+04  0.13637203855E+04  0.00000000000E+00 0.  1.
</event>
<event>
 7    1  0.6520971E-006  0.8522632E+02  0.7818608E-02  0.1383841E+00
          2   -1    0    0  502    0  0.00000000000E+00  0.00000000000E+00  0.15490433345E+04  0.15490433345E+04  0.00000000000E+00 0. -1.
          1   -1    0    0  501    0 -0.00000000000E+00 -0.00000000000E+00 -0.39948867993E+03  0.39948867993E+03  0.00000000000E+00 0. -1.
         25    2    1    2    0    0  0.10701558171E+03 -0.26783996975E+02  0.45073599075E+03  0.48058090820E+03  0.12500143496E+03 0.  0.
          2    1    1    2  501    0 -0.83838184354E+02 -0.14402136029E+02 -0.37933806176E+03  0.38875908707E+03  0.00000000000E+00 0. -1.
          1    1    1    2  502    0 -0.23177397361E+02  0.41186133004E+02  0.10781567255E+04  0.10791920191E+04  0.00000000000E+00 0. -1.
         22    1    3    3    0    0  0.78970868456E+00 -0.56365825054E+02  0.15955609599E+03  0.16922138647E+03  0.00000000000E+00 0. -1.
         22    1    3    3    0    0  0.10622587303E+03  0.29581828079E+02  0.29117989477E+03  0.31135952173E+03  0.00000000000E+00 0. -1.
</event>
<event>
 7    1  0.6520971E-006  0.1645241E+03  0.7818608E-02  0.1310089E+00
          2   -1    0    0  502    0  0.00000000000E+00  0.00000000000E+00  0.28134865234E+03  0.28134865234E+03  0.00000000000E+00 0. -1.
          1   -1    0    0  501    0 -0.00000000000E+00 -0.00000000000E+00 -0.31536126078E+04  0.31536126078E+04  0.00000000000E+00 0. -1.
         25    2    1    2    0    0  0.13663793109E+03 -0.11451590503E+03 -0.47889939210E+03  0.52607317630E+03  0.12499816938E+03 0.  0.
          2    1    1    2  501    0 -0.94628694405E+02  0.13346905901E+03 -0.26465196468E+04  0.26515721413E+04  0.00000000000E+00 0. -1.
          1    1    1    2  502    0 -0.42009236685E+02 -0.18953153987E+02  0.25315508345E+03  0.25731594255E+03  0.00000000000E+00 0. -1.
         22    1    3    3    0    0  0.71872733450E+02  0.34196655822E+01 -0.25403449446E+03  0.26402823391E+03  0.00000000000E+00 0. -1.
         22    1    3    3    0    0  0.64765197639E+02 -0.11793557061E+03 -0.22486489764E+03  0.26204494239E+03  0.00000000000E+00 0. -1.
</event>
<event>
 7    1  0.6520971E-006  0.4321469E+02  0.7818608E-02  0.1498501E+00
          2   -1    0    0  502    0  0.00000000000E+00  0.00000000000E+00  0.10373300437E+04  0.10373300437E+04  0.00000000000E+00 0. -1.
          1   -1    0    0  501    0 -0.00000000000E+00 -0.00000000000E+00 -0.56250776526E+03  0.56250776526E+03  0.00000000000E+00 0. -1.
         25    2    1    2    0    0 -0.21860998579E+02 -0.68720155824E+02  0.44714585594E+03  0.46985486413E+03  0.12499525504E+03 0.  0.
          2    1    1    2  501    0  0.28460047737E+02  0.27487592981E+02 -0.54968813875E+03  0.55111032649E+03  0.00000000000E+00 0. -1.
          1    1    1    2  502    0 -0.65990491571E+01  0.41232562843E+02  0.57736456125E+03  0.57887261836E+03  0.00000000000E+00 0. -1.
         22    1    3    3    0    0 -0.39661722374E+01  0.28358388898E+02  0.31167657344E+02  0.42324361867E+02  0.00000000000E+00 0. -1.
         22    1    3    3    0    0 -0.17894826342E+02 -0.97078544722E+02  0.41597819860E+03  0.42753050226E+03  0.00000000000E+00 0. -1.
</event>
<event>
 7    1  0.6520971E-006  0.1585741E+03  0.7818608E-02  0.1251269E+00
          2   -1    0    0  502    0  0.00000000000E+00  0.00000000000E+00  0.30695380523E+03  0.30695380523E+03  0.00000000000E+00 0. -1.
          1   -1    0    0  501    0 -0.00000000000E+00 -0.00000000000E+00 -0.61748646722E+03  0.61748646722E+03  0.00000000000E+00 0. -1.
         25    2    1    2    0    0  0.14749946986E+03  0.10298653738E+02 -0.95143987857E+02  0.21573079459E+03  0.12500096573E+03 0.  0.
          2    1    1    2  501    0 -0.13663185147E+03 -0.93249039519E+02 -0.43944275231E+03  0.46954614125E+03  0.00000000000E+00 0. -1.
          1    1    1    2  502    0 -0.10867618393E+02  0.82950385781E+02  0.22405407818E+03  0.23916333661E+03  0.00000000000E+00 0. -1.
         22    1    3    3    0    0  0.16919864585E+03  0.18476785369E+02 -0.87020081380E+02  0.19115979681E+03  0.00000000000E+00 0.  1.
         22    1    3    3    0    0 -0.21699175989E+02 -0.81781316308E+01 -0.81239064770E+01  0.24570997782E+02  0.00000000000E+00 0.  1.
</event>
<event>
 7    1  0.6520971E-006  0.7006718E+02  0.7818608E-02  0.1452551E+00
          2   -1    0    0  502    0  0.00000000000E+00  0.00000000000E+00  0.96528943534E+03  0.96528943534E+03  0.00000000000E+00 0. -1.
          1   -1    0    0  501    0 -0.00000000000E+00 -0.00000000000E+00 -0.11783032830E+04  0.11783032830E+04  0.00000000000E+00 0. -1.
         25    2    1    2    0    0  0.56984224922E+02  0.67765983995E+02 -0.13615904570E+03  0.20494880948E+03  0.12500119322E+03 0.  0.
          2    1    1    2  501    0 -0.33786207470E+02 -0.17551823047E+01 -0.10061498861E+04  0.10067185216E+04  0.00000000000E+00 0. -1.
          1    1    1    2  502    0 -0.23198017452E+02 -0.66010801690E+02  0.92929508414E+03  0.93192538723E+03  0.00000000000E+00 0. -1.
         22    1    3    3    0    0  0.20992789873E+02  0.99666043305E+02 -0.11108509921E+03  0.15071136878E+03  0.00000000000E+00 0. -1.
         22    1    3    3    0    0  0.35991435049E+02 -0.31900059310E+02 -0.25073946495E+02  0.54237440700E+02  0.00000000000E+00 0. -1.
</event>
<event>
 7    1  0.6520971E-006  0.6166767E+02  0.7818608E-02  0.1399896E+00
          2   -1    0    0  502    0  0.00000000000E+00  0.00000000000E+00  0.17578543210E+02  0.17578543210E+02  0.00000000000E+00 0. -1.
          1   -1    0    0  501    0 -0.00000000000E+00 -0.00000000000E+00 -0.17140882335E+04  0.17140882335E+04  0.00000000000E+00 0. -1.
         25    2    1    2    0    0  0.28386235448E+02 -0.59297110229E+01 -0.65921790108E+03  0.67158255303E+03  0.12495577056E+03 0.  0.
          2    1    1    2  501    0 -0.35801570263E+02 -0.55290498672E+02 -0.95490498161E+03  0.95717413023E+03  0.00000000000E+00 0. -1.
          1    1    1    2  502    0  0.74153348158E+01  0.61220209695E+02 -0.82386807551E+02  0.10291009340E+03  0.00000000000E+00 0. -1.
         22    1    3    3    0    0  0.52818721247E+02 -0.34069635980E+02 -0.58662641125E+03  0.58998398604E+03  0.00000000000E+00 0.  1.
         22    1    3    3    0    0 -0.24432485800E+02  0.28139924957E+02 -0.72591489830E+02  0.81598566989E+02  0.00000000000E+00 0.  1.
</event>
<event>
 7    1  0.6520971E-006  0.1058346E+03  0.7818608E-02  0.1302876E+00
          2   -1    0    0  502    0  0.00000000000E+00  0.00000000000E+00  0.90448739055E+03  0.90448739055E+03  0.00000000000E+00 0. -1.
          1   -1    0    0  501    0 -0.00000000000E+00 -0.00000000000E+00 -0.14257974964E+04  0.14257974964E+04  0.00000000000E+00 0. -1.
         25    2    1    2    0    0 -0.24566414809E+01  0.42268658303E+02  0.15074751982E+03  0.20035668218E+03  0.12500124319E+03 0.  0.
          2    1    1    2  501    0  0.12397071257E+02  0.75506664253E+02 -0.13951464600E+04  0.13972432102E+04  0.00000000000E+00 0. -1.
          1    1    1    2  502    0 -0.99404297760E+01 -0.11777532256E+03  0.72308883438E+03  0.73268499449E+03  0.00000000000E+00 0. -1.
         22    1    3    3    0    0  0.34332402783E+02 -0.27204126648E+02  0.93044024750E+02  0.10283952999E+03  0.00000000000E+00 0.  1.
         22    1    3    3    0    0 -0.36789044263E+02  0.69472784951E+02  0.57703495070E+02  0.97517152183E+02  0.00000000000E+00 0.  1.
</event>
<event>
 7    1  0.6520971E-006  0.8288983E+02  0.7818608E-02  0.1411317E+00
          2   -1    0    0  502    0  0.00000000000E+00  0.00000000000E+00  0.14409740719E+03  0.14409740719E+03  0.00000000000E+00 0. -1.
          1   -1    0    0  501    0 -0.00000000000E+00 -0.00000000000E+00 -0.26533558404E+04  0.26533558404E+04  0.00000000000E+00 0. -1.
         25    2    1    2    0    0  0.50761741702E+02  0.27128973563E+02 -0.18947151517E+02  0.13891806916E+03  0.12500599890E+03 0.  0.
          2    1    1    2  501    0  0.38423832430E+02 -0.70240665255E+01 -0.25493866487E+04  0.25496858656E+04  0.00000000000E+00 0. -1.
          1    1    1    2  502    0 -0.89185574132E+02 -0.20104907037E+02  0.59075367036E+02  0.10884931286E+03  0.00000000000E+00 0. -1.
         22    1    3    3    0    0  0.14325754313E+02  0.61986964968E+02 -0.48922945987E+02  0.80256250265E+02  0.00000000000E+00 0. -1.
         22    1    3    3    0    0  0.36435987390E+02 -0.34857991406E+02  0.29975794469E+02  0.58661818894E+02  0.00000000000E+00 0. -1.
</event>
<event>
 7    1  0.6520971E-006  0.7261906E+02  0.7818608E-02  0.1436718E+00
          2   -1    0    0  502    0  0.00000000000E+00  0.00000000000E+00  0.15129063795E+04  0.15129063795E+04  0.00000000000E+00 0. -1.
          1   -1    0    0  501    0 -0.00000000000E+00 -0.00000000000E+00 -0.59107946759E+02  0.59107946759E+02  0.00000000000E+00 0. -1.
         25    2    1    2    0    0  0.30267047911E+02 -0.25591785281E+02  0.38619458009E+03  0.40785154767E+03  0.12500239032E+03 0.  0.
          2    1    1    2  501    0 -0.48084536607E+02  0.57692944391E+02 -0.18572382574E+02  0.77366219293E+02  0.00000000000E+00 0. -1.
          1    1    1    2  502    0  0.17817488696E+02 -0.32101159110E+02  0.10861762353E+04  0.10867965593E+04  0.00000000000E+00 0. -1.
         22    1    3    3    0    0  0.23918315942E+02 -0.52262628992E+02  0.37304206149E+03  0.37744383406E+03  0.00000000000E+00 0. -1.
         22    1    3    3    0    0  0.63487319693E+01  0.26670843712E+02  0.13152518600E+02  0.30407713617E+02  0.00000000000E+00 0. -1.
</event>
<event>
 7    1  0.6520971E-006  0.1379950E+03  0.7818608E-02  0.1339842E+00
          2   -1    0    0  502    0  0.00000000000E+00  0.00000000000E+00  0.27974907094E+04  0.27974907094E+04  0.00000000000E+00 0. -1.
          1   -1    0    0  501    0 -0.00000000000E+00 -0.00000000000E+00 -0.19515665783E+04  0.19515665783E+04  0.00000000000E+00 0. -1.
         25    2    1    2    0    0  0.79875332451E+02  0.16051400441E+03  0.28137986356E+03  0.35629465364E+03  0.12500575288E+03 0.  0.
          2    1    1    2  501    0 -0.55749994784E+02 -0.12588300324E+03 -0.19114534616E+04  0.19164052098E+04  0.00000000000E+00 0. -1.
          1    1    1    2  502    0 -0.24125337666E+02 -0.34631001166E+02  0.24759977291E+04  0.24763574243E+04  0.00000000000E+00 0. -1.
         22    1    3    3    0    0  0.58155120030E+02  0.45808576009E+02  0.20195183313E+03  0.21509297182E+03  0.00000000000E+00 0. -1.
         22    1    3    3    0    0  0.21720212421E+02  0.11470542840E+03  0.79428030428E+02  0.14120168182E+03  0.00000000000E+00 0. -1.
</event>
<event>
 7    1  0.6520971E-006  0.5664678E+02  0.7818608E-02  0.1546330E+00
          2   -1    0    0  502    0  0.00000000000E+00  0.00000000000E+00  0.21995871349E+04  0.21995871349E+04  0.00000000000E+00 0. -1.
          1   -1    0    0  501    0 -0.00000000000E+00 -0.00000000000E+00 -0.11670415659E+02  0.11670415659E+02  0.00000000000E+00 0. -1.
         25    2    1    2    0    0 -0.31952744565E+02  0.66740488835E+02  0.96297624150E+03  0.97387072422E+03  0.12500270025E+03 0.  0.
          2    1    1    2  501    0  0.15381119466E+02 -0.52355843091E+02  0.11563010897E+03  0.12785943548E+03  0.00000000000E+00 0. -1.
          1    1    1    2  502    0  0.16571625099E+02 -0.14384645744E+02  0.11093103688E+04  0.11095273908E+04  0.00000000000E+00 0. -1.
         22    1    3    3    0    0 -0.35601130860E+02  0.99366109874E+02  0.58291477153E+03  0.59239403708E+03  0.00000000000E+00 0.  1.
         22    1    3    3    0    0  0.36483862954E+01 -0.32625621039E+02  0.38006146998E+03  0.38147668714E+03  0.00000000000E+00 0.  1.
</event>
<event>
 7    1  0.6520971E-006  0.6214775E+02  0.7818608E-02  0.1442121E+00
          2   -1    0    0  502    0  0.00000000000E+00  0.00000000000E+00  0.22449234677E+03  0.22449234677E+03  0.00000000000E+00 0. -1.
          1   -1    0    0  501    0 -0.00000000000E+00 -0.00000000000E+00 -0.36799039970E+03  0.36799039970E+03  0.00000000000E+00 0. -1.
         25    2    1    2    0    0 -0.42919229588E+02 -0.27124417470E+02  0.47116402933E+02  0.14290850641E+03  0.12500036595E+03 0.  0.
          2    1    1    2  501    0  0.21428090265E+02 -0.35190685966E+02 -0.31025386411E+03  0.31297764717E+03  0.00000000000E+00 0. -1.
          1    1    1    2  502    0  0.21491139323E+02  0.62315103436E+02  0.11963940824E+03  0.13659659289E+03  0.00000000000E+00 0. -1.
         22    1    3    3    0    0  0.17942078207E+02  0.11521979707E+02 -0.30345437488E+02  0.37088000257E+02  0.00000000000E+00 0. -1.
         22    1    3    3    0    0 -0.60861307795E+02 -0.38646397177E+02  0.77461840421E+02  0.10582050615E+03  0.00000000000E+00 0. -1.
</event>
<event>
 7    1  0.6520971E-006  0.8768259E+02  0.7818608E-02  0.1386292E+00
          2   -1    0    0  502    0  0.00000000000E+00  0.00000000000E+00  0.15825953648E+03  0.15825953648E+03  0.00000000000E+00 0. -1.
          1   -1    0    0  501    0 -0.00000000000E+00 -0.00000000000E+00 -0.26175792088E+04  0.26175792088E+04  0.00000000000E+00 0. -1.
         25    2    1    2    0    0  0.24393010983E+02 -0.38702057433E+02 -0.11447932340E+04  0.11525055627E+04  0.12499862015E+03 0.  0.
          2    1    1    2  501    0  0.36129052952E+01 -0.44888414608E+02 -0.14559697979E+04  0.14566660823E+04  0.00000000000E+00 0. -1.
          1    1    1    2  502    0 -0.28005916278E+02  0.83590472041E+02  0.14144335960E+03  0.16666710035E+03  0.00000000000E+00 0. -1.
         22    1    3    3    0    0 -0.33433438959E+02 -0.38094753810E+02 -0.21411422765E+03  0.22003160590E+03  0.00000000000E+00 0.  1.
         22    1    3    3    0    0  0.57826449943E+02 -0.60730362316E+00 -0.93067900638E+03  0.93247395677E+03  0.00000000000E+00 0.  1.
</event>
<event>
 7    1  0.6520971E-006  0.8082128E+02  0.7818608E-02  0.1376634E+00
          2   -1    0    0  502    0  0.00000000000E+00  0.00000000000E+00  0.63842974237E+03  0.63842974237E+03  0.00000000000E+00 0. -1.
          1   -1    0    0  501    0 -0.00000000000E+00 -0.00000000000E+00 -0.85376611909E+02  0.85376611909E+02  0.00000000000E+00 0. -1.
         25    2    1    2    0    0  0.59690567418E+02 -0.51805154287E+02  0.23049372387E+03  0.27386089205E+03  0.12500277437E+03 0.  0.
          2    1    1    2  501    0  0.24399074768E+02  0.46882641392E+02 -0.47110373049E+02  0.70800311879E+02  0.00000000000E+00 0. -1.
          1    1    1    2  502    0 -0.84089642186E+02  0.49225128949E+01  0.36966977963E+03  0.37914515035E+03  0.00000000000E+00 0. -1.
         22    1    3    3    0    0  0.13970239098E+02 -0.64669239713E+02  0.39511195725E+02  0.77061097404E+02  0.00000000000E+00 0.  1.
         22    1    3    3    0    0  0.45720328320E+02  0.12864085426E+02  0.19098252815E+03  0.19679979465E+03  0.00000000000E+00 0.  1.
</event>
<event>
 7    1  0.6520971E-006  0.7322790E+02  0.7818608E-02  0.1386792E+00
          2   -1    0    0  502    0  0.00000000000E+00  0.00000000000E+00  0.28987100233E+03  0.28987100233E+03  0.00000000000E+00 0. -1.
          1   -1    0    0  501    0 -0.00000000000E+00 -0.00000000000E+00 -0.16379415328E+04  0.16379415328E+04  0.00000000000E+00 0. -1.
         25    2    1    2    0    0 -0.95635964490E+02  0.38947462591E+02 -0.72997515738E+03  0.74776408908E+03  0.12499703987E+03 0.  0.
          2    1    1    2  501    0  0.23137708116E+02 -0.48466146549E+02 -0.89349475190E+03  0.89510736371E+03  0.00000000000E+00 0. -1.
          1    1    1    2  502    0  0.72498256374E+02  0.95186839584E+01  0.27539937884E+03  0.28494108231E+03  0.00000000000E+00 0. -1.
         22    1    3    3    0    0  0.30555825701E+02  0.22900119933E+01 -0.12883120852E+03  0.13242500870E+03  0.00000000000E+00 0.  1.
         22    1    3    3    0    0 -0.12619179019E+03  0.36657450598E+02 -0.60114394886E+03  0.61533908038E+03  0.00000000000E+00 0.  1.
</event>
<event>
 7    1  0.6520971E-006  0.6648041E+02  0.7818608E-02  0.1377500E+00
          2   -1    0    0  502    0  0.00000000000E+00  0.00000000000E+00  0.37519374950E+03  0.37519374950E+03  0.00000000000E+00 0. -1.
          1   -1    0    0  501    0 -0.00000000000E+00 -0.00000000000E+00 -0.29666241502E+04  0.29666241502E+04  0.00000000000E+00 0. -1.
         25    2    1    2    0    0 -0.19809184481E+02 -0.94398319132E+01 -0.20441790128E+03  0.24061125594E+03  0.12500233560E+03 0.  0.
          2    1    1    2  501    0 -0.27062648855E+02  0.57774044104E+02 -0.27405614018E+04  0.27413038912E+04  0.00000000000E+00 0. -1.
          1    1    1    2  502    0  0.46871833337E+02 -0.48334212191E+02  0.35354890243E+03  0.35990275247E+03  0.00000000000E+00 0. -1.
         22    1    3    3    0    0 -0.45843673451E+02 -0.47749386699E+02 -0.17137462278E+03  0.18371420103E+03  0.00000000000E+00 0. -1.
         22    1    3    3    0    0  0.26034488970E+02  0.38309554786E+02 -0.33043278496E+02  0.56897054912E+02  0.00000000000E+00 0. -1.
</event>
<event>
 7    1  0.6520971E-006  0.8548703E+02  0.7818608E-02  0.1352620E+00
          2   -1    0    0  502    0  0.00000000000E+00  0.00000000000E+00  0.16368816834E+02  0.16368816834E+02  0.00000000000E+00 0. -1.
          1   -1    0    0  501    0 -0.00000000000E+00 -0.00000000000E+00 -0.41986970664E+04  0.41986970664E+04  0.00000000000E+00 0. -1.
         25    2    1    2    0    0  0.12418854861E+03  0.33838095398E+02 -0.14597493137E+04  0.14707349644E+04  0.12500185716E+03 0.  0.
          2    1    1    2  501    0 -0.80914672162E+02  0.92322377149E+01 -0.26418952651E+04  0.26431502058E+04  0.00000000000E+00 0. -1.
          1    1    1    2  502    0 -0.43273876446E+02 -0.43070333112E+02 -0.80683670770E+02  0.10118071311E+03  0.00000000000E+00 0. -1.
         22    1    3    3    0    0  0.91105697170E+02  0.46497218254E+01 -0.13402598923E+04  0.13433608774E+04  0.00000000000E+00 0.  1.
         22    1    3    3    0    0  0.33082851438E+02  0.29188373572E+02 -0.11948942133E+03  0.12737408693E+03  0.00000000000E+00 0.  1.
</event>
<event>
 7    1  0.6520971E-006  0.1853785E+03  0.7818608E-02  0.1216921E+00
          2   -1    0    0  502    0  0.00000000000E+00  0.00000000000E+00  0.14079108680E+04  0.14079108680E+04  0.00000000000E+00 0. -1.
          1   -1    0    0  501    0 -0.00000000000E+00 -0.00000000000E+00 -0.63666248852E+03  0.63666248852E+03  0.00000000000E+00 0. -1.
         25    2    1    2    0    0 -0.20179445222E+03 -0.25230355524E+02  0.22958235689E+03  0.33120551161E+03  0.12502583948E+03 0.  0.
          2    1    1    2  501    0  0.30084649105E+02  0.97237111557E+02 -0.57365317284E+03  0.58261316899E+03  0.00000000000E+00 0. -1.
          1    1    1    2  502    0  0.17170980311E+03 -0.72006756034E+02  0.11153191955E+04  0.11307546759E+04  0.00000000000E+00 0. -1.
         22    1    3    3    0    0 -0.17946693980E+03 -0.17240685525E+02  0.24405211859E+03  0.30342554327E+03  0.00000000000E+00 0.  1.
         22    1    3    3    0    0 -0.22327512417E+02 -0.79896699983E+01 -0.14469761699E+02  0.27779968341E+02  0.00000000000E+00 0.  1.
</event>
<event>
 7    1  0.6520971E-006  0.3598155E+02  0.7818608E-02  0.1556965E+00
          2   -1    0    0  502    0  0.00000000000E+00  0.00000000000E+00  0.90769991438E+03  0.90769991438E+03  0.00000000000E+00 0. -1.
          1   -1    0    0  501    0 -0.00000000000E+00 -0.00000000000E+00 -0.28583175126E+02  0.28583175126E+02  0.00000000000E+00 0. -1.
         25    2    1    2    0    0 -0.16523774266E+02 -0.15253279247E+02  0.13207540028E+03  0.18322173725E+03  0.12498238276E+03 0.  0.
          2    1    1    2  501    0  0.29733746392E+02  0.48722201638E+02  0.38036359562E+03  0.38462242976E+03  0.00000000000E+00 0. -1.
          1    1    1    2  502    0 -0.13209972127E+02 -0.33468922391E+02  0.36667774336E+03  0.36843892249E+03  0.00000000000E+00 0. -1.
         22    1    3    3    0    0  0.37145612850E+02  0.35627789833E+02  0.40377642751E+02  0.65417811004E+02  0.00000000000E+00 0. -1.
         22    1    3    3    0    0 -0.53669387115E+02 -0.50881069080E+02  0.91697757526E+02  0.11780392625E+03  0.00000000000E+00 0. -1.
</event>
<event>
 7    1  0.6520971E-006  0.7083592E+02  0.7818608E-02  0.1452371E+00
          2   -1    0    0  502    0  0.00000000000E+00  0.00000000000E+00  0.71610232755E+03  0.71610232755E+03  0.00000000000E+00 0. -1.
          1   -1    0    0  501    0 -0.00000000000E+00 -0.00000000000E+00 -0.80135142264E+03  0.80135142264E+03  0.00000000000E+00 0. -1.
         25    2    1    2    0    0  0.25282162276E+02 -0.65071784510E+02 -0.17532680756E+03  0.22635433143E+03  0.12499307597E+03 0.  0.
          2    1    1    2  501    0 -0.33068150817E+02 -0.54158552979E+01 -0.59822014898E+03  0.59915789300E+03  0.00000000000E+00 0. -1.
          1    1    1    2  502    0  0.77859885415E+01  0.70487639808E+02  0.68829786146E+03  0.69194152576E+03  0.00000000000E+00 0. -1.
         22    1    3    3    0    0 -0.39504986356E+02 -0.86822363773E+01 -0.11359451163E+03  0.12058083699E+03  0.00000000000E+00 0.  1.
         22    1    3    3    0    0  0.64787148631E+02 -0.56389548133E+02 -0.61732295931E+02  0.10577349445E+03  0.00000000000E+00 0.  1.
</event>
<event>
 7    1  0.6520971E-006  0.5243401E+02  0.7818608E-02  0.1491235E+00
          2   -1    0    0  502    0  0.00000000000E+00  0.00000000000E+00  0.10551483099E+04  0.10551483099E+04  0.00000000000E+00 0. -1.
          1   -1    0    0  501    0 -0.00000000000E+00 -0.00000000000E+00 -0.34283222310E+03  0.34283222310E+03  0.00000000000E+00 0. -1.
         25    2    1    2    0    0 -0.11719716931E+02 -0.59905164020E+02  0.40253070015E+03  0.42589015708E+03  0.12500192354E+03 0.  0.
          2    1    1    2  501    0 -0.20532893415E+02  0.48256566371E+02 -0.32861313458E+03  0.33277152542E+03  0.00000000000E+00 0. -1.
          1    1    1    2  502    0  0.32252610346E+02  0.11648597649E+02  0.63839852124E+03  0.63931885051E+03  0.00000000000E+00 0. -1.
         22    1    3    3    0    0  0.23303549671E+02 -0.89824053466E+02  0.28075975585E+03  0.29569825247E+03  0.00000000000E+00 0. -1.
         22    1    3    3    0    0 -0.35023266602E+02  0.29918889446E+02  0.12177094430E+03  0.13019190461E+03  0.00000000000E+00 0. -1.
</event>
<event>
 7    1  0.6520971E-006  0.4999046E+02  0.7818608E-02  0.1465620E+00
          2   -1    0    0  502    0  0.00000000000E+00  0.00000000000E+00  0.12345894016E+04  0.12345894016E+04  0.00000000000E+00 0. -1.
          1   -1    0    0  501    0 -0.00000000000E+00 -0.00000000000E+00 -0.67943051675E+03  0.67943051675E+03  0.00000000000E+00 0. -1.
         25    2    1    2    0    0  0.65223868413E+02  0.62325791277E+02  0.85083230266E+02  0.17610957883E+03  0.12504707279E+03 0.  0.
          2    1    1    2  501    0 -0.22973784251E+02 -0.36488982115E+02 -0.63262769965E+03  0.63409545570E+03  0.00000000000E+00 0. -1.
          1    1    1    2  502    0 -0.42250084162E+02 -0.25836809162E+02  0.11027033542E+04  0.11038148838E+04  0.00000000000E+00 0. -1.
         22    1    3    3    0    0  0.51738389847E+02  0.66185729284E+02 -0.57449905533E+01  0.84204611877E+02  0.00000000000E+00 0.  1.
         22    1    3    3    0    0  0.13485478565E+02 -0.38599380073E+01  0.90828220820E+02  0.91904966954E+02  0.00000000000E+00 0.  1.
</event>
<event>
 7    1  0.6520971E-006  0.4026810E+02  0.7818608E-02  0.1551916E+00
          2   -1    0    0  502    0  0.00000000000E+00  0.00000000000E+00  0.18854734003E+04  0.18854734003E+04  0.00000000000E+00 0. -1.
          1   -1    0    0  501    0 -0.00000000000E+00 -0.00000000000E+00 -0.26656804004E+02  0.26656804004E+02  0.00000000000E+00 0. -1.
         25    2    1    2    0    0  0.59094550758E+02  0.30914434077E+02  0.21922102959E+03  0.26101666166E+03  0.12499587868E+03 0.  0.
          2    1    1    2  501    0 -0.29506579720E+02 -0.40286739407E+01  0.34728619214E+02  0.45748720780E+02  0.00000000000E+00 0. -1.
          1    1    1    2  502    0 -0.29587971038E+02 -0.26885760136E+02  0.16048669475E+04  0.16053648219E+04  0.00000000000E+00 0. -1.
         22    1    3    3    0    0  0.81539936889E+02  0.36816907667E+02  0.22030964391E+03  0.23778264276E+03  0.00000000000E+00 0.  1.
         22    1    3    3    0    0 -0.22445386131E+02 -0.59024735905E+01 -0.10886143208E+01  0.23234018899E+02  0.00000000000E+00 0.  1.
</event>
<event>
 7    1  0.6520971E-006  0.6237971E+02  0.7818608E-02  0.1469939E+00
          2   -1    0    0  502    0  0.00000000000E+00  0.00000000000E+00  0.93581148377E+03  0.93581148377E+03  0.00000000000E+00 0. -1.
          1   -1    0    0  501    0 -0.00000000000E+00 -0.00000000000E+00 -0.30021555485E+03  0.30021555485E+03  0.00000000000E+00 0. -1.
         25    2    1    2    0    0  0.46249642858E+02 -0.49760849463E+02  0.78967264509E+01  0.14248441096E+03  0.12499710987E+03 0.  0.
          2    1    1    2  501    0  0.13225386549E+02  0.30778081819E+02 -0.23057753003E+03  0.23299828009E+03  0.00000000000E+00 0. -1.
          1    1    1    2  502    0 -0.59475029408E+02  0.18982767644E+02  0.85827673249E+03  0.86054434757E+03  0.00000000000E+00 0. -1.
         22    1    3    3    0    0  0.70400063324E+02 -0.74814087470E+02  0.21790846833E+02  0.10501503514E+03  0.00000000000E+00 0.  1.
         22    1    3    3    0    0 -0.24150420466E+02  0.25053238007E+02 -0.13894120382E+02  0.37469375822E+02  0.00000000000E+00 0.  1.
</event>
<event>
 7    1  0.6520971E-006  0.8855889E+02  0.7818608E-02  0.1477360E+00
          2   -1    0    0  502    0  0.00000000000E+00  0.00000000000E+00  0.27187589692E+04  0.27187589692E+04  0.00000000000E+00 0. -1.
          1   -1    0    0  501    0 -0.00000000000E+00 -0.00000000000E+00 -0.28086552365E+03  0.28086552365E+03  0.00000000000E+00 0. -1.
         25    2    1    2    0    0 -0.29451118560E+02  0.62702080064E+02 -0.15423276308E+03  0.21026510468E+03  0.12499899924E+03 0.  0.
          2    1    1    2  501    0 -0.19305644957E+02  0.11322592697E+02 -0.96606937270E+02  0.99165565401E+02  0.00000000000E+00 0. -1.
          1    1    1    2  502    0  0.48756763517E+02 -0.74024672761E+02  0.26887331459E+04  0.26901938227E+04  0.00000000000E+00 0. -1.
         22    1    3    3    0    0  0.34921013640E+02  0.69856222041E+02 -0.81695526125E+02  0.11302003336E+03  0.00000000000E+00 0. -1.
         22    1    3    3    0    0 -0.64372132200E+02 -0.71541419771E+01 -0.72537236957E+02  0.97245071324E+02  0.00000000000E+00 0. -1.
</event>
<event>
 7    1  0.6520971E-006  0.6526400E+02  0.7818608E-02  0.1425842E+00
          2   -1    0    0  502    0  0.00000000000E+00  0.00000000000E+00  0.35397321427E+03  0.35397321427E+03  0.00000000000E+00 0. -1.
          1   -1    0    0  501    0 -0.00000000000E+00 -0.00000000000E+00 -0.57994159711E+03  0.57994159711E+03  0.00000000000E+00 0. -1.
         25    2    1    2    0    0 -0.99819953716E+02 -0.41027030190E+01 -0.29116847037E+03  0.33224252848E+03  0.12500065704E+03 0.  0.
          2    1    1    2  501    0  0.37749756100E+02  0.23289934860E+02 -0.26319799528E+03  0.26690944133E+03  0.00000000000E+00 0. -1.
          1    1    1    2  502    0  0.62070197616E+02 -0.19187231841E+02  0.32839808281E+03  0.33476284156E+03  0.00000000000E+00 0. -1.
         22    1    3    3    0    0 -0.46614496195E+02 -0.49336983060E+02 -0.22864876189E+03  0.23851059822E+03  0.00000000000E+00 0.  1.
         22    1    3    3    0    0 -0.53205457520E+02  0.45234280041E+02 -0.62519708486E+02  0.93731930258E+02  0.00000000000E+00 0.  1.
</event>
<event>
 7    1  0.6520971E-006  0.8334610E+02  0.7818608E-02  0.1351828E+00
          2   -1    0    0  502    0  0.00000000000E+00  0.00000000000E+00  0.24128648201E+04  0.24128648201E+04  0.00000000000E+00 0. -1.
          1   -1    0    0  501    0 -0.00000000000E+00 -0.00000000000E+00 -0.26814078879E+02  0.26814078879E+02  0.00000000000E+00 0. -1.
         25    2    1    2    0    0 -0.52868397087E+01  0.26702164116E+02  0.13981015468E+04  0.14039426114E+04  0.12500385836E+03 0.  0.
          2    1    1    2  501    0 -0.19987604870E+02 -0.84460756192E+02  0.59687947002E+02  0.10533648324E+03  0.00000000000E+00 0. -1.
          1    1    1    2  502    0  0.25274444579E+02  0.57758592076E+02  0.92826124746E+03  0.93039980441E+03  0.00000000000E+00 0. -1.
         22    1    3    3    0    0  0.25446070582E+02  0.65820131417E+02  0.57059547043E+03  0.57494259112E+03  0.00000000000E+00 0.  1.
         22    1    3    3    0    0 -0.30732910291E+02 -0.39117967301E+02  0.82750607638E+03  0.82900002025E+03  0.00000000000E+00 0.  1.
</event>
<event>
 7    1  0.6520971E-006  0.5781153E+02  0.7818608E-02  0.1469570E+00
          2   -1    0    0  502    0  0.00000000000E+00  0.00000000000E+00  0.12512019558E+03  0.12512019558E+03  0.00000000000E+00 0. -1.
          1   -1    0    0  501    0 -0.00000000000E+00 -0.00000000000E+00 -0.40081100599E+03  0.40081100599E+03  0.00000000000E+00 0. -1.
         25    2    1    2    0    0  0.48845330285E+02 -0.79103802141E+02 -0.25579373634E+03  0.29949937126E+03  0.12500464004E+03 0.  0.
          2    1    1    2  501    0 -0.20501284218E+02  0.29886155300E+02 -0.11228130603E+03  0.11798549324E+03  0.00000000000E+00 0. -1.
          1    1    1    2  502    0 -0.28344046067E+02  0.49217646841E+02  0.92384231962E+02  0.10844633707E+03  0.00000000000E+00 0. -1.
         22    1    3    3    0    0  0.51235939004E+02 -0.21039154659E+02 -0.22882474971E+03  0.23543265184E+03  0.00000000000E+00 0. -1.
         22    1    3    3    0    0 -0.23906087193E+01 -0.58064647482E+02 -0.26968986631E+02  0.64066719419E+02  0.00000000000E+00 0. -1.
</event>
<event>
 7    1  0.6520971E-006  0.1464553E+03  0.7818608E-02  0.1217320E+00
          2   -1    0    0  502    0  0.00000000000E+00  0.00000000000E+00  0.10306874846E+04  0.10306874846E+04  0.00000000000E+00 0. -1.
          1   -1    0    0  501    0 -0.00000000000E+00 -0.00000000000E+00 -0.39462869616E+03  0.39462869616E+03  0.00000000000E+00 0. -1.
         25    2    1    2    0    0 -0.59634464188E+02  0.55162766296E+02  0.21020941871E+03  0.25770789452E+03  0.12500463624E+03 0.  0.
          2    1    1    2  501    0 -0.12170194683E+03 -0.40601389395E+02 -0.34892428770E+03  0.37176335918E+03  0.00000000000E+00 0. -1.
          1    1    1    2  502    0  0.18133641102E+03 -0.14561376901E+02  0.77477365742E+03  0.79584492704E+03  0.00000000000E+00 0. -1.
         22    1    3    3    0    0 -0.75760385764E+02  0.84577771857E+02  0.17845607347E+03  0.21151738865E+03  0.00000000000E+00 0. -1.
         22    1    3    3    0    0  0.16125921577E+02 -0.29415005561E+02  0.31753345243E+02  0.46190505875E+02  0.00000000000E+00 0. -1.
</event>
<event>
 7    1  0.6520971E-006  0.2484829E+02  0.7818608E-02  0.1692928E+00
          2   -1    0    0  502    0  0.00000000000E+00  0.00000000000E+00  0.48890250728E+02  0.48890250728E+02  0.00000000000E+00 0. -1.
          1   -1    0    0  501    0 -0.00000000000E+00 -0.00000000000E+00 -0.80742982538E+03  0.80742982538E+03  0.00000000000E+00 0. -1.
         25    2    1    2    0    0  0.39214335420E+01  0.14839474260E+02 -0.48363223796E+03  0.49976084187E+03  0.12500067934E+03 0.  0.
          2    1    1    2  501    0  0.16596903934E+02 -0.19878417680E+02 -0.31242773510E+03  0.31349912021E+03  0.00000000000E+00 0. -1.
          1    1    1    2  502    0 -0.20518337477E+02  0.50389434199E+01  0.37520398410E+02  0.43060114031E+02  0.00000000000E+00 0. -1.
         22    1    3    3    0    0 -0.59210449332E+02 -0.41304989801E+01 -0.20366918837E+03  0.21214164283E+03  0.00000000000E+00 0.  1.
         22    1    3    3    0    0  0.63131882874E+02  0.18969973240E+02 -0.27996304959E+03  0.28761919904E+03  0.00000000000E+00 0.  1.
</event>
<event>
 7    1  0.6520971E-006  0.9612143E+02  0.7818608E-02  0.1289983E+00
          2   -1    0    0  502    0  0.00000000000E+00  0.00000000000E+00  0.25975689802E+04  0.25975689802E+04  0.00000000000E+00 0. -1.
          1   -1    0    0  501    0 -0.00000000000E+00 -0.00000000000E+00 -0.10750262522E+03  0.10750262522E+03  0.00000000000E+00 0. -1.
         25    2    1    2    0    0 -0.90229319315E+02  0.10954599053E+03  0.40238151047E+03  0.44461358334E+03  0.12501481681E+03 0.  0.
          2    1    1    2  501    0 -0.36353523732E+01 -0.95257254561E+02 -0.58715758640E+02  0.11195847733E+03  0.00000000000E+00 0. -1.
          1    1    1    2  502    0  0.93864671688E+02 -0.14288735972E+02  0.21464006032E+04  0.21484995448E+04  0.00000000000E+00 0. -1.
         22    1    3    3    0    0 -0.11527481031E+03  0.89529105416E+02  0.37516606806E+03  0.40255846933E+03  0.00000000000E+00 0.  1.
         22    1    3    3    0    0  0.25045490994E+02  0.20016885117E+02  0.27215442405E+02  0.42055114008E+02  0.00000000000E+00 0.  1.
</event>
<event>
 7    1  0.6520971E-006  0.1505485E+03  0.7818608E-02  0.1296077E+00
          2   -1    0    0  502    0  0.00000000000E+00  0.00000000000E+00  0.72323461476E+03  0.72323461476E+03  0.00000000000E+00 0. -1.
          1   -1    0    0  501    0 -0.00000000000E+00 -0.00000000000E+00 -0.27510069963E+03  0.27510069963E+03  0.00000000000E+00 0. -1.
         25    2    1    2    0    0  0.18180646471E+03  0.22443594815E+02  0.44670455795E+03  0.49872259104E+03  0.12498782005E+03 0.  0.
          2    1    1    2  501    0 -0.56314954065E+02  0.10434631697E+02 -0.22852341281E+03  0.23559118361E+03  0.00000000000E+00 0. -1.
          1    1    1    2  502    0 -0.12549151064E+03 -0.32878226511E+02  0.22995276999E+03  0.26402153975E+03  0.00000000000E+00 0. -1.
         22    1    3    3    0    0  0.61991343836E+02 -0.50558833409E+02  0.13546544607E+03  0.15732135718E+03  0.00000000000E+00 0.  1.
         22    1    3    3    0    0  0.11981512087E+03  0.73002428224E+02  0.31123911188E+03  0.34140123386E+03  0.00000000000E+00 0.  1.
</event>
<event>
 7    1  0.6520971E-006  0.5108213E+02  0.7818608E-02  0.1487128E+00
          2   -1    0    0  502    0  0.00000000000E+00  0.00000000000E+00  0.49075003528E+03  0.49075003528E+03  0.00000000000E+00 0. -1.
          1   -1    0    0  501    0 -0.00000000000E+00 -0.00000000000E+00 -0.12495984113E+03  0.12495984113E+03  0.00000000000E+00 0. -1.
         25    2    1    2    0    0  0.55405783712E+02  0.52576366385E+02  0.39180010708E+03  0.41829048486E+03  0.12500212256E+03 0.  0.
          2    1    1    2  501    0 -0.47816040586E+02 -0.17158428359E+02 -0.10160327434E+03  0.11359582192E+03  0.00000000000E+00 0. -1.
          1    1    1    2  502    0 -0.75897431258E+01 -0.35417938026E+02  0.75593361421E+02  0.83823569630E+02  0.00000000000E+00 0. -1.
         22    1    3    3    0    0  0.81241155235E+02  0.48201623010E+02  0.16616963063E+03  0.19114357930E+03  0.00000000000E+00 0. -1.
         22    1    3    3    0    0 -0.25835371524E+02  0.43747433755E+01  0.22563047645E+03  0.22714690556E+03  0.00000000000E+00 0. -1.
</event>
<event>
 7    1  0.6520971E-006  0.1345073E+03  0.7818608E-02  0.1312528E+00
          2   -1    0    0  502    0  0.00000000000E+00  0.00000000000E+00  0.16544831924E+03  0.16544831924E+03  0.00000000000E+00 0. -1.
          1   -1    0    0  501    0 -0.00000000000E+00 -0.00000000000E+00 -0.14614984499E+04  0.14614984499E+04  0.00000000000E+00 0. -1.
         25    2    1    2    0    0  0.81243009983E+02  0.97540187351E+02 -0.11263836359E+04  0.11403863001E+04  0.12500521310E+03 0.  0.
          2    1    1    2  501    0  0.39915835201E+02 -0.38041158996E+02 -0.29635440425E+03  0.30144043623E+03  0.00000000000E+00 0. -1.
          1    1    1    2  502    0 -0.12115884518E+03 -0.59499028355E+02  0.12668790951E+03  0.18512003283E+03  0.00000000000E+00 0. -1.
         22    1    3    3    0    0  0.50096116393E+02  0.43415774038E+02 -0.17791055497E+03  0.18985972686E+03  0.00000000000E+00 0.  1.
         22    1    3    3    0    0  0.31146893590E+02  0.54124413313E+02 -0.94847308098E+03  0.95052657324E+03  0.00000000000E+00 0.  1.
</event>
<event>
 7    1  0.7014972E-006  0.9847176E+02  0.7818608E-02  0.1333654E+00
          2   -1    0    0  502    0  0.00000000000E+00  0.00000000000E+00  0.21873817532E+04  0.21873817532E+04  0.00000000000E+00 0. -1.
          1   -1    0    0  501    0 -0.00000000000E+00 -0.00000000000E+00 -0.24865360741E+04  0.24865360741E+04  0.00000000000E+00 0. -1.
         25    2    1    2    0    0  0.10411170488E+03  0.10536203112E+03 -0.12432611540E+04  0.12582779112E+04  0.12499840045E+03 0.  0.
          2    1    1    2  501    0 -0.51533370189E+02 -0.71720750599E+02 -0.12337409290E+04  0.12368978269E+04  0.00000000000E+00 0. -1.
          1    1    1    2  502    0 -0.52578334691E+02 -0.33641280520E+02  0.21778477620E+04  0.21787420893E+04  0.00000000000E+00 0. -1.
         22    1    3    3    0    0 -0.16331238417E+02  0.35795034338E+01 -0.40308842270E+03  0.40343499936E+03  0.00000000000E+00 0. -1.
         22    1    3    3    0    0  0.12044294330E+03  0.10178252769E+03 -0.84017273126E+03  0.85484291182E+03  0.00000000000E+00 0. -1.
</event>
<event>
 7    1  0.6520971E-006  0.1243738E+03  0.7818608E-02  0.1256064E+00
          2   -1    0    0  502    0  0.00000000000E+00  0.00000000000E+00  0.14276086825E+04  0.14276086825E+04  0.00000000000E+00 0. -1.
          1   -1    0    0  501    0 -0.00000000000E+00 -0.00000000000E+00 -0.56434058633E+03  0.56434058633E+03  0.00000000000E+00 0. -1.
         25    2    1    2    0    0 -0.82539175771E+01 -0.21435716769E+03  0.26515394648E+02  0.24969084500E+03  0.12500131771E+03 0.  0.
          2    1    1    2  501    0  0.31340143030E+02  0.11530776355E+03 -0.44281576359E+03  0.45865442915E+03  0.00000000000E+00 0. -1.
          1    1    1    2  502    0 -0.23086225453E+02  0.99049404136E+02  0.12795684651E+04  0.12836039947E+04  0.00000000000E+00 0. -1.
         22    1    3    3    0    0 -0.40335292056E+02 -0.39893418196E+02  0.43502481731E+02  0.71490464520E+02  0.00000000000E+00 0. -1.
         22    1    3    3    0    0  0.32081374479E+02 -0.17446374949E+03 -0.16987087083E+02  0.17820038048E+03  0.00000000000E+00 0. -1.
</event>
<event>
 7    1  0.6520971E-006  0.5216721E+02  0.7818608E-02  0.1446222E+00
          2   -1    0    0  502    0  0.00000000000E+00  0.00000000000E+00  0.30274970911E+03  0.30274970911E+03  0.00000000000E+00 0. -1.
          1   -1    0    0  501    0 -0.00000000000E+00 -0.00000000000E+00 -0.12197374119E+04  0.12197374119E+04  0.00000000000E+00 0. -1.
         25    2    1    2    0    0 -0.52271826270E+01 -0.77286661729E+02 -0.41201455810E+03  0.43747030187E+03  0.12499486955E+03 0.  0.
          2    1    1    2  501    0 -0.27977147268E+02  0.43165014792E+02 -0.79220122506E+03  0.79386946046E+03  0.00000000000E+00 0. -1.
          1    1    1    2  502    0  0.33204329895E+02  0.34121646937E+02  0.28722808036E+03  0.29114735867E+03  0.00000000000E+00 0. -1.
         22    1    3    3    0    0 -0.59668644226E+02 -0.11658264416E+02 -0.14702856930E+03  0.15910267886E+03  0.00000000000E+00 0.  1.
         22    1    3    3    0    0  0.54441461599E+02 -0.65628397313E+02 -0.26498598880E+03  0.27836762300E+03  0.00000000000E+00 0.  1.
</event>
<event>
 7    1  0.6520971E-006  0.7617779E+02  0.7818608E-02  0.1496963E+00
          2   -1    0    0  502    0  0.00000000000E+00  0.00000000000E+00  0.13951842911E+04  0.13951842911E+04  0.00000000000E+00 0. -1.
          1   -1    0    0  501    0 -0.00000000000E+00 -0.00000000000E+00 -0.69190589021E+03  0.69190589021E+03  0.00000000000E+00 0. -1.
         25    2    1    2    0    0 -0.79238427375E+02  0.26751249037E+02 -0.90891426395E+02  0.17573011621E+03  0.12500185860E+03 0.  0.
          2    1    1    2  501    0  0.16170347860E+02  0.15910215122E+02 -0.55729274463E+03  0.55775426337E+03  0.00000000000E+00 0. -1.
          1    1    1    2  502    0  0.63068079515E+02 -0.42661464159E+02  0.13514625720E+04  0.13536058018E+04  0.00000000000E+00 0. -1.
         22    1    3    3    0    0  0.22543180419E+02  0.39695459248E+02 -0.14789306732E+02  0.47985915245E+02  0.00000000000E+00 0.  1.
         22    1    3    3    0    0 -0.10178160779E+03 -0.12944210210E+02 -0.76102119663E+02  0.12774420097E+03  0.00000000000E+00 0.  1.
</event>
<event>
 7    1  0.6520971E-006  0.7083459E+02  0.7818608E-02  0.1499801E+00
          2   -1    0    0  502    0  0.00000000000E+00  0.00000000000E+00  0.95253473601E+02  0.95253473601E+02  0.00000000000E+00 0. -1.
          1   -1    0    0  501    0 -0.00000000000E+00 -0.00000000000E+00 -0.81382585636E+03  0.81382585636E+03  0.00000000000E+00 0. -1.
         25    2    1    2    0    0 -0.51341005860E+02  0.57818320415E+01 -0.44836128092E+03  0.46831582093E+03  0.12499016540E+03 0.  0.
          2    1    1    2  501    0 -0.19744962149E+02 -0.13509219557E+02 -0.34000341080E+03  0.34084407270E+03  0.00000000000E+00 0. -1.
          1    1    1    2  502    0  0.71085968009E+02  0.77273875153E+01  0.69792308957E+02  0.99919436323E+02  0.00000000000E+00 0. -1.
         22    1    3    3    0    0 -0.10174765376E+02 -0.50845775077E+02 -0.96421292493E+02  0.10948006366E+03  0.00000000000E+00 0. -1.
         22    1    3    3    0    0 -0.41166240483E+02  0.56627607119E+02 -0.35193998842E+03  0.35883575727E+03  0.00000000000E+00 0. -1.
</event>
<event>
 7    1  0.6520971E-006  0.2723269E+02  0.7818608E-02  0.1679854E+00
          2   -1    0    0  502    0  0.00000000000E+00  0.00000000000E+00  0.11464074000E+03  0.11464074000E+03  0.00000000000E+00 0. -1.
          1   -1    0    0  501    0 -0.00000000000E+00 -0.00000000000E+00 -0.42397355947E+03  0.42397355947E+03  0.00000000000E+00 0. -1.
         25    2    1    2    0    0  0.96700482412E+00 -0.97902608349E+01 -0.23754760512E+03  0.26860815144E+03  0.12499876004E+03 0.  0.
          2    1    1    2  501    0 -0.16473770847E+02  0.23484267000E+02 -0.16859120714E+03  0.17101430071E+03  0.00000000000E+00 0. -1.
          1    1    1    2  502    0  0.15506766023E+02 -0.13694006165E+02  0.96805992787E+02  0.98991847325E+02  0.00000000000E+00 0. -1.
         22    1    3    3    0    0 -0.15064307609E+02 -0.20437858597E+02  0.45095736919E+01  0.25787122418E+02  0.00000000000E+00 0.  1.
         22    1    3    3    0    0  0.16031312433E+02  0.10647597762E+02 -0.24205717882E+03  0.24282102902E+03  0.00000000000E+00 0.  1.
</event>
<event>
 7    1  0.6520971E-006  0.8387090E+02  0.7818608E-02  0.1358949E+00
          2   -1    0    0  502    0  0.00000000000E+00  0.00000000000E+00  0.21993219324E+04  0.21993219324E+04  0.00000000000E+00 0. -1.
          1   -1    0    0  501    0 -0.00000000000E+00 -0.00000000000E+00 -0.15321775543E+04  0.15321775543E+04  0.00000000000E+00 0. -1.
         25    2    1    2    0    0  0.21659348772E+02 -0.35676963307E+02  0.36781142781E+03  0.39070727423E+03  0.12499981843E+03 0.  0.
          2    1    1    2  501    0 -0.26541588646E+02 -0.52679312886E+02 -0.15190812610E+04  0.15202261159E+04  0.00000000000E+00 0. -1.
          1    1    1    2  502    0  0.48822398740E+01  0.88356276193E+02  0.18184142114E+04  0.18205660966E+04  0.00000000000E+00 0. -1.
         22    1    3    3    0    0  0.30898847894E+02 -0.53647541643E+02  0.36510904439E+03  0.37032068781E+03  0.00000000000E+00 0. -1.
         22    1    3    3    0    0 -0.92394991220E+01  0.17970578336E+02  0.27023834228E+01  0.20386586421E+02  0.00000000000E+00 0. -1.
</event>
<event>
 7    1  0.6520971E-006  0.1368581E+03  0.7818608E-02  0.1396108E+00
          2   -1    0    0  502    0  0.00000000000E+00  0.00000000000E+00  0.11405768190E+04  0.11405768190E+04  0.00000000000E+00 0. -1.
          1   -1    0    0  501    0 -0.00000000000E+00 -0.00000000000E+00 -0.34876791745E+03  0.34876791745E+03  0.00000000000E+00 0. -1.
         25    2    1    2    0    0 -0.73121063972E+02 -0.12845948706E+03  0.58811413517E+02  0.20231668493E+03  0.12499891531E+03 0.  0.
          2    1    1    2  501    0  0.26665602364E+02  0.33862434505E+00 -0.27176242185E+03  0.27306772593E+03  0.00000000000E+00 0. -1.
          1    1    1    2  502    0  0.46455461609E+02  0.12812086272E+03  0.10047599099E+04  0.10139603256E+04  0.00000000000E+00 0. -1.
         22    1    3    3    0    0 -0.10336861598E+03 -0.75984352001E+02  0.60241547457E+02  0.14173121237E+03  0.00000000000E+00 0. -1.
         22    1    3    3    0    0  0.30247552011E+02 -0.52475135062E+02 -0.14301339395E+01  0.60585472562E+02  0.00000000000E+00 0. -1.
</event>
<event>
 7    1  0.6520971E-006  0.5172035E+02  0.7818608E-02  0.1536296E+00
          2   -1    0    0  502    0  0.00000000000E+00  0.00000000000E+00  0.25712975457E+03  0.25712975457E+03  0.00000000000E+00 0. -1.
          1   -1    0    0  501    0 -0.00000000000E+00 -0.00000000000E+00 -0.68362808635E+03  0.68362808635E+03  0.00000000000E+00 0. -1.
         25    2    1    2    0    0  0.69073877940E+02 -0.61935372460E+01 -0.11092534102E+03  0.18093985380E+03  0.12500095558E+03 0.  0.
          2    1    1    2  501    0 -0.47268712844E+02  0.19707554796E+02 -0.53572958930E+03  0.53817182366E+03  0.00000000000E+00 0. -1.
          1    1    1    2  502    0 -0.21805165096E+02 -0.13514017550E+02  0.22015659854E+03  0.22164616346E+03  0.00000000000E+00 0. -1.
         22    1    3    3    0    0  0.77545636899E+02 -0.53896929410E+02 -0.75865291121E+02  0.12113524342E+03  0.00000000000E+00 0.  1.
         22    1    3    3    0    0 -0.84717589588E+01  0.47703392164E+02 -0.35060049903E+02  0.59804610383E+02  0.00000000000E+00 0.  1.
</event>
<event>
 7    1  0.6520971E-006  0.1148229E+03  0.7818608E-02  0.1301634E+00
          2   -1    0    0  502    0  0.00000000000E+00  0.00000000000E+00  0.97627935255E+03  0.97627935255E+03  0.00000000000E+00 0. -1.
          1   -1    0    0  501    0 -0.00000000000E+00 -0.00000000000E+00 -0.14526245271E+04  0.14526245271E+04  0.00000000000E+00 0. -1.
         25    2    1    2    0    0  0.28749191004E+02  0.45541883450E+02 -0.85991445097E+02  0.16099787039E+03  0.12500082603E+03 0.  0.
          2    1    1    2  501    0 -0.94686730162E+02 -0.72766716453E+02 -0.13250857143E+04  0.13304558325E+04  0.00000000000E+00 0. -1.
          1    1    1    2  502    0  0.65937539158E+02  0.27224833002E+02  0.93473198482E+03  0.93745017683E+03  0.00000000000E+00 0. -1.
         22    1    3    3    0    0  0.75870029073E+02  0.38109499108E+02 -0.71898159823E+02  0.11125619362E+03  0.00000000000E+00 0.  1.
         22    1    3    3    0    0 -0.47120838069E+02  0.74323843424E+01 -0.14093285275E+02  0.49741676763E+02  0.00000000000E+00 0.  1.
</event>
<event>
 7    1  0.6520971E-006  0.4559703E+02  0.7818608E-02  0.1587703E+00
          2   -1    0    0  502    0  0.00000000000E+00  0.00000000000E+00  0.39864959008E+03  0.39864959008E+03  0.00000000000E+00 0. -1.
          1   -1    0    0  501    0 -0.00000000000E+00 -0.00000000000E+00 -0.18221742107E+03  0.18221742107E+03  0.00000000000E+00 0. -1.
         25    2    1    2    0    0 -0.44148530744E+02  0.35463296777E+02  0.30372277517E+03  0.33328448700E+03  0.12499714770E+03 0.  0.
          2    1    1    2  501    0  0.23430378900E+02 -0.39030057746E+02 -0.16288114775E+03  0.16912302136E+03  0.00000000000E+00 0. -1.
          1    1    1    2  502    0  0.20718151844E+02  0.35667609682E+01  0.75590541589E+02  0.78459502785E+02  0.00000000000E+00 0. -1.
         22    1    3    3    0    0  0.31644066216E+02 -0.17177103230E+02  0.39679687615E+02  0.53580569345E+02  0.00000000000E+00 0. -1.
         22    1    3    3    0    0 -0.75792596960E+02  0.52640400008E+02  0.26404308755E+03  0.27970391765E+03  0.00000000000E+00 0. -1.
</event>
<event>
 7    1  0.6520971E-006  0.7890237E+02  0.7818608E-02  0.1344701E+00
          2   -1    0    0  502    0  0.00000000000E+00  0.00000000000E+00  0.12297741219E+04  0.12297741219E+04  0.00000000000E+00 0. -1.
          1   -1    0    0  501    0 -0.00000000000E+00 -0.00000000000E+00 -0.11902763644E+04  0.11902763644E+04  0.00000000000E+00 0. -1.
         25    2    1    2    0    0 -0.60120734435E+02  0.65702066041E+02  0.81087307931E+03  0.82527055671E+03  0.12500030729E+03 0.  0.
          2    1    1    2  501    0 -0.24021761776E+02 -0.66582554440E+02 -0.11777042193E+04  0.11798294410E+04  0.00000000000E+00 0. -1.
          1    1    1    2  502    0  0.84142496211E+02  0.88048839839E+00  0.40632889761E+03  0.41495048857E+03  0.00000000000E+00 0. -1.
         22    1    3    3    0    0  0.28579196566E+01 -0.29305266651E+02  0.31931536786E+03  0.32067003369E+03  0.00000000000E+00 0.  1.
         22    1    3    3    0    0 -0.62978654091E+02  0.95007332692E+02  0.49155771146E+03  0.50460052302E+03  0.00000000000E+00 0.  1.
</event>
<event>
 7    1  0.6520971E-006  0.6931929E+02  0.7818608E-02  0.1365475E+00
          2   -1    0    0  502    0  0.00000000000E+00  0.00000000000E+00  0.14580566085E+03  0.14580566085E+03  0.00000000000E+00 0. -1.
          1   -1    0    0  501    0 -0.00000000000E+00 -0.00000000000E+00 -0.73823859725E+03  0.73823859725E+03  0.00000000000E+00 0. -1.
         25    2    1    2    0    0 -0.10884500774E+02 -0.62009750954E+02  0.49268834517E+02  0.14837742376E+03  0.12499904102E+03 0.  0.
          2    1    1    2  501    0 -0.64988058261E+02  0.24118799961E+02 -0.64699132624E+03  0.65069419888E+03  0.00000000000E+00 0. -1.
          1    1    1    2  502    0  0.75872559034E+02  0.37890950993E+02  0.52895553270E+01  0.84972635461E+02  0.00000000000E+00 0. -1.
         22    1    3    3    0    0 -0.46080803033E+02 -0.26617612134E+02 -0.25078429200E+02  0.58829119448E+02  0.00000000000E+00 0. -1.
         22    1    3    3    0    0  0.35196302259E+02 -0.35392138820E+02  0.74347263717E+02  0.89548304312E+02  0.00000000000E+00 0. -1.
</event>
<event>
 7    1  0.6520971E-006  0.3926415E+02  0.7818608E-02  0.1531274E+00
          2   -1    0    0  502    0  0.00000000000E+00  0.00000000000E+00  0.11839151107E+04  0.11839151107E+04  0.00000000000E+00 0. -1.
          1   -1    0    0  501    0 -0.00000000000E+00 -0.00000000000E+00 -0.12616603561E+04  0.12616603561E+04  0.00000000000E+00 0. -1.
         25    2    1    2    0    0  0.16267476310E+02  0.15418786980E+02 -0.28491156972E+02  0.13015308295E+03  0.12500283676E+03 0.  0.
          2    1    1    2  501    0  0.10306980278E+02 -0.38079077739E+02 -0.11817399125E+04  0.11823981863E+04  0.00000000000E+00 0. -1.
          1    1    1    2  502    0 -0.26574456588E+02  0.22660290758E+02  0.11324858241E+04  0.11330241976E+04  0.00000000000E+00 0. -1.
         22    1    3    3    0    0  0.30606304035E+02 -0.49417732629E+02 -0.26068503686E+02  0.63705769199E+02  0.00000000000E+00 0. -1.
         22    1    3    3    0    0 -0.14338827725E+02  0.64836519609E+02 -0.24226532859E+01  0.66447313750E+02  0.00000000000E+00 0. -1.
</event>
<event>
 7    1  0.6520971E-006  0.8257805E+02  0.7818608E-02  0.1380546E+00
          2   -1    0    0  502    0  0.00000000000E+00  0.00000000000E+00  0.87370060565E+03  0.87370060565E+03  0.00000000000E+00 0. -1.
          1   -1    0    0  501    0 -0.00000000000E+00 -0.00000000000E+00 -0.69717511347E+03  0.69717511347E+03  0.00000000000E+00 0. -1.
         25    2    1    2    0    0 -0.49673023052E+02 -0.84642797863E+01  0.35597444363E+03  0.38063503097E+03  0.12500467604E+03 0.  0.
          2    1    1    2  501    0 -0.33932219324E+02 -0.36858746232E+02 -0.67944062534E+03  0.68128520169E+03  0.00000000000E+00 0. -1.
          1    1    1    2  502    0  0.83605242376E+02  0.45323026019E+02  0.49999167388E+03  0.50895548645E+03  0.00000000000E+00 0. -1.
         22    1    3    3    0    0 -0.14388988893E+02 -0.11192451073E+02 -0.42156514930E+01  0.18710576685E+02  0.00000000000E+00 0. -1.
         22    1    3    3    0    0 -0.35284034160E+02  0.27281712870E+01  0.36019009513E+03  0.36192445429E+03  0.00000000000E+00 0. -1.
</event>
<event>
 7    1  0.6520971E-006  0.6604437E+02  0.7818608E-02  0.1381705E+00
          2   -1    0    0  502    0  0.00000000000E+00  0.00000000000E+00  0.40493249196E+03  0.40493249196E+03  0.00000000000E+00 0. -1.
          1   -1    0    0  501    0 -0.00000000000E+00 -0.00000000000E+00 -0.34691127210E+03  0.34691127210E+03  0.00000000000E+00 0. -1.
         25    2    1    2    0    0 -0.56219207315E+01  0.64832308631E+02 -0.32812575593E+02  0.14468992245E+03  0.12499469711E+03 0.  0.
          2    1    1    2  501    0 -0.53028676282E+02 -0.32227062094E+02 -0.25112241961E+03  0.25867565341E+03  0.00000000000E+00 0. -1.
          1    1    1    2  502    0  0.58650597013E+02 -0.32605246537E+02  0.34195621506E+03  0.34847818820E+03  0.00000000000E+00 0. -1.
         22    1    3    3    0    0 -0.55477850543E+02  0.67488409873E+02 -0.36379893029E+02  0.94636007866E+02  0.00000000000E+00 0. -1.
         22    1    3    3    0    0  0.49855929812E+02 -0.26561012420E+01  0.35673174357E+01  0.50053914581E+02  0.00000000000E+00 0. -1.
</event>
<event>
 7    1  0.6520971E-006  0.1466859E+03  0.7818608E-02  0.1250422E+00
          2   -1    0    0  502    0  0.00000000000E+00  0.00000000000E+00  0.12860695278E+04  0.12860695278E+04  0.00000000000E+00 0. -1.
          1   -1    0    0  501    0 -0.00000000000E+00 -0.00000000000E+00 -0.19681084212E+04  0.19681084212E+04  0.00000000000E+00 0. -1.
         25    2    1    2    0    0  0.18878198444E+02  0.10301430886E+03 -0.16435719198E+00  0.16307434397E+03  0.12499952176E+03 0.  0.
          2    1    1    2  501    0 -0.85544572130E+02  0.31634694324E+02 -0.18806945672E+04  0.18829048523E+04  0.00000000000E+00 0. -1.
          1    1    1    2  502    0  0.66666373686E+02 -0.13464900318E+03  0.11988200309E+04  0.12081987527E+04  0.00000000000E+00 0. -1.
         22    1    3    3    0    0 -0.14345089475E+02  0.11463788671E+03  0.26962059318E+02  0.11863633214E+03  0.00000000000E+00 0. -1.
         22    1    3    3    0    0  0.33223287918E+02 -0.11623577854E+02 -0.27126416509E+02  0.44438011824E+02  0.00000000000E+00 0. -1.
</event>
<event>
 7    1  0.6520971E-006  0.3807916E+02  0.7818608E-02  0.1562907E+00
          2   -1    0    0  502    0  0.00000000000E+00  0.00000000000E+00  0.16621013452E+04  0.16621013452E+04  0.00000000000E+00 0. -1.
          1   -1    0    0  501    0 -0.00000000000E+00 -0.00000000000E+00 -0.77735366118E+02  0.77735366118E+02  0.00000000000E+00 0. -1.
         25    2    1    2    0    0 -0.19576922303E+02 -0.29431208877E+02  0.13325182469E+04  0.13388351176E+04  0.12500056795E+03 0.  0.
          2    1    1    2  501    0  0.26601532102E+02 -0.12438408986E+02 -0.70238091927E+02  0.76129791054E+02  0.00000000000E+00 0. -1.
          1    1    1    2  502    0 -0.70246097989E+01  0.41869617863E+02  0.32208582417E+03  0.32487180268E+03  0.00000000000E+00 0. -1.
         22    1    3    3    0    0  0.44283722536E+02 -0.45879974048E+02  0.69146338252E+03  0.69439731384E+03  0.00000000000E+00 0.  1.
         22    1    3    3    0    0 -0.63860644839E+02  0.16448765171E+02  0.64105486433E+03  0.64443780376E+03  0.00000000000E+00 0.  1.
</event>
<event>
 7    1  0.6520971E-006  0.6232415E+02  0.7818608E-02  0.1478395E+00
          2   -1    0    0  502    0  0.00000000000E+00  0.00000000000E+00  0.42082792300E+03  0.42082792300E+03  0.00000000000E+00 0. -1.
          1   -1    0    0  501    0 -0.00000000000E+00 -0.00000000000E+00 -0.85141043037E+03  0.85141043037E+03  0.00000000000E+00 0. -1.
         25    2    1    2    0    0 -0.89942664647E+02 -0.16766789578E+02  0.17382570182E+03  0.23282997374E+03  0.12499445548E+03 0.  0.
          2    1    1    2  501    0  0.62134931832E+02  0.18207484014E+01 -0.81957949970E+03  0.82193346519E+03  0.00000000000E+00 0. -1.
          1    1    1    2  502    0  0.27807732815E+02  0.14946041176E+02  0.21517129051E+03  0.21747491444E+03  0.00000000000E+00 0. -1.
         22    1    3    3    0    0  0.10939940806E+02 -0.41607153676E+02  0.20593132704E+02  0.47696065419E+02  0.00000000000E+00 0. -1.
         22    1    3    3    0    0 -0.10088260545E+03  0.24840364099E+02  0.15323256912E+03  0.18513390832E+03  0.00000000000E+00 0. -1.
</event>
<event>
 7    1  0.6520971E-006  0.1494035E+03  0.7818608E-02  0.1292644E+00
          2   -1    0    0  502    0  0.00000000000E+00  0.00000000000E+00  0.47170743258E+03  0.47170743258E+03  0.00000000000E+00 0. -1.
          1   -1    0    0  501    0 -0.00000000000E+00 -0.00000000000E+00 -0.21130912152E+04  0.21130912152E+04  0.00000000000E+00 0. -1.
         25    2    1    2    0    0 -0.10047910534E+03 -0.17789766026E+03 -0.71803679073E+02  0.25005162667E+03  0.12500567801E+03 0.  0.
          2    1    1    2  501    0  0.29373867343E+02  0.51841497665E+02 -0.19380019945E+04  0.19389177641E+04  0.00000000000E+00 0. -1.
          1    1    1    2  502    0  0.71105237999E+02  0.12605616259E+03  0.36842189097E+03  0.39582925706E+03  0.00000000000E+00 0. -1.
         22    1    3    3    0    0 -0.85499040326E+02 -0.99404926184E+02  0.15112489296E+02  0.13198413760E+03  0.00000000000E+00 0. -1.
         22    1    3    3    0    0 -0.14980065016E+02 -0.78492734075E+02 -0.86916168369E+02  0.11806748907E+03  0.00000000000E+00 0. -1.
</event>
<event>
 7    1  0.6520971E-006  0.5388425E+02  0.7818608E-02  0.1517126E+00
          2   -1    0    0  502    0  0.00000000000E+00  0.00000000000E+00  0.18068360640E+02  0.18068360640E+02  0.00000000000E+00 0. -1.
          1   -1    0    0  501    0 -0.00000000000E+00 -0.00000000000E+00 -0.14816754704E+04  0.14816754704E+04  0.00000000000E+00 0. -1.
         25    2    1    2    0    0 -0.35249679448E+02  0.10058155812E+02 -0.61943350670E+03  0.63298177458E+03  0.12499740528E+03 0.  0.
          2    1    1    2  501    0 -0.69782642785E+01  0.27073518808E+02 -0.78364817639E+03  0.78414675664E+03  0.00000000000E+00 0. -1.
          1    1    1    2  502    0  0.42227943726E+02 -0.37131674620E+02 -0.60525426690E+02  0.82615299839E+02  0.00000000000E+00 0. -1.
         22    1    3    3    0    0  0.27327379487E+02 -0.37803144677E+02 -0.31891806274E+03  0.32231133111E+03  0.00000000000E+00 0. -1.
         22    1    3    3    0    0 -0.62577058935E+02  0.47861300490E+02 -0.30051544395E+03  0.31067044347E+03  0.00000000000E+00 0. -1.
</event>
<event>
 7    1  0.6520971E-006  0.2230411E+03  0.7818608E-02  0.1273179E+00
          2   -1    0    0  502    0  0.00000000000E+00  0.00000000000E+00  0.47941069230E+03  0.47941069230E+03  0.00000000000E+00 0. -1.
          1   -1    0    0  501    0 -0.00000000000E+00 -0.00000000000E+00 -0.16864614112E+04  0.16864614112E+04  0.00000000000E+00 0. -1.
         25    2    1    2    0    0  0.17710835871E+03 -0.15778822789E+03 -0.95589934933E+03  0.99279577214E+03  0.12504152722E+03 0.  0.
          2    1    1    2  501    0 -0.43430847343E+02 -0.20423175492E+02 -0.68430827692E+03  0.68598918538E+03  0.00000000000E+00 0. -1.
          1    1    1    2  502    0 -0.13367751137E+03  0.17821140338E+03  0.43315690738E+03  0.48708714595E+03  0.00000000000E+00 0. -1.
         22    1    3    3    0    0  0.13434250551E+03 -0.17260188952E+03 -0.71591707477E+03  0.74858304749E+03  0.00000000000E+00 0.  1.
         22    1    3    3    0    0  0.42765853204E+02  0.14813661633E+02 -0.23998227457E+03  0.24421272464E+03  0.00000000000E+00 0.  1.
</event>
<event>
 7    1  0.6520971E-006  0.4444577E+02  0.7818608E-02  0.1482866E+00
          2   -1    0    0  502    0  0.00000000000E+00  0.00000000000E+00  0.14041571415E+04  0.14041571415E+04  0.00000000000E+00 0. -1.
          1   -1    0    0  501    0 -0.00000000000E+00 -0.00000000000E+00 -0.83136360865E+03  0.83136360865E+03  0.00000000000E+00 0. -1.
         25    2    1    2    0    0  0.83645370717E+02 -0.99217643680E+01 -0.18592777447E+02  0.15187422205E+03  0.12500039400E+03 0.  0.
          2    1    1    2  501    0 -0.41155393847E+02  0.15793291225E+02 -0.74513465266E+03  0.74643743548E+03  0.00000000000E+00 0. -1.
          1    1    1    2  502    0 -0.42489976870E+02 -0.58715268573E+01  0.13365209629E+04  0.13372090926E+04  0.00000000000E+00 0. -1.
         22    1    3    3    0    0  0.48163864645E+02 -0.36114826874E+02 -0.64490676196E+02  0.88221799426E+02  0.00000000000E+00 0. -1.
         22    1    3    3    0    0  0.35481506071E+02  0.26193062506E+02  0.45897898749E+02  0.63652422626E+02  0.00000000000E+00 0. -1.
</event>
<event>
 7    1  0.6520971E-006  0.7653432E+02  0.7818608E-02  0.1401979E+00
          2   -1    0    0  502    0  0.00000000000E+00  0.00000000000E+00  0.20969928144E+03  0.20969928144E+03  0.00000000000E+00 0. -1.
          1   -1    0    0  501    0 -0.00000000000E+00 -0.00000000000E+00 -0.40850125836E+03  0.40850125836E+03  0.00000000000E+00 0. -1.
         25    2    1    2    0    0  0.51117113881E+02 -0.12769290336E+02 -0.22251583396E+02  0.13746289984E+03  0.12499960705E+03 0.  0.
          2    1    1    2  501    0 -0.74795066974E+02 -0.26105247914E+02 -0.32030118676E+03  0.32995247575E+03  0.00000000000E+00 0. -1.
          1    1    1    2  502    0  0.23677953092E+02  0.38874538250E+02  0.14375079324E+03  0.15078516420E+03  0.00000000000E+00 0. -1.
         22    1    3    3    0    0  0.77108389938E+02 -0.47840151516E+02 -0.23697629144E+02  0.93786787571E+02  0.00000000000E+00 0. -1.
         22    1    3    3    0    0 -0.25991276057E+02  0.35070861180E+02  0.14460457484E+01  0.43676112273E+02  0.00000000000E+00 0. -1.
</event>
<event>
 7    1  0.6520971E-006  0.1760106E+03  0.7818608E-02  0.1397627E+00
          2   -1    0    0  502    0  0.00000000000E+00  0.00000000000E+00  0.94498415406E+03  0.94498415406E+03  0.00000000000E+00 0. -1.
          1   -1    0    0  501    0 -0.00000000000E+00 -0.00000000000E+00 -0.21993187546E+04  0.21993187546E+04  0.00000000000E+00 0. -1.
         25    2    1    2    0    0 -0.16701574869E+03  0.19621147474E+02  0.19460865511E+03  0.28596648977E+03  0.12500021955E+03 0.  0.
          2    1    1    2  501    0  0.17163881327E+03 -0.39579253529E+02 -0.21498883051E+04  0.21570920527E+04  0.00000000000E+00 0. -1.
          1    1    1    2  502    0 -0.46230645735E+01  0.19958106055E+02  0.70094504945E+03  0.70124436616E+03  0.00000000000E+00 0. -1.
         22    1    3    3    0    0 -0.15312068997E+03  0.40463509974E+02  0.20482468738E+03  0.25891387351E+03  0.00000000000E+00 0.  1.
         22    1    3    3    0    0 -0.13895058722E+02 -0.20842362500E+02 -0.10216032262E+02  0.27052616263E+02  0.00000000000E+00 0.  1.
</event>
<event>
 7    1  0.6520971E-006  0.1293772E+03  0.7818608E-02  0.1408771E+00
          2   -1    0    0  502    0  0.00000000000E+00  0.00000000000E+00  0.11280285076E+04  0.11280285076E+04  0.00000000000E+00 0. -1.
          1   -1    0    0  501    0 -0.00000000000E+00 -0.00000000000E+00 -0.42724769317E+02  0.42724769317E+02  0.00000000000E+00 0. -1.
         25    2    1    2    0    0  0.10105594735E+03  0.42336060738E+02  0.55428281037E+03  0.57867037110E+03  0.12500127196E+03 0.  0.
          2    1    1    2  501    0 -0.12208972706E+03 -0.56800951765E+02  0.12029180072E+03  0.18056125524E+03  0.00000000000E+00 0. -1.
          1    1    1    2  502    0  0.21033779712E+02  0.14464891027E+02  0.41072912722E+03  0.41152165059E+03  0.00000000000E+00 0. -1.
         22    1    3    3    0    0  0.17062001273E+02  0.24413909530E+02  0.40765201108E+03  0.40873868547E+03  0.00000000000E+00 0. -1.
         22    1    3    3    0    0  0.83993946073E+02  0.17922151208E+02  0.14663079929E+03  0.16993168563E+03  0.00000000000E+00 0. -1.
</event>
<event>
 7    1  0.6520971E-006  0.6416154E+02  0.7818608E-02  0.1390704E+00
          2   -1    0    0  502    0  0.00000000000E+00  0.00000000000E+00  0.13628629706E+03  0.13628629706E+03  0.00000000000E+00 0. -1.
          1   -1    0    0  501    0 -0.00000000000E+00 -0.00000000000E+00 -0.16064417701E+04  0.16064417701E+04  0.00000000000E+00 0. -1.
         25    2    1    2    0    0 -0.45095188767E+02 -0.10721398412E+03 -0.30187874710E+03  0.34681470010E+03  0.12498497436E+03 0.  0.
          2    1    1    2  501    0  0.40056242951E+02  0.48033750286E+02 -0.12735264998E+04  0.12750613669E+04  0.00000000000E+00 0. -1.
          1    1    1    2  502    0  0.50389458161E+01  0.59180233831E+02  0.10524977383E+03  0.12085200016E+03  0.00000000000E+00 0. -1.
         22    1    3    3    0    0  0.27038691860E+02 -0.38668326819E+02 -0.26739374533E+02  0.54233979265E+02  0.00000000000E+00 0. -1.
         22    1    3    3    0    0 -0.72133880627E+02 -0.68545657298E+02 -0.27513937257E+03  0.29258072084E+03  0.00000000000E+00 0. -1.
</event>
<event>
 7    1  0.6520971E-006  0.4388708E+02  0.7818608E-02  0.1515256E+00
          2   -1    0    0  502    0  0.00000000000E+00  0.00000000000E+00  0.19715598856E+04  0.19715598856E+04  0.00000000000E+00 0. -1.
          1   -1    0    0  501    0 -0.00000000000E+00 -0.00000000000E+00 -0.42478996996E+03  0.42478996996E+03  0.00000000000E+00 0. -1.
         25    2    1    2    0    0 -0.53614068770E+02 -0.43316208799E+02  0.41669548185E+03  0.44045844206E+03  0.12497100573E+03 0.  0.
          2    1    1    2  501    0  0.19065811177E+02  0.39473680195E+02 -0.41154850837E+03  0.41387661365E+03  0.00000000000E+00 0. -1.
          1    1    1    2  502    0  0.34548257593E+02  0.38425286037E+01  0.15416229422E+04  0.15420147999E+04  0.00000000000E+00 0. -1.
         22    1    3    3    0    0 -0.23790083524E+02  0.11105587943E+02  0.34347507505E+03  0.34447703746E+03  0.00000000000E+00 0.  1.
         22    1    3    3    0    0 -0.29823985246E+02 -0.54421796742E+02  0.73220406792E+02  0.95981404592E+02  0.00000000000E+00 0.  1.
</event>
<event>
 7    1  0.6520971E-006  0.4427070E+02  0.7818608E-02  0.1539906E+00
          2   -1    0    0  502    0  0.00000000000E+00  0.00000000000E+00  0.22680699204E+03  0.22680699204E+03  0.00000000000E+00 0. -1.
          1   -1    0    0  501    0 -0.00000000000E+00 -0.00000000000E+00 -0.14328632725E+03  0.14328632725E+03  0.00000000000E+00 0. -1.
         25    2    1    2    0    0 -0.11461558968E+02 -0.15866518973E+02  0.61332915488E+02  0.14060312646E+03  0.12499759554E+03 0.  0.
          2    1    1    2  501    0 -0.26833763494E+02 -0.11697229268E+02 -0.96990528281E+02  0.10131159170E+03  0.00000000000E+00 0. -1.
          1    1    1    2  502    0  0.38295322462E+02  0.27563748241E+02  0.11917827758E+03  0.12817860113E+03  0.00000000000E+00 0. -1.
         22    1    3    3    0    0  0.21042307623E+02 -0.83818606684E+01  0.92330907070E+02  0.95068557887E+02  0.00000000000E+00 0.  1.
         22    1    3    3    0    0 -0.32503866591E+02 -0.74846583045E+01 -0.30997991581E+02  0.45534568576E+02  0.00000000000E+00 0.  1.
</event>
<event>
 7    1  0.6520971E-006  0.2514154E+03  0.7818608E-02  0.1155049E+00
          2   -1    0    0  502    0  0.00000000000E+00  0.00000000000E+00  0.11340494685E+04  0.11340494685E+04  0.00000000000E+00 0. -1.
          1   -1    0    0  501    0 -0.00000000000E+00 -0.00000000000E+00 -0.37955396089E+03  0.37955396089E+03  0.00000000000E+00 0. -1.
         25    2    1    2    0    0  0.63650869638E+02 -0.10969442265E+03 -0.92544418677E+01  0.17831161421E+03  0.12500035001E+03 0.  0.
          2    1    1    2  501    0  0.85171729648E+02 -0.12279236851E+03 -0.24636097296E+03  0.28814218416E+03  0.00000000000E+00 0. -1.
          1    1    1    2  502    0 -0.14882259929E+03  0.23248679116E+03  0.10101109224E+04  0.10471496310E+04  0.00000000000E+00 0. -1.
         22    1    3    3    0    0  0.62643436688E+01 -0.27479861067E+02 -0.59741073841E+02  0.66055890498E+02  0.00000000000E+00 0.  1.
         22    1    3    3    0    0  0.57386525970E+02 -0.82214561582E+02  0.50486631973E+02  0.11225572372E+03  0.00000000000E+00 0.  1.
</event>
<event>
 7    1  0.6520971E-006  0.1010755E+03  0.7818608E-02  0.1418565E+00
          2   -1    0    0  502    0  0.00000000000E+00  0.00000000000E+00  0.12575066349E+04  0.12575066349E+04  0.00000000000E+00 0. -1.
          1   -1    0    0  501    0 -0.00000000000E+00 -0.00000000000E+00 -0.51940935177E+02  0.51940935177E+02  0.00000000000E+00 0. -1.
         25    2    1    2    0    0 -0.74935545435E+02 -0.72669074719E+02  0.27439897979E+03  0.31908503567E+03  0.12499731793E+03 0.  0.
          2    1    1    2  501    0  0.89879658907E+02  0.46329659939E+02  0.57801285064E+02  0.11647222429E+03  0.00000000000E+00 0. -1.
          1    1    1    2  502    0 -0.14944113472E+02  0.26339414780E+02  0.87336543483E+03  0.87389031008E+03  0.00000000000E+00 0. -1.
         22    1    3    3    0    0 -0.64494432338E+02  0.18418683888E+02  0.15212592271E+03  0.16625605577E+03  0.00000000000E+00 0. -1.
         22    1    3    3    0    0 -0.10441113097E+02 -0.91087758606E+02  0.12227305708E+03  0.15282897991E+03  0.00000000000E+00 0. -1.
</event>
<event>
 7    1  0.6520971E-006  0.8262775E+02  0.7818608E-02  0.1324627E+00
          2   -1    0    0  502    0  0.00000000000E+00  0.00000000000E+00  0.30641384079E+03  0.30641384079E+03  0.00000000000E+00 0. -1.
          1   -1    0    0  501    0 -0.00000000000E+00 -0.00000000000E+00 -0.24963391670E+03  0.24963391670E+03  0.00000000000E+00 0. -1.
         25    2    1    2    0    0 -0.48938354779E+02 -0.26478840271E+02  0.30374594849E+02  0.14015149649E+03  0.12499493752E+03 0.  0.
          2    1    1    2  501    0 -0.29564835784E+02  0.74922867098E+02 -0.17594830356E+03  0.19350793538E+03  0.00000000000E+00 0. -1.
          1    1    1    2  502    0  0.78503190563E+02 -0.48444026827E+02  0.20235363281E+03  0.22238832562E+03  0.00000000000E+00 0. -1.
         22    1    3    3    0    0 -0.66463287776E+02  0.21259443134E+01  0.64257549944E+02  0.92471190032E+02  0.00000000000E+00 0.  1.
         22    1    3    3    0    0  0.17524932997E+02 -0.28604784585E+02 -0.33882955095E+02  0.47680306455E+02  0.00000000000E+00 0.  1.
</event>
<event>
 7    1  0.6520971E-006  0.7946652E+02  0.7818608E-02  0.1375689E+00
          2   -1    0    0  502    0  0.00000000000E+00  0.00000000000E+00  0.71252008579E+03  0.71252008579E+03  0.00000000000E+00 0. -1.
          1   -1    0    0  501    0 -0.00000000000E+00 -0.00000000000E+00 -0.29288197006E+03  0.29288197006E+03  0.00000000000E+00 0. -1.
         25    2    1    2    0    0 -0.40249078869E+02 -0.68436376173E+02  0.43318730746E+02  0.15428578075E+03  0.12499625504E+03 0.  0.
          2    1    1    2  501    0  0.75807902305E+02  0.27570168592E+02 -0.22930208164E+03  0.24307693616E+03  0.00000000000E+00 0. -1.
          1    1    1    2  502    0 -0.35558823435E+02  0.40866207581E+02  0.60562146663E+03  0.60803933894E+03  0.00000000000E+00 0. -1.
         22    1    3    3    0    0 -0.19597335007E+02 -0.67806696919E+02 -0.31043114330E+02  0.77106929869E+02  0.00000000000E+00 0. -1.
         22    1    3    3    0    0 -0.20651743862E+02 -0.62967925395E+00  0.74361845076E+02  0.77178850883E+02  0.00000000000E+00 0. -1.
</event>
<event>
 7    1  0.6520971E-006  0.8974878E+02  0.7818608E-02  0.1355649E+00
          2   -1    0    0  502    0  0.00000000000E+00  0.00000000000E+00  0.23877605803E+03  0.23877605803E+03  0.00000000000E+00 0. -1.
          1   -1    0    0  501    0 -0.00000000000E+00 -0.00000000000E+00 -0.21236621002E+04  0.21236621002E+04  0.00000000000E+00 0. -1.
         25    2    1    2    0    0  0.31321716951E+02 -0.22154991554E+02  0.78786355902E+02  0.15265746010E+03  0.12500046658E+03 0.  0.
          2    1    1    2  501    0 -0.48156370932E+02  0.76278200123E+02 -0.20791692145E+04  0.20811251818E+04  0.00000000000E+00 0. -1.
          1    1    1    2  502    0  0.16834653981E+02 -0.54123208569E+02  0.11549681641E+03  0.12865551633E+03  0.00000000000E+00 0. -1.
         22    1    3    3    0    0  0.38110212386E+02  0.36972556029E+02  0.76469496079E+02  0.93096412487E+02  0.00000000000E+00 0. -1.
         22    1    3    3    0    0 -0.67884954347E+01 -0.59127547583E+02  0.23168598228E+01  0.59561047614E+02  0.00000000000E+00 0. -1.
</event>
<event>
 7    1  0.6520971E-006  0.7323101E+02  0.7818608E-02  0.1359369E+00
          2   -1    0    0  502    0  0.00000000000E+00  0.00000000000E+00  0.30993477820E+03  0.30993477820E+03  0.00000000000E+00 0. -1.
          1   -1    0    0  501    0 -0.00000000000E+00 -0.00000000000E+00 -0.19208404702E+03  0.19208404702E+03  0.00000000000E+00 0. -1.
         25    2    1    2    0    0  0.31299011682E+02  0.79746759131E+02  0.22416277619E+03  0.27057894828E+03  0.12499937319E+03 0.  0.
          2    1    1    2  501    0  0.39028390129E+02 -0.54852040818E+02 -0.13552226839E+03  0.15132166681E+03  0.00000000000E+00 0. -1.
          1    1    1    2  502    0 -0.70327401812E+02 -0.24894718313E+02  0.29210223374E+02  0.80118210133E+02  0.00000000000E+00 0. -1.
         22    1    3    3    0    0 -0.18139128594E+02  0.24910941986E+02  0.18393689400E+03  0.18650030560E+03  0.00000000000E+00 0.  1.
         22    1    3    3    0    0  0.49438140276E+02  0.54835817145E+02  0.40225882193E+02  0.84078642675E+02  0.00000000000E+00 0.  1.
</event>
<event>
 7    1  0.6520971E-006  0.8459745E+02  0.7818608E-02  0.1393207E+00
          2   -1    0    0  502    0  0.00000000000E+00  0.00000000000E+00  0.49951800071E+03  0.49951800071E+03  0.00000000000E+00 0. -1.
          1   -1    0    0  501    0 -0.00000000000E+00 -0.00000000000E+00 -0.58652701389E+03  0.58652701389E+03  0.00000000000E+00 0. -1.
         25    2    1    2    0    0 -0.69197638234E+02 -0.26617118300E+02 -0.22738265775E+03  0.26986122085E+03  0.12500168539E+03 0.  0.
          2    1    1    2  501    0  0.88792329442E+02 -0.12948933269E+02 -0.33089784520E+03  0.34284856220E+03  0.00000000000E+00 0. -1.
          1    1    1    2  502    0 -0.19594691209E+02  0.39566051569E+02  0.47127148977E+03  0.47333523155E+03  0.00000000000E+00 0. -1.
         22    1    3    3    0    0 -0.45525109338E+02 -0.29040062850E+02 -0.23782240048E+03  0.24387569579E+03  0.00000000000E+00 0.  1.
         22    1    3    3    0    0 -0.23672528895E+02  0.24229445495E+01  0.10439742724E+02  0.25985525062E+02  0.00000000000E+00 0.  1.
</event>
<event>
 7    1  0.6520971E-006  0.7745654E+02  0.7818608E-02  0.1424733E+00
          2   -1    0    0  502    0  0.00000000000E+00  0.00000000000E+00  0.31164020321E+03  0.31164020321E+03  0.00000000000E+00 0. -1.
          1   -1    0    0  501    0 -0.00000000000E+00 -0.00000000000E+00 -0.51635867097E+03  0.51635867097E+03  0.00000000000E+00 0. -1.
         25    2    1    2    0    0 -0.41485023196E+02 -0.45064658320E+01  0.93058596865E+02  0.16132620693E+03  0.12499970883E+03 0.  0.
          2    1    1    2  501    0  0.78281477572E+02 -0.36581784244E+01 -0.47706850813E+03  0.48346223581E+03  0.00000000000E+00 0. -1.
          1    1    1    2  502    0 -0.36796454376E+02  0.81646442563E+01  0.17929144351E+03  0.18321043144E+03  0.00000000000E+00 0. -1.
         22    1    3    3    0    0 -0.42070138216E+02  0.50382988972E+02  0.17496039994E+02  0.67929769047E+02  0.00000000000E+00 0. -1.
         22    1    3    3    0    0  0.58511502083E+00 -0.54889454804E+02  0.75562556871E+02  0.93396437882E+02  0.00000000000E+00 0. -1.
</event>
<event>
 7    1  0.6520971E-006  0.1671989E+03  0.7818608E-02  0.1231211E+00
          2   -1    0    0  502    0  0.00000000000E+00  0.00000000000E+00  0.74040506029E+02  0.74040506029E+02  0.00000000000E+00 0. -1.
          1   -1    0    0  501    0 -0.00000000000E+00 -0.00000000000E+00 -0.23440966344E+04  0.23440966344E+04  0.00000000000E+00 0. -1.
         25    2    1    2    0    0  0.22640093515E+03  0.11501562795E+03 -0.29170730597E+03  0.40645420722E+03  0.12500356835E+03 0.  0.
          2    1    1    2  501    0 -0.15393512273E+03 -0.50190594222E+02 -0.18103568607E+04  0.18175827576E+04  0.00000000000E+00 0. -1.
          1    1    1    2  502    0 -0.72465812413E+02 -0.64825033732E+02 -0.16799196179E+03  0.19410017566E+03  0.00000000000E+00 0. -1.
         22    1    3    3    0    0  0.14143591978E+03  0.12816039379E+03 -0.23801213486E+03  0.30508848271E+03  0.00000000000E+00 0.  1.
         22    1    3    3    0    0  0.84965015364E+02 -0.13144765837E+02 -0.53695171108E+02  0.10136572451E+03  0.00000000000E+00 0.  1.
</event>
<event>
 7    1  0.6520971E-006  0.4164613E+02  0.7818608E-02  0.1570387E+00
          2   -1    0    0  502    0  0.00000000000E+00  0.00000000000E+00  0.86956419076E+03  0.86956419076E+03  0.00000000000E+00 0. -1.
          1   -1    0    0  501    0 -0.00000000000E+00 -0.00000000000E+00 -0.15242898308E+04  0.15242898308E+04  0.00000000000E+00 0. -1.
         25    2    1    2    0    0 -0.42596416600E+02  0.21999033190E+01 -0.11623300731E+03  0.17593689480E+03  0.12499753870E+03 0.  0.
          2    1    1    2  501    0  0.35233764118E+02  0.22337248047E+02 -0.13776936777E+04  0.13783251577E+04  0.00000000000E+00 0. -1.
          1    1    1    2  502    0  0.73626524816E+01 -0.24537151366E+02  0.83920104502E+03  0.83959196900E+03  0.00000000000E+00 0. -1.
         22    1    3    3    0    0 -0.76446301169E+02  0.66746988607E+01 -0.28611190806E+02  0.81897428572E+02  0.00000000000E+00 0.  1.
         22    1    3    3    0    0  0.33849884569E+02 -0.44747955416E+01 -0.87621816509E+02  0.94039466230E+02  0.00000000000E+00 0.  1.
</event>
<event>
 7    1  0.6520971E-006  0.1552130E+03  0.7818608E-02  0.1267824E+00
          2   -1    0    0  502    0  0.00000000000E+00  0.00000000000E+00  0.76610451641E+03  0.76610451641E+03  0.00000000000E+00 0. -1.
          1   -1    0    0  501    0 -0.00000000000E+00 -0.00000000000E+00 -0.66378131306E+03  0.66378131306E+03  0.00000000000E+00 0. -1.
         25    2    1    2    0    0  0.14634882263E+03  0.37952150060E+02 -0.33351886674E+03  0.38693482826E+03  0.12500153306E+03 0.  0.
          2    1    1    2  501    0 -0.30414085212E+02  0.65953799984E+02 -0.29084412488E+03  0.29977529133E+03  0.00000000000E+00 0. -1.
          1    1    1    2  502    0 -0.11593473741E+03 -0.10390595004E+03  0.72668619498E+03  0.74317570989E+03  0.00000000000E+00 0. -1.
         22    1    3    3    0    0  0.33177214372E+02  0.70479899075E+02 -0.14676670037E+03  0.16615838247E+03  0.00000000000E+00 0.  1.
         22    1    3    3    0    0  0.11317160825E+03 -0.32527749015E+02 -0.18675216637E+03  0.22077644579E+03  0.00000000000E+00 0.  1.
</event>
<event>
 7    1  0.6520971E-006  0.5808849E+02  0.7818608E-02  0.1555131E+00
          2   -1    0    0  502    0  0.00000000000E+00  0.00000000000E+00  0.12865516443E+04  0.12865516443E+04  0.00000000000E+00 0. -1.
          1   -1    0    0  501    0 -0.00000000000E+00 -0.00000000000E+00 -0.47610990639E+02  0.47610990639E+02  0.00000000000E+00 0. -1.
         25    2    1    2    0    0 -0.13599095480E+02 -0.41560634754E+02  0.55999499244E+03  0.57544029412E+03  0.12499967510E+03 0.  0.
          2    1    1    2  501    0  0.27528357839E+01  0.58630591426E+02 -0.18069671711E+02  0.61413658021E+02  0.00000000000E+00 0. -1.
          1    1    1    2  502    0  0.10846259696E+02 -0.17069956672E+02  0.69701533296E+03  0.69730868283E+03  0.00000000000E+00 0. -1.
         22    1    3    3    0    0  0.69956213610E+00 -0.23606089602E+02  0.11151201437E+02  0.26116779031E+02  0.00000000000E+00 0. -1.
         22    1    3    3    0    0 -0.14298657616E+02 -0.17954545152E+02  0.54884379101E+03  0.54932351509E+03  0.00000000000E+00 0. -1.
</event>
<event>
 7    1  0.6520971E-006  0.5789450E+02  0.7818608E-02  0.1481195E+00
          2   -1    0    0  502    0  0.00000000000E+00  0.00000000000E+00  0.30338166881E+03  0.30338166881E+03  0.00000000000E+00 0. -1.
          1   -1    0    0  501    0 -0.00000000000E+00 -0.00000000000E+00 -0.70173122479E+03  0.70173122479E+03  0.00000000000E+00 0. -1.
         25    2    1    2    0    0 -0.42225419478E+02 -0.38394943647E+02 -0.13098759064E+03  0.18984053700E+03  0.12499809134E+03 0.  0.
          2    1    1    2  501    0  0.14342732847E+02  0.56636472169E+02 -0.53871875908E+03  0.54187757413E+03  0.00000000000E+00 0. -1.
          1    1    1    2  502    0  0.27882686631E+02 -0.18241528522E+02  0.27135679374E+03  0.27339478248E+03  0.00000000000E+00 0. -1.
         22    1    3    3    0    0 -0.52983067674E+02 -0.22904006648E+02 -0.22227424760E+00  0.57722165469E+02  0.00000000000E+00 0.  1.
         22    1    3    3    0    0  0.10757648195E+02 -0.15490936999E+02 -0.13076531640E+03  0.13211837153E+03  0.00000000000E+00 0.  1.
</event>
<event>
 7    1  0.6520971E-006  0.3138958E+02  0.7818608E-02  0.1586066E+00
          2   -1    0    0  502    0  0.00000000000E+00  0.00000000000E+00  0.34027654574E+04  0.34027654574E+04  0.00000000000E+00 0. -1.
          1   -1    0    0  501    0 -0.00000000000E+00 -0.00000000000E+00 -0.17339277011E+04  0.17339277011E+04  0.00000000000E+00 0. -1.
         25    2    1    2    0    0 -0.58635248292E+01  0.32595788509E+02  0.14979808006E+04  0.15035516012E+04  0.12499628841E+03 0.  0.
          2    1    1    2  501    0 -0.23352255841E+02 -0.20975652170E+02 -0.17308700483E+04  0.17311546522E+04  0.00000000000E+00 0. -1.
          1    1    1    2  502    0  0.29215780671E+02 -0.11620136339E+02  0.19017270040E+04  0.19019869051E+04  0.00000000000E+00 0. -1.
         22    1    3    3    0    0  0.56110173621E+02 -0.55507305017E+01  0.61796855734E+03  0.62053549459E+03  0.00000000000E+00 0. -1.
         22    1    3    3    0    0 -0.61973698450E+02  0.38146519010E+02  0.88001224327E+03  0.88301610660E+03  0.00000000000E+00 0. -1.
</event>
<event>
 7    1  0.6520971E-006  0.1064939E+03  0.7818608E-02  0.1413683E+00
          2   -1    0    0  502    0  0.00000000000E+00  0.00000000000E+00  0.21655755917E+04  0.21655755917E+04  0.00000000000E+00 0. -1.
          1   -1    0    0  501    0 -0.00000000000E+00 -0.00000000000E+00 -0.10943702848E+04  0.10943702848E+04  0.00000000000E+00 0. -1.
         25    2    1    2    0    0  0.97073240783E+02 -0.27579965118E+02  0.57739945699E+02  0.17070093111E+03  0.12498415100E+03 0.  0.
          2    1    1    2  501    0 -0.90427323476E+02  0.56679367303E+02 -0.10350373158E+04  0.10405248178E+04  0.00000000000E+00 0. -1.
          1    1    1    2  502    0 -0.66459173067E+01 -0.29099402184E+02  0.20485026770E+04  0.20487201275E+04  0.00000000000E+00 0. -1.
         22    1    3    3    0    0  0.10004800146E+03 -0.64183243429E+02  0.61413788468E+02  0.13379366482E+03  0.00000000000E+00 0. -1.
         22    1    3    3    0    0 -0.29747606729E+01  0.36603278310E+02 -0.36738427693E+01  0.36907266288E+02  0.00000000000E+00 0. -1.
</event>
<event>
 7    1  0.6520971E-006  0.1561688E+03  0.7818608E-02  0.1215205E+00
          2   -1    0    0  502    0  0.00000000000E+00  0.00000000000E+00  0.59841017682E+03  0.59841017682E+03  0.00000000000E+00 0. -1.
          1   -1    0    0  501    0 -0.00000000000E+00 -0.00000000000E+00 -0.42606830553E+03  0.42606830553E+03  0.00000000000E+00 0. -1.
         25    2    1    2    0    0 -0.23259078636E+02 -0.52206725222E+02  0.39635188189E+02  0.14304754531E+03  0.12500050072E+03 0.  0.
          2    1    1    2  501    0  0.70050695320E+02  0.16599503982E+03 -0.34441894039E+03  0.38869764556E+03  0.00000000000E+00 0. -1.
          1    1    1    2  502    0 -0.46791616684E+02 -0.11378831460E+03  0.47712562350E+03  0.49273329148E+03  0.00000000000E+00 0. -1.
         22    1    3    3    0    0 -0.31586608406E+02  0.35033172857E+02  0.27428142237E+02  0.54565007263E+02  0.00000000000E+00 0.  1.
         22    1    3    3    0    0  0.83275297695E+01 -0.87239898079E+02  0.12207045952E+02  0.88482538050E+02  0.00000000000E+00 0.  1.
</event>
<event>
 7    1  0.6520971E-006  0.6224851E+02  0.7818608E-02  0.1440444E+00
          2   -1    0    0  502    0  0.00000000000E+00  0.00000000000E+00  0.50349223389E+03  0.50349223389E+03  0.00000000000E+00 0. -1.
          1   -1    0    0  501    0 -0.00000000000E+00 -0.00000000000E+00 -0.23505702538E+03  0.23505702538E+03  0.00000000000E+00 0. -1.
         25    2    1    2    0    0  0.52582229330E+02 -0.16571539386E+02  0.14668345886E+03  0.20045178255E+03  0.12500149305E+03 0.  0.
          2    1    1    2  501    0 -0.17752184447E+02 -0.37679934793E+02 -0.20288734208E+03  0.20711878503E+03  0.00000000000E+00 0. -1.
          1    1    1    2  502    0 -0.34830044883E+02  0.54251474179E+02  0.32463909172E+03  0.33097869169E+03  0.00000000000E+00 0. -1.
         22    1    3    3    0    0  0.55827327822E+02  0.65539722477E+00  0.32228430996E+01  0.55924116398E+02  0.00000000000E+00 0.  1.
         22    1    3    3    0    0 -0.32450984920E+01 -0.17226936611E+02  0.14346061576E+03  0.14452766615E+03  0.00000000000E+00 0.  1.
</event>
<event>
 7    1  0.6520971E-006  0.2769426E+02  0.7818608E-02  0.1640702E+00
          2   -1    0    0  502    0  0.00000000000E+00  0.00000000000E+00  0.54535630533E+02  0.54535630533E+02  0.00000000000E+00 0. -1.
          1   -1    0    0  501    0 -0.00000000000E+00 -0.00000000000E+00 -0.45313370573E+03  0.45313370573E+03  0.00000000000E+00 0. -1.
         25    2    1    2    0    0 -0.63130893987E+00 -0.98237847379E+01 -0.46437871180E+02  0.13369636012E+03  0.12498534127E+03 0.  0.
          2    1    1    2  501    0  0.15466706366E+02 -0.20029180022E+02 -0.33595521594E+03  0.33690695180E+03  0.00000000000E+00 0. -1.
          1    1    1    2  502    0 -0.14835397427E+02  0.29852964760E+02 -0.16204988082E+02  0.37066024342E+02  0.00000000000E+00 0. -1.
         22    1    3    3    0    0 -0.19616173455E+02  0.45639515130E+02 -0.55380158272E+02  0.74395709100E+02  0.00000000000E+00 0. -1.
         22    1    3    3    0    0  0.18984864515E+02 -0.55463299868E+02  0.89422870924E+01  0.59300651019E+02  0.00000000000E+00 0. -1.
</event>
<event>
 7    1  0.6520971E-006  0.1314497E+03  0.7818608E-02  0.1305353E+00
          2   -1    0    0  502    0  0.00000000000E+00  0.00000000000E+00  0.98639612476E+03  0.98639612476E+03  0.00000000000E+00 0. -1.
          1   -1    0    0  501    0 -0.00000000000E+00 -0.00000000000E+00 -0.82817008018E+03  0.82817008018E+03  0.00000000000E+00 0. -1.
         25    2    1    2    0    0  0.36859381299E+02 -0.62455612297E+02  0.23160996370E+03  0.27299551521E+03  0.12499623413E+03 0.  0.
          2    1    1    2  501    0 -0.65633051831E+02  0.11536214170E+03 -0.80077035918E+03  0.81169531806E+03  0.00000000000E+00 0. -1.
          1    1    1    2  502    0  0.28773670532E+02 -0.52906529399E+02  0.72738644006E+03  0.72987537166E+03  0.00000000000E+00 0. -1.
         22    1    3    3    0    0  0.14322408419E-01 -0.16827531061E+02 -0.13119231084E+02  0.21337296712E+02  0.00000000000E+00 0. -1.
         22    1    3    3    0    0  0.36845058891E+02 -0.45628081236E+02  0.24472919478E+03  0.25165821850E+03  0.00000000000E+00 0. -1.
</event>
<event>
 7    1  0.6520971E-006  0.1746331E+03  0.7818608E-02  0.1249447E+00
          2   -1    0    0  502    0  0.00000000000E+00  0.00000000000E+00  0.30513617235E+04  0.30513617235E+04  0.00000000000E+00 0. -1.
          1   -1    0    0  501    0 -0.00000000000E+00 -0.00000000000E+00 -0.76666805423E+03  0.76666805423E+03  0.00000000000E+00 0. -1.
         25    2    1    2    0    0 -0.12251767333E+00 -0.20188848716E+03 -0.20174349486E+01  0.23746089694E+03  0.12499852510E+03 0.  0.
          2    1    1    2  501    0  0.65952768965E+02  0.40433430029E+02 -0.64201406796E+03  0.64665809626E+03  0.00000000000E+00 0. -1.
          1    1    1    2  502    0 -0.65830251292E+02  0.16145505713E+03  0.29287251722E+04  0.29339107846E+04  0.00000000000E+00 0. -1.
         22    1    3    3    0    0  0.56125671290E+02 -0.14276945477E+03  0.14887451717E+02  0.15412606662E+03  0.00000000000E+00 0.  1.
         22    1    3    3    0    0 -0.56248188963E+02 -0.59119032390E+02 -0.16904886666E+02  0.83334830327E+02  0.00000000000E+00 0.  1.
</event>
<event>
 7    1  0.6520971E-006  0.9346350E+02  0.7818608E-02  0.1473636E+00
          2   -1    0    0  502    0  0.00000000000E+00  0.00000000000E+00  0.38149781327E+02  0.38149781327E+02  0.00000000000E+00 0. -1.
          1   -1    0    0  501    0 -0.00000000000E+00 -0.00000000000E+00 -0.94820558875E+03  0.94820558875E+03  0.00000000000E+00 0. -1.
         25    2    1    2    0    0  0.53109112976E+02 -0.62450616130E+02 -0.20331516680E+03  0.25235245155E+03  0.12499618161E+03 0.  0.
          2    1    1    2  501    0  0.16390471497E+02 -0.14335962560E+02 -0.52007445171E+03  0.52053011700E+03  0.00000000000E+00 0. -1.
          1    1    1    2  502    0 -0.69499584473E+02  0.76786578690E+02 -0.18666618891E+03  0.21347280153E+03  0.00000000000E+00 0. -1.
         22    1    3    3    0    0  0.46835417800E+01  0.26728480078E+01 -0.16051026408E+03  0.16060082364E+03  0.00000000000E+00 0.  1.
         22    1    3    3    0    0  0.48425571196E+02 -0.65123464138E+02 -0.42804902718E+02  0.91751627908E+02  0.00000000000E+00 0.  1.
</event>
<event>
 7    1  0.6520971E-006  0.8387701E+02  0.7818608E-02  0.1405488E+00
          2   -1    0    0  502    0  0.00000000000E+00  0.00000000000E+00  0.11236790665E+03  0.11236790665E+03  0.00000000000E+00 0. -1.
          1   -1    0    0  501    0 -0.00000000000E+00 -0.00000000000E+00 -0.16472027364E+04  0.16472027364E+04  0.00000000000E+00 0. -1.
         25    2    1    2    0    0 -0.63044134969E+02  0.20499184665E+02 -0.32647125697E+03  0.35581179251E+03  0.12499508204E+03 0.  0.
          2    1    1    2  501    0 -0.21029534783E+02 -0.34496672015E+02 -0.12870949818E+04  0.12877289132E+04  0.00000000000E+00 0. -1.
          1    1    1    2  502    0  0.84073669752E+02  0.13997487350E+02  0.78731409005E+02  0.11602993735E+03  0.00000000000E+00 0. -1.
         22    1    3    3    0    0 -0.69408010849E+02  0.65678883472E+02 -0.20981292339E+03  0.23054858604E+03  0.00000000000E+00 0.  1.
         22    1    3    3    0    0  0.63638758800E+01 -0.45179698807E+02 -0.11665833358E+03  0.12526320646E+03  0.00000000000E+00 0.  1.
</event>
<event>
 7    1  0.6520971E-006  0.1242822E+03  0.7818608E-02  0.1387557E+00
          2   -1    0    0  502    0  0.00000000000E+00  0.00000000000E+00  0.14908250109E+03  0.14908250109E+03  0.00000000000E+00 0. -1.
          1   -1    0    0  501    0 -0.00000000000E+00 -0.00000000000E+00 -0.12246329215E+04  0.12246329215E+04  0.00000000000E+00 0. -1.
         25    2    1    2    0    0  0.10877829090E+03 -0.66797658989E+00 -0.82716570438E+01  0.16590933170E+03  0.12499729306E+03 0.  0.
          2    1    1    2  501    0  0.26610281923E+02 -0.16760881643E+02 -0.10707933402E+04  0.10712550638E+04  0.00000000000E+00 0. -1.
          1    1    1    2  502    0 -0.13538857283E+03  0.17428858233E+02  0.35145768470E+01  0.13655102710E+03  0.00000000000E+00 0. -1.
         22    1    3    3    0    0  0.11108502699E+03 -0.38970357985E+01  0.39507449572E+02  0.11796570977E+03  0.00000000000E+00 0. -1.
         22    1    3    3    0    0 -0.23067360929E+01  0.32290592086E+01 -0.47779106616E+02  0.47943621930E+02  0.00000000000E+00 0. -1.
</event>
<event>
 7    1  0.6520971E-006  0.7718757E+02  0.7818608E-02  0.1462496E+00
          2   -1    0    0  502    0  0.00000000000E+00  0.00000000000E+00  0.10342001206E+04  0.10342001206E+04  0.00000000000E+00 0. -1.
          1   -1    0    0  501    0 -0.00000000000E+00 -0.00000000000E+00 -0.58848152477E+03  0.58848152477E+03  0.00000000000E+00 0. -1.
         25    2    1    2    0    0  0.49865026464E+02 -0.42957877006E+02 -0.14904455082E+03  0.20535947797E+03  0.12500534790E+03 0.  0.
          2    1    1    2  501    0  0.22962776554E+02  0.16987550049E+02 -0.40929543502E+03  0.41029089570E+03  0.00000000000E+00 0. -1.
          1    1    1    2  502    0 -0.72827803018E+02  0.25970326957E+02  0.10040585817E+04  0.10070312718E+04  0.00000000000E+00 0. -1.
         22    1    3    3    0    0  0.88031430050E+02 -0.49008971572E+02 -0.91870264311E+02  0.13635086151E+03  0.00000000000E+00 0. -1.
         22    1    3    3    0    0 -0.38166403586E+02  0.60510945660E+01 -0.57174286506E+02  0.69008616459E+02  0.00000000000E+00 0. -1.
</event>
<event>
 7    1  0.6520971E-006  0.9818951E+02  0.7818608E-02  0.1381561E+00
          2   -1    0    0  502    0  0.00000000000E+00  0.00000000000E+00  0.15724856685E+03  0.15724856685E+03  0.00000000000E+00 0. -1.
          1   -1    0    0  501    0 -0.00000000000E+00 -0.00000000000E+00 -0.60216341547E+03  0.60216341547E+03  0.00000000000E+00 0. -1.
         25    2    1    2    0    0 -0.50841601843E+02  0.65330115483E+02 -0.15896300579E+03  0.21851078466E+03  0.12499933334E+03 0.  0.
          2    1    1    2  501    0 -0.37769936141E+02 -0.17877929623E+02 -0.39232781719E+03  0.39454696119E+03  0.00000000000E+00 0. -1.
          1    1    1    2  502    0  0.88611537984E+02 -0.47452185861E+02  0.10637597437E+03  0.14635423646E+03  0.00000000000E+00 0. -1.
         22    1    3    3    0    0 -0.64143542466E+02 -0.78043316698E+01 -0.11565254922E+03  0.13247948435E+03  0.00000000000E+00 0. -1.
         22    1    3    3    0    0  0.13301940623E+02  0.73134447153E+02 -0.43310456576E+02  0.86031300313E+02  0.00000000000E+00 0. -1.
</event>
<event>
 7    1  0.6520971E-006  0.6783014E+02  0.7818608E-02  0.1439757E+00
          2   -1    0    0  502    0  0.00000000000E+00  0.00000000000E+00  0.14307169004E+04  0.14307169004E+04  0.00000000000E+00 0. -1.
          1   -1    0    0  501    0 -0.00000000000E+00 -0.00000000000E+00 -0.49680035787E+02  0.49680035787E+02  0.00000000000E+00 0. -1.
         25    2    1    2    0    0 -0.69885733629E+02  0.41703639633E+02  0.83263185829E+03  0.84588634746E+03  0.12499876820E+03 0.  0.
          2    1    1    2  501    0  0.35523300057E+02  0.14639310240E+02 -0.32222362247E+02  0.50144739306E+02  0.00000000000E+00 0. -1.
          1    1    1    2  502    0  0.34362433572E+02 -0.56342949873E+02  0.58062736862E+03  0.58436584947E+03  0.00000000000E+00 0. -1.
         22    1    3    3    0    0 -0.20850254325E+01  0.14868810989E+02  0.63587691209E+03  0.63605414565E+03  0.00000000000E+00 0. -1.
         22    1    3    3    0    0 -0.67800708197E+02  0.26834828644E+02  0.19675494620E+03  0.20983220180E+03  0.00000000000E+00 0. -1.
</event>
<event>
 7    1  0.6520971E-006  0.2103594E+03  0.7818608E-02  0.1239397E+00
          2   -1    0    0  502    0  0.00000000000E+00  0.00000000000E+00  0.33726715613E+03  0.33726715613E+03  0.00000000000E+00 0. -1.
          1   -1    0    0  501    0 -0.00000000000E+00 -0.00000000000E+00 -0.30766112798E+03  0.30766112798E+03  0.00000000000E+00 0. -1.
         25    2    1    2    0    0  0.16934274888E+03  0.72689064435E+02 -0.28841705925E+01  0.22269965371E+03  0.12500460246E+03 0.  0.
          2    1    1    2  501    0 -0.18004654636E+03 -0.14294834565E+03 -0.11607805305E+03  0.25753660473E+03  0.00000000000E+00 0. -1.
          1    1    1    2  502    0  0.10703797480E+02  0.70259281212E+02  0.14856825179E+03  0.16469202566E+03  0.00000000000E+00 0. -1.
         22    1    3    3    0    0  0.94786416877E+02  0.74879591615E+02 -0.53960239043E+02  0.13229937816E+03  0.00000000000E+00 0. -1.
         22    1    3    3    0    0  0.74556332000E+02 -0.21905271807E+01  0.51076068451E+02  0.90400275547E+02  0.00000000000E+00 0. -1.
</event>
<event>
 7    1  0.6520971E-006  0.7766474E+02  0.7818608E-02  0.1406562E+00
          2   -1    0    0  502    0  0.00000000000E+00  0.00000000000E+00  0.98635078491E+03  0.98635078491E+03  0.00000000000E+00 0. -1.
          1   -1    0    0  501    0 -0.00000000000E+00 -0.00000000000E+00 -0.54701486624E+03  0.54701486624E+03  0.00000000000E+00 0. -1.
         25    2    1    2    0    0 -0.61079636241E+02 -0.80205790221E+02  0.37130920060E+02  0.16482666576E+03  0.12500173508E+03 0.  0.
          2    1    1    2  501    0 -0.65189034112E+01  0.42772705475E+02 -0.48050717801E+03  0.48245118774E+03  0.00000000000E+00 0. -1.
          1    1    1    2  502    0  0.67598539652E+02  0.37433084745E+02  0.88271217662E+03  0.88608779765E+03  0.00000000000E+00 0. -1.
         22    1    3    3    0    0 -0.10557293086E+02 -0.10174830140E+03  0.78748261615E+01  0.10259720348E+03  0.00000000000E+00 0. -1.
         22    1    3    3    0    0 -0.50522343155E+02  0.21542511177E+02  0.29256093899E+02  0.62229462282E+02  0.00000000000E+00 0. -1.
</event>
<event>
 7    1  0.6520971E-006  0.3731592E+02  0.7818608E-02  0.1593973E+00
          2   -1    0    0  502    0  0.00000000000E+00  0.00000000000E+00  0.28456271842E+03  0.28456271842E+03  0.00000000000E+00 0. -1.
          1   -1    0    0  501    0 -0.00000000000E+00 -0.00000000000E+00 -0.65858897703E+03  0.65858897703E+03  0.00000000000E+00 0. -1.
         25    2    1    2    0    0  0.23409015121E+02 -0.13285109166E+02  0.69109772989E+02  0.14534528609E+03  0.12499846140E+03 0.  0.
          2    1    1    2  501    0  0.14155979052E+02  0.20273006810E+02 -0.61816299521E+03  0.61865731645E+03  0.00000000000E+00 0. -1.
          1    1    1    2  502    0 -0.37564994173E+02 -0.69878976440E+01  0.17502696361E+03  0.17914909291E+03  0.00000000000E+00 0. -1.
         22    1    3    3    0    0  0.20658218674E+02 -0.41273830410E+02  0.95947176878E+02  0.10647136623E+03  0.00000000000E+00 0. -1.
         22    1    3    3    0    0  0.27507964463E+01  0.27988721244E+02 -0.26837403888E+02  0.38873919862E+02  0.00000000000E+00 0. -1.
</event>
<event>
 7    1  0.6520971E-006  0.1066231E+03  0.7818608E-02  0.1339826E+00
          2   -1    0    0  502    0  0.00000000000E+00  0.00000000000E+00  0.10043793821E+04  0.10043793821E+04  0.00000000000E+00 0. -1.
          1   -1    0    0  501    0 -0.00000000000E+00 -0.00000000000E+00 -0.50450899972E+03  0.50450899972E+03  0.00000000000E+00 0. -1.
         25    2    1    2    0    0 -0.83020415099E+02 -0.31827421927E+02  0.15821539909E+03  0.22037255678E+03  0.12500630850E+03 0.  0.
          2    1    1    2  501    0  0.67104340291E+02  0.84089513793E+02 -0.46638432523E+03  0.47863177667E+03  0.00000000000E+00 0. -1.
          1    1    1    2  502    0  0.15916074807E+02 -0.52262091866E+02  0.80803930848E+03  0.80988404833E+03  0.00000000000E+00 0. -1.
         22    1    3    3    0    0 -0.21135679041E+02 -0.68739481129E+02  0.11707358289E+03  0.13739744177E+03  0.00000000000E+00 0.  1.
         22    1    3    3    0    0 -0.61884736057E+02  0.36912059202E+02  0.41141816207E+02  0.82975115018E+02  0.00000000000E+00 0.  1.
</event>
<event>
 7    1  0.6520971E-006  0.1425381E+03  0.7818608E-02  0.1359970E+00
          2   -1    0    0  502    0  0.00000000000E+00  0.00000000000E+00  0.14464059801E+04  0.14464059801E+04  0.00000000000E+00 0. -1.
          1   -1    0    0  501    0 -0.00000000000E+00 -0.00000000000E+00 -0.21413042720E+03  0.21413042720E+03  0.00000000000E+00 0. -1.
         25    2    1    2    0    0 -0.88628716737E+02  0.84865148834E+02  0.42515321024E+03  0.45983836608E+03  0.12505569891E+03 0.  0.
          2    1    1    2  501    0  0.81522386694E+02 -0.11853587993E+03 -0.17015137293E+03  0.22281863493E+03  0.00000000000E+00 0. -1.
          1    1    1    2  502    0  0.71063300436E+01  0.33670731099E+02  0.97727371559E+03  0.97787940629E+03  0.00000000000E+00 0. -1.
         22    1    3    3    0    0 -0.36866269206E+02  0.27467403437E+02  0.25084195457E+02  0.52371718689E+02  0.00000000000E+00 0.  1.
         22    1    3    3    0    0 -0.51762447531E+02  0.57397745397E+02  0.40006901478E+03  0.40746664739E+03  0.00000000000E+00 0.  1.
</event>
<event>
 7    1  0.6520971E-006  0.2652013E+03  0.7818608E-02  0.1204125E+00
          2   -1    0    0  502    0  0.00000000000E+00  0.00000000000E+00  0.23886570416E+04  0.23886570416E+04  0.00000000000E+00 0. -1.
          1   -1    0    0  501    0 -0.00000000000E+00 -0.00000000000E+00 -0.35426162356E+03  0.35426162356E+03  0.00000000000E+00 0. -1.
         25    2    1    2    0    0 -0.24273007506E+03 -0.11030039937E+03  0.15763736611E+04  0.16036403693E+04  0.12499778984E+03 0.  0.
          2    1    1    2  501    0 -0.25882879394E+02  0.77338534145E+02 -0.31231466077E+03  0.32278726686E+03  0.00000000000E+00 0. -1.
          1    1    1    2  502    0  0.26861295446E+03  0.32961865220E+02  0.77033641773E+03  0.81649102894E+03  0.00000000000E+00 0. -1.
         22    1    3    3    0    0 -0.18467510277E+03 -0.11017092382E+03  0.92420100082E+03  0.94888883224E+03  0.00000000000E+00 0. -1.
         22    1    3    3    0    0 -0.58054972289E+02 -0.12947554928E+00  0.65217266024E+03  0.65475153710E+03  0.00000000000E+00 0. -1.
</event>
<event>
 7    1  0.6520971E-006  0.1072037E+03  0.7818608E-02  0.1455607E+00
          2   -1    0    0  502    0  0.00000000000E+00  0.00000000000E+00  0.50145537006E+03  0.50145537006E+03  0.00000000000E+00 0. -1.
          1   -1    0    0  501    0 -0.00000000000E+00 -0.00000000000E+00 -0.31579284964E+03  0.31579284964E+03  0.00000000000E+00 0. -1.
         25    2    1    2    0    0 -0.78003307410E+02  0.68648427163E+02  0.87121262943E+02  0.18442175690E+03  0.12499658972E+03 0.  0.
          2    1    1    2  501    0  0.64903300730E+02 -0.85850971656E+02 -0.25596025626E+03  0.27766613147E+03  0.00000000000E+00 0. -1.
          1    1    1    2  502    0  0.13100006680E+02  0.17202544493E+02  0.35450151373E+03  0.35516033133E+03  0.00000000000E+00 0. -1.
         22    1    3    3    0    0 -0.72953312156E+02  0.29928317813E+02  0.11284231169E+03  0.13766363815E+03  0.00000000000E+00 0. -1.
         22    1    3    3    0    0 -0.50499952539E+01  0.38720109350E+02 -0.25721048746E+02  0.46758118746E+02  0.00000000000E+00 0. -1.
</event>
<event>
 7    1  0.6520971E-006  0.1505521E+03  0.7818608E-02  0.1356937E+00
          2   -1    0    0  502    0  0.00000000000E+00  0.00000000000E+00  0.11242931252E+03  0.11242931252E+03  0.00000000000E+00 0. -1.
          1   -1    0    0  501    0 -0.00000000000E+00 -0.00000000000E+00 -0.14352896897E+04  0.14352896897E+04  0.00000000000E+00 0. -1.
         25    2    1    2    0    0 -0.86222054638E+02 -0.85970840888E+02 -0.16917949210E+03  0.24305042768E+03  0.12500632647E+03 0.  0.
          2    1    1    2  501    0  0.10330786698E+03  0.11469729792E+03 -0.12203586781E+04  0.12300826349E+04  0.00000000000E+00 0. -1.
          1    1    1    2  502    0 -0.17085812340E+02 -0.28726457029E+02  0.66677792982E+02  0.74585939651E+02  0.00000000000E+00 0. -1.
         22    1    3    3    0    0  0.34632663928E+01  0.16741119111E+01 -0.99534366474E+02  0.99608669172E+02  0.00000000000E+00 0. -1.
         22    1    3    3    0    0 -0.89685321031E+02 -0.87644952799E+02 -0.69645125629E+02  0.14344175851E+03  0.00000000000E+00 0. -1.
</event>
<event>
 7    1  0.6520971E-006  0.1038091E+03  0.7818608E-02  0.1356319E+00
          2   -1    0    0  502    0  0.00000000000E+00  0.00000000000E+00  0.21861594896E+04  0.21861594896E+04  0.00000000000E+00 0. -1.
          1   -1    0    0  501    0 -0.00000000000E+00 -0.00000000000E+00 -0.57446925999E+03  0.57446925999E+03  0.00000000000E+00 0. -1.
         25    2    1    2    0    0  0.38866653529E+02 -0.13854717818E+03  0.82899972785E+03  0.85063005109E+03  0.12499999082E+03 0.  0.
          2    1    1    2  501    0 -0.11855058684E+01  0.48712935901E+02 -0.56083411081E+03  0.56294693835E+03  0.00000000000E+00 0. -1.
          1    1    1    2  502    0 -0.37681147660E+02  0.89834242279E+02  0.13435246125E+04  0.13470517601E+04  0.00000000000E+00 0. -1.
         22    1    3    3    0    0 -0.40626357902E+02 -0.51056987471E+02  0.41448708318E+03  0.41959130001E+03  0.00000000000E+00 0.  1.
         22    1    3    3    0    0  0.79493011430E+02 -0.87490190709E+02  0.41451264467E+03  0.43103875108E+03  0.00000000000E+00 0.  1.
</event>
<event>
 7    1  0.6520971E-006  0.6059489E+02  0.7818608E-02  0.1476032E+00
          2   -1    0    0  502    0  0.00000000000E+00  0.00000000000E+00  0.85717135550E+03  0.85717135550E+03  0.00000000000E+00 0. -1.
          1   -1    0    0  501    0 -0.00000000000E+00 -0.00000000000E+00 -0.17082709550E+03  0.17082709550E+03  0.00000000000E+00 0. -1.
         25    2    1    2    0    0  0.56779725327E+02  0.10060768856E+02 -0.35678189989E+02  0.14221122071E+03  0.12500376705E+03 0.  0.
          2    1    1    2  501    0 -0.11847735976E+02  0.30820690727E+02 -0.77353641871E+02  0.84106300212E+02  0.00000000000E+00 0. -1.
          1    1    1    2  502    0 -0.44931989351E+02 -0.40881459583E+02  0.79937609187E+03  0.80168093008E+03  0.00000000000E+00 0. -1.
         22    1    3    3    0    0  0.51672822580E+02  0.54019885314E+02 -0.56108039678E+02  0.93468394226E+02  0.00000000000E+00 0.  1.
         22    1    3    3    0    0  0.51069027472E+01 -0.43959116458E+02  0.20429849689E+02  0.48742826485E+02  0.00000000000E+00 0.  1.
</event>
<event>
 7    1  0.6520971E-006  0.9377630E+02  0.7818608E-02  0.1321486E+00
          2   -1    0    0  502    0  0.00000000000E+00  0.00000000000E+00  0.12457353937E+04  0.12457353937E+04  0.00000000000E+00 0. -1.
          1   -1    0    0  501    0 -0.00000000000E+00 -0.00000000000E+00 -0.22617648247E+03  0.22617648247E+03  0.00000000000E+00 0. -1.
         25    2    1    2    0    0  0.27655686003E+02  0.25642671545E+02  0.21572269433E+03  0.25215488381E+03  0.12499368387E+03 0.  0.
          2    1    1    2  501    0  0.72811442792E+02 -0.49510483542E+01 -0.19885957156E+03  0.21182811022E+03  0.00000000000E+00 0. -1.
          1    1    1    2  502    0 -0.10046712880E+03 -0.20691623191E+02  0.10026957885E+04  0.10079288821E+04  0.00000000000E+00 0. -1.
         22    1    3    3    0    0  0.32301984043E+02  0.64840559822E+01 -0.25023126796E+01  0.33041227639E+02  0.00000000000E+00 0. -1.
         22    1    3    3    0    0 -0.46462980402E+01  0.19158615563E+02  0.21822500701E+03  0.21911365617E+03  0.00000000000E+00 0. -1.
</event>
<event>
 7    1  0.6520971E-006  0.7133458E+02  0.7818608E-02  0.1392223E+00
          2   -1    0    0  502    0  0.00000000000E+00  0.00000000000E+00  0.10138511958E+04  0.10138511958E+04  0.00000000000E+00 0. -1.
          1   -1    0    0  501    0 -0.00000000000E+00 -0.00000000000E+00 -0.34128869950E+03  0.34128869950E+03  0.00000000000E+00 0. -1.
         25    2    1    2    0    0 -0.89757804655E+02  0.45299235809E+02  0.43583317663E+03  0.46441781870E+03  0.12499947285E+03 0.  0.
          2    1    1    2  501    0  0.51473695049E+02  0.11647784626E+02 -0.32275710370E+03  0.32704336128E+03  0.00000000000E+00 0. -1.
          1    1    1    2  502    0  0.38284109607E+02 -0.56947020435E+02  0.55948642340E+03  0.56367871536E+03  0.00000000000E+00 0. -1.
         22    1    3    3    0    0 -0.61700280855E+02  0.41260892932E+02  0.86687067826E+02  0.11412288846E+03  0.00000000000E+00 0. -1.
         22    1    3    3    0    0 -0.28057523801E+02  0.40383428776E+01  0.34914610881E+03  0.35029493024E+03  0.00000000000E+00 0. -1.
</event>
<event>
 7    1  0.6520971E-006  0.1228509E+03  0.7818608E-02  0.1279458E+00
          2   -1    0    0  502    0  0.00000000000E+00  0.00000000000E+00  0.48595936013E+03  0.48595936013E+03  0.00000000000E+00 0. -1.
          1   -1    0    0  501    0 -0.00000000000E+00 -0.00000000000E+00 -0.13539778322E+04  0.13539778322E+04  0.00000000000E+00 0. -1.
         25    2    1    2    0    0  0.12103565803E+02 -0.76267294395E+02 -0.49392110037E+03  0.51531131825E+03  0.12499801929E+03 0.  0.
          2    1    1    2  501    0 -0.62902585754E+02  0.14070219122E+03 -0.83874573303E+03  0.85278851223E+03  0.00000000000E+00 0. -1.
          1    1    1    2  502    0  0.50799019951E+02 -0.64434896829E+02  0.46464836133E+03  0.47183736185E+03  0.00000000000E+00 0. -1.
         22    1    3    3    0    0  0.24914642430E+02 -0.83097908864E+02 -0.49320371697E+03  0.50077530720E+03  0.00000000000E+00 0.  1.
         22    1    3    3    0    0 -0.12811076627E+02  0.68306144693E+01 -0.71738339844E+00  0.14536011053E+02  0.00000000000E+00 0.  1.
</event>
<event>
 7    1  0.6520971E-006  0.1012199E+03  0.7818608E-02  0.1412939E+00
          2   -1    0    0  502    0  0.00000000000E+00  0.00000000000E+00  0.20648284703E+04  0.20648284703E+04  0.00000000000E+00 0. -1.
          1   -1    0    0  501    0 -0.00000000000E+00 -0.00000000000E+00 -0.18433177187E+03  0.18433177187E+03  0.00000000000E+00 0. -1.
         25    2    1    2    0    0 -0.57942716806E+02 -0.49805592327E+02  0.10393113667E+03  0.17962491982E+03  0.12500190076E+03 0.  0.
          2    1    1    2  501    0 -0.41754674319E+01 -0.31308783230E+02 -0.14340805354E+03  0.14684530723E+03  0.00000000000E+00 0. -1.
          1    1    1    2  502    0  0.62118184238E+02  0.81114375557E+02  0.19199736153E+04  0.19226900151E+04  0.00000000000E+00 0. -1.
         22    1    3    3    0    0 -0.21897880097E+02  0.33226605708E+02 -0.25421649616E+01  0.39874642096E+02  0.00000000000E+00 0. -1.
         22    1    3    3    0    0 -0.36044836709E+02 -0.83032198035E+02  0.10647330163E+03  0.13975027773E+03  0.00000000000E+00 0. -1.
</event>
<event>
 7    1  0.6520971E-006  0.5765658E+02  0.7818608E-02  0.1437571E+00
          2   -1    0    0  502    0  0.00000000000E+00  0.00000000000E+00  0.13114344368E+04  0.13114344368E+04  0.00000000000E+00 0. -1.
          1   -1    0    0  501    0 -0.00000000000E+00 -0.00000000000E+00 -0.84059626056E+03  0.84059626056E+03  0.00000000000E+00 0. -1.
         25    2    1    2    0    0 -0.20797205724E+02  0.10115771875E+03  0.97050285248E+02  0.18897093382E+03  0.12500339249E+03 0.  0.
          2    1    1    2  501    0  0.11544973231E+02 -0.56152047362E+02 -0.79314933276E+03  0.79521833661E+03  0.00000000000E+00 0. -1.
          1    1    1    2  502    0  0.92522324928E+01 -0.45005671387E+02  0.11669372237E+04  0.11678414269E+04  0.00000000000E+00 0. -1.
         22    1    3    3    0    0 -0.71763399414E+02  0.52489117153E+02  0.71208310746E+02  0.11391100225E+03  0.00000000000E+00 0. -1.
         22    1    3    3    0    0  0.50966193690E+02  0.48668601597E+02  0.25841974502E+02  0.75059931567E+02  0.00000000000E+00 0. -1.
</event>
<event>
 7    1  0.6520971E-006  0.8699393E+02  0.7818608E-02  0.1404511E+00
          2   -1    0    0  502    0  0.00000000000E+00  0.00000000000E+00  0.25749259361E+03  0.25749259361E+03  0.00000000000E+00 0. -1.
          1   -1    0    0  501    0 -0.00000000000E+00 -0.00000000000E+00 -0.14679098524E+03  0.14679098524E+03  0.00000000000E+00 0. -1.
         25    2    1    2    0    0  0.13346760729E+02  0.92018129081E+02  0.15906319198E+03  0.22264877318E+03  0.12500362017E+03 0.  0.
          2    1    1    2  501    0 -0.37927111322E+02 -0.10120193752E+02 -0.81079439161E+02  0.90081960177E+02  0.00000000000E+00 0. -1.
          1    1    1    2  502    0  0.24580350593E+02 -0.81897935329E+02  0.32717855542E+02  0.91552845492E+02  0.00000000000E+00 0. -1.
         22    1    3    3    0    0 -0.49444244651E+02  0.45172357125E+02  0.11415206451E+03  0.13234790897E+03  0.00000000000E+00 0.  1.
         22    1    3    3    0    0  0.62791005380E+02  0.46845771955E+02  0.44911127474E+02  0.90300864214E+02  0.00000000000E+00 0.  1.
</event>
<event>
 7    1  0.6520971E-006  0.6714641E+02  0.7818608E-02  0.1492214E+00
          2   -1    0    0  502    0  0.00000000000E+00  0.00000000000E+00  0.31064103966E+03  0.31064103966E+03  0.00000000000E+00 0. -1.
          1   -1    0    0  501    0 -0.00000000000E+00 -0.00000000000E+00 -0.10499390418E+04  0.10499390418E+04  0.00000000000E+00 0. -1.
         25    2    1    2    0    0  0.34059526182E+02  0.22815306826E+02 -0.32017946311E+03  0.34615103919E+03  0.12500025515E+03 0.  0.
          2    1    1    2  501    0  0.19925595867E+02  0.17616536796E+02 -0.71270175781E+03  0.71319784585E+03  0.00000000000E+00 0. -1.
          1    1    1    2  502    0 -0.53985122049E+02 -0.40431843621E+02  0.29358321875E+03  0.30123119644E+03  0.00000000000E+00 0. -1.
         22    1    3    3    0    0 -0.11328116123E+02 -0.43537062796E+02 -0.16949156459E+03  0.17536017940E+03  0.00000000000E+00 0. -1.
         22    1    3    3    0    0  0.45387642305E+02  0.66352369622E+02 -0.15068789852E+03  0.17079085979E+03  0.00000000000E+00 0. -1.
</event>
<event>
 7    1  0.6520971E-006  0.9986949E+02  0.7818608E-02  0.1304485E+00
          2   -1    0    0  502    0  0.00000000000E+00  0.00000000000E+00  0.58813159173E+03  0.58813159173E+03  0.00000000000E+00 0. -1.
          1   -1    0    0  501    0 -0.00000000000E+00 -0.00000000000E+00 -0.11658512005E+04  0.11658512005E+04  0.00000000000E+00 0. -1.
         25    2    1    2    0    0  0.15966338203E+02 -0.27943819978E+02 -0.16674935289E+03  0.21086705403E+03  0.12499514691E+03 0.  0.
          2    1    1    2  501    0 -0.19861725563E+02  0.10774953232E+03 -0.97112752217E+03  0.97728865448E+03  0.00000000000E+00 0. -1.
          1    1    1    2  502    0  0.38953873597E+01 -0.79805712344E+02  0.56015726626E+03  0.56582708376E+03  0.00000000000E+00 0. -1.
         22    1    3    3    0    0  0.21599235866E+02 -0.63345344697E+02 -0.16126750835E+03  0.17460346198E+03  0.00000000000E+00 0. -1.
         22    1    3    3    0    0 -0.56328976630E+01  0.35401524719E+02 -0.54818445416E+01  0.36263592047E+02  0.00000000000E+00 0. -1.
</event>
<event>
 7    1  0.6520971E-006  0.7715218E+02  0.7818608E-02  0.1372042E+00
          2   -1    0    0  502    0  0.00000000000E+00  0.00000000000E+00  0.31849771040E+03  0.31849771040E+03  0.00000000000E+00 0. -1.
          1   -1    0    0  501    0 -0.00000000000E+00 -0.00000000000E+00 -0.65180327495E+03  0.65180327495E+03  0.00000000000E+00 0. -1.
         25    2    1    2    0    0  0.80994923160E+02 -0.74202188099E+02  0.19161849426E+03  0.25379036331E+03  0.12500303545E+03 0.  0.
          2    1    1    2  501    0 -0.75047086936E+02  0.17014781994E+02 -0.60944695220E+03  0.61428589078E+03  0.00000000000E+00 0. -1.
          1    1    1    2  502    0 -0.59478362243E+01  0.57187406104E+02  0.84522893388E+02  0.10222473125E+03  0.00000000000E+00 0. -1.
         22    1    3    3    0    0 -0.11750338717E+02 -0.26042392357E+02 -0.69477466502E+01  0.29403194438E+02  0.00000000000E+00 0.  1.
         22    1    3    3    0    0  0.92745261877E+02 -0.48159795741E+02  0.19856624091E+03  0.22438716888E+03  0.00000000000E+00 0.  1.
</event>
<event>
 7    1  0.6520971E-006  0.8487965E+02  0.7818608E-02  0.1330328E+00
          2   -1    0    0  502    0  0.00000000000E+00  0.00000000000E+00  0.28501324697E+03  0.28501324697E+03  0.00000000000E+00 0. -1.
          1   -1    0    0  501    0 -0.00000000000E+00 -0.00000000000E+00 -0.11941645086E+03  0.11941645086E+03  0.00000000000E+00 0. -1.
         25    2    1    2    0    0  0.11887916522E+02  0.11881207564E+02  0.11165915908E+02  0.12661254447E+03  0.12499429222E+03 0.  0.
          2    1    1    2  501    0 -0.56752211994E+02  0.63116889913E+02 -0.15917582239E+02  0.86359277341E+02  0.00000000000E+00 0. -1.
          1    1    1    2  502    0  0.44864295472E+02 -0.74998097476E+02  0.17034846244E+03  0.19145787602E+03  0.00000000000E+00 0. -1.
         22    1    3    3    0    0  0.33737742130E+02 -0.42778428168E+02 -0.22335291015E+02  0.58882037883E+02  0.00000000000E+00 0. -1.
         22    1    3    3    0    0 -0.21849825608E+02  0.54659635732E+02  0.33501206923E+02  0.67730506589E+02  0.00000000000E+00 0. -1.
</event>
<event>
 7    1  0.6520971E-006  0.7095981E+02  0.7818608E-02  0.1446127E+00
          2   -1    0    0  502    0  0.00000000000E+00  0.00000000000E+00  0.13647318959E+04  0.13647318959E+04  0.00000000000E+00 0. -1.
          1   -1    0    0  501    0 -0.00000000000E+00 -0.00000000000E+00 -0.58637974050E+03  0.58637974050E+03  0.00000000000E+00 0. -1.
         25    2    1    2    0    0  0.25367788040E+02 -0.90009257086E+02 -0.37727179461E+03  0.40829391223E+03  0.12499888290E+03 0.  0.
          2    1    1    2  501    0 -0.20484963853E+01  0.63873319354E+02 -0.18808859731E+03  0.19864872942E+03  0.00000000000E+00 0. -1.
          1    1    1    2  502    0 -0.23319291655E+02  0.26135937732E+02  0.13437125474E+04  0.13441689948E+04  0.00000000000E+00 0. -1.
         22    1    3    3    0    0 -0.42835040195E+02 -0.71963013077E+02 -0.17349433645E+03  0.19264942435E+03  0.00000000000E+00 0.  1.
         22    1    3    3    0    0  0.68202828235E+02 -0.18046244009E+02 -0.20377745816E+03  0.21564448788E+03  0.00000000000E+00 0.  1.
</event>
<event>
 7    1  0.6520971E-006  0.4767432E+02  0.7818608E-02  0.1513494E+00
          2   -1    0    0  502    0  0.00000000000E+00  0.00000000000E+00  0.58771070188E+02  0.58771070188E+02  0.00000000000E+00 0. -1.
          1   -1    0    0  501    0 -0.00000000000E+00 -0.00000000000E+00 -0.12231026699E+04  0.12231026699E+04  0.00000000000E+00 0. -1.
         25    2    1    2    0    0 -0.40411086340E+02  0.54873849911E+02 -0.97349156523E+03  0.98384575151E+03  0.12498975908E+03 0.  0.
          2    1    1    2  501    0 -0.14322035655E+01 -0.32350235721E+02 -0.23255324542E+03  0.23479693549E+03  0.00000000000E+00 0. -1.
          1    1    1    2  502    0  0.41843289905E+02 -0.22523614189E+02  0.41713210952E+02  0.63231053085E+02  0.00000000000E+00 0. -1.
         22    1    3    3    0    0 -0.31503736415E+02 -0.37810224671E+02 -0.34707364749E+03  0.35054559658E+03  0.00000000000E+00 0. -1.
         22    1    3    3    0    0 -0.89073499251E+01  0.92684074582E+02 -0.62641791775E+03  0.63330015493E+03  0.00000000000E+00 0. -1.
</event>
<event>
 7    1  0.6520971E-006  0.1335908E+03  0.7818608E-02  0.1351013E+00
          2   -1    0    0  502    0  0.00000000000E+00  0.00000000000E+00  0.73756289433E+03  0.73756289433E+03  0.00000000000E+00 0. -1.
          1   -1    0    0  501    0 -0.00000000000E+00 -0.00000000000E+00 -0.65433494518E+03  0.65433494518E+03  0.00000000000E+00 0. -1.
         25    2    1    2    0    0  0.80483228925E+01  0.12784708217E+03 -0.88182525552E+02  0.19952266441E+03  0.12499393536E+03 0.  0.
          2    1    1    2  501    0 -0.47636276172E+02 -0.12659591216E+03 -0.50092926295E+03  0.51886979702E+03  0.00000000000E+00 0. -1.
          1    1    1    2  502    0  0.39587953280E+02 -0.12511700124E+01  0.67233973765E+03  0.67350537808E+03  0.00000000000E+00 0. -1.
         22    1    3    3    0    0  0.37661768350E+02  0.14076698371E+03 -0.79825937812E+02  0.16615033206E+03  0.00000000000E+00 0.  1.
         22    1    3    3    0    0 -0.29613445458E+02 -0.12919901530E+02 -0.83565877400E+01  0.33372332344E+02  0.00000000000E+00 0.  1.
</event>
<event>
 7    1  0.6520971E-006  0.4326306E+02  0.7818608E-02  0.1509677E+00
          2   -1    0    0  502    0  0.00000000000E+00  0.00000000000E+00  0.74694010438E+03  0.74694010438E+03  0.00000000000E+00 0. -1.
          1   -1    0    0  501    0 -0.00000000000E+00 -0.00000000000E+00 -0.12899293480E+04  0.12899293480E+04  0.00000000000E+00 0. -1.
         25    2    1    2    0    0  0.33486433148E+02  0.22247173688E+02  0.79341489100E+02  0.15341559862E+03  0.12499998426E+03 0.  0.
          2    1    1    2  501    0  0.80092839165E+01 -0.35730289250E+02 -0.12518695106E+04  0.12524049160E+04  0.00000000000E+00 0. -1.
          1    1    1    2  502    0 -0.41495717064E+02  0.13483115563E+02  0.62953877787E+03  0.63104893770E+03  0.00000000000E+00 0. -1.
         22    1    3    3    0    0  0.53260445132E+02 -0.26706225493E+01 -0.13722914494E+02  0.55064740286E+02  0.00000000000E+00 0.  1.
         22    1    3    3    0    0 -0.19774011985E+02  0.24917796237E+02  0.93064403594E+02  0.98350858337E+02  0.00000000000E+00 0.  1.
</event>
<event>
 7    1  0.6520971E-006  0.6600980E+02  0.7818608E-02  0.1497103E+00
          2   -1    0    0  502    0  0.00000000000E+00  0.00000000000E+00  0.10612727542E+04  0.10612727542E+04  0.00000000000E+00 0. -1.
          1   -1    0    0  501    0 -0.00000000000E+00 -0.00000000000E+00 -0.25382448848E+03  0.25382448848E+03  0.00000000000E+00 0. -1.
         25    2    1    2    0    0 -0.33918341312E+02  0.37031866474E+02 -0.91252394923E+01  0.13502219728E+03  0.12500364295E+03 0.  0.
          2    1    1    2  501    0  0.27001559119E+02 -0.62254802990E+02 -0.17523849294E+03  0.18791826441E+03  0.00000000000E+00 0. -1.
          1    1    1    2  502    0  0.69167821923E+01  0.25222936516E+02  0.99181199813E+03  0.99215678098E+03  0.00000000000E+00 0. -1.
         22    1    3    3    0    0  0.22469145581E+02  0.22286412288E+02  0.45312389591E+02  0.55269877205E+02  0.00000000000E+00 0.  1.
         22    1    3    3    0    0 -0.56387486893E+02  0.14745454186E+02 -0.54437629084E+02  0.79752320076E+02  0.00000000000E+00 0.  1.
</event>
<event>
 7    1  0.6520971E-006  0.8362424E+02  0.7818608E-02  0.1384098E+00
          2   -1    0    0  502    0  0.00000000000E+00  0.00000000000E+00  0.29576195674E+04  0.29576195674E+04  0.00000000000E+00 0. -1.
          1   -1    0    0  501    0 -0.00000000000E+00 -0.00000000000E+00 -0.15459732244E+04  0.15459732244E+04  0.00000000000E+00 0. -1.
         25    2    1    2    0    0 -0.69362730555E+02 -0.54296315190E+02  0.39151719955E+02  0.15784688628E+03  0.12499401625E+03 0.  0.
          2    1    1    2  501    0  0.28065525237E+02  0.78889139379E+02 -0.14852443481E+04  0.14876027506E+04  0.00000000000E+00 0. -1.
          1    1    1    2  502    0  0.41297205318E+02 -0.24592824189E+02  0.28577389712E+04  0.28581431549E+04  0.00000000000E+00 0. -1.
         22    1    3    3    0    0  0.34414015205E+02 -0.29927408000E+02  0.18760428233E+02  0.49314580598E+02  0.00000000000E+00 0. -1.
         22    1    3    3    0    0 -0.10377674576E+03 -0.24368907190E+02  0.20391291723E+02  0.10853230568E+03  0.00000000000E+00 0. -1.
</event>
<event>
 7    1  0.6520971E-006  0.1579335E+03  0.7818608E-02  0.1290319E+00
          2   -1    0    0  502    0  0.00000000000E+00  0.00000000000E+00  0.13803919023E+03  0.13803919023E+03  0.00000000000E+00 0. -1.
          1   -1    0    0  501    0 -0.00000000000E+00 -0.00000000000E+00 -0.11150443081E+04  0.11150443081E+04  0.00000000000E+00 0. -1.
         25    2    1    2    0    0 -0.15172673831E+03 -0.29879326133E+02 -0.78937395040E+02  0.21394118890E+03  0.12500377084E+03 0.  0.
          2    1    1    2  501    0  0.12042866578E+02 -0.56331433881E+02 -0.87085246199E+03  0.87275556236E+03  0.00000000000E+00 0. -1.
          1    1    1    2  502    0  0.13968387173E+03  0.86210760014E+02 -0.27215260790E+02  0.16638674702E+03  0.00000000000E+00 0. -1.
         22    1    3    3    0    0 -0.17015025852E+03 -0.88121939640E+01 -0.62472854586E+02  0.18147072159E+03  0.00000000000E+00 0. -1.
         22    1    3    3    0    0  0.18423520210E+02 -0.21067132169E+02 -0.16464540454E+02  0.32470467306E+02  0.00000000000E+00 0. -1.
</event>
<event>
 7    1  0.6520971E-006  0.4257938E+02  0.7818608E-02  0.1492624E+00
          2   -1    0    0  502    0  0.00000000000E+00  0.00000000000E+00  0.54752422243E+02  0.54752422243E+02  0.00000000000E+00 0. -1.
          1   -1    0    0  501    0 -0.00000000000E+00 -0.00000000000E+00 -0.56452735438E+03  0.56452735438E+03  0.00000000000E+00 0. -1.
         25    2    1    2    0    0 -0.77549581651E+01 -0.18647208568E+02 -0.26824643319E+03  0.29662904946E+03  0.12499914520E+03 0.  0.
          2    1    1    2  501    0  0.41770766668E+02 -0.82587275793E+01 -0.26831668033E+03  0.27167415127E+03  0.00000000000E+00 0. -1.
          1    1    1    2  502    0 -0.34015808502E+02  0.26905936147E+02  0.26788181377E+02  0.50976575891E+02  0.00000000000E+00 0. -1.
         22    1    3    3    0    0  0.58273863501E+02 -0.13480085194E+02 -0.11323458111E+03  0.12806102539E+03  0.00000000000E+00 0.  1.
         22    1    3    3    0    0 -0.66028821666E+02 -0.51671233738E+01 -0.15501185207E+03  0.16856802407E+03  0.00000000000E+00 0.  1.
</event>
<event>
 7    1  0.6520971E-006  0.6066215E+02  0.7818608E-02  0.1458917E+00
          2   -1    0    0  502    0  0.00000000000E+00  0.00000000000E+00  0.47893930892E+03  0.47893930892E+03  0.00000000000E+00 0. -1.
          1   -1    0    0  501    0 -0.00000000000E+00 -0.00000000000E+00 -0.20007925219E+03  0.20007925219E+03  0.00000000000E+00 0. -1.
         25    2    1    2    0    0 -0.60532613863E+01  0.31354288088E+02  0.91761692584E+02  0.15831833961E+03  0.12499902030E+03 0.  0.
          2    1    1    2  501    0  0.39373413335E+02 -0.48120828886E+02 -0.15997252260E+03  0.17163067278E+03  0.00000000000E+00 0. -1.
          1    1    1    2  502    0 -0.33320151949E+02  0.16766540798E+02  0.34707088675E+03  0.34906954873E+03  0.00000000000E+00 0. -1.
         22    1    3    3    0    0 -0.52692597550E+02 -0.98099811844E+00  0.86542751910E+02  0.10132679854E+03  0.00000000000E+00 0. -1.
         22    1    3    3    0    0  0.46639336164E+02  0.32335286206E+02  0.52189406738E+01  0.56991541071E+02  0.00000000000E+00 0. -1.
</event>
<event>
 7    1  0.6520971E-006  0.5758586E+02  0.7818608E-02  0.1416275E+00
          2   -1    0    0  502    0  0.00000000000E+00  0.00000000000E+00  0.15543681021E+02  0.15543681021E+02  0.00000000000E+00 0. -1.
          1   -1    0    0  501    0 -0.00000000000E+00 -0.00000000000E+00 -0.23507653054E+04  0.23507653054E+04  0.00000000000E+00 0. -1.
         25    2    1    2    0    0 -0.60584344066E+02  0.18078459658E+02 -0.10669702837E+04  0.10761261976E+04  0.12499885418E+03 0.  0.
          2    1    1    2  501    0  0.21972948549E+02 -0.55976027951E+02 -0.12068467322E+04  0.12083439747E+04  0.00000000000E+00 0. -1.
          1    1    1    2  502    0  0.38611395517E+02  0.37897568294E+02 -0.61404608539E+02  0.81838814118E+02  0.00000000000E+00 0. -1.
         22    1    3    3    0    0 -0.92741295699E+01  0.39267726231E+02 -0.10393021398E+03  0.11148745750E+03  0.00000000000E+00 0. -1.
         22    1    3    3    0    0 -0.51310214496E+02 -0.21189266573E+02 -0.96304006968E+03  0.96463874012E+03  0.00000000000E+00 0. -1.
</event>
<event>
 7    1  0.6520971E-006  0.5138876E+02  0.7818608E-02  0.1575302E+00
          2   -1    0    0  502    0  0.00000000000E+00  0.00000000000E+00  0.41261171427E+03  0.41261171427E+03  0.00000000000E+00 0. -1.
          1   -1    0    0  501    0 -0.00000000000E+00 -0.00000000000E+00 -0.27036180738E+03  0.27036180738E+03  0.00000000000E+00 0. -1.
         25    2    1    2    0    0 -0.41210032380E+02 -0.25484582916E+01  0.76173661512E+02  0.15209475271E+03  0.12500250272E+03 0.  0.
          2    1    1    2  501    0 -0.62152310105E+01 -0.19151682959E+02 -0.22967918243E+03  0.23056006354E+03  0.00000000000E+00 0. -1.
          1    1    1    2  502    0  0.47425263391E+02  0.21700141251E+02  0.29575542781E+03  0.30031870541E+03  0.00000000000E+00 0. -1.
         22    1    3    3    0    0  0.36056695292E+02 -0.37776000726E+01 -0.87289558981E+01  0.37290081909E+02  0.00000000000E+00 0. -1.
         22    1    3    3    0    0 -0.77266727672E+02  0.12291417810E+01  0.84902617410E+02  0.11480467080E+03  0.00000000000E+00 0. -1.
</event>
<event>
 7    1  0.6520971E-006  0.5136713E+02  0.7818608E-02  0.1536756E+00
          2   -1    0    0  502    0  0.00000000000E+00  0.00000000000E+00  0.18272142224E+04  0.18272142224E+04  0.00000000000E+00 0. -1.
          1   -1    0    0  501    0 -0.00000000000E+00 -0.00000000000E+00 -0.70015767337E+03  0.70015767337E+03  0.00000000000E+00 0. -1.
         25    2    1    2    0    0  0.24167446525E+02 -0.22479488099E+02  0.16887765045E+03  0.21268224352E+03  0.12499873211E+03 0.  0.
          2    1    1    2  501    0 -0.49017308132E+02  0.15722489851E+02 -0.67717712528E+03  0.67913088002E+03  0.00000000000E+00 0. -1.
          1    1    1    2  502    0  0.24849861607E+02  0.67569982477E+01  0.16353560239E+04  0.16355587722E+04  0.00000000000E+00 0. -1.
         22    1    3    3    0    0 -0.24587560097E+02  0.36471854979E+02  0.10196411834E+03  0.11104695289E+03  0.00000000000E+00 0. -1.
         22    1    3    3    0    0  0.48755006622E+02 -0.58951343078E+02  0.66913532110E+02  0.10163529063E+03  0.00000000000E+00 0. -1.
</event>
<event>
 7    1  0.6520971E-006  0.8403377E+02  0.7818608E-02  0.1373500E+00
          2   -1    0    0  502    0  0.00000000000E+00  0.00000000000E+00  0.23308692400E+04  0.23308692400E+04  0.00000000000E+00 0. -1.
          1   -1    0    0  501    0 -0.00000000000E+00 -0.00000000000E+00 -0.10723153439E+03  0.10723153439E+03  0.00000000000E+00 0. -1.
         25    2    1    2    0    0  0.64886035265E+02  0.10379064247E+03  0.10302843463E+04  0.10450328682E+04  0.12500066526E+03 0.  0.
          2    1    1    2  501    0 -0.61257337923E+01 -0.51795795592E+02 -0.91767652390E+02  0.10555392499E+03  0.00000000000E+00 0. -1.
          1    1    1    2  502    0 -0.58760301472E+02 -0.51994846874E+02  0.12851210117E+04  0.12875139812E+04  0.00000000000E+00 0. -1.
         22    1    3    3    0    0 -0.13964284673E+02  0.94519009283E+02  0.56891276100E+03  0.57688003432E+03  0.00000000000E+00 0.  1.
         22    1    3    3    0    0  0.78850319938E+02  0.92716331823E+01  0.46137158531E+03  0.46815283388E+03  0.00000000000E+00 0.  1.
</event>
<event>
 7    1  0.6520971E-006  0.9217399E+02  0.7818608E-02  0.1388149E+00
          2   -1    0    0  502    0  0.00000000000E+00  0.00000000000E+00  0.19334285222E+04  0.19334285222E+04  0.00000000000E+00 0. -1.
          1   -1    0    0  501    0 -0.00000000000E+00 -0.00000000000E+00 -0.93647797784E+03  0.93647797784E+03  0.00000000000E+00 0. -1.
         25    2    1    2    0    0 -0.46838364913E+02 -0.99831340818E+02  0.76203183949E+01  0.16683732517E+03  0.12496597450E+03 0.  0.
          2    1    1    2  501    0  0.67069659931E+02  0.62794435735E+02 -0.85416439769E+03  0.85909155433E+03  0.00000000000E+00 0. -1.
          1    1    1    2  502    0 -0.20231295018E+02  0.37036905083E+02  0.18434946237E+04  0.18439776205E+04  0.00000000000E+00 0. -1.
         22    1    3    3    0    0  0.11599305868E+02 -0.73329264603E+02  0.50387005880E+02  0.89724998219E+02  0.00000000000E+00 0. -1.
         22    1    3    3    0    0 -0.58437670781E+02 -0.26502076216E+02 -0.42766687485E+02  0.77112326956E+02  0.00000000000E+00 0. -1.
</event>
<event>
 7    1  0.6520971E-006  0.7041567E+02  0.7818608E-02  0.1400018E+00
          2   -1    0    0  502    0  0.00000000000E+00  0.00000000000E+00  0.83861007828E+02  0.83861007828E+02  0.00000000000E+00 0. -1.
          1   -1    0    0  501    0 -0.00000000000E+00 -0.00000000000E+00 -0.37699848124E+03  0.37699848124E+03  0.00000000000E+00 0. -1.
         25    2    1    2    0    0  0.59216222817E+02  0.63930405638E+01 -0.14220186782E+03  0.19847729439E+03  0.12499773263E+03 0.  0.
          2    1    1    2  501    0  0.72788519578E+00 -0.50241068741E+02 -0.17675089772E+03  0.18375411465E+03  0.00000000000E+00 0. -1.
          1    1    1    2  502    0 -0.59944108013E+02  0.43848028177E+02  0.25815292136E+02  0.78628080026E+02  0.00000000000E+00 0. -1.
         22    1    3    3    0    0  0.15959177552E+02  0.89562653954E+01  0.22021468418E+02  0.28633112113E+02  0.00000000000E+00 0.  1.
         22    1    3    3    0    0  0.43257045265E+02 -0.25632248316E+01 -0.16422333624E+03  0.16984418228E+03  0.00000000000E+00 0.  1.
</event>
<event>
 7    1  0.6520971E-006  0.7423850E+02  0.7818608E-02  0.1408986E+00
          2   -1    0    0  502    0  0.00000000000E+00  0.00000000000E+00  0.52758766441E+03  0.52758766441E+03  0.00000000000E+00 0. -1.
          1   -1    0    0  501    0 -0.00000000000E+00 -0.00000000000E+00 -0.48100437230E+03  0.48100437230E+03  0.00000000000E+00 0. -1.
         25    2    1    2    0    0 -0.41628018267E+02  0.10655409184E+03  0.12466441656E+03  0.21036050776E+03  0.12499464019E+03 0.  0.
          2    1    1    2  501    0  0.90359304736E+01 -0.43483863643E+02 -0.43351138805E+03  0.43578046997E+03  0.00000000000E+00 0. -1.
          1    1    1    2  502    0  0.32592087794E+02 -0.63070228196E+02  0.35543026360E+03  0.36245105898E+03  0.00000000000E+00 0. -1.
         22    1    3    3    0    0 -0.84739397120E+02  0.53005399551E+02  0.64088922856E+02  0.11873385296E+03  0.00000000000E+00 0. -1.
         22    1    3    3    0    0  0.43111378853E+02  0.53548692289E+02  0.60575493700E+02  0.91626654798E+02  0.00000000000E+00 0. -1.
</event>
<event>
 7    1  0.6520971E-006  0.1266554E+03  0.7818608E-02  0.1356995E+00
          2   -1    0    0  502    0  0.00000000000E+00  0.00000000000E+00  0.21724158838E+04  0.21724158838E+04  0.00000000000E+00 0. -1.
          1   -1    0    0  501    0 -0.00000000000E+00 -0.00000000000E+00 -0.61839393556E+02  0.61839393556E+02  0.00000000000E+00 0. -1.
         25    2    1    2    0    0 -0.12503715350E+03 -0.46200788348E+02  0.25272835287E+03  0.31188099276E+03  0.12501732160E+03 0.  0.
          2    1    1    2  501    0  0.24758480002E+02 -0.31047294447E+02 -0.17044247184E+02  0.43213692119E+02  0.00000000000E+00 0. -1.
          1    1    1    2  502    0  0.10027867349E+03  0.77248082796E+02  0.18748923846E+04  0.18791605925E+04  0.00000000000E+00 0. -1.
         22    1    3    3    0    0 -0.10057495017E+03 -0.94451045627E+01  0.24762256271E+03  0.26743497184E+03  0.00000000000E+00 0. -1.
         22    1    3    3    0    0 -0.24462203331E+02 -0.36755683786E+02  0.51057901652E+01  0.44446020920E+02  0.00000000000E+00 0. -1.
</event>
<event>
 7    1  0.6520971E-006  0.8052956E+02  0.7818608E-02  0.1388834E+00
          2   -1    0    0  502    0  0.00000000000E+00  0.00000000000E+00  0.14487670984E+04  0.14487670984E+04  0.00000000000E+00 0. -1.
          1   -1    0    0  501    0 -0.00000000000E+00 -0.00000000000E+00 -0.43233491209E+03  0.43233491209E+03  0.00000000000E+00 0. -1.
         25    2    1    2    0    0 -0.85019531708E+02 -0.10686739857E+02  0.38937737385E+03  0.41782379783E+03  0.12497783639E+03 0.  0.
          2    1    1    2  501    0  0.72308806401E+02 -0.35640071416E+02 -0.41366668864E+03  0.42144858223E+03  0.00000000000E+00 0. -1.
          1    1    1    2  502    0  0.12710725307E+02  0.46326811273E+02  0.10407215011E+04  0.10418296304E+04  0.00000000000E+00 0. -1.
         22    1    3    3    0    0 -0.39882594200E+02 -0.46645806114E+02  0.32754372811E+03  0.33324367417E+03  0.00000000000E+00 0.  1.
         22    1    3    3    0    0 -0.45136937508E+02  0.35959066256E+02  0.61833645737E+02  0.84580123662E+02  0.00000000000E+00 0.  1.
</event>
<event>
 7    1  0.6520971E-006  0.1172984E+03  0.7818608E-02  0.1436272E+00
          2   -1    0    0  502    0  0.00000000000E+00  0.00000000000E+00  0.75948768761E+03  0.75948768761E+03  0.00000000000E+00 0. -1.
          1   -1    0    0  501    0 -0.00000000000E+00 -0.00000000000E+00 -0.78047727914E+02  0.78047727914E+02  0.00000000000E+00 0. -1.
         25    2    1    2    0    0 -0.73572072466E+02  0.89782939784E+02  0.12564691635E+03  0.21186241413E+03  0.12499883524E+03 0.  0.
          2    1    1    2  501    0  0.17998039477E+02  0.14006479179E+02 -0.24550069748E+02  0.33508458763E+02  0.00000000000E+00 0. -1.
          1    1    1    2  502    0  0.55574032988E+02 -0.10378941896E+03  0.58034311309E+03  0.59216454263E+03  0.00000000000E+00 0. -1.
         22    1    3    3    0    0 -0.55130625735E+02  0.10021738891E+03  0.36247996730E+02  0.11998678344E+03  0.00000000000E+00 0. -1.
         22    1    3    3    0    0 -0.18441446731E+02 -0.10434449124E+02  0.89398919619E+02  0.91875630692E+02  0.00000000000E+00 0. -1.
</event>
<event>
 7    1  0.6520971E-006  0.1171509E+03  0.7818608E-02  0.1429041E+00
          2   -1    0    0  502    0  0.00000000000E+00  0.00000000000E+00  0.17387951308E+04  0.17387951308E+04  0.00000000000E+00 0. -1.
          1   -1    0    0  501    0 -0.00000000000E+00 -0.00000000000E+00 -0.14196243326E+04  0.14196243326E+04  0.00000000000E+00 0. -1.
         25    2    1    2    0    0  0.10515315384E+03  0.64617244671E+02  0.47639246400E+03  0.50774733131E+03  0.12499999449E+03 0.  0.
          2    1    1    2  501    0 -0.10974282950E+03 -0.40941734234E+02 -0.14013867806E+04  0.14062733102E+04  0.00000000000E+00 0. -1.
          1    1    1    2  502    0  0.45896756585E+01 -0.23675510437E+02  0.12441651148E+04  0.12443988219E+04  0.00000000000E+00 0. -1.
         22    1    3    3    0    0  0.22264947806E+02 -0.30940603516E+02  0.20246664325E+03  0.20602376192E+03  0.00000000000E+00 0.  1.
         22    1    3    3    0    0  0.82888206037E+02  0.95557848187E+02  0.27392582075E+03  0.30172356939E+03  0.00000000000E+00 0.  1.
</event>
<event>
 7    1  0.6520971E-006  0.1229523E+03  0.7818608E-02  0.1354457E+00
          2   -1    0    0  502    0  0.00000000000E+00  0.00000000000E+00  0.22405581962E+03  0.22405581962E+03  0.00000000000E+00 0. -1.
          1   -1    0    0  501    0 -0.00000000000E+00 -0.00000000000E+00 -0.87909303915E+03  0.87909303915E+03  0.00000000000E+00 0. -1.
         25    2    1    2    0    0 -0.85695359111E+02 -0.28121093922E+02  0.51218162149E+02  0.16242937863E+03  0.12500204963E+03 0.  0.
          2    1    1    2  501    0  0.12398103211E+03  0.11360205058E+02 -0.81487798212E+03  0.82433395922E+03  0.00000000000E+00 0. -1.
          1    1    1    2  502    0 -0.38285672995E+02  0.16760888864E+02  0.10862260044E+03  0.11638552091E+03  0.00000000000E+00 0. -1.
         22    1    3    3    0    0 -0.48236018208E+02 -0.52707479807E+02  0.81473526638E+02  0.10836386585E+03  0.00000000000E+00 0.  1.
         22    1    3    3    0    0 -0.37459340903E+02  0.24586385885E+02 -0.30255364489E+02  0.54065512779E+02  0.00000000000E+00 0.  1.
</event>
<event>
 7    1  0.6520971E-006  0.8506733E+02  0.7818608E-02  0.1370712E+00
          2   -1    0    0  502    0  0.00000000000E+00  0.00000000000E+00  0.38494300547E+03  0.38494300547E+03  0.00000000000E+00 0. -1.
          1   -1    0    0  501    0 -0.00000000000E+00 -0.00000000000E+00 -0.10226976066E+04  0.10226976066E+04  0.00000000000E+00 0. -1.
         25    2    1    2    0    0 -0.59748628008E+02 -0.82881839420E+01 -0.39841499079E+03  0.42189798741E+03  0.12499925742E+03 0.  0.
          2    1    1    2  501    0 -0.16975890773E+00 -0.52722008768E+02 -0.60648395221E+03  0.60877124055E+03  0.00000000000E+00 0. -1.
          1    1    1    2  502    0  0.59918386916E+02  0.61010192710E+02  0.36714434185E+03  0.37697138414E+03  0.00000000000E+00 0. -1.
         22    1    3    3    0    0  0.38181921576E+02 -0.13815346750E+02 -0.10941204260E+03  0.11670354753E+03  0.00000000000E+00 0.  1.
         22    1    3    3    0    0 -0.97930549585E+02  0.55271628083E+01 -0.28900294819E+03  0.30519443988E+03  0.00000000000E+00 0.  1.
</event>
<event>
 7    1  0.6520971E-006  0.5995800E+02  0.7818608E-02  0.1448859E+00
          2   -1    0    0  502    0  0.00000000000E+00  0.00000000000E+00  0.80842136989E+03  0.80842136989E+03  0.00000000000E+00 0. -1.
          1   -1    0    0  501    0 -0.00000000000E+00 -0.00000000000E+00 -0.18850596057E+03  0.18850596057E+03  0.00000000000E+00 0. -1.
         25    2    1    2    0    0 -0.82020452641E+02 -0.22199972430E+02  0.22601748094E+02  0.15282831237E+03  0.12500184245E+03 0.  0.
          2    1    1    2  501    0  0.23405812822E+02  0.33204661036E+02 -0.11877539539E+03  0.12553077765E+03  0.00000000000E+00 0. -1.
          1    1    1    2  502    0  0.58614639819E+02 -0.11004688606E+02  0.71608905661E+03  0.71856824044E+03  0.00000000000E+00 0. -1.
         22    1    3    3    0    0 -0.22128711210E+02 -0.65479942234E+02  0.35684396789E+02  0.77786109743E+02  0.00000000000E+00 0. -1.
         22    1    3    3    0    0 -0.59891741431E+02  0.43279969804E+02 -0.13082648695E+02  0.75042202625E+02  0.00000000000E+00 0. -1.
</event>
<event>
 7    1  0.6520971E-006  0.1100770E+03  0.7818608E-02  0.1410326E+00
          2   -1    0    0  502    0  0.00000000000E+00  0.00000000000E+00  0.19373709196E+04  0.19373709196E+04  0.00000000000E+00 0. -1.
          1   -1    0    0  501    0 -0.00000000000E+00 -0.00000000000E+00 -0.13880064710E+04  0.13880064710E+04  0.00000000000E+00 0. -1.
         25    2    1    2    0    0 -0.37782672859E+02 -0.12089011037E+03  0.22770934918E+03  0.28899642194E+03  0.12500174016E+03 0.  0.
          2    1    1    2  501    0  0.53756351840E+02  0.95921181156E+02 -0.13550048664E+04  0.13594590124E+04  0.00000000000E+00 0. -1.
          1    1    1    2  502    0 -0.15973678981E+02  0.24968929211E+02  0.16766599659E+04  0.16769219562E+04  0.00000000000E+00 0. -1.
         22    1    3    3    0    0 -0.37029622186E+02  0.16393766319E+02  0.57304099335E+02  0.70169140610E+02  0.00000000000E+00 0. -1.
         22    1    3    3    0    0 -0.75305067282E+00 -0.13728387669E+03  0.17040524984E+03  0.21882728134E+03  0.00000000000E+00 0. -1.
</event>
<event>
 7    1  0.6520971E-006  0.6157897E+02  0.7818608E-02  0.1493642E+00
          2   -1    0    0  502    0  0.00000000000E+00  0.00000000000E+00  0.20116688383E+03  0.20116688383E+03  0.00000000000E+00 0. -1.
          1   -1    0    0  501    0 -0.00000000000E+00 -0.00000000000E+00 -0.16178398072E+03  0.16178398072E+03  0.00000000000E+00 0. -1.
         25    2    1    2    0    0 -0.32453183875E+01  0.53015912759E+02  0.77924550905E+02  0.15659683903E+03  0.12501645998E+03 0.  0.
          2    1    1    2  501    0  0.27553569229E+02  0.80847546170E+01 -0.10738093857E+03  0.11115407506E+03  0.00000000000E+00 0. -1.
          1    1    1    2  502    0 -0.24308250842E+02 -0.61100667376E+02  0.68839290768E+02  0.95199950453E+02  0.00000000000E+00 0. -1.
         22    1    3    3    0    0 -0.25667026582E+02 -0.27649221992E+02 -0.58276183338E+01  0.38173771962E+02  0.00000000000E+00 0.  1.
         22    1    3    3    0    0  0.22421708194E+02  0.80665134751E+02  0.83752169239E+02  0.11842306707E+03  0.00000000000E+00 0.  1.
</event>
<event>
 7    1  0.6520971E-006  0.7257543E+02  0.7818608E-02  0.1412619E+00
          2   -1    0    0  502    0  0.00000000000E+00  0.00000000000E+00  0.99651994933E+03  0.99651994933E+03  0.00000000000E+00 0. -1.
          1   -1    0    0  501    0 -0.00000000000E+00 -0.00000000000E+00 -0.59543298601E+03  0.59543298601E+03  0.00000000000E+00 0. -1.
         25    2    1    2    0    0 -0.34573004089E+02  0.43837332569E+02 -0.18349040180E+03  0.22893209096E+03  0.12499668149E+03 0.  0.
          2    1    1    2  501    0 -0.35897252150E+02 -0.25723420604E+02 -0.38660373700E+03  0.38911792112E+03  0.00000000000E+00 0. -1.
          1    1    1    2  502    0  0.70470256239E+02 -0.18113911965E+02  0.97118110211E+03  0.97390292325E+03  0.00000000000E+00 0. -1.
         22    1    3    3    0    0 -0.59520658636E+02 -0.15782293068E+02 -0.13419694981E+03  0.14765029941E+03  0.00000000000E+00 0.  1.
         22    1    3    3    0    0  0.24947654547E+02  0.59619625637E+02 -0.49293451989E+02  0.81281791550E+02  0.00000000000E+00 0.  1.
</event>
<event>
 7    1  0.6520971E-006  0.6436835E+02  0.7818608E-02  0.1389768E+00
          2   -1    0    0  502    0  0.00000000000E+00  0.00000000000E+00  0.32104128565E+03  0.32104128565E+03  0.00000000000E+00 0. -1.
          1   -1    0    0  501    0 -0.00000000000E+00 -0.00000000000E+00 -0.29564307960E+04  0.29564307960E+04  0.00000000000E+00 0. -1.
         25    2    1    2    0    0 -0.11583064760E+03  0.31583174773E+02  0.15526595549E+03  0.23269500791E+03  0.12500085567E+03 0.  0.
          2    1    1    2  501    0  0.64252413702E+02 -0.16191201889E+01 -0.29103409560E+04  0.29110505792E+04  0.00000000000E+00 0. -1.
          1    1    1    2  502    0  0.51578233898E+02 -0.29964054584E+02  0.11968549020E+03  0.13372649455E+03  0.00000000000E+00 0. -1.
         22    1    3    3    0    0 -0.28073412788E+02  0.70656466807E+02  0.82449557812E+02  0.11215338778E+03  0.00000000000E+00 0.  1.
         22    1    3    3    0    0 -0.87757234812E+02 -0.39073292034E+02  0.72816397680E+02  0.12054162013E+03  0.00000000000E+00 0.  1.
</event>
<event>
 7    1  0.6520971E-006  0.7311764E+02  0.7818608E-02  0.1401461E+00
          2   -1    0    0  502    0  0.00000000000E+00  0.00000000000E+00  0.64738243418E+02  0.64738243418E+02  0.00000000000E+00 0. -1.
          1   -1    0    0  501    0 -0.00000000000E+00 -0.00000000000E+00 -0.90480916929E+03  0.90480916929E+03  0.00000000000E+00 0. -1.
         25    2    1    2    0    0 -0.16487361481E+02  0.28223016804E+02 -0.41509956791E+03  0.43474224818E+03  0.12499919723E+03 0.  0.
          2    1    1    2  501    0  0.80909675374E+01  0.47151278269E+02 -0.45182510635E+03  0.45435078247E+03  0.00000000000E+00 0. -1.
          1    1    1    2  502    0  0.83963939441E+01 -0.75374295073E+02  0.26853748396E+02  0.80454382056E+02  0.00000000000E+00 0. -1.
         22    1    3    3    0    0  0.49005607693E+02 -0.64905568355E+01 -0.10724333056E+03  0.11808814023E+03  0.00000000000E+00 0.  1.
         22    1    3    3    0    0 -0.65492969174E+02  0.34713573639E+02 -0.30785623735E+03  0.31665410795E+03  0.00000000000E+00 0.  1.
</event>
<event>
 7    1  0.6520971E-006  0.5821938E+02  0.7818608E-02  0.1519040E+00
          2   -1    0    0  502    0  0.00000000000E+00  0.00000000000E+00  0.16510364274E+04  0.16510364274E+04  0.00000000000E+00 0. -1.
          1   -1    0    0  501    0 -0.00000000000E+00 -0.00000000000E+00 -0.35866972866E+03  0.35866972866E+03  0.00000000000E+00 0. -1.
         25    2    1    2    0    0  0.42114714699E+02 -0.46773911834E+02 -0.21681179959E+03  0.25805767771E+03  0.12499984224E+03 0.  0.
          2    1    1    2  501    0 -0.24063465702E+02 -0.85778907066E+01 -0.11936320662E+03  0.12206639867E+03  0.00000000000E+00 0. -1.
          1    1    1    2  502    0 -0.18051248997E+02  0.55351802541E+02  0.16285417050E+04  0.16295820797E+04  0.00000000000E+00 0. -1.
         22    1    3    3    0    0  0.80634434265E+02 -0.24248983523E+02 -0.88264610114E+02  0.12198592783E+03  0.00000000000E+00 0. -1.
         22    1    3    3    0    0 -0.38519719567E+02 -0.22524928311E+02 -0.12854718948E+03  0.13607174987E+03  0.00000000000E+00 0. -1.
</event>
<event>
 7    1  0.6520971E-006  0.3389018E+02  0.7818608E-02  0.1567242E+00
          2   -1    0    0  502    0  0.00000000000E+00  0.00000000000E+00  0.11778139401E+04  0.11778139401E+04  0.00000000000E+00 0. -1.
          1   -1    0    0  501    0 -0.00000000000E+00 -0.00000000000E+00 -0.18371062051E+03  0.18371062051E+03  0.00000000000E+00 0. -1.
         25    2    1    2    0    0 -0.19376968493E+02  0.56581683241E+02  0.74653239809E+02  0.15740013964E+03  0.12499897583E+03 0.  0.
          2    1    1    2  501    0  0.22438250457E+02 -0.22965436205E+02 -0.14025436532E+03  0.14388249836E+03  0.00000000000E+00 0. -1.
          1    1    1    2  502    0 -0.30612819645E+01 -0.33616247036E+02  0.10597044451E+04  0.10602419227E+04  0.00000000000E+00 0. -1.
         22    1    3    3    0    0  0.42310803645E+02 -0.67991242148E+01  0.49448667954E+02  0.65433958749E+02  0.00000000000E+00 0.  1.
         22    1    3    3    0    0 -0.61687772138E+02  0.63380807456E+02  0.25204571855E+02  0.91966180890E+02  0.00000000000E+00 0.  1.
</event>
<event>
 7    1  0.6520971E-006  0.7475524E+02  0.7818608E-02  0.1455768E+00
          2   -1    0    0  502    0  0.00000000000E+00  0.00000000000E+00  0.11980115882E+04  0.11980115882E+04  0.00000000000E+00 0. -1.
          1   -1    0    0  501    0 -0.00000000000E+00 -0.00000000000E+00 -0.83261552901E+02  0.83261552901E+02  0.00000000000E+00 0. -1.
         25    2    1    2    0    0 -0.45529859357E+02  0.10049522180E+02  0.30755952547E+03  0.33524870494E+03  0.12499948587E+03 0.  0.
          2    1    1    2  501    0  0.72115387891E+02 -0.25938369232E+02 -0.47898113045E+02  0.90375092820E+02  0.00000000000E+00 0. -1.
          1    1    1    2  502    0 -0.26585528534E+02  0.15888847052E+02  0.85508862292E+03  0.85564934338E+03  0.00000000000E+00 0. -1.
         22    1    3    3    0    0 -0.19477517520E+02  0.60072726687E+02  0.86451290812E+02  0.10706041221E+03  0.00000000000E+00 0. -1.
         22    1    3    3    0    0 -0.26052341837E+02 -0.50023204506E+02  0.22110823466E+03  0.22818829273E+03  0.00000000000E+00 0. -1.
</event>
<event>
 7    1  0.6520971E-006  0.1088575E+03  0.7818608E-02  0.1449627E+00
          2   -1    0    0  502    0  0.00000000000E+00  0.00000000000E+00  0.98962648040E+02  0.98962648040E+02  0.00000000000E+00 0. -1.
          1   -1    0    0  501    0 -0.00000000000E+00 -0.00000000000E+00 -0.18105418616E+04  0.18105418616E+04  0.00000000000E+00 0. -1.
         25    2    1    2    0    0  0.10073339139E+03  0.22882676067E+01 -0.13470806696E+04  0.13566143949E+04  0.12499533472E+03 0.  0.
          2    1    1    2  501    0 -0.12290058193E+03 -0.37599964434E+00 -0.44899584013E+03  0.46551257649E+03  0.00000000000E+00 0. -1.
          1    1    1    2  502    0  0.22167190546E+02 -0.19122679624E+01  0.84497296250E+02  0.87377538183E+02  0.00000000000E+00 0. -1.
         22    1    3    3    0    0  0.37561843317E+02 -0.42657690872E+02 -0.23273340135E+03  0.23957338493E+03  0.00000000000E+00 0. -1.
         22    1    3    3    0    0  0.63171548069E+02  0.44945958479E+02 -0.11143472683E+04  0.11170410100E+04  0.00000000000E+00 0. -1.
</event>
<event>
 7    1  0.6520971E-006  0.6379384E+02  0.7818608E-02  0.1484140E+00
          2   -1    0    0  502    0  0.00000000000E+00  0.00000000000E+00  0.24387211781E+04  0.24387211781E+04  0.00000000000E+00 0. -1.
          1   -1    0    0  501    0 -0.00000000000E+00 -0.00000000000E+00 -0.58510599573E+02  0.58510599573E+02  0.00000000000E+00 0. -1.
         25    2    1    2    0    0 -0.71881390452E+02 -0.46643088206E+02  0.12914192356E+04  0.13002813455E+04  0.12500169410E+03 0.  0.
          2    1    1    2  501    0  0.42273288900E+02  0.47411339544E+02 -0.35164467110E+02  0.72604447653E+02  0.00000000000E+00 0. -1.
          1    1    1    2  502    0  0.29608101552E+02 -0.76825133778E+00  0.11239558100E+04  0.11243459844E+04  0.00000000000E+00 0. -1.
         22    1    3    3    0    0 -0.65299604953E+02 -0.85729966765E+02  0.79310178757E+03  0.80038997436E+03  0.00000000000E+00 0.  1.
         22    1    3    3    0    0 -0.65817854986E+01  0.39086878559E+02  0.49831744803E+03  0.49989137118E+03  0.00000000000E+00 0.  1.
</event>
<event>
 7    1  0.6520971E-006  0.5282614E+02  0.7818608E-02  0.1496895E+00
          2   -1    0    0  502    0  0.00000000000E+00  0.00000000000E+00  0.17103408496E+04  0.17103408496E+04  0.00000000000E+00 0. -1.
          1   -1    0    0  501    0 -0.00000000000E+00 -0.00000000000E+00 -0.55515083950E+02  0.55515083950E+02  0.00000000000E+00 0. -1.
         25    2    1    2    0    0 -0.22321526201E+01  0.46327963845E+02  0.42450409833E+02  0.13991335474E+03  0.12498978678E+03 0.  0.
          2    1    1    2  501    0 -0.32165703230E+02 -0.60425412280E+01  0.35907266006E+02  0.48584735471E+02  0.00000000000E+00 0. -1.
          1    1    1    2  502    0  0.34397855850E+02 -0.40285422617E+02  0.15764680899E+04  0.15773578434E+04  0.00000000000E+00 0. -1.
         22    1    3    3    0    0 -0.31248927978E+02  0.31259116048E+02 -0.34652536877E+02  0.56164278219E+02  0.00000000000E+00 0.  1.
         22    1    3    3    0    0  0.29016775358E+02  0.15068847797E+02  0.77102946711E+02  0.83749076518E+02  0.00000000000E+00 0.  1.
</event>
<event>
 7    1  0.6520971E-006  0.4374359E+02  0.7818608E-02  0.1552556E+00
          2   -1    0    0  502    0  0.00000000000E+00  0.00000000000E+00  0.14563895176E+04  0.14563895176E+04  0.00000000000E+00 0. -1.
          1   -1    0    0  501    0 -0.00000000000E+00 -0.00000000000E+00 -0.16265863520E+04  0.16265863520E+04  0.00000000000E+00 0. -1.
         25    2    1    2    0    0  0.64758417088E+01 -0.70186229445E+02  0.21927223133E+03  0.26205628453E+03  0.12500056600E+03 0.  0.
          2    1    1    2  501    0 -0.41448629054E+01  0.26985767573E+02 -0.16046932707E+04  0.16049255137E+04  0.00000000000E+00 0. -1.
          1    1    1    2  502    0 -0.23309788034E+01  0.43200461872E+02  0.12152242050E+04  0.12159940714E+04  0.00000000000E+00 0. -1.
         22    1    3    3    0    0  0.49325905471E+02  0.33548393444E+01  0.39963230745E+02  0.63571689526E+02  0.00000000000E+00 0. -1.
         22    1    3    3    0    0 -0.42850063762E+02 -0.73541068790E+02  0.17930900058E+03  0.19848459500E+03  0.00000000000E+00 0. -1.
</event>
<event>
 7    1  0.6520971E-006  0.6271891E+02  0.7818608E-02  0.1513482E+00
          2   -1    0    0  502    0  0.00000000000E+00  0.00000000000E+00  0.20149585707E+03  0.20149585707E+03  0.00000000000E+00 0. -1.
          1   -1    0    0  501    0 -0.00000000000E+00 -0.00000000000E+00 -0.24033052994E+04  0.24033052994E+04  0.00000000000E+00 0. -1.
         25    2    1    2    0    0 -0.26094475647E+02  0.78973009254E+02  0.11796406222E+03  0.19093714108E+03  0.12499525598E+03 0.  0.
          2    1    1    2  501    0  0.30487782186E+02 -0.54751769828E+02 -0.23631545369E+04  0.23639853271E+04  0.00000000000E+00 0. -1.
          1    1    1    2  502    0 -0.43933065387E+01 -0.24221239426E+02  0.43381032359E+02  0.49878688337E+02  0.00000000000E+00 0. -1.
         22    1    3    3    0    0  0.35366542563E+01  0.85230933594E+02  0.13231077026E+03  0.15742604578E+03  0.00000000000E+00 0.  1.
         22    1    3    3    0    0 -0.29631129904E+02 -0.62579243404E+01 -0.14346708034E+02  0.33511095294E+02  0.00000000000E+00 0.  1.
</event>
<event>
 7    1  0.6520971E-006  0.1286203E+03  0.7818608E-02  0.1300086E+00
          2   -1    0    0  502    0  0.00000000000E+00  0.00000000000E+00  0.29001762939E+02  0.29001762939E+02  0.00000000000E+00 0. -1.
          1   -1    0    0  501    0 -0.00000000000E+00 -0.00000000000E+00 -0.16737717714E+04  0.16737717714E+04  0.00000000000E+00 0. -1.
         25    2    1    2    0    0  0.83096309137E+02  0.66635698124E+02 -0.68186780814E+03  0.70136520326E+03  0.12499651076E+03 0.  0.
          2    1    1    2  501    0 -0.22536237485E+02  0.60539765223E+02 -0.70151918480E+03  0.70448712680E+03  0.00000000000E+00 0. -1.
          1    1    1    2  502    0 -0.60560071652E+02 -0.12717546335E+03 -0.26138301552E+03  0.29692120429E+03  0.00000000000E+00 0. -1.
         22    1    3    3    0    0  0.11552800694E+03  0.51449097276E+02 -0.57178989489E+03  0.58560858421E+03  0.00000000000E+00 0. -1.
         22    1    3    3    0    0 -0.32431697806E+02  0.15186600848E+02 -0.11007791325E+03  0.11575661905E+03  0.00000000000E+00 0. -1.
</event>
<event>
 7    1  0.6520971E-006  0.4418169E+02  0.7818608E-02  0.1535370E+00
          2   -1    0    0  502    0  0.00000000000E+00  0.00000000000E+00  0.63385901369E+02  0.63385901369E+02  0.00000000000E+00 0. -1.
          1   -1    0    0  501    0 -0.00000000000E+00 -0.00000000000E+00 -0.22898032254E+03  0.22898032254E+03  0.00000000000E+00 0. -1.
         25    2    1    2    0    0 -0.45089909818E+02  0.45470770062E+02 -0.58518920972E+02  0.15213735241E+03  0.12498247473E+03 0.  0.
          2    1    1    2  501    0  0.90457797919E+01 -0.28827154094E+02 -0.93516689825E+02  0.98276152860E+02  0.00000000000E+00 0. -1.
          1    1    1    2  502    0  0.36044130026E+02 -0.16643615968E+02 -0.13558810370E+02  0.41952718630E+02  0.00000000000E+00 0. -1.
         22    1    3    3    0    0 -0.50185535147E+01  0.47330136119E+02  0.29089967110E+02  0.55781303776E+02  0.00000000000E+00 0.  1.
         22    1    3    3    0    0 -0.40071356303E+02 -0.18593660569E+01 -0.87608888083E+02  0.96356048638E+02  0.00000000000E+00 0.  1.
</event>
<event>
 7    1  0.6520971E-006  0.2045423E+03  0.7818608E-02  0.1347390E+00
          2   -1    0    0  502    0  0.00000000000E+00  0.00000000000E+00  0.11462080252E+04  0.11462080252E+04  0.00000000000E+00 0. -1.
          1   -1    0    0  501    0 -0.00000000000E+00 -0.00000000000E+00 -0.24690492615E+03  0.24690492615E+03  0.00000000000E+00 0. -1.
         25    2    1    2    0    0  0.22963555504E+02  0.18037959839E+03  0.48354558973E+03  0.53151281777E+03  0.12500165484E+03 0.  0.
          2    1    1    2  501    0 -0.15863073939E+02 -0.20609917590E+03 -0.17463633071E+03  0.27060368701E+03  0.00000000000E+00 0. -1.
          1    1    1    2  502    0 -0.71004815657E+01  0.25719577510E+02  0.59039383999E+03  0.59099644652E+03  0.00000000000E+00 0. -1.
         22    1    3    3    0    0 -0.43036468263E+00  0.72892570543E+01 -0.74159732080E+01  0.10407456019E+02  0.00000000000E+00 0.  1.
         22    1    3    3    0    0  0.23393920187E+02  0.17309034133E+03  0.49096156294E+03  0.52110536175E+03  0.00000000000E+00 0.  1.
</event>
<event>
 7    1  0.6520971E-006  0.5969467E+02  0.7818608E-02  0.1408750E+00
          2   -1    0    0  502    0  0.00000000000E+00  0.00000000000E+00  0.60999845559E+03  0.60999845559E+03  0.00000000000E+00 0. -1.
          1   -1    0    0  501    0 -0.00000000000E+00 -0.00000000000E+00 -0.14081890030E+03  0.14081890030E+03  0.00000000000E+00 0. -1.
         25    2    1    2    0    0 -0.23662657751E+02 -0.12553086057E+02  0.31044942089E+03  0.33574445550E+03  0.12501197994E+03 0.  0.
          2    1    1    2  501    0 -0.49793241560E+02  0.24137950278E+02 -0.11703487811E+03  0.12945721395E+03  0.00000000000E+00 0. -1.
          1    1    1    2  502    0  0.73455899311E+02 -0.11584864222E+02  0.27576501250E+03  0.28561568645E+03  0.00000000000E+00 0. -1.
         22    1    3    3    0    0 -0.59618456025E+02 -0.43492081455E+02  0.23774095985E+03  0.24893108572E+03  0.00000000000E+00 0.  1.
         22    1    3    3    0    0  0.35955798274E+02  0.30938995398E+02  0.72708461038E+02  0.86813369778E+02  0.00000000000E+00 0.  1.
</event>
<event>
 7    1  0.6520971E-006  0.1230607E+03  0.7818608E-02  0.1282802E+00
          2   -1    0    0  502    0  0.00000000000E+00  0.00000000000E+00  0.72657904558E+03  0.72657904558E+03  0.00000000000E+00 0. -1.
          1   -1    0    0  501    0 -0.00000000000E+00 -0.00000000000E+00 -0.11496493096E+03  0.11496493096E+03  0.00000000000E+00 0. -1.
         25    2    1    2    0    0 -0.21235775902E+02  0.48757503954E+02  0.36226156540E+03  0.38688763421E+03  0.12498138808E+03 0.  0.
          2    1    1    2  501    0  0.32549147574E+02 -0.12729739629E+03 -0.53286959724E+02  0.14178707341E+03  0.00000000000E+00 0. -1.
          1    1    1    2  502    0 -0.11313371671E+02  0.78539892332E+02  0.30263950894E+03  0.31286926893E+03  0.00000000000E+00 0. -1.
         22    1    3    3    0    0  0.15176928460E+02 -0.29802561225E+02  0.35186261826E+02  0.48544874440E+02  0.00000000000E+00 0. -1.
         22    1    3    3    0    0 -0.36412704362E+02  0.78560065179E+02  0.32707530358E+03  0.33834275977E+03  0.00000000000E+00 0. -1.
</event>
<event>
 7    1  0.6520971E-006  0.1042707E+03  0.7818608E-02  0.1407278E+00
          2   -1    0    0  502    0  0.00000000000E+00  0.00000000000E+00  0.52900428351E+03  0.52900428351E+03  0.00000000000E+00 0. -1.
          1   -1    0    0  501    0 -0.00000000000E+00 -0.00000000000E+00 -0.33439679645E+03  0.33439679645E+03  0.00000000000E+00 0. -1.
         25    2    1    2    0    0 -0.11195341553E+03  0.63105392246E+02  0.24903153019E+03  0.30685120202E+03  0.12500039749E+03 0.  0.
          2    1    1    2  501    0  0.27677805304E+02 -0.16152580611E+02 -0.29532048796E+03  0.29705413206E+03  0.00000000000E+00 0. -1.
          1    1    1    2  502    0  0.84275610223E+02 -0.46952811636E+02  0.24089644483E+03  0.25949574588E+03  0.00000000000E+00 0. -1.
         22    1    3    3    0    0 -0.33847786781E+02  0.71820333808E+02  0.19752939354E+03  0.21288892487E+03  0.00000000000E+00 0.  1.
         22    1    3    3    0    0 -0.78105628746E+02 -0.87149415615E+01  0.51502136650E+02  0.93962277153E+02  0.00000000000E+00 0.  1.
</event>
<event>
 7    1  0.6520971E-006  0.6662747E+02  0.7818608E-02  0.1450688E+00
          2   -1    0    0  502    0  0.00000000000E+00  0.00000000000E+00  0.15532266572E+04  0.15532266572E+04  0.00000000000E+00 0. -1.
          1   -1    0    0  501    0 -0.00000000000E+00 -0.00000000000E+00 -0.10786560173E+04  0.10786560173E+04  0.00000000000E+00 0. -1.
         25    2    1    2    0    0  0.11215347200E+02 -0.29189829232E+02  0.18396669452E+03  0.22460331084E+03  0.12500028962E+03 0.  0.
          2    1    1    2  501    0 -0.32114299667E+02  0.58587064319E+02 -0.10570417418E+04  0.10591510828E+04  0.00000000000E+00 0. -1.
          1    1    1    2  502    0  0.20898952467E+02 -0.29397235086E+02  0.13476456871E+04  0.13481282808E+04  0.00000000000E+00 0. -1.
         22    1    3    3    0    0 -0.49100961637E+02  0.12787289676E+01  0.32918498349E+02  0.59128395167E+02  0.00000000000E+00 0.  1.
         22    1    3    3    0    0  0.60316308837E+02 -0.30468558200E+02  0.15104819617E+03  0.16547491568E+03  0.00000000000E+00 0.  1.
</event>
<event>
 7    1  0.6520971E-006  0.5310580E+02  0.7818608E-02  0.1435617E+00
          2   -1    0    0  502    0  0.00000000000E+00  0.00000000000E+00  0.25590591551E+03  0.25590591551E+03  0.00000000000E+00 0. -1.
          1   -1    0    0  501    0 -0.00000000000E+00 -0.00000000000E+00 -0.58433767390E+03  0.58433767390E+03  0.00000000000E+00 0. -1.
         25    2    1    2    0    0 -0.17193186825E+01 -0.45903520479E+01 -0.18691026799E+03  0.22490492928E+03  0.12499100585E+03 0.  0.
          2    1    1    2  501    0  0.25554672762E+02 -0.43697886411E+02 -0.37364096384E+03  0.37705452714E+03  0.00000000000E+00 0. -1.
          1    1    1    2  502    0 -0.23835354079E+02  0.48288238459E+02  0.23211947345E+03  0.23828413299E+03  0.00000000000E+00 0. -1.
         22    1    3    3    0    0  0.61286527117E+02 -0.76987070759E+01 -0.99385376609E+02  0.11701607403E+03  0.00000000000E+00 0.  1.
         22    1    3    3    0    0 -0.63005845799E+02  0.31083550280E+01 -0.87524891385E+02  0.10788885525E+03  0.00000000000E+00 0.  1.
</event>
<event>
 7    1  0.6520971E-006  0.1015657E+03  0.7818608E-02  0.1285945E+00
          2   -1    0    0  502    0  0.00000000000E+00  0.00000000000E+00  0.14139849666E+04  0.14139849666E+04  0.00000000000E+00 0. -1.
          1   -1    0    0  501    0 -0.00000000000E+00 -0.00000000000E+00 -0.18788691525E+04  0.18788691525E+04  0.00000000000E+00 0. -1.
         25    2    1    2    0    0 -0.10475590180E+02 -0.45472262413E+02  0.98457115600E+01  0.13379102999E+03  0.12500254809E+03 0.  0.
          2    1    1    2  501    0 -0.90872885498E+02  0.21277955698E+02 -0.18136725206E+04  0.18160723126E+04  0.00000000000E+00 0. -1.
          1    1    1    2  502    0  0.10134847568E+03  0.24194306715E+02  0.13389426231E+04  0.13429907765E+04  0.00000000000E+00 0. -1.
         22    1    3    3    0    0  0.40522936896E+02 -0.26677179367E+02 -0.37807270947E+02  0.61507479627E+02  0.00000000000E+00 0.  1.
         22    1    3    3    0    0 -0.50998527076E+02 -0.18795083046E+02  0.47652982507E+02  0.72283550359E+02  0.00000000000E+00 0.  1.
</event>
<event>
 7    1  0.6520971E-006  0.1059824E+03  0.7818608E-02  0.1272381E+00
          2   -1    0    0  502    0  0.00000000000E+00  0.00000000000E+00  0.71698351912E+03  0.71698351912E+03  0.00000000000E+00 0. -1.
          1   -1    0    0  501    0 -0.00000000000E+00 -0.00000000000E+00 -0.27456590266E+03  0.27456590266E+03  0.00000000000E+00 0. -1.
         25    2    1    2    0    0 -0.50133000081E+02  0.83827347657E+02 -0.87222012571E+02  0.18103561463E+03  0.12500348945E+03 0.  0.
          2    1    1    2  501    0 -0.57673090066E+02 -0.83864468570E+02 -0.11692739689E+03  0.15502080683E+03  0.00000000000E+00 0. -1.
          1    1    1    2  502    0  0.10780609015E+03  0.37120913598E-01  0.64656702593E+03  0.65549300032E+03  0.00000000000E+00 0. -1.
         22    1    3    3    0    0  0.33789068209E+02  0.59555562663E+02 -0.55333339612E+02  0.88036041751E+02  0.00000000000E+00 0.  1.
         22    1    3    3    0    0 -0.83922068291E+02  0.24271784994E+02 -0.31888672959E+02  0.92999572881E+02  0.00000000000E+00 0.  1.
</event>
<event>
 7    1  0.6520971E-006  0.4891010E+02  0.7818608E-02  0.1458450E+00
          2   -1    0    0  502    0  0.00000000000E+00  0.00000000000E+00  0.21063597874E+03  0.21063597874E+03  0.00000000000E+00 0. -1.
          1   -1    0    0  501    0 -0.00000000000E+00 -0.00000000000E+00 -0.49967655266E+03  0.49967655266E+03  0.00000000000E+00 0. -1.
         25    2    1    2    0    0  0.59177530613E+01  0.79005803513E+02 -0.16935431651E+03  0.22490595933E+03  0.12499947692E+03 0.  0.
          2    1    1    2  501    0  0.22222286601E+02 -0.42086758440E+02 -0.29767925172E+03  0.30145988483E+03  0.00000000000E+00 0. -1.
          1    1    1    2  502    0 -0.28140039662E+02 -0.36919045072E+02  0.17799299431E+03  0.18394668724E+03  0.00000000000E+00 0. -1.
         22    1    3    3    0    0  0.39032093020E+02  0.76389452261E+02 -0.46369200054E+02  0.97513872941E+02  0.00000000000E+00 0.  1.
         22    1    3    3    0    0 -0.33114339959E+02  0.26163512513E+01 -0.12298511645E+03  0.12739208639E+03  0.00000000000E+00 0.  1.
</event>
<event>
 7    1  0.6520971E-006  0.1220450E+03  0.7818608E-02  0.1305180E+00
          2   -1    0    0  502    0  0.00000000000E+00  0.00000000000E+00  0.40014441674E+02  0.40014441674E+02  0.00000000000E+00 0. -1.
          1   -1    0    0  501    0 -0.00000000000E+00 -0.00000000000E+00 -0.14852000086E+04  0.14852000086E+04  0.00000000000E+00 0. -1.
         25    2    1    2    0    0  0.10738234464E+03 -0.36323793488E+02 -0.10690946717E+04  0.10823298348E+04  0.12499627342E+03 0.  0.
          2    1    1    2  501    0 -0.11334804004E+03  0.10101771200E+03 -0.32992408597E+03  0.36318350571E+03  0.00000000000E+00 0. -1.
          1    1    1    2  502    0  0.59656953977E+01 -0.64693918510E+02 -0.46166809199E+02  0.79701109687E+02  0.00000000000E+00 0. -1.
         22    1    3    3    0    0  0.36319189758E+02 -0.78116006023E+02 -0.56954301677E+03  0.57602121653E+03  0.00000000000E+00 0. -1.
         22    1    3    3    0    0  0.71063154881E+02  0.41792212534E+02 -0.49955165495E+03  0.50630861830E+03  0.00000000000E+00 0. -1.
</event>
<event>
 7    1  0.6520971E-006  0.4683948E+02  0.7818608E-02  0.1481175E+00
          2   -1    0    0  502    0  0.00000000000E+00  0.00000000000E+00  0.12431701262E+03  0.12431701262E+03  0.00000000000E+00 0. -1.
          1   -1    0    0  501    0 -0.00000000000E+00 -0.00000000000E+00 -0.68096197413E+03  0.68096197413E+03  0.00000000000E+00 0. -1.
         25    2    1    2    0    0 -0.46746815825E+02  0.41857401877E+02 -0.10242095520E+03  0.17335731263E+03  0.12500159557E+03 0.  0.
          2    1    1    2  501    0  0.58139959567E+01 -0.46448182119E+02 -0.53722599436E+03  0.53926153691E+03  0.00000000000E+00 0. -1.
          1    1    1    2  502    0  0.40932819869E+02  0.45907802422E+01  0.83001988060E+02  0.92660137209E+02  0.00000000000E+00 0. -1.
         22    1    3    3    0    0 -0.64778285207E+02 -0.17164585174E+02 -0.86868009132E+02  0.10971280795E+03  0.00000000000E+00 0. -1.
         22    1    3    3    0    0  0.18031469381E+02  0.59021987051E+02 -0.15552946071E+02  0.63644504672E+02  0.00000000000E+00 0. -1.
</event>
<event>
 7    1  0.6520971E-006  0.7588726E+02  0.7818608E-02  0.1400786E+00
          2   -1    0    0  502    0  0.00000000000E+00  0.00000000000E+00  0.12393870448E+04  0.12393870448E+04  0.00000000000E+00 0. -1.
          1   -1    0    0  501    0 -0.00000000000E+00 -0.00000000000E+00 -0.49507682288E+03  0.49507682288E+03  0.00000000000E+00 0. -1.
         25    2    1    2    0    0 -0.86242564447E+02 -0.71524786505E+02  0.53835656891E+03  0.56392064626E+03  0.12500049991E+03 0.  0.
          2    1    1    2  501    0  0.40522324620E+02  0.63966032291E+02 -0.47853440959E+03  0.48448827978E+03  0.00000000000E+00 0. -1.
          1    1    1    2  502    0  0.45720239826E+02  0.75587542143E+01  0.68448806262E+03  0.68605494166E+03  0.00000000000E+00 0. -1.
         22    1    3    3    0    0 -0.42197290107E+02 -0.71819003149E+02  0.13831026056E+03  0.16145683226E+03  0.00000000000E+00 0. -1.
         22    1    3    3    0    0 -0.44045274340E+02  0.29421664389E+00  0.40004630835E+03  0.40246381400E+03  0.00000000000E+00 0. -1.
</event>
<event>
 7    1  0.6520971E-006  0.1749642E+03  0.7818608E-02  0.1258606E+00
          2   -1    0    0  502    0  0.00000000000E+00  0.00000000000E+00  0.16892124376E+04  0.16892124376E+04  0.00000000000E+00 0. -1.
          1   -1    0    0  501    0 -0.00000000000E+00 -0.00000000000E+00 -0.52334702711E+03  0.52334702711E+03  0.00000000000E+00 0. -1.
         25    2    1    2    0    0 -0.59888426381E+02  0.22879779351E+03 -0.14353045110E+03  0.30358100233E+03  0.12500152260E+03 0.  0.
          2    1    1    2  501    0 -0.10082511019E+02 -0.69780791704E+02 -0.29087848887E+03  0.29930137188E+03  0.00000000000E+00 0. -1.
          1    1    1    2  502    0  0.69970937400E+02 -0.15901700181E+03  0.16002743505E+04  0.16096770905E+04  0.00000000000E+00 0. -1.
         22    1    3    3    0    0  0.26559647210E+02  0.14391614151E+03 -0.77359236001E+02  0.16553465510E+03  0.00000000000E+00 0.  1.
         22    1    3    3    0    0 -0.86448073591E+02  0.84881652008E+02 -0.66171215097E+02  0.13804634723E+03  0.00000000000E+00 0.  1.
</event>
<event>
 7    1  0.6520971E-006  0.5618098E+02  0.7818608E-02  0.1509935E+00
          2   -1    0    0  502    0  0.00000000000E+00  0.00000000000E+00  0.13708011808E+03  0.13708011808E+03  0.00000000000E+00 0. -1.
          1   -1    0    0  501    0 -0.00000000000E+00 -0.00000000000E+00 -0.57808420642E+03  0.57808420642E+03  0.00000000000E+00 0. -1.
         25    2    1    2    0    0  0.66616692380E+01 -0.48240850406E+02 -0.18579900010E+03  0.22916898523E+03  0.12500239145E+03 0.  0.
          2    1    1    2  501    0  0.20973375142E+02  0.53590819992E+02 -0.36660490691E+03  0.37109434949E+03  0.00000000000E+00 0. -1.
          1    1    1    2  502    0 -0.27635044380E+02 -0.53499695852E+01  0.11139981867E+03  0.11490098978E+03  0.00000000000E+00 0. -1.
         22    1    3    3    0    0 -0.50772416793E+02 -0.14741665769E+02 -0.32469132750E+02  0.62043529865E+02  0.00000000000E+00 0.  1.
         22    1    3    3    0    0  0.57434086031E+02 -0.33499184637E+02 -0.15332986735E+03  0.16712545536E+03  0.00000000000E+00 0.  1.
</event>
<event>
 7    1  0.6520971E-006  0.9483278E+02  0.7818608E-02  0.1392893E+00
          2   -1    0    0  502    0  0.00000000000E+00  0.00000000000E+00  0.42911784258E+03  0.42911784258E+03  0.00000000000E+00 0. -1.
          1   -1    0    0  501    0 -0.00000000000E+00 -0.00000000000E+00 -0.87234841233E+03  0.87234841233E+03  0.00000000000E+00 0. -1.
         25    2    1    2    0    0 -0.54442030001E+02 -0.44757647976E+02  0.50452892512E+02  0.15211131404E+03  0.12500070325E+03 0.  0.
          2    1    1    2  501    0  0.46672430679E+02  0.83471525387E+02 -0.81753277965E+03  0.82310731812E+03  0.00000000000E+00 0. -1.
          1    1    1    2  502    0  0.77695993226E+01 -0.38713877411E+02  0.32384931739E+03  0.32624762276E+03  0.00000000000E+00 0. -1.
         22    1    3    3    0    0 -0.27989595389E+02 -0.64491725148E+02 -0.21026793901E+02  0.73380693131E+02  0.00000000000E+00 0.  1.
         22    1    3    3    0    0 -0.26452434612E+02  0.19734077172E+02  0.71479686413E+02  0.78730620908E+02  0.00000000000E+00 0.  1.
</event>
<event>
 7    1  0.6520971E-006  0.4480101E+02  0.7818608E-02  0.1546276E+00
          2   -1    0    0  502    0  0.00000000000E+00  0.00000000000E+00  0.12737375203E+03  0.12737375203E+03  0.00000000000E+00 0. -1.
          1   -1    0    0  501    0 -0.00000000000E+00 -0.00000000000E+00 -0.12295612584E+04  0.12295612584E+04  0.00000000000E+00 0. -1.
         25    2    1    2    0    0  0.65916604453E+02  0.24554899660E+02 -0.17454843223E+03  0.22592006384E+03  0.12499911285E+03 0.  0.
          2    1    1    2  501    0 -0.43609874788E+02 -0.80383516424E+01 -0.10269455723E+04  0.10279025463E+04  0.00000000000E+00 0. -1.
          1    1    1    2  502    0 -0.22306729665E+02 -0.16516548017E+02  0.99306498070E+02  0.10311240035E+03  0.00000000000E+00 0. -1.
         22    1    3    3    0    0  0.14267430245E+02  0.42762550867E+02 -0.16408503014E+03  0.17016489778E+03  0.00000000000E+00 0.  1.
         22    1    3    3    0    0  0.51649174209E+02 -0.18207651207E+02 -0.10463402092E+02  0.55755166059E+02  0.00000000000E+00 0.  1.
</event>
<event>
 7    1  0.6520971E-006  0.5807186E+02  0.7818608E-02  0.1480540E+00
          2   -1    0    0  502    0  0.00000000000E+00  0.00000000000E+00  0.15168737072E+04  0.15168737072E+04  0.00000000000E+00 0. -1.
          1   -1    0    0  501    0 -0.00000000000E+00 -0.00000000000E+00 -0.23341521591E+04  0.23341521591E+04  0.00000000000E+00 0. -1.
         25    2    1    2    0    0 -0.50278134416E+02 -0.34409004632E+02  0.17460298991E+03  0.22321152336E+03  0.12500123870E+03 0.  0.
          2    1    1    2  501    0  0.22840397349E+02  0.53404818785E+02 -0.23092714032E+04  0.23100017688E+04  0.00000000000E+00 0. -1.
          1    1    1    2  502    0  0.27437737068E+02 -0.18995814154E+02  0.13173899614E+04  0.13178125742E+04  0.00000000000E+00 0. -1.
         22    1    3    3    0    0 -0.58972922160E+02 -0.76165517998E+02  0.12443951772E+03  0.15736640445E+03  0.00000000000E+00 0. -1.
         22    1    3    3    0    0  0.86947877436E+01  0.41756513366E+02  0.50163472191E+02  0.65845118913E+02  0.00000000000E+00 0. -1.
</event>
<event>
 7    1  0.6520971E-006  0.1057354E+03  0.7818608E-02  0.1285146E+00
          2   -1    0    0  502    0  0.00000000000E+00  0.00000000000E+00  0.43131225933E+03  0.43131225933E+03  0.00000000000E+00 0. -1.
          1   -1    0    0  501    0 -0.00000000000E+00 -0.00000000000E+00 -0.67373635017E+03  0.67373635017E+03  0.00000000000E+00 0. -1.
         25    2    1    2    0    0  0.48772425247E+02 -0.18768912465E+03 -0.25648840561E+03  0.34498986922E+03  0.12500300265E+03 0.  0.
          2    1    1    2  501    0 -0.25349695885E+02  0.86698218749E+02 -0.36037995456E+03  0.37152779151E+03  0.00000000000E+00 0. -1.
          1    1    1    2  502    0 -0.23422729362E+02  0.10099090590E+03  0.37444426933E+03  0.38853094878E+03  0.00000000000E+00 0. -1.
         22    1    3    3    0    0  0.62652016690E-01 -0.87495091778E+02 -0.29844726438E+02  0.92445133494E+02  0.00000000000E+00 0. -1.
         22    1    3    3    0    0  0.48709773230E+02 -0.10019403287E+03 -0.22664367917E+03  0.25254473572E+03  0.00000000000E+00 0. -1.
</event>
<event>
 7    1  0.6520971E-006  0.4516269E+02  0.7818608E-02  0.1528159E+00
          2   -1    0    0  502    0  0.00000000000E+00  0.00000000000E+00  0.21449480902E+02  0.21449480902E+02  0.00000000000E+00 0. -1.
          1   -1    0    0  501    0 -0.00000000000E+00 -0.00000000000E+00 -0.14539094886E+04  0.14539094886E+04  0.00000000000E+00 0. -1.
         25    2    1    2    0    0  0.13687912485E+02  0.40875641677E+02 -0.25342856435E+03  0.28584555177E+03  0.12499386068E+03 0.  0.
          2    1    1    2  501    0  0.27578100820E+02 -0.14143567227E+02 -0.10635394643E+04  0.10639909700E+04  0.00000000000E+00 0. -1.
          1    1    1    2  502    0 -0.41266013305E+02 -0.26732074450E+02 -0.11549197906E+03  0.12552244774E+03  0.00000000000E+00 0. -1.
         22    1    3    3    0    0 -0.45393964701E+02  0.14783461628E+02 -0.38222284642E+02  0.61156404507E+02  0.00000000000E+00 0. -1.
         22    1    3    3    0    0  0.59081877186E+02  0.26092180048E+02 -0.21520627971E+03  0.22468914726E+03  0.00000000000E+00 0. -1.
</event>
<event>
 7    1  0.6520971E-006  0.8326901E+02  0.7818608E-02  0.1414210E+00
          2   -1    0    0  502    0  0.00000000000E+00  0.00000000000E+00  0.53645175653E+03  0.53645175653E+03  0.00000000000E+00 0. -1.
          1   -1    0    0  501    0 -0.00000000000E+00 -0.00000000000E+00 -0.11303962287E+03  0.11303962287E+03  0.00000000000E+00 0. -1.
         25    2    1    2    0    0 -0.74909573257E+02  0.88998762151E+02  0.17841802694E+03  0.24696285568E+03  0.12500174368E+03 0.  0.
          2    1    1    2  501    0  0.21341334659E+02 -0.31463026549E+02 -0.69033917603E+02  0.78810255578E+02  0.00000000000E+00 0. -1.
          1    1    1    2  502    0  0.53568238599E+02 -0.57535735602E+02  0.31402802433E+03  0.32371826813E+03  0.00000000000E+00 0. -1.
         22    1    3    3    0    0  0.26764637005E+02  0.43070147160E+01  0.72705414873E+02  0.77594932319E+02  0.00000000000E+00 0.  1.
         22    1    3    3    0    0 -0.10167421026E+03  0.84691747435E+02  0.10571261206E+03  0.16936792337E+03  0.00000000000E+00 0.  1.
</event>
<event>
 7    1  0.6520971E-006  0.7635897E+02  0.7818608E-02  0.1413940E+00
          2   -1    0    0  502    0  0.00000000000E+00  0.00000000000E+00  0.10660750339E+04  0.10660750339E+04  0.00000000000E+00 0. -1.
          1   -1    0    0  501    0 -0.00000000000E+00 -0.00000000000E+00 -0.32398893703E+03  0.32398893703E+03  0.00000000000E+00 0. -1.
         25    2    1    2    0    0 -0.91228423414E+02  0.63344247590E+02  0.34290503895E+03  0.38150197834E+03  0.12499909920E+03 0.  0.
          2    1    1    2  501    0  0.40014215326E+02 -0.11175604216E+02 -0.30136326453E+03  0.30421349208E+03  0.00000000000E+00 0. -1.
          1    1    1    2  502    0  0.51214208088E+02 -0.52168643373E+02  0.70054432240E+03  0.70434850047E+03  0.00000000000E+00 0. -1.
         22    1    3    3    0    0 -0.76249829339E+01  0.80638361377E+02  0.18608539685E+03  0.20294940407E+03  0.00000000000E+00 0. -1.
         22    1    3    3    0    0 -0.83603440480E+02 -0.17294113787E+02  0.15681964209E+03  0.17855257427E+03  0.00000000000E+00 0. -1.
</event>
<event>
 7    1  0.6520971E-006  0.2862325E+02  0.7818608E-02  0.1676005E+00
          2   -1    0    0  502    0  0.00000000000E+00  0.00000000000E+00  0.38123653813E+03  0.38123653813E+03  0.00000000000E+00 0. -1.
          1   -1    0    0  501    0 -0.00000000000E+00 -0.00000000000E+00 -0.11556735189E+04  0.11556735189E+04  0.00000000000E+00 0. -1.
         25    2    1    2    0    0 -0.21041373254E+02  0.37753159181E+02 -0.40214431491E+03  0.42333567221E+03  0.12500000372E+03 0.  0.
          2    1    1    2  501    0  0.22134248298E+02 -0.17682477378E+02 -0.74239063214E+03  0.74293098310E+03  0.00000000000E+00 0. -1.
          1    1    1    2  502    0 -0.10928750442E+01 -0.20070681803E+02  0.37009796625E+03  0.37064340176E+03  0.00000000000E+00 0. -1.
         22    1    3    3    0    0  0.39882758495E+01  0.27891187687E+02 -0.39431054520E+03  0.39531586200E+03  0.00000000000E+00 0.  1.
         22    1    3    3    0    0 -0.25029649103E+02  0.98619714942E+01 -0.78337697135E+01  0.28019810205E+02  0.00000000000E+00 0.  1.
</event>
<event>
 7    1  0.6520971E-006  0.3836438E+02  0.7818608E-02  0.1521369E+00
          2   -1    0    0  502    0  0.00000000000E+00  0.00000000000E+00  0.72993666889E+02  0.72993666889E+02  0.00000000000E+00 0. -1.
          1   -1    0    0  501    0 -0.00000000000E+00 -0.00000000000E+00 -0.66060825653E+03  0.66060825653E+03  0.00000000000E+00 0. -1.
         25    2    1    2    0    0  0.28175885561E+02  0.26002467002E+02 -0.73796061317E+02  0.15013868052E+03  0.12500302358E+03 0.  0.
          2    1    1    2  501    0 -0.37072915096E+02  0.11115317582E+02 -0.53727199343E+03  0.53866422402E+03  0.00000000000E+00 0. -1.
          1    1    1    2  502    0  0.88970295343E+01 -0.37117784584E+02  0.23453465105E+02  0.44799018877E+02  0.00000000000E+00 0. -1.
         22    1    3    3    0    0 -0.27046869765E+02  0.50398506339E+02 -0.32540256447E+01  0.57289888185E+02  0.00000000000E+00 0.  1.
         22    1    3    3    0    0  0.55222755327E+02 -0.24396039337E+02 -0.70542035672E+02  0.92848792334E+02  0.00000000000E+00 0.  1.
</event>
<event>
 7    1  0.6520971E-006  0.6307211E+03  0.7818608E-02  0.1127167E+00
          2   -1    0    0  502    0  0.00000000000E+00  0.00000000000E+00  0.38439533460E+04  0.38439533460E+04  0.00000000000E+00 0. -1.
          1   -1    0    0  501    0 -0.00000000000E+00 -0.00000000000E+00 -0.71960986110E+03  0.71960986110E+03  0.00000000000E+00 0. -1.
         25    2    1    2    0    0 -0.67951319667E+03  0.55137022915E+02  0.18251556442E+03  0.71673941624E+03  0.12500073515E+03 0.  0.
          2    1    1    2  501    0  0.60186722679E+03 -0.85379077278E+02 -0.24754471700E+03  0.65636280549E+03  0.00000000000E+00 0. -1.
          1    1    1    2  502    0  0.77645969884E+02  0.30242054364E+02  0.31893726375E+04  0.31904609853E+04  0.00000000000E+00 0. -1.
         22    1    3    3    0    0 -0.30768591265E+03  0.16589629035E+01  0.14209897311E+03  0.33891811866E+03  0.00000000000E+00 0. -1.
         22    1    3    3    0    0 -0.37182728402E+03  0.53478060011E+02  0.40416591311E+02  0.37782129757E+03  0.00000000000E+00 0. -1.
</event>
<event>
 7    1  0.6520971E-006  0.8887973E+02  0.7818608E-02  0.1340360E+00
          2   -1    0    0  502    0  0.00000000000E+00  0.00000000000E+00  0.18859704262E+03  0.18859704262E+03  0.00000000000E+00 0. -1.
          1   -1    0    0  501    0 -0.00000000000E+00 -0.00000000000E+00 -0.97347516481E+03  0.97347516481E+03  0.00000000000E+00 0. -1.
         25    2    1    2    0    0 -0.10903445006E+03  0.71245980351E+02 -0.38128610035E+03  0.42186320887E+03  0.12499990266E+03 0.  0.
          2    1    1    2  501    0  0.83328128006E+02 -0.11288735268E+02 -0.56233339215E+03  0.56858583906E+03  0.00000000000E+00 0. -1.
          1    1    1    2  502    0  0.25706322059E+02 -0.59957245083E+02  0.15874137029E+03  0.17162315949E+03  0.00000000000E+00 0. -1.
         22    1    3    3    0    0 -0.63811091141E+02 -0.22092450870E+02 -0.21979779354E+03  0.22993695176E+03  0.00000000000E+00 0. -1.
         22    1    3    3    0    0 -0.45223358924E+02  0.93338431221E+02 -0.16148830681E+03  0.19192625712E+03  0.00000000000E+00 0. -1.
</event>
<event>
 7    1  0.6520971E-006  0.4715547E+03  0.7818608E-02  0.1072431E+00
          2   -1    0    0  502    0  0.00000000000E+00  0.00000000000E+00  0.10142046436E+04  0.10142046436E+04  0.00000000000E+00 0. -1.
          1   -1    0    0  501    0 -0.00000000000E+00 -0.00000000000E+00 -0.36047114439E+04  0.36047114439E+04  0.00000000000E+00 0. -1.
         25    2    1    2    0    0 -0.22904471713E+03 -0.32429427864E+03 -0.27422001304E+03  0.49844804465E+03  0.12500230421E+03 0.  0.
          2    1    1    2  501    0  0.15900458578E+03 -0.16184908623E+03 -0.31471333382E+04  0.31553012270E+04  0.00000000000E+00 0. -1.
          1    1    1    2  502    0  0.70040131348E+02  0.48614336487E+03  0.83084655095E+03  0.96516681586E+03  0.00000000000E+00 0. -1.
         22    1    3    3    0    0 -0.11312483026E+03 -0.21306419911E+03 -0.99087777428E+02  0.26079104241E+03  0.00000000000E+00 0.  1.
         22    1    3    3    0    0 -0.11591988686E+03 -0.11123007953E+03 -0.17513223561E+03  0.23765700224E+03  0.00000000000E+00 0.  1.
</event>
<event>
 7    1  0.6520971E-006  0.1338721E+03  0.7818608E-02  0.1308095E+00
          2   -1    0    0  502    0  0.00000000000E+00  0.00000000000E+00  0.64907489014E+03  0.64907489014E+03  0.00000000000E+00 0. -1.
          1   -1    0    0  501    0 -0.00000000000E+00 -0.00000000000E+00 -0.11146063029E+03  0.11146063029E+03  0.00000000000E+00 0. -1.
         25    2    1    2    0    0 -0.10607584723E+03 -0.43687541532E+02  0.16799057360E+02  0.17049049975E+03  0.12499646206E+03 0.  0.
          2    1    1    2  501    0 -0.31051846562E+02  0.48601643834E+02  0.68514983934E+01  0.58079944805E+02  0.00000000000E+00 0. -1.
          1    1    1    2  502    0  0.13712769380E+03 -0.49141023024E+01  0.51396370410E+03  0.53196507587E+03  0.00000000000E+00 0. -1.
         22    1    3    3    0    0  0.19110169167E+02  0.12477693894E+02  0.23966761942E+02  0.33095272902E+02  0.00000000000E+00 0. -1.
         22    1    3    3    0    0 -0.12518601640E+03 -0.56165235426E+02 -0.71677045818E+01  0.13739522685E+03  0.00000000000E+00 0. -1.
</event>
<event>
 7    1  0.6520971E-006  0.3996501E+02  0.7818608E-02  0.1514121E+00
          2   -1    0    0  502    0  0.00000000000E+00  0.00000000000E+00  0.53998879619E+03  0.53998879619E+03  0.00000000000E+00 0. -1.
          1   -1    0    0  501    0 -0.00000000000E+00 -0.00000000000E+00 -0.21514935137E+03  0.21514935137E+03  0.00000000000E+00 0. -1.
         25    2    1    2    0    0 -0.54998029232E+02  0.54668841900E+02  0.10426882026E+03  0.18028697832E+03  0.12497176553E+03 0.  0.
          2    1    1    2  501    0  0.25392313406E+02 -0.30110644671E+02 -0.17400386318E+03  0.17840617956E+03  0.00000000000E+00 0. -1.
          1    1    1    2  502    0  0.29605715826E+02 -0.24558197229E+02  0.39457448775E+03  0.39644498968E+03  0.00000000000E+00 0. -1.
         22    1    3    3    0    0  0.33652164989E+02  0.75653824080E+01 -0.14196224779E+01  0.34521276735E+02  0.00000000000E+00 0. -1.
         22    1    3    3    0    0 -0.88650194221E+02  0.47103459492E+02  0.10568844273E+03  0.14576570159E+03  0.00000000000E+00 0. -1.
</event>
<event>
 7    1  0.6520971E-006  0.1267408E+03  0.7818608E-02  0.1296104E+00
          2   -1    0    0  502    0  0.00000000000E+00  0.00000000000E+00  0.45115348287E+03  0.45115348287E+03  0.00000000000E+00 0. -1.
          1   -1    0    0  501    0 -0.00000000000E+00 -0.00000000000E+00 -0.34788591324E+04  0.34788591324E+04  0.00000000000E+00 0. -1.
         25    2    1    2    0    0  0.75620773021E+02  0.46930489949E+01 -0.87489691360E+03  0.88702349800E+03  0.12500220222E+03 0.  0.
          2    1    1    2  501    0 -0.14230564976E+03 -0.18077146467E+02 -0.25933067346E+04  0.25972711643E+04  0.00000000000E+00 0. -1.
          1    1    1    2  502    0  0.66684876736E+02  0.13384097472E+02  0.44049799862E+03  0.44571795301E+03  0.00000000000E+00 0. -1.
         22    1    3    3    0    0  0.20608590338E+01 -0.39882067987E+02 -0.10501790647E+03  0.11235473807E+03  0.00000000000E+00 0. -1.
         22    1    3    3    0    0  0.73559913988E+02  0.44575116982E+02 -0.76987900713E+03  0.77466875993E+03  0.00000000000E+00 0. -1.
</event>
<event>
 7    1  0.6520971E-006  0.5426478E+02  0.7818608E-02  0.1482260E+00
          2   -1    0    0  502    0  0.00000000000E+00  0.00000000000E+00  0.26180174921E+04  0.26180174921E+04  0.00000000000E+00 0. -1.
          1   -1    0    0  501    0 -0.00000000000E+00 -0.00000000000E+00 -0.11712156750E+03  0.11712156750E+03  0.00000000000E+00 0. -1.
         25    2    1    2    0    0  0.36852804983E+02 -0.21699695233E+02  0.77282894366E+03  0.78404000519E+03  0.12500059028E+03 0.  0.
          2    1    1    2  501    0 -0.17863398069E+02  0.51435979396E+02 -0.10468962233E+03  0.11800287281E+03  0.00000000000E+00 0. -1.
          1    1    1    2  502    0 -0.18989406914E+02 -0.29736284163E+02  0.18327566032E+04  0.18330961816E+04  0.00000000000E+00 0. -1.
         22    1    3    3    0    0 -0.32371432318E+02 -0.43548470939E+02  0.22646898382E+03  0.23287889468E+03  0.00000000000E+00 0.  1.
         22    1    3    3    0    0  0.69224237301E+02  0.21848775706E+02  0.54635995984E+03  0.55116111052E+03  0.00000000000E+00 0.  1.
</event>
<event>
 7    1  0.6520971E-006  0.4352027E+02  0.7818608E-02  0.1518460E+00
          2   -1    0    0  502    0  0.00000000000E+00  0.00000000000E+00  0.44080934228E+03  0.44080934228E+03  0.00000000000E+00 0. -1.
          1   -1    0    0  501    0 -0.00000000000E+00 -0.00000000000E+00 -0.11142376681E+04  0.11142376681E+04  0.00000000000E+00 0. -1.
         25    2    1    2    0    0 -0.75964336629E+02 -0.77050125122E+01 -0.67060070085E+01  0.14662968464E+03  0.12500138492E+03 0.  0.
          2    1    1    2  501    0  0.41836502237E+02  0.11217500479E+02 -0.10363229745E+04  0.10372277632E+04  0.00000000000E+00 0. -1.
          1    1    1    2  502    0  0.34127834392E+02 -0.35124879672E+01  0.36960065570E+03  0.37118956255E+03  0.00000000000E+00 0. -1.
         22    1    3    3    0    0 -0.62249015492E+00 -0.55989047705E+02  0.57248608935E+01  0.56284411600E+02  0.00000000000E+00 0. -1.
         22    1    3    3    0    0 -0.75341846474E+02  0.48284035193E+02 -0.12430867902E+02  0.90345273044E+02  0.00000000000E+00 0. -1.
</event>
<event>
 7    1  0.6520971E-006  0.1039883E+03  0.7818608E-02  0.1307293E+00
          2   -1    0    0  502    0  0.00000000000E+00  0.00000000000E+00  0.41002916616E+03  0.41002916616E+03  0.00000000000E+00 0. -1.
          1   -1    0    0  501    0 -0.00000000000E+00 -0.00000000000E+00 -0.37601481404E+03  0.37601481404E+03  0.00000000000E+00 0. -1.
         25    2    1    2    0    0 -0.22163124874E+02 -0.60607328232E+02  0.60947436388E+02  0.15329743351E+03  0.12498424212E+03 0.  0.
          2    1    1    2  501    0  0.54501299558E+02 -0.51221645420E+02 -0.31409970537E+03  0.32288182595E+03  0.00000000000E+00 0. -1.
          1    1    1    2  502    0 -0.32338174683E+02  0.11182897365E+03  0.28716662110E+03  0.30986472075E+03  0.00000000000E+00 0. -1.
         22    1    3    3    0    0  0.22002007002E+02 -0.82842110451E+02  0.58531064385E+02  0.10379204726E+03  0.00000000000E+00 0. -1.
         22    1    3    3    0    0 -0.44165131876E+02  0.22234782220E+02  0.24163720027E+01  0.49505386249E+02  0.00000000000E+00 0. -1.
</event>
<event>
 7    1  0.6520971E-006  0.1077813E+03  0.7818608E-02  0.1377331E+00
          2   -1    0    0  502    0  0.00000000000E+00  0.00000000000E+00  0.35640212900E+03  0.35640212900E+03  0.00000000000E+00 0. -1.
          1   -1    0    0  501    0 -0.00000000000E+00 -0.00000000000E+00 -0.28414450443E+03  0.28414450443E+03  0.00000000000E+00 0. -1.
         25    2    1    2    0    0  0.13021264644E+03  0.55124549092E+02 -0.14973985593E+03  0.24092109256E+03  0.12500759649E+03 0.  0.
          2    1    1    2  501    0 -0.39405716970E+02  0.59038563217E-01 -0.74709548039E+02  0.84464966606E+02  0.00000000000E+00 0. -1.
          1    1    1    2  502    0 -0.90806929469E+02 -0.55183587655E+02  0.29670702855E+03  0.31516057427E+03  0.00000000000E+00 0. -1.
         22    1    3    3    0    0  0.41786824838E+02 -0.93936550324E+01 -0.12011422223E+03  0.12752178585E+03  0.00000000000E+00 0.  1.
         22    1    3    3    0    0  0.88425821601E+02  0.64518204124E+02 -0.29625633704E+02  0.11339930671E+03  0.00000000000E+00 0.  1.
</event>
<event>
 7    1  0.6520971E-006  0.2407951E+03  0.7818608E-02  0.1298019E+00
          2   -1    0    0  502    0  0.00000000000E+00  0.00000000000E+00  0.32382115092E+04  0.32382115092E+04  0.00000000000E+00 0. -1.
          1   -1    0    0  501    0 -0.00000000000E+00 -0.00000000000E+00 -0.85606296840E+02  0.85606296840E+02  0.00000000000E+00 0. -1.
         25    2    1    2    0    0 -0.14862523862E+03 -0.15183300372E+03  0.46959655864E+03  0.53037320550E+03  0.12502834342E+03 0.  0.
          2    1    1    2  501    0 -0.15093587179E+02 -0.31766251885E+02 -0.43456275903E+02  0.55904910769E+02  0.00000000000E+00 0. -1.
          1    1    1    2  502    0  0.16371882580E+03  0.18359925560E+03  0.27264649297E+04  0.27375396898E+04  0.00000000000E+00 0. -1.
         22    1    3    3    0    0 -0.83174762554E+02 -0.13818157693E+03  0.22520264611E+03  0.27699895514E+03  0.00000000000E+00 0. -1.
         22    1    3    3    0    0 -0.65450476063E+02 -0.13651426788E+02  0.24439391252E+03  0.25337425037E+03  0.00000000000E+00 0. -1.
</event>
<event>
 7    1  0.6520971E-006  0.9442808E+02  0.7818608E-02  0.1400400E+00
          2   -1    0    0  502    0  0.00000000000E+00  0.00000000000E+00  0.27180993112E+04  0.27180993112E+04  0.00000000000E+00 0. -1.
          1   -1    0    0  501    0 -0.00000000000E+00 -0.00000000000E+00 -0.11035618865E+03  0.11035618865E+03  0.00000000000E+00 0. -1.
         25    2    1    2    0    0 -0.53319451875E+01 -0.76188551815E+02  0.55031486183E+03  0.56947889416E+03  0.12500655455E+03 0.  0.
          2    1    1    2  501    0  0.33434405034E+02 -0.16660989043E+02 -0.96182544145E+02  0.10318202263E+03  0.00000000000E+00 0. -1.
          1    1    1    2  502    0 -0.28102459846E+02  0.92849540859E+02  0.21536108049E+04  0.21557945831E+04  0.00000000000E+00 0. -1.
         22    1    3    3    0    0  0.10865548582E+01 -0.14382693680E+02  0.45783514985E+03  0.45806229589E+03  0.00000000000E+00 0.  1.
         22    1    3    3    0    0 -0.64185000456E+01 -0.61805858135E+02  0.92479711976E+02  0.11141659827E+03  0.00000000000E+00 0.  1.
</event>
<event>
 7    1  0.6520971E-006  0.9664063E+02  0.7818608E-02  0.1384104E+00
          2   -1    0    0  502    0  0.00000000000E+00  0.00000000000E+00  0.17362577630E+04  0.17362577630E+04  0.00000000000E+00 0. -1.
          1   -1    0    0  501    0 -0.00000000000E+00 -0.00000000000E+00 -0.12472173408E+03  0.12472173408E+03  0.00000000000E+00 0. -1.
         25    2    1    2    0    0  0.20728031747E+02  0.11996898090E+03  0.13012149239E+03  0.21766823744E+03  0.12500260449E+03 0.  0.
          2    1    1    2  501    0  0.10727999424E+02 -0.92762586449E+02 -0.53641981368E+02  0.10769145547E+03  0.00000000000E+00 0. -1.
          1    1    1    2  502    0 -0.31456031172E+02 -0.27206394455E+02  0.15350565179E+04  0.15356198041E+04  0.00000000000E+00 0. -1.
         22    1    3    3    0    0  0.38533014728E+02  0.11975886961E+03  0.14675765797E+03  0.19329974197E+03  0.00000000000E+00 0. -1.
         22    1    3    3    0    0 -0.17804982981E+02  0.21011129605E+00 -0.16636165585E+02  0.24368495462E+02  0.00000000000E+00 0. -1.
</event>
<event>
 7    1  0.6520971E-006  0.1505823E+03  0.7818608E-02  0.1397372E+00
          2   -1    0    0  502    0  0.00000000000E+00  0.00000000000E+00  0.76135661718E+03  0.76135661718E+03  0.00000000000E+00 0. -1.
          1   -1    0    0  501    0 -0.00000000000E+00 -0.00000000000E+00 -0.25442723041E+03  0.25442723041E+03  0.00000000000E+00 0. -1.
         25    2    1    2    0    0 -0.16170079969E+03 -0.61635235467E+02  0.42089719362E+03  0.47193943591E+03  0.12500533066E+03 0.  0.
          2    1    1    2  501    0  0.14077691482E+03  0.49890669301E+02 -0.20399497899E+03  0.25282636350E+03  0.00000000000E+00 0. -1.
          1    1    1    2  502    0  0.20923884875E+02  0.11744566165E+02  0.29002717213E+03  0.29101804818E+03  0.00000000000E+00 0. -1.
         22    1    3    3    0    0 -0.31327298492E+02  0.74241697668E+01  0.22186647801E+03  0.22419021387E+03  0.00000000000E+00 0. -1.
         22    1    3    3    0    0 -0.13037350120E+03 -0.69059405233E+02  0.19903071561E+03  0.24774922204E+03  0.00000000000E+00 0. -1.
</event>
<event>
 7    1  0.6520971E-006  0.2358644E+03  0.7818608E-02  0.1315615E+00
          2   -1    0    0  502    0  0.00000000000E+00  0.00000000000E+00  0.24257479608E+04  0.24257479608E+04  0.00000000000E+00 0. -1.
          1   -1    0    0  501    0 -0.00000000000E+00 -0.00000000000E+00 -0.43518735829E+03  0.43518735829E+03  0.00000000000E+00 0. -1.
         25    2    1    2    0    0 -0.21308638752E+03  0.68674144859E+02  0.68144541504E+03  0.72808966727E+03  0.12499905278E+03 0.  0.
          2    1    1    2  501    0  0.21470291952E+03 -0.99213127572E+02 -0.37775956881E+03  0.44569370666E+03  0.00000000000E+00 0. -1.
          1    1    1    2  502    0 -0.16165319962E+01  0.30538982713E+02  0.16868747563E+04  0.16871519452E+04  0.00000000000E+00 0. -1.
         22    1    3    3    0    0 -0.87068632232E+02  0.43316625603E+02  0.13287725019E+03  0.16466220085E+03  0.00000000000E+00 0.  1.
         22    1    3    3    0    0 -0.12601775529E+03  0.25357519256E+02  0.54856816485E+03  0.56342746642E+03  0.00000000000E+00 0.  1.
</event>
<event>
 7    1  0.6520971E-006  0.1082006E+03  0.7818608E-02  0.1347145E+00
          2   -1    0    0  502    0  0.00000000000E+00  0.00000000000E+00  0.12407832331E+04  0.12407832331E+04  0.00000000000E+00 0. -1.
          1   -1    0    0  501    0 -0.00000000000E+00 -0.00000000000E+00 -0.23423065437E+04  0.23423065437E+04  0.00000000000E+00 0. -1.
         25    2    1    2    0    0 -0.12483520911E+03 -0.92997787231E+02  0.75304066912E+03  0.77905517956E+03  0.12499722233E+03 0.  0.
          2    1    1    2  501    0  0.77424779382E+02  0.75474625670E+02 -0.23266948291E+04  0.23292058397E+04  0.00000000000E+00 0. -1.
          1    1    1    2  502    0  0.47410429725E+02  0.17523161561E+02  0.47213084940E+03  0.47482875755E+03  0.00000000000E+00 0. -1.
         22    1    3    3    0    0 -0.44797333958E+00 -0.71178284183E+02  0.32884032519E+03  0.33645580436E+03  0.00000000000E+00 0.  1.
         22    1    3    3    0    0 -0.12438723577E+03 -0.21819503049E+02  0.42420034393E+03  0.44259937520E+03  0.00000000000E+00 0.  1.
</event>
<event>
 7    1  0.6520971E-006  0.8500324E+02  0.7818608E-02  0.1346008E+00
          2   -1    0    0  502    0  0.00000000000E+00  0.00000000000E+00  0.19501034001E+04  0.19501034001E+04  0.00000000000E+00 0. -1.
          1   -1    0    0  501    0 -0.00000000000E+00 -0.00000000000E+00 -0.57789806165E+03  0.57789806165E+03  0.00000000000E+00 0. -1.
         25    2    1    2    0    0 -0.95057333668E+02  0.96151982449E+02  0.17136567961E+03  0.25154044250E+03  0.12500119061E+03 0.  0.
          2    1    1    2  501    0  0.32748919784E+02 -0.77749466898E+02 -0.53389030215E+03  0.54051487129E+03  0.00000000000E+00 0. -1.
          1    1    1    2  502    0  0.62308413884E+02 -0.18402515551E+02  0.17347299610E+04  0.17359461479E+04  0.00000000000E+00 0. -1.
         22    1    3    3    0    0 -0.88713341802E+02  0.11867790066E+03  0.17336043748E+03  0.22805337621E+03  0.00000000000E+00 0.  1.
         22    1    3    3    0    0 -0.63439918666E+01 -0.22525918208E+02 -0.19947578719E+01  0.23487066289E+02  0.00000000000E+00 0.  1.
</event>
<event>
 7    1  0.6520971E-006  0.1121170E+03  0.7818608E-02  0.1396577E+00
          2   -1    0    0  502    0  0.00000000000E+00  0.00000000000E+00  0.14914271268E+03  0.14914271268E+03  0.00000000000E+00 0. -1.
          1   -1    0    0  501    0 -0.00000000000E+00 -0.00000000000E+00 -0.22673173902E+04  0.22673173902E+04  0.00000000000E+00 0. -1.
         25    2    1    2    0    0  0.12040930326E+03  0.95419010921E+01 -0.12461572371E+03  0.21387682311E+03  0.12499907472E+03 0.  0.
          2    1    1    2  501    0 -0.15813591927E+02  0.28314608022E+02 -0.20683100101E+04  0.20685642568E+04  0.00000000000E+00 0. -1.
          1    1    1    2  502    0 -0.10459571134E+03 -0.37856509114E+02  0.74751056244E+02  0.13401902298E+03  0.00000000000E+00 0. -1.
         22    1    3    3    0    0 -0.22535720322E+02  0.28685855601E+01 -0.44281694051E+02  0.49769025523E+02  0.00000000000E+00 0.  1.
         22    1    3    3    0    0  0.14294502358E+03  0.66733155320E+01 -0.80334029655E+02  0.16410779759E+03  0.00000000000E+00 0.  1.
</event>
<event>
 7    1  0.6520971E-006  0.5645422E+02  0.7818608E-02  0.1432015E+00
          2   -1    0    0  502    0  0.00000000000E+00  0.00000000000E+00  0.42557770809E+02  0.42557770809E+02  0.00000000000E+00 0. -1.
          1   -1    0    0  501    0 -0.00000000000E+00 -0.00000000000E+00 -0.92296870608E+03  0.92296870608E+03  0.00000000000E+00 0. -1.
         25    2    1    2    0    0 -0.84265962355E+02  0.53878401389E+02 -0.42535511440E+03  0.45448412080E+03  0.12500083265E+03 0.  0.
          2    1    1    2  501    0  0.46402402071E+02 -0.15522532392E+02 -0.45451714212E+03  0.45714326464E+03  0.00000000000E+00 0. -1.
          1    1    1    2  502    0  0.37863560284E+02 -0.38355868997E+02 -0.53867875258E+00  0.53899091446E+02  0.00000000000E+00 0. -1.
         22    1    3    3    0    0 -0.15825203549E+02  0.11259055313E+02  0.20602957215E+01  0.19530699229E+02  0.00000000000E+00 0.  1.
         22    1    3    3    0    0 -0.68440758807E+02  0.42619346076E+02 -0.42741541012E+03  0.43495342157E+03  0.00000000000E+00 0.  1.
</event>
<event>
 7    1  0.6520971E-006  0.1081029E+03  0.7818608E-02  0.1417623E+00
          2   -1    0    0  502    0  0.00000000000E+00  0.00000000000E+00  0.25730425600E+03  0.25730425600E+03  0.00000000000E+00 0. -1.
          1   -1    0    0  501    0 -0.00000000000E+00 -0.00000000000E+00 -0.28054783866E+03  0.28054783866E+03  0.00000000000E+00 0. -1.
         25    2    1    2    0    0  0.13026373162E+03  0.84770603740E+01  0.43319041949E+02  0.18585682192E+03  0.12500287409E+03 0.  0.
          2    1    1    2  501    0 -0.10381625387E+03 -0.19154382485E+02 -0.19429210417E+03  0.22112016344E+03  0.00000000000E+00 0. -1.
          1    1    1    2  502    0 -0.26447477749E+02  0.10677322111E+02  0.12772947956E+03  0.13087510930E+03  0.00000000000E+00 0. -1.
         22    1    3    3    0    0  0.26690816266E+02 -0.16988480846E+01  0.72909697099E+02  0.77660219475E+02  0.00000000000E+00 0.  1.
         22    1    3    3    0    0  0.10357291536E+03  0.10175908459E+02 -0.29590655151E+02  0.10819660245E+03  0.00000000000E+00 0.  1.
</event>
<event>
 7    1  0.6520971E-006  0.1229688E+03  0.7818608E-02  0.1388427E+00
          2   -1    0    0  502    0  0.00000000000E+00  0.00000000000E+00  0.44640026392E+03  0.44640026392E+03  0.00000000000E+00 0. -1.
          1   -1    0    0  501    0 -0.00000000000E+00 -0.00000000000E+00 -0.29386625651E+04  0.29386625651E+04  0.00000000000E+00 0. -1.
         25    2    1    2    0    0 -0.11763205835E+03  0.98172490176E+02 -0.14501640985E+04  0.14635834034E+04  0.12500130854E+03 0.  0.
          2    1    1    2  501    0  0.28352895864E+02 -0.13868191544E+02 -0.14730433977E+04  0.14733815069E+04  0.00000000000E+00 0. -1.
          1    1    1    2  502    0  0.89279162491E+02 -0.84304298632E+02  0.43094519503E+03  0.44809791870E+03  0.00000000000E+00 0. -1.
         22    1    3    3    0    0 -0.13534142142E+01  0.70600525194E+01 -0.64131539072E+03  0.64135567858E+03  0.00000000000E+00 0.  1.
         22    1    3    3    0    0 -0.11627864414E+03  0.91112437656E+02 -0.80884870777E+03  0.82222772481E+03  0.00000000000E+00 0.  1.
</event>
<event>
 7    1  0.6520971E-006  0.7588321E+02  0.7818608E-02  0.1453770E+00
          2   -1    0    0  502    0  0.00000000000E+00  0.00000000000E+00  0.11629053267E+03  0.11629053267E+03  0.00000000000E+00 0. -1.
          1   -1    0    0  501    0 -0.00000000000E+00 -0.00000000000E+00 -0.91163250069E+03  0.91163250069E+03  0.00000000000E+00 0. -1.
         25    2    1    2    0    0 -0.58738197165E+02  0.12804990723E+02 -0.47224460556E+03  0.49219206582E+03  0.12499567426E+03 0.  0.
          2    1    1    2  501    0 -0.16547067848E+02 -0.26167711812E+02 -0.41501490538E+03  0.41616814665E+03  0.00000000000E+00 0. -1.
          1    1    1    2  502    0  0.75285265013E+02  0.13362721089E+02  0.91917542920E+02  0.11956282089E+03  0.00000000000E+00 0. -1.
         22    1    3    3    0    0  0.27292137237E+00  0.60084751577E+02 -0.15966441741E+03  0.17059594967E+03  0.00000000000E+00 0.  1.
         22    1    3    3    0    0 -0.59011118537E+02 -0.47279760854E+02 -0.31258018814E+03  0.32159611614E+03  0.00000000000E+00 0.  1.
</event>
<event>
 7    1  0.6520971E-006  0.2904828E+02  0.7818608E-02  0.1623376E+00
          2   -1    0    0  502    0  0.00000000000E+00  0.00000000000E+00  0.14595271389E+03  0.14595271389E+03  0.00000000000E+00 0. -1.
          1   -1    0    0  501    0 -0.00000000000E+00 -0.00000000000E+00 -0.47395976217E+03  0.47395976217E+03  0.00000000000E+00 0. -1.
         25    2    1    2    0    0  0.19025767594E+02 -0.27673002648E+01  0.79235970818E+02  0.14926266128E+03  0.12502545819E+03 0.  0.
          2    1    1    2  501    0 -0.93211216105E+01  0.27604118760E+02 -0.43276157095E+03  0.43374122235E+03  0.00000000000E+00 0. -1.
          1    1    1    2  502    0 -0.97046459838E+01 -0.24836818495E+02  0.25518551854E+02  0.36908592433E+02  0.00000000000E+00 0. -1.
         22    1    3    3    0    0  0.60766399485E+02  0.31431604449E+02  0.62764186192E+02  0.92843115700E+02  0.00000000000E+00 0. -1.
         22    1    3    3    0    0 -0.41740631891E+02 -0.34198904714E+02  0.16471784626E+02  0.56419545577E+02  0.00000000000E+00 0. -1.
</event>
<event>
 7    1  0.6520971E-006  0.1998981E+03  0.7818608E-02  0.1355155E+00
          2   -1    0    0  502    0  0.00000000000E+00  0.00000000000E+00  0.15278087440E+04  0.15278087440E+04  0.00000000000E+00 0. -1.
          1   -1    0    0  501    0 -0.00000000000E+00 -0.00000000000E+00 -0.33755599025E+03  0.33755599025E+03  0.00000000000E+00 0. -1.
         25    2    1    2    0    0  0.13983380486E+03 -0.12591450317E+03  0.35086469556E+03  0.41729962460E+03  0.12499994807E+03 0.  0.
          2    1    1    2  501    0  0.24715782751E+02  0.64949208833E+01 -0.29474555281E+03  0.29585130525E+03  0.00000000000E+00 0. -1.
          1    1    1    2  502    0 -0.16454958761E+03  0.11941958229E+03  0.11341336110E+04  0.11522138044E+04  0.00000000000E+00 0. -1.
         22    1    3    3    0    0  0.11435736617E+03 -0.54238511414E+02  0.12071431547E+03  0.17490388583E+03  0.00000000000E+00 0.  1.
         22    1    3    3    0    0  0.25476438682E+02 -0.71675991755E+02  0.23015038009E+03  0.24239573878E+03  0.00000000000E+00 0.  1.
</event>
<event>
 7    1  0.6520971E-006  0.6891714E+02  0.7818608E-02  0.1436885E+00
          2   -1    0    0  502    0  0.00000000000E+00  0.00000000000E+00  0.27113627650E+04  0.27113627650E+04  0.00000000000E+00 0. -1.
          1   -1    0    0  501    0 -0.00000000000E+00 -0.00000000000E+00 -0.18383740858E+03  0.18383740858E+03  0.00000000000E+00 0. -1.
         25    2    1    2    0    0  0.89481690139E+02  0.33525429258E+02 -0.80665382738E+02  0.17681487003E+03  0.12500266803E+03 0.  0.
          2    1    1    2  501    0 -0.37022225890E+02  0.11056531238E+02 -0.47822064996E+02  0.61480419593E+02  0.00000000000E+00 0. -1.
          1    1    1    2  502    0 -0.52459464249E+02 -0.44581960496E+02  0.26560128042E+04  0.26569048840E+04  0.00000000000E+00 0. -1.
         22    1    3    3    0    0  0.95521236907E+02 -0.16198470251E+02 -0.81670712784E+02  0.12671543894E+03  0.00000000000E+00 0. -1.
         22    1    3    3    0    0 -0.60395467676E+01  0.49723899510E+02  0.10053300458E+01  0.50099431096E+02  0.00000000000E+00 0. -1.
</event>
<event>
 7    1  0.6520971E-006  0.7779648E+02  0.7818608E-02  0.1412564E+00
          2   -1    0    0  502    0  0.00000000000E+00  0.00000000000E+00  0.38981530621E+02  0.38981530621E+02  0.00000000000E+00 0. -1.
          1   -1    0    0  501    0 -0.00000000000E+00 -0.00000000000E+00 -0.24885297557E+04  0.24885297557E+04  0.00000000000E+00 0. -1.
         25    2    1    2    0    0 -0.51627735463E+00 -0.39250926184E+02 -0.11471445189E+04  0.11546021631E+04  0.12499882393E+03 0.  0.
          2    1    1    2  501    0  0.13136651140E+02 -0.39066287704E+02 -0.12922812551E+04  0.12929383546E+04  0.00000000000E+00 0. -1.
          1    1    1    2  502    0 -0.12620373785E+02  0.78317213888E+02 -0.10122451072E+02  0.79970768668E+02  0.00000000000E+00 0. -1.
         22    1    3    3    0    0 -0.21128382150E+02  0.41964544565E+02 -0.44653536688E+03  0.44900029555E+03  0.00000000000E+00 0. -1.
         22    1    3    3    0    0  0.20612104795E+02 -0.81215470749E+02 -0.70060915204E+03  0.70560186754E+03  0.00000000000E+00 0. -1.
</event>
<event>
 7    1  0.6520971E-006  0.8033420E+02  0.7818608E-02  0.1359946E+00
          2   -1    0    0  502    0  0.00000000000E+00  0.00000000000E+00  0.26116528411E+04  0.26116528411E+04  0.00000000000E+00 0. -1.
          1   -1    0    0  501    0 -0.00000000000E+00 -0.00000000000E+00 -0.15169385241E+03  0.15169385241E+03  0.00000000000E+00 0. -1.
         25    2    1    2    0    0  0.18911730061E+02 -0.12439800819E+02 -0.15053213891E+02  0.12792265144E+03  0.12500081329E+03 0.  0.
          2    1    1    2  501    0  0.23754713522E+02 -0.56261159923E+02 -0.67844062639E+02  0.91282097729E+02  0.00000000000E+00 0. -1.
          1    1    1    2  502    0 -0.42666443583E+02  0.68700960742E+02  0.25428562652E+04  0.25441419443E+04  0.00000000000E+00 0. -1.
         22    1    3    3    0    0  0.36397796278E+02  0.42413070866E+02  0.21325053231E+02  0.59819946920E+02  0.00000000000E+00 0.  1.
         22    1    3    3    0    0 -0.17486066217E+02 -0.54852871685E+02 -0.36378267122E+02  0.68102704518E+02  0.00000000000E+00 0.  1.
</event>
<event>
 7    1  0.6520971E-006  0.1714668E+03  0.7818608E-02  0.1321873E+00
          2   -1    0    0  502    0  0.00000000000E+00  0.00000000000E+00  0.40580833657E+04  0.40580833657E+04  0.00000000000E+00 0. -1.
          1   -1    0    0  501    0 -0.00000000000E+00 -0.00000000000E+00 -0.33221858482E+03  0.33221858482E+03  0.00000000000E+00 0. -1.
         25    2    1    2    0    0  0.34686335485E+01 -0.15732640716E+03  0.15874554723E+04  0.16001261913E+04  0.12500128796E+03 0.  0.
          2    1    1    2  501    0  0.34803332892E+02  0.16815943959E+03 -0.30308771772E+03  0.34835475271E+03  0.00000000000E+00 0. -1.
          1    1    1    2  502    0 -0.38271966441E+02 -0.10833032436E+02  0.24414970263E+04  0.24418210065E+04  0.00000000000E+00 0. -1.
         22    1    3    3    0    0 -0.96267619200E+01  0.75099152131E+01  0.16679675897E+02  0.20670872251E+02  0.00000000000E+00 0. -1.
         22    1    3    3    0    0  0.13095395468E+02 -0.16483632237E+03  0.15707757964E+04  0.15794553191E+04  0.00000000000E+00 0. -1.
</event>
<event>
 7    1  0.6520971E-006  0.1210766E+03  0.7818608E-02  0.1322984E+00
          2   -1    0    0  502    0  0.00000000000E+00  0.00000000000E+00  0.61020597204E+03  0.61020597204E+03  0.00000000000E+00 0. -1.
          1   -1    0    0  501    0 -0.00000000000E+00 -0.00000000000E+00 -0.57208579814E+03  0.57208579814E+03  0.00000000000E+00 0. -1.
         25    2    1    2    0    0 -0.34842245749E+02  0.11759056080E+03 -0.31620807861E+03  0.36146125177E+03  0.12500066189E+03 0.  0.
          2    1    1    2  501    0 -0.20606653848E+02 -0.12361472667E+03 -0.21495636478E+03  0.24882016316E+03  0.00000000000E+00 0. -1.
          1    1    1    2  502    0  0.55448899597E+02  0.60241658696E+01  0.56928461729E+03  0.57201035526E+03  0.00000000000E+00 0. -1.
         22    1    3    3    0    0 -0.59382350151E+02  0.10155935218E+02 -0.15395278752E+03  0.16532049877E+03  0.00000000000E+00 0. -1.
         22    1    3    3    0    0  0.24540104403E+02  0.10743462559E+03 -0.16225529109E+03  0.19614075300E+03  0.00000000000E+00 0. -1.
</event>
<event>
 7    1  0.6520971E-006  0.1301257E+03  0.7818608E-02  0.1337227E+00
          2   -1    0    0  502    0  0.00000000000E+00  0.00000000000E+00  0.10343068744E+03  0.10343068744E+03  0.00000000000E+00 0. -1.
          1   -1    0    0  501    0 -0.00000000000E+00 -0.00000000000E+00 -0.29787275559E+04  0.29787275559E+04  0.00000000000E+00 0. -1.
         25    2    1    2    0    0 -0.87721543825E+02 -0.30191360313E+02 -0.21367701431E+03  0.26438204070E+03  0.12503363354E+03 0.  0.
          2    1    1    2  501    0  0.13153286441E+03  0.16888931565E+02 -0.27312355755E+04  0.27344531262E+04  0.00000000000E+00 0. -1.
          1    1    1    2  502    0 -0.43811320587E+02  0.13302428748E+02  0.69615721312E+02  0.83323076491E+02  0.00000000000E+00 0. -1.
         22    1    3    3    0    0  0.26741714685E+02 -0.15151815787E+02 -0.14091342555E+02  0.33812168829E+02  0.00000000000E+00 0.  1.
         22    1    3    3    0    0 -0.11446325851E+03 -0.15039544526E+02 -0.19958567175E+03  0.23056987188E+03  0.00000000000E+00 0.  1.
</event>
<event>
 7    1  0.6520971E-006  0.1432852E+03  0.7818608E-02  0.1236224E+00
          2   -1    0    0  502    0  0.00000000000E+00  0.00000000000E+00  0.88165505027E+03  0.88165505027E+03  0.00000000000E+00 0. -1.
          1   -1    0    0  501    0 -0.00000000000E+00 -0.00000000000E+00 -0.71420081211E+03  0.71420081211E+03  0.00000000000E+00 0. -1.
         25    2    1    2    0    0 -0.24098505935E+02  0.12690418609E+03 -0.52976034598E+02  0.18739667921E+03  0.12500257879E+03 0.  0.
          2    1    1    2  501    0  0.12349349638E+03 -0.85255811194E+02 -0.58087178048E+03  0.59994268255E+03  0.00000000000E+00 0. -1.
          1    1    1    2  502    0 -0.99394990450E+02 -0.41648374891E+02  0.80130205323E+03  0.80851650061E+03  0.00000000000E+00 0. -1.
         22    1    3    3    0    0 -0.12983373386E+02 -0.14635886999E+02  0.19816822394E+02  0.27847506577E+02  0.00000000000E+00 0. -1.
         22    1    3    3    0    0 -0.11115132549E+02  0.14154007308E+03 -0.72792856992E+02  0.15954917264E+03  0.00000000000E+00 0. -1.
</event>
<event>
 7    1  0.6520971E-006  0.1454600E+03  0.7818608E-02  0.1343162E+00
          2   -1    0    0  502    0  0.00000000000E+00  0.00000000000E+00  0.19041117431E+04  0.19041117431E+04  0.00000000000E+00 0. -1.
          1   -1    0    0  501    0 -0.00000000000E+00 -0.00000000000E+00 -0.61477124118E+03  0.61477124118E+03  0.00000000000E+00 0. -1.
         25    2    1    2    0    0 -0.17624804931E+03 -0.62622271112E+01  0.38991741371E+01  0.21619873717E+03  0.12499640004E+03 0.  0.
          2    1    1    2  501    0  0.14220205812E+03 -0.12570034844E+02 -0.49838815843E+03  0.51843050409E+03  0.00000000000E+00 0. -1.
          1    1    1    2  502    0  0.34045991197E+02  0.18832261955E+02  0.17838294862E+04  0.17842537430E+04  0.00000000000E+00 0. -1.
         22    1    3    3    0    0 -0.13236742837E+03 -0.12880506048E+02  0.58964013265E+02  0.14547782783E+03  0.00000000000E+00 0.  1.
         22    1    3    3    0    0 -0.43880620939E+02  0.66182789370E+01 -0.55064839128E+02  0.70720909342E+02  0.00000000000E+00 0.  1.
</event>
<event>
 7    1  0.6520971E-006  0.5565377E+02  0.7818608E-02  0.1443228E+00
          2   -1    0    0  502    0  0.00000000000E+00  0.00000000000E+00  0.26375432824E+03  0.26375432824E+03  0.00000000000E+00 0. -1.
          1   -1    0    0  501    0 -0.00000000000E+00 -0.00000000000E+00 -0.13135534306E+04  0.13135534306E+04  0.00000000000E+00 0. -1.
         25    2    1    2    0    0  0.60243844465E+02 -0.92147209311E-01 -0.11058456216E+03  0.17744634507E+03  0.12501572182E+03 0.  0.
          2    1    1    2  501    0 -0.21463395841E+02 -0.40268171705E+02 -0.11656844614E+04  0.11665772442E+04  0.00000000000E+00 0. -1.
          1    1    1    2  502    0 -0.38780448624E+02  0.40360318914E+02  0.22646992125E+03  0.23328416957E+03  0.00000000000E+00 0. -1.
         22    1    3    3    0    0  0.69057207543E+02 -0.50390453474E+02 -0.53468303372E+02  0.10083132043E+03  0.00000000000E+00 0. -1.
         22    1    3    3    0    0 -0.88133630778E+01  0.50298306265E+02 -0.57116258792E+02  0.76615024638E+02  0.00000000000E+00 0. -1.
</event>
<event>
 7    1  0.6520971E-006  0.5357538E+02  0.7818608E-02  0.1506456E+00
          2   -1    0    0  502    0  0.00000000000E+00  0.00000000000E+00  0.19386092754E+03  0.19386092754E+03  0.00000000000E+00 0. -1.
          1   -1    0    0  501    0 -0.00000000000E+00 -0.00000000000E+00 -0.25171908939E+03  0.25171908939E+03  0.00000000000E+00 0. -1.
         25    2    1    2    0    0 -0.35390201196E+02 -0.34092438463E+02  0.52248491805E+02  0.14411629923E+03  0.12499936843E+03 0.  0.
          2    1    1    2  501    0  0.22650871994E+02 -0.20009424229E+02 -0.19645883066E+03  0.19876999574E+03  0.00000000000E+00 0. -1.
          1    1    1    2  502    0  0.12739329203E+02  0.54101862691E+02  0.86352177013E+02  0.10269372196E+03  0.00000000000E+00 0. -1.
         22    1    3    3    0    0  0.34245106396E+02 -0.50396030414E+02  0.12170444089E+02  0.62133782300E+02  0.00000000000E+00 0.  1.
         22    1    3    3    0    0 -0.69635307592E+02  0.16303591951E+02  0.40078047716E+02  0.81982516933E+02  0.00000000000E+00 0.  1.
</event>
<event>
 7    1  0.6520971E-006  0.7794995E+02  0.7818608E-02  0.1370485E+00
          2   -1    0    0  502    0  0.00000000000E+00  0.00000000000E+00  0.22950114439E+04  0.22950114439E+04  0.00000000000E+00 0. -1.
          1   -1    0    0  501    0 -0.00000000000E+00 -0.00000000000E+00 -0.10240386119E+04  0.10240386119E+04  0.00000000000E+00 0. -1.
         25    2    1    2    0    0  0.92868021910E+02 -0.19983882451E+02  0.23767989391E+03  0.28485051559E+03  0.12499703681E+03 0.  0.
          2    1    1    2  501    0 -0.70556431252E+02 -0.33167086866E+02 -0.99852503485E+03  0.10015640323E+04  0.00000000000E+00 0. -1.
          1    1    1    2  502    0 -0.22311590658E+02  0.53150969316E+02  0.20318179730E+04  0.20326355079E+04  0.00000000000E+00 0. -1.
         22    1    3    3    0    0  0.17813152946E+02 -0.65962616304E+02  0.11686878335E+03  0.13537609718E+03  0.00000000000E+00 0.  1.
         22    1    3    3    0    0  0.75054868964E+02  0.45978733853E+02  0.12081111056E+03  0.14947441841E+03  0.00000000000E+00 0.  1.
</event>
<event>
 7    1  0.9675302E-006  0.7537213E+02  0.7818608E-02  0.1467997E+00
          2   -1    0    0  502    0  0.00000000000E+00  0.00000000000E+00  0.19422579171E+04  0.19422579171E+04  0.00000000000E+00 0. -1.
          1   -1    0    0  501    0 -0.00000000000E+00 -0.00000000000E+00 -0.28077180038E+04  0.28077180038E+04  0.00000000000E+00 0. -1.
         25    2    1    2    0    0 -0.50588666951E+02 -0.27983315418E+02 -0.12254269583E+04  0.12331415783E+04  0.12499857183E+03 0.  0.
          2    1    1    2  501    0  0.22953810610E+00 -0.28112860532E+02 -0.15775755181E+04  0.15778260046E+04  0.00000000000E+00 0. -1.
          1    1    1    2  502    0  0.50359128845E+02  0.56096175950E+02  0.19375423897E+04  0.19390083380E+04  0.00000000000E+00 0. -1.
         22    1    3    3    0    0 -0.38180213387E+02 -0.72263091761E+02 -0.53736925732E+03  0.54354889554E+03  0.00000000000E+00 0.  1.
         22    1    3    3    0    0 -0.12408453565E+02  0.44279776343E+02 -0.68805770098E+03  0.68959268281E+03  0.00000000000E+00 0.  1.
</event>
<event>
 7    1  0.6520971E-006  0.6231746E+02  0.7818608E-02  0.1433629E+00
          2   -1    0    0  502    0  0.00000000000E+00  0.00000000000E+00  0.37790335426E+03  0.37790335426E+03  0.00000000000E+00 0. -1.
          1   -1    0    0  501    0 -0.00000000000E+00 -0.00000000000E+00 -0.55175932466E+03  0.55175932466E+03  0.00000000000E+00 0. -1.
         25    2    1    2    0    0  0.43071411800E+01  0.31262244950E+02 -0.28964692529E+03  0.31704303732E+03  0.12500026705E+03 0.  0.
          2    1    1    2  501    0 -0.46893971556E+01 -0.75049952918E+02 -0.24135573024E+03  0.25279848575E+03  0.00000000000E+00 0. -1.
          1    1    1    2  502    0  0.38225597558E+00  0.43787707968E+02  0.35714668513E+03  0.35982115584E+03  0.00000000000E+00 0. -1.
         22    1    3    3    0    0 -0.12354638951E+02  0.41247129816E+02 -0.29400035949E+03  0.29713662549E+03  0.00000000000E+00 0. -1.
         22    1    3    3    0    0  0.16661780131E+02 -0.99848848668E+01  0.43534342058E+01  0.19906411839E+02  0.00000000000E+00 0. -1.
</event>
<event>
 7    1  0.6520971E-006  0.1113319E+03  0.7818608E-02  0.1377709E+00
          2   -1    0    0  502    0  0.00000000000E+00  0.00000000000E+00  0.21684865351E+04  0.21684865351E+04  0.00000000000E+00 0. -1.
          1   -1    0    0  501    0 -0.00000000000E+00 -0.00000000000E+00 -0.52495477824E+03  0.52495477824E+03  0.00000000000E+00 0. -1.
         25    2    1    2    0    0 -0.16673800473E+02  0.14481506574E+03  0.15675018471E+04  0.15792201216E+04  0.12499893147E+03 0.  0.
          2    1    1    2  501    0  0.26356641675E+02 -0.10803712214E+03 -0.51251896586E+03  0.52444483284E+03  0.00000000000E+00 0. -1.
          1    1    1    2  502    0 -0.96828412013E+01 -0.36777943595E+02  0.58854887565E+03  0.58977635895E+03  0.00000000000E+00 0. -1.
         22    1    3    3    0    0  0.32231862783E+02 -0.19242906672E+01  0.15861201033E+03  0.16186527019E+03  0.00000000000E+00 0.  1.
         22    1    3    3    0    0 -0.48905663256E+02  0.14673935640E+03  0.14088898367E+04  0.14173548514E+04  0.00000000000E+00 0.  1.
</event>
<event>
 7    1  0.6520971E-006  0.2400239E+03  0.7818608E-02  0.1182202E+00
          2   -1    0    0  502    0  0.00000000000E+00  0.00000000000E+00  0.19971834581E+04  0.19971834581E+04  0.00000000000E+00 0. -1.
          1   -1    0    0  501    0 -0.00000000000E+00 -0.00000000000E+00 -0.75444868725E+02  0.75444868725E+02  0.00000000000E+00 0. -1.
         25    2    1    2    0    0  0.18704536988E+03  0.11925895421E+03  0.57149200290E+03  0.62564986876E+03  0.12500392132E+03 0.  0.
          2    1    1    2  501    0 -0.25897979364E+03 -0.29978050698E+02  0.33119181499E+03  0.42149405139E+03  0.00000000000E+00 0. -1.
          1    1    1    2  502    0  0.71934423760E+02 -0.89280903513E+02  0.10190547715E+04  0.10254844067E+04  0.00000000000E+00 0. -1.
         22    1    3    3    0    0  0.51974188211E+02  0.90960058371E+02  0.34373502994E+03  0.35934498643E+03  0.00000000000E+00 0. -1.
         22    1    3    3    0    0  0.13507118167E+03  0.28298895840E+02  0.22775697295E+03  0.26630488233E+03  0.00000000000E+00 0. -1.
</event>
<event>
 7    1  0.6520971E-006  0.1101213E+03  0.7818608E-02  0.1338370E+00
          2   -1    0    0  502    0  0.00000000000E+00  0.00000000000E+00  0.34802544813E+03  0.34802544813E+03  0.00000000000E+00 0. -1.
          1   -1    0    0  501    0 -0.00000000000E+00 -0.00000000000E+00 -0.60833148699E+03  0.60833148699E+03  0.00000000000E+00 0. -1.
         25    2    1    2    0    0 -0.11678977322E+03 -0.11651518511E+02 -0.41081279474E+02  0.17630745245E+03  0.12498414801E+03 0.  0.
          2    1    1    2  501    0  0.93036904923E+02  0.59666040469E+02 -0.49087688080E+03  0.50316599067E+03  0.00000000000E+00 0. -1.
          1    1    1    2  502    0  0.23752868297E+02 -0.48014521957E+02  0.27165212141E+03  0.27688349199E+03  0.00000000000E+00 0. -1.
         22    1    3    3    0    0 -0.13511868109E+03 -0.29575313044E+02 -0.52886818264E+02  0.14808366780E+03  0.00000000000E+00 0. -1.
         22    1    3    3    0    0  0.18328907872E+02  0.17923794532E+02  0.11805538790E+02  0.28223784657E+02  0.00000000000E+00 0. -1.
</event>
<event>
 7    1  0.6520971E-006  0.5901820E+02  0.7818608E-02  0.1477869E+00
          2   -1    0    0  502    0  0.00000000000E+00  0.00000000000E+00  0.10759096951E+04  0.10759096951E+04  0.00000000000E+00 0. -1.
          1   -1    0    0  501    0 -0.00000000000E+00 -0.00000000000E+00 -0.18758206081E+03  0.18758206081E+03  0.00000000000E+00 0. -1.
         25    2    1    2    0    0 -0.50825440468E+02 -0.67611053915E+02  0.15104408594E+02  0.15168717546E+03  0.12500550400E+03 0.  0.
          2    1    1    2  501    0  0.45506744102E+02  0.34573806249E+02 -0.11214526020E+03  0.12586807070E+03  0.00000000000E+00 0. -1.
          1    1    1    2  502    0  0.53186963665E+01  0.33037247666E+02  0.98536848594E+03  0.98593650979E+03  0.00000000000E+00 0. -1.
         22    1    3    3    0    0  0.21362454584E+02 -0.29522244352E+02 -0.39301646722E+02  0.53596052210E+02  0.00000000000E+00 0. -1.
         22    1    3    3    0    0 -0.72187895052E+02 -0.38088809563E+02  0.54406055317E+02  0.98091123253E+02  0.00000000000E+00 0. -1.
</event>
<event>
 7    1  0.6520971E-006  0.1849483E+03  0.7818608E-02  0.1202912E+00
          2   -1    0    0  502    0  0.00000000000E+00  0.00000000000E+00  0.71664950171E+03  0.71664950171E+03  0.00000000000E+00 0. -1.
          1   -1    0    0  501    0 -0.00000000000E+00 -0.00000000000E+00 -0.30984676550E+03  0.30984676550E+03  0.00000000000E+00 0. -1.
         25    2    1    2    0    0  0.11784036172E+01 -0.14282334015E+03  0.41677505188E+02  0.19433224032E+03  0.12501243964E+03 0.  0.
          2    1    1    2  501    0 -0.11516255795E+03  0.17516757227E+03 -0.17877280312E+03  0.27551008741E+03  0.00000000000E+00 0. -1.
          1    1    1    2  502    0  0.11398415434E+03 -0.32344232122E+02  0.54389803414E+03  0.55665393947E+03  0.00000000000E+00 0. -1.
         22    1    3    3    0    0 -0.21249545583E+02 -0.14773356073E+03  0.29172440260E+01  0.14928247876E+03  0.00000000000E+00 0.  1.
         22    1    3    3    0    0  0.22427949200E+02  0.49102205825E+01  0.38760261162E+02  0.45049761562E+02  0.00000000000E+00 0.  1.
</event>
<event>
 7    1  0.6520971E-006  0.7861404E+02  0.7818608E-02  0.1341938E+00
          2   -1    0    0  502    0  0.00000000000E+00  0.00000000000E+00  0.69759602596E+02  0.69759602596E+02  0.00000000000E+00 0. -1.
          1   -1    0    0  501    0 -0.00000000000E+00 -0.00000000000E+00 -0.16644444841E+04  0.16644444841E+04  0.00000000000E+00 0. -1.
         25    2    1    2    0    0  0.10284816892E+03 -0.10180532939E+03 -0.47330576684E+03  0.51047587625E+03  0.12500080145E+03 0.  0.
          2    1    1    2  501    0 -0.61526716040E+02  0.41923275503E+02 -0.11448595623E+04  0.11472778718E+04  0.00000000000E+00 0. -1.
          1    1    1    2  502    0 -0.41321452879E+02  0.59882053888E+02  0.23480447672E+02  0.76450338578E+02  0.00000000000E+00 0. -1.
         22    1    3    3    0    0  0.14370565075E+02 -0.84684345141E+02 -0.33157884971E+03  0.34252369995E+03  0.00000000000E+00 0.  1.
         22    1    3    3    0    0  0.88477603843E+02 -0.17120984251E+02 -0.14172691713E+03  0.16795217630E+03  0.00000000000E+00 0.  1.
</event>
<event>
 7    1  0.6520971E-006  0.1151896E+03  0.7818608E-02  0.1327770E+00
          2   -1    0    0  502    0  0.00000000000E+00  0.00000000000E+00  0.30830284153E+03  0.30830284153E+03  0.00000000000E+00 0. -1.
          1   -1    0    0  501    0 -0.00000000000E+00 -0.00000000000E+00 -0.40923462106E+04  0.40923462106E+04  0.00000000000E+00 0. -1.
         25    2    1    2    0    0 -0.10919788479E+03  0.12873699093E+03 -0.30247823908E+04  0.30320671351E+04  0.12500083735E+03 0.  0.
          2    1    1    2  501    0  0.25140229878E+02 -0.50254199186E+02 -0.10522926218E+04  0.10537918568E+04  0.00000000000E+00 0. -1.
          1    1    1    2  502    0  0.84057654917E+02 -0.78482791749E+02  0.29303164345E+03  0.31479006022E+03  0.00000000000E+00 0. -1.
         22    1    3    3    0    0 -0.74335562348E+02  0.26045069403E+02 -0.64133255685E+03  0.64615135220E+03  0.00000000000E+00 0.  1.
         22    1    3    3    0    0 -0.34862322446E+02  0.10269192153E+03 -0.23834498340E+04  0.23859157829E+04  0.00000000000E+00 0.  1.
</event>
<event>
 7    1  0.6520971E-006  0.1898651E+03  0.7818608E-02  0.1265316E+00
          2   -1    0    0  502    0  0.00000000000E+00  0.00000000000E+00  0.14568609345E+03  0.14568609345E+03  0.00000000000E+00 0. -1.
          1   -1    0    0  501    0 -0.00000000000E+00 -0.00000000000E+00 -0.17162899652E+04  0.17162899652E+04  0.00000000000E+00 0. -1.
         25    2    1    2    0    0 -0.13323317707E+03  0.16782864688E+03 -0.11604635801E+04  0.11866839896E+04  0.12500254535E+03 0.  0.
          2    1    1    2  501    0  0.75186334742E+02 -0.14961071117E+03 -0.52186932938E+03  0.54807293929E+03  0.00000000000E+00 0. -1.
          1    1    1    2  502    0  0.58046842324E+02 -0.18217935706E+02  0.11172903775E+03  0.12721912970E+03  0.00000000000E+00 0. -1.
         22    1    3    3    0    0  0.20518217799E+02  0.26683881096E+02 -0.90570583339E+02  0.96623275345E+02  0.00000000000E+00 0. -1.
         22    1    3    3    0    0 -0.15375139487E+03  0.14114476578E+03 -0.10698929967E+04  0.10900607143E+04  0.00000000000E+00 0. -1.
</event>
<event>
 7    1  0.6520971E-006  0.1027665E+03  0.7818608E-02  0.1303745E+00
          2   -1    0    0  502    0  0.00000000000E+00  0.00000000000E+00  0.14278097091E+04  0.14278097091E+04  0.00000000000E+00 0. -1.
          1   -1    0    0  501    0 -0.00000000000E+00 -0.00000000000E+00 -0.26640023449E+02  0.26640023449E+02  0.00000000000E+00 0. -1.
         25    2    1    2    0    0  0.28639639905E+02  0.65859411432E+02  0.39325148005E+03  0.41884299629E+03  0.12500015172E+03 0.  0.
          2    1    1    2  501    0 -0.10037486970E+03 -0.96933944641E+02  0.42142119664E+03  0.44392243587E+03  0.00000000000E+00 0. -1.
          1    1    1    2  502    0  0.71735229799E+02  0.31074533209E+02  0.58649700900E+03  0.59168430043E+03  0.00000000000E+00 0. -1.
         22    1    3    3    0    0  0.20603891743E+02  0.54377290894E+02  0.54169955177E+02  0.79471970932E+02  0.00000000000E+00 0.  1.
         22    1    3    3    0    0  0.80357481622E+01  0.11482120538E+02  0.33908152487E+03  0.33937102536E+03  0.00000000000E+00 0.  1.
</event>
<event>
 7    1  0.6520971E-006  0.1167075E+03  0.7818608E-02  0.1333018E+00
          2   -1    0    0  502    0  0.00000000000E+00  0.00000000000E+00  0.58435324791E+03  0.58435324791E+03  0.00000000000E+00 0. -1.
          1   -1    0    0  501    0 -0.00000000000E+00 -0.00000000000E+00 -0.97120831352E+03  0.97120831352E+03  0.00000000000E+00 0. -1.
         25    2    1    2    0    0  0.11721852499E+03 -0.10827287814E+03  0.57149096826E+02  0.21059862793E+03  0.12499025593E+03 0.  0.
          2    1    1    2  501    0 -0.21383861339E+02  0.48451511657E+02 -0.88659796992E+03  0.88817834852E+03  0.00000000000E+00 0. -1.
          1    1    1    2  502    0 -0.95834663652E+02  0.59821366487E+02  0.44259380749E+03  0.45678458497E+03  0.00000000000E+00 0. -1.
         22    1    3    3    0    0 -0.94871612283E+01 -0.32035296385E+02 -0.24732488268E+02  0.41568767345E+02  0.00000000000E+00 0. -1.
         22    1    3    3    0    0  0.12670568622E+03 -0.76237581759E+02  0.81881585094E+02  0.16902986059E+03  0.00000000000E+00 0. -1.
</event>
<event>
 7    1  0.6520971E-006  0.1599478E+03  0.7818608E-02  0.1262141E+00
          2   -1    0    0  502    0  0.00000000000E+00  0.00000000000E+00  0.71552193023E+03  0.71552193023E+03  0.00000000000E+00 0. -1.
          1   -1    0    0  501    0 -0.00000000000E+00 -0.00000000000E+00 -0.50838980881E+03  0.50838980881E+03  0.00000000000E+00 0. -1.
         25    2    1    2    0    0  0.11959004295E+03  0.90928463003E+02  0.91430323894E+01  0.19564925958E+03  0.12500109590E+03 0.  0.
          2    1    1    2  501    0 -0.16116276567E+03 -0.29114288674E+02 -0.39656952146E+03  0.42905531601E+03  0.00000000000E+00 0. -1.
          1    1    1    2  502    0  0.41572722723E+02 -0.61814174328E+02  0.59455861049E+03  0.59920716345E+03  0.00000000000E+00 0. -1.
         22    1    3    3    0    0 -0.79286803907E+01  0.57443806382E+02 -0.18642573372E+02  0.60911414417E+02  0.00000000000E+00 0.  1.
         22    1    3    3    0    0  0.12751872334E+03  0.33484656621E+02  0.27785605762E+02  0.13473784516E+03  0.00000000000E+00 0.  1.
</event>
<event>
 7    1  0.6520971E-006  0.5352622E+02  0.7818608E-02  0.1427907E+00
          2   -1    0    0  502    0  0.00000000000E+00  0.00000000000E+00  0.21671870720E+04  0.21671870720E+04  0.00000000000E+00 0. -1.
          1   -1    0    0  501    0 -0.00000000000E+00 -0.00000000000E+00 -0.11296234643E+03  0.11296234643E+03  0.00000000000E+00 0. -1.
         25    2    1    2    0    0  0.33050246610E+02  0.41568052724E+02  0.94086202446E+02  0.16521732903E+03  0.12499732202E+03 0.  0.
          2    1    1    2  501    0  0.19539353105E+02 -0.51537499510E+02 -0.67185801407E+02  0.86901277816E+02  0.00000000000E+00 0. -1.
          1    1    1    2  502    0 -0.52589599715E+02  0.99694467853E+01  0.20273243246E+04  0.20280308116E+04  0.00000000000E+00 0. -1.
         22    1    3    3    0    0 -0.21045349346E+02 -0.20203739830E+02 -0.11589375644E+02  0.31391264071E+02  0.00000000000E+00 0.  1.
         22    1    3    3    0    0  0.54095595956E+02  0.61771792554E+02  0.10567557809E+03  0.13382606496E+03  0.00000000000E+00 0.  1.
</event>
<event>
 7    1  0.6520971E-006  0.4568090E+02  0.7818608E-02  0.1548870E+00
          2   -1    0    0  502    0  0.00000000000E+00  0.00000000000E+00  0.10751452733E+04  0.10751452733E+04  0.00000000000E+00 0. -1.
          1   -1    0    0  501    0 -0.00000000000E+00 -0.00000000000E+00 -0.11207546518E+03  0.11207546518E+03  0.00000000000E+00 0. -1.
         25    2    1    2    0    0 -0.20129562075E+02  0.16803739348E+02  0.28438615907E+03  0.31175058741E+03  0.12500150540E+03 0.  0.
          2    1    1    2  501    0  0.45401821751E+02 -0.79751451960E+01 -0.92749240315E+02  0.10357292087E+03  0.00000000000E+00 0. -1.
          1    1    1    2  502    0 -0.25272259676E+02 -0.88285941519E+01  0.77143288939E+03  0.77189723022E+03  0.00000000000E+00 0. -1.
         22    1    3    3    0    0 -0.21345623200E+02  0.58031359306E+01  0.29534683830E+03  0.29617404834E+03  0.00000000000E+00 0. -1.
         22    1    3    3    0    0  0.12160611248E+01  0.11000603417E+02 -0.10960679228E+02  0.15576539068E+02  0.00000000000E+00 0. -1.
</event>
<event>
 7    1  0.6520971E-006  0.3687574E+02  0.7818608E-02  0.1580410E+00
          2   -1    0    0  502    0  0.00000000000E+00  0.00000000000E+00  0.63636787144E+03  0.63636787144E+03  0.00000000000E+00 0. -1.
          1   -1    0    0  501    0 -0.00000000000E+00 -0.00000000000E+00 -0.24370556022E+03  0.24370556022E+03  0.00000000000E+00 0. -1.
         25    2    1    2    0    0  0.40137341047E+02  0.33612125377E+02 -0.48940766814E+02  0.14408800595E+03  0.12500149473E+03 0.  0.
          2    1    1    2  501    0 -0.27172311494E+02  0.85328533160E+00 -0.14535398790E+03  0.14787442107E+03  0.00000000000E+00 0. -1.
          1    1    1    2  502    0 -0.12965029553E+02 -0.34465410708E+02  0.58695706593E+03  0.58811100464E+03  0.00000000000E+00 0. -1.
         22    1    3    3    0    0 -0.39125260033E+02  0.24013015535E+02 -0.44792238358E+02  0.64138564879E+02  0.00000000000E+00 0. -1.
         22    1    3    3    0    0  0.79262601080E+02  0.95991098413E+01 -0.41485284564E+01  0.79949441074E+02  0.00000000000E+00 0. -1.
</event>
<event>
 7    1  0.6520971E-006  0.1220463E+03  0.7818608E-02  0.1353028E+00
          2   -1    0    0  502    0  0.00000000000E+00  0.00000000000E+00  0.18295644972E+04  0.18295644972E+04  0.00000000000E+00 0. -1.
          1   -1    0    0  501    0 -0.00000000000E+00 -0.00000000000E+00 -0.11390531129E+03  0.11390531129E+03  0.00000000000E+00 0. -1.
         25    2    1    2    0    0  0.10795267319E+03  0.25766856196E+02  0.32812934803E+03  0.36825467629E+03  0.12499970820E+03 0.  0.
          2    1    1    2  501    0 -0.12327091769E+03  0.14002788340E+02 -0.52384878791E+02  0.13466986580E+03  0.00000000000E+00 0. -1.
          1    1    1    2  502    0  0.15318244502E+02 -0.39769644536E+02  0.14399147166E+04  0.14405452664E+04  0.00000000000E+00 0. -1.
         22    1    3    3    0    0  0.13285421040E+03  0.37012794719E+01  0.24526437899E+03  0.27895977541E+03  0.00000000000E+00 0.  1.
         22    1    3    3    0    0 -0.24901537213E+02  0.22065576724E+02  0.82864969031E+02  0.89294900886E+02  0.00000000000E+00 0.  1.
</event>
<event>
 7    1  0.6520971E-006  0.7178911E+02  0.7818608E-02  0.1408561E+00
          2   -1    0    0  502    0  0.00000000000E+00  0.00000000000E+00  0.60953097134E+03  0.60953097134E+03  0.00000000000E+00 0. -1.
          1   -1    0    0  501    0 -0.00000000000E+00 -0.00000000000E+00 -0.76119887379E+02  0.76119887379E+02  0.00000000000E+00 0. -1.
         25    2    1    2    0    0 -0.20056796255E+02 -0.41471966214E+02  0.35726996040E+03  0.38129861396E+03  0.12499843738E+03 0.  0.
          2    1    1    2  501    0 -0.29998158031E+02 -0.34979564044E+02 -0.45410060048E+02  0.64695694907E+02  0.00000000000E+00 0. -1.
          1    1    1    2  502    0  0.50054954286E+02  0.76451530258E+02  0.22155118361E+03  0.23965654985E+03  0.00000000000E+00 0. -1.
         22    1    3    3    0    0  0.33133577493E+02 -0.57873422866E+02  0.26737823618E+03  0.27556902622E+03  0.00000000000E+00 0.  1.
         22    1    3    3    0    0 -0.53190373749E+02  0.16401456652E+02  0.89891724225E+02  0.10572958774E+03  0.00000000000E+00 0.  1.
</event>
<event>
 7    1  0.6520971E-006  0.1557944E+03  0.7818608E-02  0.1313128E+00
          2   -1    0    0  502    0  0.00000000000E+00  0.00000000000E+00  0.10117211092E+04  0.10117211092E+04  0.00000000000E+00 0. -1.
          1   -1    0    0  501    0 -0.00000000000E+00 -0.00000000000E+00 -0.83675832496E+03  0.83675832496E+03  0.00000000000E+00 0. -1.
         25    2    1    2    0    0  0.13142429232E+03 -0.49285493611E+01  0.37304264354E+02  0.18523288201E+03  0.12499190865E+03 0.  0.
          2    1    1    2  501    0  0.22804256819E+02  0.41495451637E+02 -0.75507144638E+03  0.75655455572E+03  0.00000000000E+00 0. -1.
          1    1    1    2  502    0 -0.15422854914E+03 -0.36566902276E+02  0.89272996630E+03  0.90669199646E+03  0.00000000000E+00 0. -1.
         22    1    3    3    0    0  0.19833734756E+01 -0.55764139621E+01  0.54351343389E+02  0.54672650303E+02  0.00000000000E+00 0. -1.
         22    1    3    3    0    0  0.12944091885E+03  0.64786460098E+00 -0.17047079035E+02  0.13056023171E+03  0.00000000000E+00 0. -1.
</event>
<event>
 7    1  0.6520971E-006  0.7723089E+02  0.7818608E-02  0.1404547E+00
          2   -1    0    0  502    0  0.00000000000E+00  0.00000000000E+00  0.33504424135E+03  0.33504424135E+03  0.00000000000E+00 0. -1.
          1   -1    0    0  501    0 -0.00000000000E+00 -0.00000000000E+00 -0.16354784609E+04  0.16354784609E+04  0.00000000000E+00 0. -1.
         25    2    1    2    0    0 -0.63207024262E+02 -0.10011183572E+03 -0.26066151449E+02  0.17413302264E+03  0.12500143102E+03 0.  0.
          2    1    1    2  501    0  0.30476296790E+02  0.70401997175E+02 -0.15325409763E+04  0.15344598692E+04  0.00000000000E+00 0. -1.
          1    1    1    2  502    0  0.32730727472E+02  0.29709838546E+02  0.25817290827E+03  0.26192981043E+03  0.00000000000E+00 0. -1.
         22    1    3    3    0    0  0.18444137920E+02 -0.79985301209E+02  0.98813850447E+01  0.82676939974E+02  0.00000000000E+00 0. -1.
         22    1    3    3    0    0 -0.81651162182E+02 -0.20126534512E+02 -0.35947536494E+02  0.91456082669E+02  0.00000000000E+00 0. -1.
</event>
<event>
 7    1  0.6520971E-006  0.4099025E+02  0.7818608E-02  0.1592679E+00
          2   -1    0    0  502    0  0.00000000000E+00  0.00000000000E+00  0.55733501607E+03  0.55733501607E+03  0.00000000000E+00 0. -1.
          1   -1    0    0  501    0 -0.00000000000E+00 -0.00000000000E+00 -0.11483410302E+03  0.11483410302E+03  0.00000000000E+00 0. -1.
         25    2    1    2    0    0 -0.31026373018E+02  0.28656516712E+02  0.32828797054E+03  0.35380999180E+03  0.12499874771E+03 0.  0.
          2    1    1    2  501    0  0.19619303218E+02  0.11392652945E+02 -0.98770702467E+02  0.10134279089E+03  0.00000000000E+00 0. -1.
          1    1    1    2  502    0  0.11407069800E+02 -0.40049169657E+02  0.21298364498E+03  0.21701633639E+03  0.00000000000E+00 0. -1.
         22    1    3    3    0    0 -0.63301862645E+02 -0.23045263357E+02  0.13076790661E+03  0.14710015424E+03  0.00000000000E+00 0. -1.
         22    1    3    3    0    0  0.32275489627E+02  0.51701780069E+02  0.19752006393E+03  0.20670983757E+03  0.00000000000E+00 0. -1.
</event>
<event>
 7    1  0.6520971E-006  0.1004185E+03  0.7818608E-02  0.1290994E+00
          2   -1    0    0  502    0  0.00000000000E+00  0.00000000000E+00  0.27447795423E+03  0.27447795423E+03  0.00000000000E+00 0. -1.
          1   -1    0    0  501    0 -0.00000000000E+00 -0.00000000000E+00 -0.71325639745E+03  0.71325639745E+03  0.00000000000E+00 0. -1.
         25    2    1    2    0    0  0.10612495878E+03 -0.12108623226E+03 -0.10013831663E+03  0.22710766543E+03  0.12500330684E+03 0.  0.
          2    1    1    2  501    0 -0.92066091479E+02  0.32164142411E+02 -0.53542100408E+03  0.54423005142E+03  0.00000000000E+00 0. -1.
          1    1    1    2  502    0 -0.14058867301E+02  0.88922089845E+02  0.19678087750E+03  0.21639663482E+03  0.00000000000E+00 0. -1.
         22    1    3    3    0    0  0.89756503591E+02 -0.14639933929E+03 -0.73176704265E+02  0.18666501153E+03  0.00000000000E+00 0.  1.
         22    1    3    3    0    0  0.16368455189E+02  0.25313107035E+02 -0.26961612369E+02  0.40442653901E+02  0.00000000000E+00 0.  1.
</event>
<event>
 7    1  0.6520971E-006  0.1574001E+03  0.7818608E-02  0.1324794E+00
          2   -1    0    0  502    0  0.00000000000E+00  0.00000000000E+00  0.80124719329E+03  0.80124719329E+03  0.00000000000E+00 0. -1.
          1   -1    0    0  501    0 -0.00000000000E+00 -0.00000000000E+00 -0.71849497434E+03  0.71849497434E+03  0.00000000000E+00 0. -1.
         25    2    1    2    0    0 -0.83490674056E+02  0.15812085262E+03  0.22289886953E+03  0.31189889739E+03  0.12499647781E+03 0.  0.
          2    1    1    2  501    0  0.41855827092E+02 -0.15111556253E+03 -0.66401398863E+03  0.68227736339E+03  0.00000000000E+00 0. -1.
          1    1    1    2  502    0  0.41634846964E+02 -0.70052900921E+01  0.52386733805E+03  0.52556590685E+03  0.00000000000E+00 0. -1.
         22    1    3    3    0    0  0.13521959542E+01 -0.19396778145E+02  0.94999508242E+01  0.21640529151E+02  0.00000000000E+00 0.  1.
         22    1    3    3    0    0 -0.84842870010E+02  0.17751763077E+03  0.21339891871E+03  0.29025836824E+03  0.00000000000E+00 0.  1.
</event>
<event>
 7    1  0.6520971E-006  0.2507238E+03  0.7818608E-02  0.1312607E+00
          2   -1    0    0  502    0  0.00000000000E+00  0.00000000000E+00  0.77375866189E+03  0.77375866189E+03  0.00000000000E+00 0. -1.
          1   -1    0    0  501    0 -0.00000000000E+00 -0.00000000000E+00 -0.14991596538E+03  0.14991596538E+03  0.00000000000E+00 0. -1.
         25    2    1    2    0    0 -0.15662671460E+03 -0.18492506241E+03  0.69664340033E+02  0.28143848831E+03  0.12500118397E+03 0.  0.
          2    1    1    2  501    0  0.15399294642E+02 -0.25232380488E+02 -0.35017700017E+01  0.29766990001E+02  0.00000000000E+00 0. -1.
          1    1    1    2  502    0  0.14122741996E+03  0.21015744290E+03  0.55768012648E+03  0.61246914896E+03  0.00000000000E+00 0. -1.
         22    1    3    3    0    0 -0.10871598243E+03 -0.17227622295E+03  0.96138578663E+02  0.22525738198E+03  0.00000000000E+00 0.  1.
         22    1    3    3    0    0 -0.47910732175E+02 -0.12648839460E+02 -0.26474238630E+02  0.56181106328E+02  0.00000000000E+00 0.  1.
</event>
<event>
 7    1  0.6520971E-006  0.2800206E+02  0.7818608E-02  0.1662443E+00
          2   -1    0    0  502    0  0.00000000000E+00  0.00000000000E+00  0.12567267892E+03  0.12567267892E+03  0.00000000000E+00 0. -1.
          1   -1    0    0  501    0 -0.00000000000E+00 -0.00000000000E+00 -0.29628679900E+03  0.29628679900E+03  0.00000000000E+00 0. -1.
         25    2    1    2    0    0 -0.23505817328E+01 -0.11642504029E+02 -0.14391048535E+03  0.19098718870E+03  0.12499922127E+03 0.  0.
          2    1    1    2  501    0  0.23763338632E+02  0.17276305809E+02 -0.12592683512E+03  0.12930868033E+03  0.00000000000E+00 0. -1.
          1    1    1    2  502    0 -0.21412756900E+02 -0.56338017797E+01  0.99223200385E+02  0.10166360890E+03  0.00000000000E+00 0. -1.
         22    1    3    3    0    0 -0.82415613404E+01  0.54819076502E+02 -0.87660785060E+02  0.10371821305E+03  0.00000000000E+00 0.  1.
         22    1    3    3    0    0  0.58909796075E+01 -0.66461580531E+02 -0.56249700288E+02  0.87268975643E+02  0.00000000000E+00 0.  1.
</event>
<event>
 7    1  0.6520971E-006  0.1559395E+03  0.7818608E-02  0.1219537E+00
          2   -1    0    0  502    0  0.00000000000E+00  0.00000000000E+00  0.17170070919E+04  0.17170070919E+04  0.00000000000E+00 0. -1.
          1   -1    0    0  501    0 -0.00000000000E+00 -0.00000000000E+00 -0.48963324460E+03  0.48963324460E+03  0.00000000000E+00 0. -1.
         25    2    1    2    0    0  0.68614867342E+02  0.13689669596E+02 -0.80535684906E+02  0.16433639168E+03  0.12500018405E+03 0.  0.
          2    1    1    2  501    0  0.67266196183E+02 -0.96600465739E+02 -0.35386141217E+03  0.37292665519E+03  0.00000000000E+00 0. -1.
          1    1    1    2  502    0 -0.13588106352E+03  0.82910796142E+02  0.16617709444E+04  0.16693772896E+04  0.00000000000E+00 0. -1.
         22    1    3    3    0    0  0.82406135518E+02  0.41358357006E+02 -0.93040483618E+02  0.13098784851E+03  0.00000000000E+00 0.  1.
         22    1    3    3    0    0 -0.13791268176E+02 -0.27668687410E+02  0.12504798711E+02  0.33348543172E+02  0.00000000000E+00 0.  1.
</event>
<event>
 7    1  0.6520971E-006  0.3768417E+02  0.7818608E-02  0.1555434E+00
          2   -1    0    0  502    0  0.00000000000E+00  0.00000000000E+00  0.12045313554E+04  0.12045313554E+04  0.00000000000E+00 0. -1.
          1   -1    0    0  501    0 -0.00000000000E+00 -0.00000000000E+00 -0.14609326680E+02  0.14609326680E+02  0.00000000000E+00 0. -1.
         25    2    1    2    0    0  0.44596703045E+02 -0.14927246334E+02  0.35356934121E+03  0.37794621250E+03  0.12498148621E+03 0.  0.
          2    1    1    2  501    0 -0.34029987153E+02 -0.14338324073E+02  0.16330894444E+03  0.16743189331E+03  0.00000000000E+00 0. -1.
          1    1    1    2  502    0 -0.10566715892E+02  0.29265570407E+02  0.67304374310E+03  0.67376257630E+03  0.00000000000E+00 0. -1.
         22    1    3    3    0    0  0.31853010908E+02 -0.12302324466E+02  0.36123465573E+03  0.36284492279E+03  0.00000000000E+00 0.  1.
         22    1    3    3    0    0  0.12743692137E+02 -0.26249218675E+01 -0.76653145269E+01  0.15101289710E+02  0.00000000000E+00 0.  1.
</event>
<event>
 7    1  0.6520971E-006  0.1279325E+03  0.7818608E-02  0.1332116E+00
          2   -1    0    0  502    0  0.00000000000E+00  0.00000000000E+00  0.70852815934E+03  0.70852815934E+03  0.00000000000E+00 0. -1.
          1   -1    0    0  501    0 -0.00000000000E+00 -0.00000000000E+00 -0.15342138285E+03  0.15342138285E+03  0.00000000000E+00 0. -1.
         25    2    1    2    0    0  0.66141476456E+01  0.11344699700E+03  0.17148767083E+02  0.16980037059E+03  0.12499647020E+03 0.  0.
          2    1    1    2  501    0  0.48515560592E+02  0.41974138722E+01 -0.61686572081E+02  0.78591418602E+02  0.00000000000E+00 0. -1.
          1    1    1    2  502    0 -0.55129708237E+02 -0.11764441087E+03  0.59964458149E+03  0.61355775299E+03  0.00000000000E+00 0. -1.
         22    1    3    3    0    0  0.55520336828E+01  0.85270255652E+01  0.56746668021E+02  0.57651709207E+02  0.00000000000E+00 0. -1.
         22    1    3    3    0    0  0.10621139628E+01  0.10491997144E+03 -0.39597900938E+02  0.11214866139E+03  0.00000000000E+00 0. -1.
</event>
<event>
 7    1  0.6520971E-006  0.7338835E+02  0.7818608E-02  0.1520117E+00
          2   -1    0    0  502    0  0.00000000000E+00  0.00000000000E+00  0.53280980971E+03  0.53280980971E+03  0.00000000000E+00 0. -1.
          1   -1    0    0  501    0 -0.00000000000E+00 -0.00000000000E+00 -0.20127219343E+04  0.20127219343E+04  0.00000000000E+00 0. -1.
         25    2    1    2    0    0  0.25964299274E+02  0.76546534068E+02 -0.13342524957E+03  0.19993720485E+03  0.12505627512E+03 0.  0.
          2    1    1    2  501    0 -0.61553930638E+01 -0.73017311208E+02 -0.18451105738E+04  0.18465650398E+04  0.00000000000E+00 0. -1.
          1    1    1    2  502    0 -0.19808906210E+02 -0.35292228593E+01  0.49862369882E+03  0.49902949934E+03  0.00000000000E+00 0. -1.
         22    1    3    3    0    0  0.36402613450E+02  0.29897298171E+01 -0.11870749479E+03  0.12419967017E+03  0.00000000000E+00 0.  1.
         22    1    3    3    0    0 -0.10438314176E+02  0.73556804250E+02 -0.14717754780E+02  0.75737534685E+02  0.00000000000E+00 0.  1.
</event>
<event>
 7    1  0.6520971E-006  0.3932919E+02  0.7818608E-02  0.1536641E+00
          2   -1    0    0  502    0  0.00000000000E+00  0.00000000000E+00  0.26268658077E+04  0.26268658077E+04  0.00000000000E+00 0. -1.
          1   -1    0    0  501    0 -0.00000000000E+00 -0.00000000000E+00 -0.95638851688E+01  0.95638851688E+01  0.00000000000E+00 0. -1.
         25    2    1    2    0    0  0.39739941926E+02 -0.58564673294E+02  0.13478667227E+04  0.13554951143E+04  0.12495286653E+03 0.  0.
          2    1    1    2  501    0 -0.25272883917E+02  0.28172486668E+02  0.59409013974E+02  0.70440319476E+02  0.00000000000E+00 0. -1.
          1    1    1    2  502    0 -0.14467058009E+02  0.30392186626E+02  0.12100261859E+04  0.12104942591E+04  0.00000000000E+00 0. -1.
         22    1    3    3    0    0  0.61726004589E+02 -0.82595662258E+02  0.11800780275E+04  0.11845743092E+04  0.00000000000E+00 0.  1.
         22    1    3    3    0    0 -0.21986062663E+02  0.24030988964E+02  0.16778869517E+03  0.17092080508E+03  0.00000000000E+00 0.  1.
</event>
<event>
 7    1  0.6520971E-006  0.2430858E+03  0.7818608E-02  0.1264521E+00
          2   -1    0    0  502    0  0.00000000000E+00  0.00000000000E+00  0.13988541071E+04  0.13988541071E+04  0.00000000000E+00 0. -1.
          1   -1    0    0  501    0 -0.00000000000E+00 -0.00000000000E+00 -0.50851966232E+03  0.50851966232E+03  0.00000000000E+00 0. -1.
         25    2    1    2    0    0  0.32909202731E+02 -0.22329204619E+03  0.61879910211E+03  0.67042935915E+03  0.12498337216E+03 0.  0.
          2    1    1    2  501    0  0.10325736579E+02  0.24388477830E+03 -0.45100044428E+03  0.51282336790E+03  0.00000000000E+00 0. -1.
          1    1    1    2  502    0 -0.43234939310E+02 -0.20592732110E+02  0.72253578694E+03  0.72412104237E+03  0.00000000000E+00 0. -1.
         22    1    3    3    0    0  0.70692483391E+02 -0.87136863613E+02  0.33699738217E+03  0.35518656478E+03  0.00000000000E+00 0.  1.
         22    1    3    3    0    0 -0.37783280660E+02 -0.13615518258E+03  0.28180171994E+03  0.31524279437E+03  0.00000000000E+00 0.  1.
</event>
<event>
 7    1  0.6520971E-006  0.1887951E+03  0.7818608E-02  0.1276011E+00
          2   -1    0    0  502    0  0.00000000000E+00  0.00000000000E+00  0.11245497081E+04  0.11245497081E+04  0.00000000000E+00 0. -1.
          1   -1    0    0  501    0 -0.00000000000E+00 -0.00000000000E+00 -0.69432845155E+03  0.69432845155E+03  0.00000000000E+00 0. -1.
         25    2    1    2    0    0  0.15775312275E+03 -0.13142197755E+03  0.10537376993E+03  0.26246312162E+03  0.12500189958E+03 0.  0.
          2    1    1    2  501    0  0.12953033659E+02  0.53636333114E+02 -0.60516302589E+03  0.60767337051E+03  0.00000000000E+00 0. -1.
          1    1    1    2  502    0 -0.17070615640E+03  0.77785644438E+02  0.93001051249E+03  0.94874166751E+03  0.00000000000E+00 0. -1.
         22    1    3    3    0    0  0.95550364011E+02 -0.38129001067E+02 -0.77699894051E+01  0.10317008055E+03  0.00000000000E+00 0.  1.
         22    1    3    3    0    0  0.62202758735E+02 -0.93292976484E+02  0.11314375934E+03  0.15929304107E+03  0.00000000000E+00 0.  1.
</event>
<event>
 7    1  0.6520971E-006  0.1002803E+03  0.7818608E-02  0.1427542E+00
          2   -1    0    0  502    0  0.00000000000E+00  0.00000000000E+00  0.63033163368E+02  0.63033163368E+02  0.00000000000E+00 0. -1.
          1   -1    0    0  501    0 -0.00000000000E+00 -0.00000000000E+00 -0.86122889934E+03  0.86122889934E+03  0.00000000000E+00 0. -1.
         25    2    1    2    0    0 -0.69773322140E+02  0.80085313270E+02 -0.47422389062E+03  0.50179425780E+03  0.12500881906E+03 0.  0.
          2    1    1    2  501    0  0.42686752081E+02 -0.88936958453E+02 -0.36185624934E+03  0.37506251021E+03  0.00000000000E+00 0. -1.
          1    1    1    2  502    0  0.27086570059E+02  0.88516451830E+01  0.37884403985E+02  0.47405294697E+02  0.00000000000E+00 0. -1.
         22    1    3    3    0    0 -0.74250221955E+02  0.24764446796E+02 -0.40775825764E+03  0.41520256497E+03  0.00000000000E+00 0. -1.
         22    1    3    3    0    0  0.44768998153E+01  0.55320866474E+02 -0.66465632980E+02  0.86591692828E+02  0.00000000000E+00 0. -1.
</event>
<event>
 7    1  0.6520971E-006  0.5764095E+02  0.7818608E-02  0.1540444E+00
          2   -1    0    0  502    0  0.00000000000E+00  0.00000000000E+00  0.20995793471E+04  0.20995793471E+04  0.00000000000E+00 0. -1.
          1   -1    0    0  501    0 -0.00000000000E+00 -0.00000000000E+00 -0.29474838599E+03  0.29474838599E+03  0.00000000000E+00 0. -1.
         25    2    1    2    0    0 -0.70165864393E+02 -0.37179799781E+02  0.32623986861E+03  0.35827661357E+03  0.12499637563E+03 0.  0.
          2    1    1    2  501    0  0.19543024410E+02  0.10954697067E+02 -0.27781653579E+03  0.27871842915E+03  0.00000000000E+00 0. -1.
          1    1    1    2  502    0  0.50622839983E+02  0.26225102713E+02  0.17564076283E+04  0.17573326904E+04  0.00000000000E+00 0. -1.
         22    1    3    3    0    0  0.17381103692E+02 -0.24844579663E+02  0.13339548219E+02  0.33125510575E+02  0.00000000000E+00 0. -1.
         22    1    3    3    0    0 -0.87546968085E+02 -0.12335220118E+02  0.31290032039E+03  0.32515110299E+03  0.00000000000E+00 0. -1.
</event>
<event>
 7    1  0.6520971E-006  0.1035514E+03  0.7818608E-02  0.1298791E+00
          2   -1    0    0  502    0  0.00000000000E+00  0.00000000000E+00  0.11236830275E+04  0.11236830275E+04  0.00000000000E+00 0. -1.
          1   -1    0    0  501    0 -0.00000000000E+00 -0.00000000000E+00 -0.92422175513E+02  0.92422175513E+02  0.00000000000E+00 0. -1.
         25    2    1    2    0    0  0.87595966670E+02 -0.39045744583E+02  0.60401190930E+03  0.62421934083E+03  0.12498710070E+03 0.  0.
          2    1    1    2  501    0 -0.97163024676E+02 -0.41590538738E+02 -0.43421459707E+02  0.11426219602E+03  0.00000000000E+00 0. -1.
          1    1    1    2  502    0  0.95670580059E+01  0.80636283321E+02  0.47067040239E+03  0.47762366615E+03  0.00000000000E+00 0. -1.
         22    1    3    3    0    0  0.23558247530E+01 -0.63990873286E+02  0.18125062712E+03  0.19222947642E+03  0.00000000000E+00 0.  1.
         22    1    3    3    0    0  0.85240141917E+02  0.24945128703E+02  0.42276128219E+03  0.43198986441E+03  0.00000000000E+00 0.  1.
</event>
<event>
 7    1  0.6520971E-006  0.9272044E+02  0.7818608E-02  0.1357698E+00
          2   -1    0    0  502    0  0.00000000000E+00  0.00000000000E+00  0.15417817833E+03  0.15417817833E+03  0.00000000000E+00 0. -1.
          1   -1    0    0  501    0 -0.00000000000E+00 -0.00000000000E+00 -0.61069427931E+03  0.61069427931E+03  0.00000000000E+00 0. -1.
         25    2    1    2    0    0  0.63986394277E+02  0.27708662898E+00 -0.13698583176E+03  0.19617391272E+03  0.12499900199E+03 0.  0.
          2    1    1    2  501    0 -0.86625238700E+02 -0.49218029636E+02 -0.43233583103E+03  0.44366723702E+03  0.00000000000E+00 0. -1.
          1    1    1    2  502    0  0.22638844423E+02  0.48940943007E+02  0.11280556181E+03  0.12503130789E+03  0.00000000000E+00 0. -1.
         22    1    3    3    0    0 -0.23215515673E+02 -0.69715244844E+01 -0.96973244234E+02  0.99956852786E+02  0.00000000000E+00 0.  1.
         22    1    3    3    0    0  0.87201909950E+02  0.72486111134E+01 -0.40012587527E+02  0.96217059935E+02  0.00000000000E+00 0.  1.
</event>
<event>
 7    1  0.6520971E-006  0.6586638E+02  0.7818608E-02  0.1521294E+00
          2   -1    0    0  502    0  0.00000000000E+00  0.00000000000E+00  0.13237910115E+04  0.13237910115E+04  0.00000000000E+00 0. -1.
          1   -1    0    0  501    0 -0.00000000000E+00 -0.00000000000E+00 -0.54584966863E+03  0.54584966863E+03  0.00000000000E+00 0. -1.
         25    2    1    2    0    0 -0.42392901398E+02  0.24407898337E+02 -0.31178324872E+03  0.33945192893E+03  0.12500365709E+03 0.  0.
          2    1    1    2  501    0 -0.46616443414E+01  0.21749046685E+02 -0.21883882540E+03  0.21996632348E+03  0.00000000000E+00 0. -1.
          1    1    1    2  502    0  0.47054545740E+02 -0.46156945022E+02  0.13085634170E+04  0.13102224277E+04  0.00000000000E+00 0. -1.
         22    1    3    3    0    0 -0.78058281915E+02 -0.15491147376E+02 -0.20753592843E+03  0.22227062921E+03  0.00000000000E+00 0.  1.
         22    1    3    3    0    0  0.35665380517E+02  0.39899045713E+02 -0.10424732029E+03  0.11718129972E+03  0.00000000000E+00 0.  1.
</event>
<event>
 7    1  0.6520971E-006  0.2700063E+03  0.7818608E-02  0.1294131E+00
          2   -1    0    0  502    0  0.00000000000E+00  0.00000000000E+00  0.85266317587E+03  0.85266317587E+03  0.00000000000E+00 0. -1.
          1   -1    0    0  501    0 -0.00000000000E+00 -0.00000000000E+00 -0.48084390751E+03  0.48084390751E+03  0.00000000000E+00 0. -1.
         25    2    1    2    0    0  0.14066408474E+03 -0.20034105640E+03  0.73127915434E+02  0.28442194428E+03  0.12500090702E+03 0.  0.
          2    1    1    2  501    0 -0.16114167495E+03  0.22559961717E+03 -0.32349999851E+03  0.42604468745E+03  0.00000000000E+00 0. -1.
          1    1    1    2  502    0  0.20477590206E+02 -0.25258560773E+02  0.62219135143E+03  0.62304045165E+03  0.00000000000E+00 0. -1.
         22    1    3    3    0    0  0.21027491371E+02 -0.78978490539E+02 -0.27838872295E+02  0.86340953039E+02  0.00000000000E+00 0.  1.
         22    1    3    3    0    0  0.11963659337E+03 -0.12136256586E+03  0.10096678773E+03  0.19808099124E+03  0.00000000000E+00 0.  1.
</event>
<event>
 7    1  0.6520971E-006  0.8135245E+02  0.7818608E-02  0.1371738E+00
          2   -1    0    0  502    0  0.00000000000E+00  0.00000000000E+00  0.24664134182E+04  0.24664134182E+04  0.00000000000E+00 0. -1.
          1   -1    0    0  501    0 -0.00000000000E+00 -0.00000000000E+00 -0.58514462748E+02  0.58514462748E+02  0.00000000000E+00 0. -1.
         25    2    1    2    0    0 -0.16316853075E+02 -0.54158963764E+02  0.10752386423E+03  0.17431440181E+03  0.12499878499E+03 0.  0.
          2    1    1    2  501    0  0.65071639374E+02  0.78880791205E+02  0.80699190727E+02  0.13026456485E+03  0.00000000000E+00 0. -1.
          1    1    1    2  502    0 -0.48754786299E+02 -0.24721827441E+02  0.22196759005E+04  0.22203489143E+04  0.00000000000E+00 0. -1.
         22    1    3    3    0    0  0.46162191222E+02 -0.10993282823E+02  0.80998031615E+02  0.93874817130E+02  0.00000000000E+00 0. -1.
         22    1    3    3    0    0 -0.62479044298E+02 -0.43165680942E+02  0.26525832615E+02  0.80439584680E+02  0.00000000000E+00 0. -1.
</event>
<event>
 7    1  0.6520971E-006  0.1206588E+03  0.7818608E-02  0.1273351E+00
          2   -1    0    0  502    0  0.00000000000E+00  0.00000000000E+00  0.11005627921E+04  0.11005627921E+04  0.00000000000E+00 0. -1.
          1   -1    0    0  501    0 -0.00000000000E+00 -0.00000000000E+00 -0.92917691160E+03  0.92917691160E+03  0.00000000000E+00 0. -1.
         25    2    1    2    0    0 -0.19657310919E+02 -0.50407796040E+02  0.13965473910E+03  0.19507878716E+03  0.12499972509E+03 0.  0.
          2    1    1    2  501    0 -0.80267815634E+02 -0.37439947440E+02 -0.89452430633E+03  0.89889844059E+03  0.00000000000E+00 0. -1.
          1    1    1    2  502    0  0.99925126553E+02  0.87847743479E+02  0.92625544773E+03  0.93576247595E+03  0.00000000000E+00 0. -1.
         22    1    3    3    0    0 -0.39786134678E+02 -0.52530738918E+02  0.13442791383E+02  0.67254172243E+02  0.00000000000E+00 0.  1.
         22    1    3    3    0    0  0.20128823759E+02  0.21229428788E+01  0.12621194771E+03  0.12782461492E+03  0.00000000000E+00 0.  1.
</event>
<event>
 7    1  0.6520971E-006  0.1033043E+03  0.7818608E-02  0.1432502E+00
          2   -1    0    0  502    0  0.00000000000E+00  0.00000000000E+00  0.85981996871E+03  0.85981996871E+03  0.00000000000E+00 0. -1.
          1   -1    0    0  501    0 -0.00000000000E+00 -0.00000000000E+00 -0.15417332421E+04  0.15417332421E+04  0.00000000000E+00 0. -1.
         25    2    1    2    0    0 -0.80135699949E+02  0.21682440455E+02  0.91348894228E+02  0.17567394296E+03  0.12499942052E+03 0.  0.
          2    1    1    2  501    0  0.93417587642E+02 -0.44776924367E+02 -0.14975363685E+04  0.15011152499E+04  0.00000000000E+00 0. -1.
          1    1    1    2  502    0 -0.13281887693E+02  0.23094483912E+02  0.72427420084E+03  0.72476401796E+03  0.00000000000E+00 0. -1.
         22    1    3    3    0    0 -0.67464355948E+02 -0.22833355097E+02 -0.22473201452E+01  0.71259047680E+02  0.00000000000E+00 0.  1.
         22    1    3    3    0    0 -0.12671344002E+02  0.44515795552E+02  0.93596214373E+02  0.10441489528E+03  0.00000000000E+00 0.  1.
</event>
<event>
 7    1  0.6520971E-006  0.5816533E+02  0.7818608E-02  0.1419745E+00
          2   -1    0    0  502    0  0.00000000000E+00  0.00000000000E+00  0.45269295853E+03  0.45269295853E+03  0.00000000000E+00 0. -1.
          1   -1    0    0  501    0 -0.00000000000E+00 -0.00000000000E+00 -0.12626608296E+04  0.12626608296E+04  0.00000000000E+00 0. -1.
         25    2    1    2    0    0 -0.30687517851E+00 -0.96758127585E+02  0.13988271311E+03  0.21108288847E+03  0.12500633164E+03 0.  0.
          2    1    1    2  501    0  0.26490055317E+02  0.51659081690E+02 -0.12239140363E+04  0.12252901501E+04  0.00000000000E+00 0. -1.
          1    1    1    2  502    0 -0.26183180139E+02  0.45099045895E+02  0.27406345208E+03  0.27898074957E+03  0.00000000000E+00 0. -1.
         22    1    3    3    0    0 -0.33099448387E+01 -0.11178859277E+03  0.15394587106E+03  0.19028130866E+03  0.00000000000E+00 0. -1.
         22    1    3    3    0    0  0.30030696602E+01  0.15030465183E+02 -0.14063157952E+02  0.20801579810E+02  0.00000000000E+00 0. -1.
</event>
<event>
 7    1  0.6520971E-006  0.7646446E+02  0.7818608E-02  0.1348845E+00
          2   -1    0    0  502    0  0.00000000000E+00  0.00000000000E+00  0.13015453829E+04  0.13015453829E+04  0.00000000000E+00 0. -1.
          1   -1    0    0  501    0 -0.00000000000E+00 -0.00000000000E+00 -0.20580626698E+03  0.20580626698E+03  0.00000000000E+00 0. -1.
         25    2    1    2    0    0  0.57581589050E+02 -0.11965930421E+03  0.24629132884E+03  0.30646135664E+03  0.12500062387E+03 0.  0.
          2    1    1    2  501    0 -0.29922059334E+01  0.75061801770E+02 -0.16641502635E+03  0.18258474300E+03  0.00000000000E+00 0. -1.
          1    1    1    2  502    0 -0.54589383117E+02  0.44597502436E+02  0.10158628134E+04  0.10183055502E+04  0.00000000000E+00 0. -1.
         22    1    3    3    0    0  0.88413928927E+01 -0.89691689598E+02  0.52286258198E+02  0.10419511604E+03  0.00000000000E+00 0. -1.
         22    1    3    3    0    0  0.48740196158E+02 -0.29967614608E+02  0.19400507065E+03  0.20226624059E+03  0.00000000000E+00 0. -1.
</event>
<event>
 7    1  0.6520971E-006  0.6673002E+02  0.7818608E-02  0.1455620E+00
          2   -1    0    0  502    0  0.00000000000E+00  0.00000000000E+00  0.46617753574E+02  0.46617753574E+02  0.00000000000E+00 0. -1.
          1   -1    0    0  501    0 -0.00000000000E+00 -0.00000000000E+00 -0.18283270618E+04  0.18283270618E+04  0.00000000000E+00 0. -1.
         25    2    1    2    0    0 -0.35575067407E+02  0.79530778827E+01 -0.57123611087E+03  0.58588642604E+03  0.12499349175E+03 0.  0.
          2    1    1    2  501    0  0.70264675346E+02 -0.97104340328E+01 -0.12408737204E+04  0.12428994356E+04  0.00000000000E+00 0. -1.
          1    1    1    2  502    0 -0.34689607939E+02  0.17573561501E+01  0.30400523082E+02  0.46158953663E+02  0.00000000000E+00 0. -1.
         22    1    3    3    0    0 -0.56242244082E+02  0.35150173600E+02 -0.15955211403E+03  0.17278773630E+03  0.00000000000E+00 0.  1.
         22    1    3    3    0    0  0.20667176675E+02 -0.27197095717E+02 -0.41168399685E+03  0.41309868974E+03  0.00000000000E+00 0.  1.
</event>
<event>
 7    1  0.6520971E-006  0.1097347E+03  0.7818608E-02  0.1331812E+00
          2   -1    0    0  502    0  0.00000000000E+00  0.00000000000E+00  0.47402599171E+03  0.47402599171E+03  0.00000000000E+00 0. -1.
          1   -1    0    0  501    0 -0.00000000000E+00 -0.00000000000E+00 -0.14955991514E+04  0.14955991514E+04  0.00000000000E+00 0. -1.
         25    2    1    2    0    0  0.10027581394E+03  0.12051180046E+03 -0.65866863015E+03  0.68851128741E+03  0.12500038253E+03 0.  0.
          2    1    1    2  501    0 -0.12331202079E+02 -0.55572391327E+02 -0.81449371903E+03  0.81648047592E+03  0.00000000000E+00 0. -1.
          1    1    1    2  502    0 -0.87944611862E+02 -0.64939409132E+02  0.45158918945E+03  0.46463337982E+03  0.00000000000E+00 0. -1.
         22    1    3    3    0    0  0.81270696061E+01 -0.21534226328E+02 -0.16535862100E+03  0.16695282478E+03  0.00000000000E+00 0.  1.
         22    1    3    3    0    0  0.92148744335E+02  0.14204602679E+03 -0.49331000915E+03  0.52155846262E+03  0.00000000000E+00 0.  1.
</event>
<event>
 7    1  0.6520971E-006  0.2757124E+03  0.7818608E-02  0.1159496E+00
          2   -1    0    0  502    0  0.00000000000E+00  0.00000000000E+00  0.44897432616E+03  0.44897432616E+03  0.00000000000E+00 0. -1.
          1   -1    0    0  501    0 -0.00000000000E+00 -0.00000000000E+00 -0.52023909388E+03  0.52023909388E+03  0.00000000000E+00 0. -1.
         25    2    1    2    0    0  0.25134890800E+03 -0.72393719346E+01  0.16722070127E+02  0.28130564400E+03  0.12499822263E+03 0.  0.
          2    1    1    2  501    0  0.23277364575E+02  0.12725198781E+03 -0.29603765798E+03  0.32306841233E+03  0.00000000000E+00 0. -1.
          1    1    1    2  502    0 -0.27462627257E+03 -0.12001261588E+03  0.20805082012E+03  0.36483936371E+03  0.00000000000E+00 0. -1.
         22    1    3    3    0    0  0.54493328511E+02 -0.41871508396E+02  0.40896346706E+02  0.79970352265E+02  0.00000000000E+00 0.  1.
         22    1    3    3    0    0  0.19685557949E+03  0.34632136462E+02 -0.24174276579E+02  0.20133529174E+03  0.00000000000E+00 0.  1.
</event>
<event>
 7    1  0.6520971E-006  0.4462594E+02  0.7818608E-02  0.1559716E+00
          2   -1    0    0  502    0  0.00000000000E+00  0.00000000000E+00  0.11146734518E+03  0.11146734518E+03  0.00000000000E+00 0. -1.
          1   -1    0    0  501    0 -0.00000000000E+00 -0.00000000000E+00 -0.11421132902E+04  0.11421132902E+04  0.00000000000E+00 0. -1.
         25    2    1    2    0    0 -0.78242274197E-01  0.28858768160E+02 -0.75230942175E+01  0.12849965451E+03  0.12499091824E+03 0.  0.
          2    1    1    2  501    0 -0.21657975087E+02  0.13590614014E+02 -0.10627607395E+04  0.10630682773E+04  0.00000000000E+00 0. -1.
          1    1    1    2  502    0  0.21736217361E+02 -0.42449382174E+02  0.39637888688E+02  0.62012703632E+02  0.00000000000E+00 0. -1.
         22    1    3    3    0    0  0.51260688303E+02  0.51051376838E+02 -0.46960470582E+01  0.72497959284E+02  0.00000000000E+00 0. -1.
         22    1    3    3    0    0 -0.51338930577E+02 -0.22192608678E+02 -0.28270471592E+01  0.56001695228E+02  0.00000000000E+00 0. -1.
</event>
<event>
 7    1  0.6520971E-006  0.1695505E+03  0.7818608E-02  0.1253897E+00
          2   -1    0    0  502    0  0.00000000000E+00  0.00000000000E+00  0.27654253549E+04  0.27654253549E+04  0.00000000000E+00 0. -1.
          1   -1    0    0  501    0 -0.00000000000E+00 -0.00000000000E+00 -0.40251860190E+03  0.40251860190E+03  0.00000000000E+00 0. -1.
         25    2    1    2    0    0  0.16822870949E+03 -0.10440773875E+03  0.12416249997E+04  0.12635103558E+04  0.12499561874E+03 0.  0.
          2    1    1    2  501    0 -0.99380112387E+02  0.13711914979E+03 -0.37224905072E+03  0.40895895117E+03  0.00000000000E+00 0. -1.
          1    1    1    2  502    0 -0.68848597103E+02 -0.32711411036E+02  0.14935308040E+04  0.14954746498E+04  0.00000000000E+00 0. -1.
         22    1    3    3    0    0 -0.14330075656E+02 -0.34226413540E+02  0.25509710941E+03  0.25778156195E+03  0.00000000000E+00 0. -1.
         22    1    3    3    0    0  0.18255878515E+03 -0.70181325210E+02  0.98652789029E+03  0.10057287938E+04  0.00000000000E+00 0. -1.
</event>
<event>
 7    1  0.6520971E-006  0.4928206E+02  0.7818608E-02  0.1465359E+00
          2   -1    0    0  502    0  0.00000000000E+00  0.00000000000E+00  0.11819414923E+04  0.11819414923E+04  0.00000000000E+00 0. -1.
          1   -1    0    0  501    0 -0.00000000000E+00 -0.00000000000E+00 -0.56214990185E+02  0.56214990185E+02  0.00000000000E+00 0. -1.
         25    2    1    2    0    0 -0.58299353591E+02 -0.43748308118E+02  0.18275572381E+03  0.23310276388E+03  0.12499805938E+03 0.  0.
          2    1    1    2  501    0  0.14535269238E+02  0.45983198001E+02 -0.11499610327E+02  0.49577914316E+02  0.00000000000E+00 0. -1.
          1    1    1    2  502    0  0.43764084353E+02 -0.22348898833E+01  0.95447038859E+03  0.95547580425E+03  0.00000000000E+00 0. -1.
         22    1    3    3    0    0 -0.15965541485E+02 -0.43515725624E+02  0.87521352241E+00  0.46360359039E+02  0.00000000000E+00 0. -1.
         22    1    3    3    0    0 -0.42333812105E+02 -0.23258249344E+00  0.18188051029E+03  0.18674240484E+03  0.00000000000E+00 0. -1.
</event>
<event>
 7    1  0.6520971E-006  0.3506307E+02  0.7818608E-02  0.1564493E+00
          2   -1    0    0  502    0  0.00000000000E+00  0.00000000000E+00  0.21606659199E+04  0.21606659199E+04  0.00000000000E+00 0. -1.
          1   -1    0    0  501    0 -0.00000000000E+00 -0.00000000000E+00 -0.85073220927E+02  0.85073220927E+02  0.00000000000E+00 0. -1.
         25    2    1    2    0    0  0.19653813011E+02 -0.39300154360E+02  0.25946922207E+03  0.29134165264E+03  0.12499962744E+03 0.  0.
          2    1    1    2  501    0  0.13727169018E+02  0.28434533052E+02 -0.65359706707E+02  0.72586838339E+02  0.00000000000E+00 0. -1.
          1    1    1    2  502    0 -0.33380982029E+02  0.10865621308E+02  0.18814831836E+04  0.18818106499E+04  0.00000000000E+00 0. -1.
         22    1    3    3    0    0  0.31590895218E+02 -0.87284038514E+01  0.31452294644E+01  0.32925099284E+02  0.00000000000E+00 0.  1.
         22    1    3    3    0    0 -0.11937082207E+02 -0.30571750509E+02  0.25632399261E+03  0.25841655335E+03  0.00000000000E+00 0.  1.
</event>
<event>
 7    1  0.6520971E-006  0.7873013E+02  0.7818608E-02  0.1420568E+00
          2   -1    0    0  502    0  0.00000000000E+00  0.00000000000E+00  0.10450593244E+04  0.10450593244E+04  0.00000000000E+00 0. -1.
          1   -1    0    0  501    0 -0.00000000000E+00 -0.00000000000E+00 -0.17901385567E+04  0.17901385567E+04  0.00000000000E+00 0. -1.
         25    2    1    2    0    0 -0.53415128675E+02  0.97337000937E+02  0.61972268435E+02  0.17830622401E+03  0.12499951897E+03 0.  0.
          2    1    1    2  501    0  0.22080604882E+02 -0.75340932160E+02 -0.17306851199E+04  0.17324649472E+04  0.00000000000E+00 0. -1.
          1    1    1    2  502    0  0.31334523793E+02 -0.21996068777E+02  0.92363361915E+03  0.92442670983E+03  0.00000000000E+00 0. -1.
         22    1    3    3    0    0 -0.75125867700E+02  0.49152629864E+02 -0.85450335192E+01  0.90182562716E+02  0.00000000000E+00 0.  1.
         22    1    3    3    0    0  0.21710739026E+02  0.48184371073E+02  0.70517301955E+02  0.88123661293E+02  0.00000000000E+00 0.  1.
</event>
<event>
 7    1  0.6520971E-006  0.1582667E+03  0.7818608E-02  0.1285823E+00
          2   -1    0    0  502    0  0.00000000000E+00  0.00000000000E+00  0.12994374912E+03  0.12994374912E+03  0.00000000000E+00 0. -1.
          1   -1    0    0  501    0 -0.00000000000E+00 -0.00000000000E+00 -0.11256842644E+04  0.11256842644E+04  0.00000000000E+00 0. -1.
         25    2    1    2    0    0  0.65845222650E+02  0.17013287386E+03 -0.18352477817E+03  0.28738180419E+03  0.12500467617E+03 0.  0.
          2    1    1    2  501    0 -0.99361265833E+02 -0.12041189711E+03 -0.87064081742E+03  0.88452649427E+03  0.00000000000E+00 0. -1.
          1    1    1    2  502    0  0.33516043182E+02 -0.49720976746E+02  0.58425080310E+02  0.83719715052E+02  0.00000000000E+00 0. -1.
         22    1    3    3    0    0  0.51449873470E+02  0.11003766460E+03 -0.18972128823E+03  0.22527659514E+03  0.00000000000E+00 0.  1.
         22    1    3    3    0    0  0.14395349180E+02  0.60095209257E+02  0.61965100643E+01  0.62105209046E+02  0.00000000000E+00 0.  1.
</event>
<event>
 7    1  0.6520971E-006  0.4815325E+02  0.7818608E-02  0.1490877E+00
          2   -1    0    0  502    0  0.00000000000E+00  0.00000000000E+00  0.63147308704E+03  0.63147308704E+03  0.00000000000E+00 0. -1.
          1   -1    0    0  501    0 -0.00000000000E+00 -0.00000000000E+00 -0.84022397726E+02  0.84022397726E+02  0.00000000000E+00 0. -1.
         25    2    1    2    0    0 -0.61305458533E+02  0.28649918768E+02  0.35552529029E+02  0.14652978538E+03  0.12501127386E+03 0.  0.
          2    1    1    2  501    0  0.45437608706E+02  0.52537126526E+01 -0.90897155871E+01  0.46634758614E+02  0.00000000000E+00 0. -1.
          1    1    1    2  502    0  0.15867849827E+02 -0.33903631421E+02  0.52098787587E+03  0.52233094077E+03  0.00000000000E+00 0. -1.
         22    1    3    3    0    0 -0.65781038131E+02 -0.26007494260E+02 -0.14586266009E+02  0.72223914955E+02  0.00000000000E+00 0. -1.
         22    1    3    3    0    0  0.44755795985E+01  0.54657413028E+02  0.50138795038E+02  0.74305870424E+02  0.00000000000E+00 0. -1.
</event>
<event>
 7    1  0.6520971E-006  0.6674043E+02  0.7818608E-02  0.1490822E+00
          2   -1    0    0  502    0  0.00000000000E+00  0.00000000000E+00  0.21062169520E+04  0.21062169520E+04  0.00000000000E+00 0. -1.
          1   -1    0    0  501    0 -0.00000000000E+00 -0.00000000000E+00 -0.20295986580E+03  0.20295986580E+03  0.00000000000E+00 0. -1.
         25    2    1    2    0    0 -0.44426136296E+02  0.22333400692E+02  0.13241159982E+04  0.13309320252E+04  0.12499766678E+03 0.  0.
          2    1    1    2  501    0 -0.20118887269E+02  0.18034048448E+02 -0.19676580161E+03  0.19861212756E+03  0.00000000000E+00 0. -1.
          1    1    1    2  502    0  0.64545023565E+02 -0.40367449139E+02  0.77590688963E+03  0.77963266504E+03  0.00000000000E+00 0. -1.
         22    1    3    3    0    0 -0.89506594799E+01 -0.39341697680E+02  0.17396840469E+03  0.17858580378E+03  0.00000000000E+00 0.  1.
         22    1    3    3    0    0 -0.35475476816E+02  0.61675098371E+02  0.11501475935E+04  0.11523462214E+04  0.00000000000E+00 0.  1.
</event>
<event>
 7    1  0.6520971E-006  0.1177326E+03  0.7818608E-02  0.1306613E+00
          2   -1    0    0  502    0  0.00000000000E+00  0.00000000000E+00  0.26473277068E+04  0.26473277068E+04  0.00000000000E+00 0. -1.
          1   -1    0    0  501    0 -0.00000000000E+00 -0.00000000000E+00 -0.28845358125E+02  0.28845358125E+02  0.00000000000E+00 0. -1.
         25    2    1    2    0    0 -0.16016324290E+03  0.86533692509E+01  0.64581137116E+03  0.67707045426E+03  0.12499971095E+03 0.  0.
          2    1    1    2  501    0  0.10225307732E+03  0.23981559788E+02  0.20643788975E+03  0.23161910404E+03  0.00000000000E+00 0. -1.
          1    1    1    2  502    0  0.57910165583E+02 -0.32634929039E+02  0.17662330878E+04  0.17674835067E+04  0.00000000000E+00 0. -1.
         22    1    3    3    0    0 -0.48203082742E+02  0.47647038874E+02  0.38029922562E+03  0.38629170132E+03  0.00000000000E+00 0.  1.
         22    1    3    3    0    0 -0.11196016016E+03 -0.38993669624E+02  0.26551214553E+03  0.29077875294E+03  0.00000000000E+00 0.  1.
</event>
<event>
 7    1  0.6520971E-006  0.2139088E+03  0.7818608E-02  0.1170129E+00
          2   -1    0    0  502    0  0.00000000000E+00  0.00000000000E+00  0.30322138535E+04  0.30322138535E+04  0.00000000000E+00 0. -1.
          1   -1    0    0  501    0 -0.00000000000E+00 -0.00000000000E+00 -0.24191778283E+04  0.24191778283E+04  0.00000000000E+00 0. -1.
         25    2    1    2    0    0 -0.26873758617E+03  0.19918220743E+01 -0.51053687370E+03  0.59033625716E+03  0.12500055813E+03 0.  0.
          2    1    1    2  501    0  0.17778188041E+03  0.11410494411E+03 -0.18609444248E+04  0.18728962831E+04  0.00000000000E+00 0. -1.
          1    1    1    2  502    0  0.90955705764E+02 -0.11609676618E+03  0.29845173237E+04  0.29881591415E+04  0.00000000000E+00 0. -1.
         22    1    3    3    0    0 -0.22923819106E+03  0.47803011448E+02 -0.42981984599E+03  0.48946948440E+03  0.00000000000E+00 0. -1.
         22    1    3    3    0    0 -0.39499395108E+02 -0.45811189374E+02 -0.80717027708E+02  0.10086677276E+03  0.00000000000E+00 0. -1.
</event>
<event>
 7    1  0.6520971E-006  0.6387633E+02  0.7818608E-02  0.1406629E+00
          2   -1    0    0  502    0  0.00000000000E+00  0.00000000000E+00  0.18964838909E+03  0.18964838909E+03  0.00000000000E+00 0. -1.
          1   -1    0    0  501    0 -0.00000000000E+00 -0.00000000000E+00 -0.17346372860E+04  0.17346372860E+04  0.00000000000E+00 0. -1.
         25    2    1    2    0    0 -0.11904195364E+02  0.78278609033E+02  0.27735617837E+02  0.15054565450E+03  0.12500191635E+03 0.  0.
          2    1    1    2  501    0 -0.34593769738E+02 -0.53733442596E+02 -0.16657009583E+04  0.16669264213E+04  0.00000000000E+00 0. -1.
          1    1    1    2  502    0  0.46497965103E+02 -0.24545166437E+02  0.92976443476E+02  0.10681359930E+03  0.00000000000E+00 0. -1.
         22    1    3    3    0    0 -0.61989457674E+02  0.74439769197E+02  0.10497633427E+02  0.97438043948E+02  0.00000000000E+00 0. -1.
         22    1    3    3    0    0  0.50085262309E+02  0.38388398361E+01  0.17237984410E+02  0.53107610551E+02  0.00000000000E+00 0. -1.
</event>
<event>
 7    1  0.6520971E-006  0.6874898E+02  0.7818608E-02  0.1464019E+00
          2   -1    0    0  502    0  0.00000000000E+00  0.00000000000E+00  0.14212231036E+04  0.14212231036E+04  0.00000000000E+00 0. -1.
          1   -1    0    0  501    0 -0.00000000000E+00 -0.00000000000E+00 -0.23573464776E+03  0.23573464776E+03  0.00000000000E+00 0. -1.
         25    2    1    2    0    0  0.22674583362E+02  0.51413640045E+02  0.40665934022E+03  0.42913184777E+03  0.12499929866E+03 0.  0.
          2    1    1    2  501    0 -0.25200784504E+02  0.19260053466E+02 -0.22212428344E+03  0.22437741975E+03  0.00000000000E+00 0. -1.
          1    1    1    2  502    0  0.25262011421E+01 -0.70673693511E+02  0.10009533990E+04  0.10034484838E+04  0.00000000000E+00 0. -1.
         22    1    3    3    0    0 -0.47758673031E+01 -0.32589892506E+02  0.39230860448E+02  0.51224705110E+02  0.00000000000E+00 0.  1.
         22    1    3    3    0    0  0.27450450665E+02  0.84003532552E+02  0.36742847978E+03  0.37790714266E+03  0.00000000000E+00 0.  1.
</event>
<event>
 7    1  0.6520971E-006  0.1089265E+03  0.7818608E-02  0.1276962E+00
          2   -1    0    0  502    0  0.00000000000E+00  0.00000000000E+00  0.12168532930E+04  0.12168532930E+04  0.00000000000E+00 0. -1.
          1   -1    0    0  501    0 -0.00000000000E+00 -0.00000000000E+00 -0.17377099914E+04  0.17377099914E+04  0.00000000000E+00 0. -1.
         25    2    1    2    0    0  0.13761712697E+02  0.46443591500E+02 -0.12152680124E+03  0.18094273891E+03  0.12500047767E+03 0.  0.
          2    1    1    2  501    0 -0.10812798623E+03 -0.37694917115E+02 -0.15825117296E+04  0.15866492815E+04  0.00000000000E+00 0. -1.
          1    1    1    2  502    0  0.94366273532E+02 -0.87486743848E+01  0.11831818325E+04  0.11869712640E+04  0.00000000000E+00 0. -1.
         22    1    3    3    0    0  0.14559634474E+02  0.75487976596E+02 -0.26097212956E+02  0.81187943013E+02  0.00000000000E+00 0. -1.
         22    1    3    3    0    0 -0.79792177678E+00 -0.29044385096E+02 -0.95429588280E+02  0.99754795895E+02  0.00000000000E+00 0. -1.
</event>
<event>
 7    1  0.6520971E-006  0.1667041E+03  0.7818608E-02  0.1241998E+00
          2   -1    0    0  502    0  0.00000000000E+00  0.00000000000E+00  0.29012817048E+04  0.29012817048E+04  0.00000000000E+00 0. -1.
          1   -1    0    0  501    0 -0.00000000000E+00 -0.00000000000E+00 -0.61124280265E+03  0.61124280265E+03  0.00000000000E+00 0. -1.
         25    2    1    2    0    0 -0.17447599914E+03 -0.15618936438E+03  0.12271841350E+03  0.29244104542E+03  0.12499985685E+03 0.  0.
          2    1    1    2  501    0  0.26559747308E+02  0.83210186381E+02 -0.52021220201E+03  0.52749416150E+03  0.00000000000E+00 0. -1.
          1    1    1    2  502    0  0.14791625183E+03  0.72979178003E+02  0.26875326907E+04  0.26925893005E+04  0.00000000000E+00 0. -1.
         22    1    3    3    0    0 -0.16203094542E+03 -0.77624872800E+02  0.54775081912E+02  0.18782959764E+03  0.00000000000E+00 0.  1.
         22    1    3    3    0    0 -0.12445053719E+02 -0.78564491585E+02  0.67943331588E+02  0.10461144778E+03  0.00000000000E+00 0.  1.
</event>
<event>
 7    1  0.6520971E-006  0.5700734E+02  0.7818608E-02  0.1507603E+00
          2   -1    0    0  502    0  0.00000000000E+00  0.00000000000E+00  0.12298872929E+03  0.12298872929E+03  0.00000000000E+00 0. -1.
          1   -1    0    0  501    0 -0.00000000000E+00 -0.00000000000E+00 -0.33818673547E+03  0.33818673547E+03  0.00000000000E+00 0. -1.
         25    2    1    2    0    0 -0.32942429640E+02  0.24864354357E+02 -0.14326582186E+03  0.19455930532E+03  0.12499915114E+03 0.  0.
          2    1    1    2  501    0 -0.24169239155E+02 -0.14495477982E+02 -0.15927253419E+03  0.16174675005E+03  0.00000000000E+00 0. -1.
          1    1    1    2  502    0  0.57111668795E+02 -0.10368876375E+02  0.87340349877E+02  0.10486940939E+03  0.00000000000E+00 0. -1.
         22    1    3    3    0    0 -0.37489427216E+02  0.16339435824E+02  0.90932694779E+01  0.41894174605E+02  0.00000000000E+00 0. -1.
         22    1    3    3    0    0  0.45469975760E+01  0.85249185327E+01 -0.15235909134E+03  0.15266513072E+03  0.00000000000E+00 0. -1.
</event>
<event>
 7    1  0.1235358E-005  0.5993144E+02  0.7818608E-02  0.1405782E+00
          2   -1    0    0  502    0  0.00000000000E+00  0.00000000000E+00  0.26886596178E+04  0.26886596178E+04  0.00000000000E+00 0. -1.
          1   -1    0    0  501    0 -0.00000000000E+00 -0.00000000000E+00 -0.11585881417E+04  0.11585881417E+04  0.00000000000E+00 0. -1.
         25    2    1    2    0    0 -0.43750576698E+01 -0.53169102112E+02 -0.33815581820E+03  0.36444451536E+03  0.12499741138E+03 0.  0.
          2    1    1    2  501    0  0.53295360904E+02  0.18494371043E+02 -0.80596594077E+03  0.80793782863E+03  0.00000000000E+00 0. -1.
          1    1    1    2  502    0 -0.48920303235E+02  0.34674731069E+02  0.26741932350E+04  0.26748654155E+04  0.00000000000E+00 0. -1.
         22    1    3    3    0    0  0.44526957966E+02 -0.18657761274E+02 -0.47635043137E+02  0.67822263130E+02  0.00000000000E+00 0. -1.
         22    1    3    3    0    0 -0.48902015636E+02 -0.34511340838E+02 -0.29052077506E+03  0.29662225223E+03  0.00000000000E+00 0. -1.
</event>
<event>
 7    1  0.6520971E-006  0.3554651E+02  0.7818608E-02  0.1578665E+00
          2   -1    0    0  502    0  0.00000000000E+00  0.00000000000E+00  0.23358281089E+02  0.23358281089E+02  0.00000000000E+00 0. -1.
          1   -1    0    0  501    0 -0.00000000000E+00 -0.00000000000E+00 -0.17826234161E+04  0.17826234161E+04  0.00000000000E+00 0. -1.
         25    2    1    2    0    0  0.65325961444E+01  0.45492897694E+01 -0.59170141066E+03  0.60481358486E+03  0.12500216877E+03 0.  0.
          2    1    1    2  501    0  0.23389807206E+02  0.16297864426E+02 -0.11641953620E+04  0.11645443506E+04  0.00000000000E+00 0. -1.
          1    1    1    2  502    0 -0.29922403350E+02 -0.20847154195E+02 -0.33683623063E+01  0.36623761753E+02  0.00000000000E+00 0. -1.
         22    1    3    3    0    0  0.11217229665E+02 -0.69808298330E+01 -0.59221036328E+03  0.59235772351E+03  0.00000000000E+00 0.  1.
         22    1    3    3    0    0 -0.46846335205E+01  0.11530119602E+02  0.50895261181E+00  0.12455861352E+02  0.00000000000E+00 0.  1.
</event>
<event>
 7    1  0.6520971E-006  0.7631146E+02  0.7818608E-02  0.1352543E+00
          2   -1    0    0  502    0  0.00000000000E+00  0.00000000000E+00  0.66404806062E+03  0.66404806062E+03  0.00000000000E+00 0. -1.
          1   -1    0    0  501    0 -0.00000000000E+00 -0.00000000000E+00 -0.40521299626E+03  0.40521299626E+03  0.00000000000E+00 0. -1.
         25    2    1    2    0    0 -0.89212356939E+01  0.88770441360E+02 -0.18138567451E+03  0.23768355056E+03  0.12503170632E+03 0.  0.
          2    1    1    2  501    0  0.63374370035E+02 -0.47310407099E+02 -0.18574540087E+03  0.20188100292E+03  0.00000000000E+00 0. -1.
          1    1    1    2  502    0 -0.54453134341E+02 -0.41460034262E+02  0.62596613974E+03  0.62969650339E+03  0.00000000000E+00 0. -1.
         22    1    3    3    0    0  0.13351557467E+02  0.18202017537E+02 -0.15868137703E+03  0.16027899721E+03  0.00000000000E+00 0. -1.
         22    1    3    3    0    0 -0.22272793161E+02  0.70568423823E+02 -0.22704297476E+02  0.77404553354E+02  0.00000000000E+00 0. -1.
</event>
<event>
 7    1  0.6520971E-006  0.1346320E+03  0.7818608E-02  0.1424603E+00
          2   -1    0    0  502    0  0.00000000000E+00  0.00000000000E+00  0.66194078307E+02  0.66194078307E+02  0.00000000000E+00 0. -1.
          1   -1    0    0  501    0 -0.00000000000E+00 -0.00000000000E+00 -0.15377102162E+04  0.15377102162E+04  0.00000000000E+00 0. -1.
         25    2    1    2    0    0  0.11776371401E+03 -0.71685392172E+02 -0.82410088484E+03  0.84485122464E+03  0.12499694236E+03 0.  0.
          2    1    1    2  501    0 -0.15301114054E+02 -0.15396074532E+02 -0.62178502659E+03  0.62216379073E+03  0.00000000000E+00 0. -1.
          1    1    1    2  502    0 -0.10246259996E+03  0.87081466704E+02 -0.25630226465E+02  0.13688927914E+03  0.00000000000E+00 0. -1.
         22    1    3    3    0    0  0.24086583454E+02 -0.77404720040E+01 -0.18592539286E+02  0.31396829879E+02  0.00000000000E+00 0.  1.
         22    1    3    3    0    0  0.93677130559E+02 -0.63944920168E+02 -0.80550834555E+03  0.81345439477E+03  0.00000000000E+00 0.  1.
</event>
<event>
 7    1  0.6520971E-006  0.8023633E+02  0.7818608E-02  0.1399868E+00
          2   -1    0    0  502    0  0.00000000000E+00  0.00000000000E+00  0.20543476769E+04  0.20543476769E+04  0.00000000000E+00 0. -1.
          1   -1    0    0  501    0 -0.00000000000E+00 -0.00000000000E+00 -0.75477149865E+02  0.75477149865E+02  0.00000000000E+00 0. -1.
         25    2    1    2    0    0  0.18894986343E+02 -0.60285527739E+02  0.41559068966E+03  0.43855525088E+03  0.12499488542E+03 0.  0.
          2    1    1    2  501    0  0.43689883470E+02  0.63471133969E+01 -0.55199412180E+02  0.70682861226E+02  0.00000000000E+00 0. -1.
          1    1    1    2  502    0 -0.62584869813E+02  0.53938414342E+02  0.16184792495E+04  0.16205867146E+04  0.00000000000E+00 0. -1.
         22    1    3    3    0    0  0.70823741430E+02 -0.50909792954E+02  0.26525344886E+03  0.27922607597E+03  0.00000000000E+00 0.  1.
         22    1    3    3    0    0 -0.51928755087E+02 -0.93757347854E+01  0.15033724079E+03  0.15932917491E+03  0.00000000000E+00 0.  1.
</event>
<event>
 7    1  0.6520971E-006  0.5913164E+02  0.7818608E-02  0.1433694E+00
          2   -1    0    0  502    0  0.00000000000E+00  0.00000000000E+00  0.11657357284E+04  0.11657357284E+04  0.00000000000E+00 0. -1.
          1   -1    0    0  501    0 -0.00000000000E+00 -0.00000000000E+00 -0.24562599121E+02  0.24562599121E+02  0.00000000000E+00 0. -1.
         25    2    1    2    0    0 -0.83608612916E+02 -0.38618137540E+02  0.89939162254E+03  0.91269467178E+03  0.12499804997E+03 0.  0.
          2    1    1    2  501    0  0.57605092110E+02  0.52049843313E+00  0.38819750481E+02  0.69466470926E+02  0.00000000000E+00 0. -1.
          1    1    1    2  502    0  0.26003520807E+02  0.38097639106E+02  0.20296175623E+03  0.20813718479E+03  0.00000000000E+00 0. -1.
         22    1    3    3    0    0 -0.10229532236E+03 -0.91765730877E+01  0.43353148390E+03  0.44553124470E+03  0.00000000000E+00 0.  1.
         22    1    3    3    0    0  0.18686709443E+02 -0.29441564452E+02  0.46586013864E+03  0.46716342708E+03  0.00000000000E+00 0.  1.
</event>
<event>
 7    1  0.6520971E-006  0.1111292E+03  0.7818608E-02  0.1362489E+00
          2   -1    0    0  502    0  0.00000000000E+00  0.00000000000E+00  0.21751255196E+04  0.21751255196E+04  0.00000000000E+00 0. -1.
          1   -1    0    0  501    0 -0.00000000000E+00 -0.00000000000E+00 -0.35595753276E+03  0.35595753276E+03  0.00000000000E+00 0. -1.
         25    2    1    2    0    0  0.11709371090E+03 -0.34286602616E+02  0.85717137234E+03  0.87478892008E+03  0.12500553943E+03 0.  0.
          2    1    1    2  501    0 -0.88713429707E+02  0.66877191512E+02 -0.33789189712E+03  0.35568745479E+03  0.00000000000E+00 0. -1.
          1    1    1    2  502    0 -0.28380281196E+02 -0.32590588895E+02  0.12998885117E+04  0.13006066775E+04  0.00000000000E+00 0. -1.
         22    1    3    3    0    0  0.93141432343E+02 -0.57555613645E+02  0.35482336669E+03  0.37133219175E+03  0.00000000000E+00 0.  1.
         22    1    3    3    0    0  0.23952278559E+02  0.23269011029E+02  0.50234800564E+03  0.50345672833E+03  0.00000000000E+00 0.  1.
</event>
<event>
 7    1  0.6520971E-006  0.2489498E+02  0.7818608E-02  0.1674241E+00
          2   -1    0    0  502    0  0.00000000000E+00  0.00000000000E+00  0.47944227636E+03  0.47944227636E+03  0.00000000000E+00 0. -1.
          1   -1    0    0  501    0 -0.00000000000E+00 -0.00000000000E+00 -0.63573942383E+03  0.63573942383E+03  0.00000000000E+00 0. -1.
         25    2    1    2    0    0  0.79802507728E+01 -0.20714094592E+02  0.36315551108E+03  0.38471160366E+03  0.12501333786E+03 0.  0.
          2    1    1    2  501    0 -0.24535350792E+02  0.42688419698E+01 -0.62341949821E+03  0.62391672296E+03  0.00000000000E+00 0. -1.
          1    1    1    2  502    0  0.16555100020E+02  0.16445252622E+02  0.10396683965E+03  0.10655337356E+03  0.00000000000E+00 0. -1.
         22    1    3    3    0    0  0.41398870588E+02 -0.32043632598E+02  0.60498815338E+02  0.80004796939E+02  0.00000000000E+00 0.  1.
         22    1    3    3    0    0 -0.33418619815E+02  0.11329538006E+02  0.30265669574E+03  0.30470680672E+03  0.00000000000E+00 0.  1.
</event>
<event>
 7    1  0.6520971E-006  0.1130329E+03  0.7818608E-02  0.1308019E+00
          2   -1    0    0  502    0  0.00000000000E+00  0.00000000000E+00  0.58180565729E+03  0.58180565729E+03  0.00000000000E+00 0. -1.
          1   -1    0    0  501    0 -0.00000000000E+00 -0.00000000000E+00 -0.18406763294E+04  0.18406763294E+04  0.00000000000E+00 0. -1.
         25    2    1    2    0    0  0.70128962906E+02  0.11326772941E+03  0.49282305636E+02  0.18921149031E+03  0.12499836979E+03 0.  0.
          2    1    1    2  501    0 -0.17743922679E+01 -0.11299424372E+03 -0.17663708756E+04  0.17699821801E+04  0.00000000000E+00 0. -1.
          1    1    1    2  502    0 -0.68354570638E+02 -0.27348569500E+00  0.45821789786E+03  0.46328831632E+03  0.00000000000E+00 0. -1.
         22    1    3    3    0    0  0.53789508779E+02  0.13913325016E+03  0.27568856066E+02  0.15169513631E+03  0.00000000000E+00 0. -1.
         22    1    3    3    0    0  0.16339454127E+02 -0.25865520752E+02  0.21713449570E+02  0.37516353996E+02  0.00000000000E+00 0. -1.
</event>
<event>
 7    1  0.6520971E-006  0.3719252E+02  0.7818608E-02  0.1535814E+00
          2   -1    0    0  502    0  0.00000000000E+00  0.00000000000E+00  0.18130532659E+04  0.18130532659E+04  0.00000000000E+00 0. -1.
          1   -1    0    0  501    0 -0.00000000000E+00 -0.00000000000E+00 -0.32010265326E+03  0.32010265326E+03  0.00000000000E+00 0. -1.
         25    2    1    2    0    0 -0.46306779103E+02 -0.11556216677E+02  0.16397589767E+03  0.21163867850E+03  0.12499988514E+03 0.  0.
          2    1    1    2  501    0  0.15388246517E+02  0.32309154178E+02 -0.29497638008E+03  0.29713926765E+03  0.00000000000E+00 0. -1.
          1    1    1    2  502    0  0.30918532587E+02 -0.20752937501E+02  0.16239510951E+04  0.16243779731E+04  0.00000000000E+00 0. -1.
         22    1    3    3    0    0 -0.18986089688E+02 -0.61309025771E+02  0.13129384440E+03  0.14614151300E+03  0.00000000000E+00 0. -1.
         22    1    3    3    0    0 -0.27320689415E+02  0.49752809094E+02  0.32682053263E+02  0.65497165498E+02  0.00000000000E+00 0. -1.
</event>
<event>
 7    1  0.6520971E-006  0.4584938E+02  0.7818608E-02  0.1506762E+00
          2   -1    0    0  502    0  0.00000000000E+00  0.00000000000E+00  0.25439923620E+04  0.25439923620E+04  0.00000000000E+00 0. -1.
          1   -1    0    0  501    0 -0.00000000000E+00 -0.00000000000E+00 -0.14696807388E+03  0.14696807388E+03  0.00000000000E+00 0. -1.
         25    2    1    2    0    0  0.20729396460E+02  0.29290401096E+02  0.62382440437E+02  0.14423856438E+03  0.12500223640E+03 0.  0.
          2    1    1    2  501    0  0.25020276902E+02 -0.24819747847E+02 -0.10288909729E+03  0.10875753069E+03  0.00000000000E+00 0. -1.
          1    1    1    2  502    0 -0.45749673363E+02 -0.44706532487E+01  0.24375309450E+04  0.24379643408E+04  0.00000000000E+00 0. -1.
         22    1    3    3    0    0 -0.14745644816E+01  0.41296284641E+01  0.96373848024E+02  0.96473554691E+02  0.00000000000E+00 0. -1.
         22    1    3    3    0    0  0.22203960942E+02  0.25160772632E+02 -0.33991407587E+02  0.47765009690E+02  0.00000000000E+00 0. -1.
</event>
<event>
 7    1  0.6520971E-006  0.2008927E+03  0.7818608E-02  0.1298442E+00
          2   -1    0    0  502    0  0.00000000000E+00  0.00000000000E+00  0.78439657864E+03  0.78439657864E+03  0.00000000000E+00 0. -1.
          1   -1    0    0  501    0 -0.00000000000E+00 -0.00000000000E+00 -0.41229565234E+03  0.41229565234E+03  0.00000000000E+00 0. -1.
         25    2    1    2    0    0 -0.21178800008E+03 -0.31023365905E+02 -0.34220948616E+02  0.25022771363E+03  0.12500491643E+03 0.  0.
          2    1    1    2  501    0  0.18655065807E+03  0.64583811714E+02 -0.23321473987E+03  0.30555086591E+03  0.00000000000E+00 0. -1.
          1    1    1    2  502    0  0.25237342015E+02 -0.33560445810E+02  0.63953661479E+03  0.64091365145E+03  0.00000000000E+00 0. -1.
         22    1    3    3    0    0 -0.93953479032E+02 -0.74019132070E+02 -0.35575756997E+02  0.12478670851E+03  0.00000000000E+00 0. -1.
         22    1    3    3    0    0 -0.11783452105E+03  0.42995766165E+02  0.13548083806E+01  0.12544100512E+03  0.00000000000E+00 0. -1.
</event>
<event>
 7    1  0.6520971E-006  0.1182735E+03  0.7818608E-02  0.1430057E+00
          2   -1    0    0  502    0  0.00000000000E+00  0.00000000000E+00  0.15617246750E+04  0.15617246750E+04  0.00000000000E+00 0. -1.
          1   -1    0    0  501    0 -0.00000000000E+00 -0.00000000000E+00 -0.50682826506E+02  0.50682826506E+02  0.00000000000E+00 0. -1.
         25    2    1    2    0    0 -0.34926188248E+02  0.12353576223E+03  0.52182259724E+03  0.55172884907E+03  0.12499990692E+03 0.  0.
          2    1    1    2  501    0  0.12425293663E+02 -0.11608031641E+03  0.60188705026E+02  0.13134575742E+03  0.00000000000E+00 0. -1.
          1    1    1    2  502    0  0.22500894586E+02 -0.74554458246E+01  0.92903054620E+03  0.92933289498E+03  0.00000000000E+00 0. -1.
         22    1    3    3    0    0  0.45686113383E+01  0.13377977987E+03  0.44562027388E+03  0.46529058684E+03  0.00000000000E+00 0. -1.
         22    1    3    3    0    0 -0.39494799587E+02 -0.10244017634E+02  0.76202323359E+02  0.86438262228E+02  0.00000000000E+00 0. -1.
</event>
<event>
 7    1  0.6520971E-006  0.4161590E+03  0.7818608E-02  0.1121461E+00
          2   -1    0    0  502    0  0.00000000000E+00  0.00000000000E+00  0.54051112321E+03  0.54051112321E+03  0.00000000000E+00 0. -1.
          1   -1    0    0  501    0 -0.00000000000E+00 -0.00000000000E+00 -0.70978858235E+03  0.70978858235E+03  0.00000000000E+00 0. -1.
         25    2    1    2    0    0  0.13069433321E+03 -0.29209759742E+03 -0.22754635857E+03  0.41207412116E+03  0.12500288348E+03 0.  0.
          2    1    1    2  501    0  0.86433530125E+02 -0.10442363751E+03 -0.25460397978E+03  0.28844104722E+03  0.00000000000E+00 0. -1.
          1    1    1    2  502    0 -0.21712786334E+03  0.39652123493E+03  0.31287287920E+03  0.54978453718E+03  0.00000000000E+00 0. -1.
         22    1    3    3    0    0  0.11669553832E+03 -0.23883400581E+03 -0.23707925736E+03  0.35618268524E+03  0.00000000000E+00 0.  1.
         22    1    3    3    0    0  0.13998794895E+02 -0.53263591613E+02  0.95328987906E+01  0.55891435922E+02  0.00000000000E+00 0.  1.
</event>
<event>
 7    1  0.6520971E-006  0.1122843E+03  0.7818608E-02  0.1333409E+00
          2   -1    0    0  502    0  0.00000000000E+00  0.00000000000E+00  0.10213345172E+04  0.10213345172E+04  0.00000000000E+00 0. -1.
          1   -1    0    0  501    0 -0.00000000000E+00 -0.00000000000E+00 -0.37892787819E+03  0.37892787819E+03  0.00000000000E+00 0. -1.
         25    2    1    2    0    0  0.13925384601E+03  0.52775789720E+02 -0.16542959002E+03  0.25527965396E+03  0.12499533936E+03 0.  0.
          2    1    1    2  501    0 -0.99626128518E+02 -0.14840248259E+02 -0.15267413784E+03  0.18290705513E+03  0.00000000000E+00 0. -1.
          1    1    1    2  502    0 -0.39627717489E+02 -0.37935541460E+02  0.96051036691E+03  0.96207568634E+03  0.00000000000E+00 0. -1.
         22    1    3    3    0    0  0.28974703121E+02  0.67512156242E+02 -0.10648768827E+03  0.12937176050E+03  0.00000000000E+00 0.  1.
         22    1    3    3    0    0  0.11027914289E+03 -0.14736366522E+02 -0.58941901754E+02  0.12590789346E+03  0.00000000000E+00 0.  1.
</event>
<event>
 7    1  0.6520971E-006  0.1349186E+03  0.7818608E-02  0.1403457E+00
          2   -1    0    0  502    0  0.00000000000E+00  0.00000000000E+00  0.80063251627E+03  0.80063251627E+03  0.00000000000E+00 0. -1.
          1   -1    0    0  501    0 -0.00000000000E+00 -0.00000000000E+00 -0.11269671667E+04  0.11269671667E+04  0.00000000000E+00 0. -1.
         25    2    1    2    0    0 -0.45695778497E+02  0.13032381278E+03 -0.14029579755E+03  0.23319397362E+03  0.12499647263E+03 0.  0.
          2    1    1    2  501    0  0.67333749422E+02 -0.11679088438E+03 -0.93517150849E+03  0.94483844904E+03  0.00000000000E+00 0. -1.
          1    1    1    2  502    0 -0.21637970926E+02 -0.13532928400E+02  0.74913265564E+03  0.74956726028E+03  0.00000000000E+00 0. -1.
         22    1    3    3    0    0 -0.84756817330E+02  0.53906929243E+02 -0.75223979564E+02  0.12549231931E+03  0.00000000000E+00 0.  1.
         22    1    3    3    0    0  0.39061038833E+02  0.76416883537E+02 -0.65071817990E+02  0.10770165431E+03  0.00000000000E+00 0.  1.
</event>
<event>
 7    1  0.6520971E-006  0.7452466E+02  0.7818608E-02  0.1479097E+00
          2   -1    0    0  502    0  0.00000000000E+00  0.00000000000E+00  0.62583878210E+03  0.62583878210E+03  0.00000000000E+00 0. -1.
          1   -1    0    0  501    0 -0.00000000000E+00 -0.00000000000E+00 -0.11462597978E+03  0.11462597978E+03  0.00000000000E+00 0. -1.
         25    2    1    2    0    0 -0.15127023668E+02  0.79354006882E+02  0.87848893575E+02  0.17282272985E+03  0.12499753037E+03 0.  0.
          2    1    1    2  501    0 -0.10463960526E+02 -0.73416740235E+02 -0.52621958361E+02  0.90931747582E+02  0.00000000000E+00 0. -1.
          1    1    1    2  502    0  0.25590984194E+02 -0.59372666476E+01  0.47598586711E+03  0.47671028444E+03  0.00000000000E+00 0. -1.
         22    1    3    3    0    0 -0.52184314931E+02  0.33627821813E+02  0.95049290915E+02  0.11352709293E+03  0.00000000000E+00 0.  1.
         22    1    3    3    0    0  0.37057291263E+02  0.45726185070E+02 -0.72003973404E+01  0.59295636928E+02  0.00000000000E+00 0.  1.
</event>
<event>
 7    1  0.6520971E-006  0.7740195E+02  0.7818608E-02  0.1508578E+00
          2   -1    0    0  502    0  0.00000000000E+00  0.00000000000E+00  0.91255181927E+03  0.91255181927E+03  0.00000000000E+00 0. -1.
          1   -1    0    0  501    0 -0.00000000000E+00 -0.00000000000E+00 -0.52680611030E+03  0.52680611030E+03  0.00000000000E+00 0. -1.
         25    2    1    2    0    0 -0.43132858050E+02  0.86950696701E+02  0.26288782954E+03  0.30684791623E+03  0.12499906270E+03 0.  0.
          2    1    1    2  501    0  0.29810153455E+02 -0.71212572420E+02 -0.50170347549E+03  0.50760836581E+03  0.00000000000E+00 0. -1.
          1    1    1    2  502    0  0.13322704595E+02 -0.15738124281E+02  0.62456135492E+03  0.62490164752E+03  0.00000000000E+00 0. -1.
         22    1    3    3    0    0  0.36755084557E+02  0.23331952675E+02  0.30930089328E+02  0.53403995003E+02  0.00000000000E+00 0. -1.
         22    1    3    3    0    0 -0.79887942606E+02  0.63618744026E+02  0.23195774021E+03  0.25344392123E+03  0.00000000000E+00 0. -1.
</event>
<event>
 7    1  0.6520971E-006  0.3855627E+02  0.7818608E-02  0.1545993E+00
          2   -1    0    0  502    0  0.00000000000E+00  0.00000000000E+00  0.35753963521E+03  0.35753963521E+03  0.00000000000E+00 0. -1.
          1   -1    0    0  501    0 -0.00000000000E+00 -0.00000000000E+00 -0.61944044211E+03  0.61944044211E+03  0.00000000000E+00 0. -1.
         25    2    1    2    0    0 -0.31434115163E+02  0.54419758021E+02 -0.25700782537E+03  0.29262254575E+03  0.12500127329E+03 0.  0.
          2    1    1    2  501    0  0.30203510151E+02 -0.22132816261E+02 -0.34283531275E+03  0.34487412957E+03  0.00000000000E+00 0. -1.
          1    1    1    2  502    0  0.12306050122E+01 -0.32286941759E+02  0.33794233122E+03  0.33948340199E+03  0.00000000000E+00 0. -1.
         22    1    3    3    0    0 -0.15515476114E+02 -0.15364887839E+02  0.38060533291E+01  0.22165193870E+02  0.00000000000E+00 0. -1.
         22    1    3    3    0    0 -0.15918639049E+02  0.69784645859E+02 -0.26081387870E+03  0.27045735188E+03  0.00000000000E+00 0. -1.
</event>
<event>
 7    1  0.6520971E-006  0.9919425E+02  0.7818608E-02  0.1339790E+00
          2   -1    0    0  502    0  0.00000000000E+00  0.00000000000E+00  0.12126239352E+04  0.12126239352E+04  0.00000000000E+00 0. -1.
          1   -1    0    0  501    0 -0.00000000000E+00 -0.00000000000E+00 -0.54747894256E+03  0.54747894256E+03  0.00000000000E+00 0. -1.
         25    2    1    2    0    0  0.99991626901E+02 -0.10684436094E+03  0.78377518021E+03  0.80705844121E+03  0.12500300602E+03 0.  0.
          2    1    1    2  501    0 -0.85434312599E+02  0.49935125322E+02 -0.52915996616E+03  0.53833336168E+03  0.00000000000E+00 0. -1.
          1    1    1    2  502    0 -0.14557314302E+02  0.56909235620E+02  0.41052977855E+03  0.41471107481E+03  0.00000000000E+00 0. -1.
         22    1    3    3    0    0  0.44851316494E+02 -0.93125576372E+02  0.25372744701E+03  0.27397377782E+03  0.00000000000E+00 0.  1.
         22    1    3    3    0    0  0.55140310407E+02 -0.13718784570E+02  0.53004773320E+03  0.53308466340E+03  0.00000000000E+00 0.  1.
</event>
<event>
 7    1  0.6520971E-006  0.9964631E+02  0.7818608E-02  0.1360876E+00
          2   -1    0    0  502    0  0.00000000000E+00  0.00000000000E+00  0.19675059139E+03  0.19675059139E+03  0.00000000000E+00 0. -1.
          1   -1    0    0  501    0 -0.00000000000E+00 -0.00000000000E+00 -0.28101169709E+04  0.28101169709E+04  0.00000000000E+00 0. -1.
         25    2    1    2    0    0 -0.60365061780E+02 -0.27620227813E+00 -0.75808967934E+03  0.77069380402E+03  0.12499984260E+03 0.  0.
          2    1    1    2  501    0  0.10833998122E+03 -0.89374738431E+01 -0.20411221457E+04  0.20440149323E+04  0.00000000000E+00 0. -1.
          1    1    1    2  502    0 -0.47974919443E+02  0.92136761212E+01  0.18584544558E+03  0.19215882589E+03  0.00000000000E+00 0. -1.
         22    1    3    3    0    0 -0.68748125781E+02  0.27775301923E+02 -0.22710519166E+03  0.23890278415E+03  0.00000000000E+00 0. -1.
         22    1    3    3    0    0  0.83830640009E+01 -0.28051504201E+02 -0.53098448768E+03  0.53179101986E+03  0.00000000000E+00 0. -1.
</event>
<event>
 7    1  0.6520971E-006  0.1235588E+03  0.7818608E-02  0.1241976E+00
          2   -1    0    0  502    0  0.00000000000E+00  0.00000000000E+00  0.16101812867E+04  0.16101812867E+04  0.00000000000E+00 0. -1.
          1   -1    0    0  501    0 -0.00000000000E+00 -0.00000000000E+00 -0.62005465789E+03  0.62005465789E+03  0.00000000000E+00 0. -1.
         25    2    1    2    0    0  0.65894115291E+02  0.16554075785E+03  0.51629430775E+03  0.56029480860E+03  0.12499873351E+03 0.  0.
          2    1    1    2  501    0 -0.10989513691E+03 -0.56188499390E+02 -0.58839129379E+03  0.60119747437E+03  0.00000000000E+00 0. -1.
          1    1    1    2  502    0  0.44001021621E+02 -0.10935225846E+03  0.10622236149E+04  0.10687436617E+04  0.00000000000E+00 0. -1.
         22    1    3    3    0    0 -0.19568263942E+02  0.93456516557E+02  0.15454434308E+03  0.18166175002E+03  0.00000000000E+00 0.  1.
         22    1    3    3    0    0  0.85462379233E+02  0.72084241297E+02  0.36174996467E+03  0.37863305858E+03  0.00000000000E+00 0.  1.
</event>
<event>
 7    1  0.6520971E-006  0.1438896E+03  0.7818608E-02  0.1363435E+00
          2   -1    0    0  502    0  0.00000000000E+00  0.00000000000E+00  0.94540621307E+03  0.94540621307E+03  0.00000000000E+00 0. -1.
          1   -1    0    0  501    0 -0.00000000000E+00 -0.00000000000E+00 -0.66241155255E+03  0.66241155255E+03  0.00000000000E+00 0. -1.
         25    2    1    2    0    0  0.84663186450E+02  0.82061068681E+02 -0.82138875564E+02  0.19047089920E+03  0.12502197579E+03 0.  0.
          2    1    1    2  501    0  0.38267386794E+01  0.32891391770E+02 -0.51967305772E+03  0.52072696733E+03  0.00000000000E+00 0. -1.
          1    1    1    2  502    0 -0.88489925129E+02 -0.11495246045E+03  0.88480659381E+03  0.89661989910E+03  0.00000000000E+00 0. -1.
         22    1    3    3    0    0  0.66338512917E+02  0.55360862643E+02 -0.11532522398E+03  0.14410250066E+03  0.00000000000E+00 0. -1.
         22    1    3    3    0    0  0.18324673532E+02  0.26700206038E+02  0.33186348418E+02  0.46368398548E+02  0.00000000000E+00 0. -1.
</event>
<event>
 7    1  0.6520971E-006  0.1699693E+03  0.7818608E-02  0.1351803E+00
          2   -1    0    0  502    0  0.00000000000E+00  0.00000000000E+00  0.27971715445E+03  0.27971715445E+03  0.00000000000E+00 0. -1.
          1   -1    0    0  501    0 -0.00000000000E+00 -0.00000000000E+00 -0.77686150203E+03  0.77686150203E+03  0.00000000000E+00 0. -1.
         25    2    1    2    0    0  0.89005653982E+02 -0.14461766369E+03  0.11196825516E+02  0.21115500761E+03  0.12499917298E+03 0.  0.
          2    1    1    2  501    0  0.25381447758E+02  0.17661894429E+02 -0.63309179097E+03  0.63384649261E+03  0.00000000000E+00 0. -1.
          1    1    1    2  502    0 -0.11438710174E+03  0.12695576926E+03  0.12475061787E+03  0.21157715627E+03  0.00000000000E+00 0. -1.
         22    1    3    3    0    0  0.10351646753E+03 -0.15148684621E+03 -0.10947032577E+02  0.18380359394E+03  0.00000000000E+00 0.  1.
         22    1    3    3    0    0 -0.14510813552E+02  0.68691825136E+01  0.22143858093E+02  0.27351413667E+02  0.00000000000E+00 0.  1.
</event>
<event>
 7    1  0.6520971E-006  0.2709085E+03  0.7818608E-02  0.1223103E+00
          2   -1    0    0  502    0  0.00000000000E+00  0.00000000000E+00  0.17382216224E+04  0.17382216224E+04  0.00000000000E+00 0. -1.
          1   -1    0    0  501    0 -0.00000000000E+00 -0.00000000000E+00 -0.73428734906E+03  0.73428734906E+03  0.00000000000E+00 0. -1.
         25    2    1    2    0    0 -0.27975448838E+03  0.86307842071E+02  0.46659875749E+02  0.32174992850E+03  0.12503701498E+03 0.  0.
          2    1    1    2  501    0  0.26735442229E+03 -0.22223371479E+02 -0.56585581620E+03  0.62623084408E+03  0.00000000000E+00 0. -1.
          1    1    1    2  502    0  0.12400066085E+02 -0.64084470591E+02  0.15231302138E+04  0.15245281989E+04  0.00000000000E+00 0. -1.
         22    1    3    3    0    0  0.90246790042E+01 -0.96749779520E+01 -0.25789143523E+01  0.13479644978E+02  0.00000000000E+00 0.  1.
         22    1    3    3    0    0 -0.28877916738E+03  0.95982820023E+02  0.49238790101E+02  0.30827028352E+03  0.00000000000E+00 0.  1.
</event>
<event>
 7    1  0.6520971E-006  0.2777693E+02  0.7818608E-02  0.1653562E+00
          2   -1    0    0  502    0  0.00000000000E+00  0.00000000000E+00  0.62947811611E+03  0.62947811611E+03  0.00000000000E+00 0. -1.
          1   -1    0    0  501    0 -0.00000000000E+00 -0.00000000000E+00 -0.97920564353E+03  0.97920564353E+03  0.00000000000E+00 0. -1.
         25    2    1    2    0    0  0.86029714390E+01 -0.60826370616E+00  0.17923896676E+03  0.21869082218E+03  0.12499874958E+03 0.  0.
          2    1    1    2  501    0 -0.18712977177E+02 -0.20558327957E+02 -0.95895861094E+03  0.95936147403E+03  0.00000000000E+00 0. -1.
          1    1    1    2  502    0  0.10110005738E+02  0.21166591663E+02  0.42999211676E+03  0.43063146343E+03  0.00000000000E+00 0. -1.
         22    1    3    3    0    0 -0.45893706277E+02 -0.27010332897E+02  0.13053585352E+03  0.14098013836E+03  0.00000000000E+00 0.  1.
         22    1    3    3    0    0  0.54496677716E+02  0.26402069191E+02  0.48703113244E+02  0.77710683817E+02  0.00000000000E+00 0.  1.
</event>
<event>
 7    1  0.6520971E-006  0.4988255E+02  0.7818608E-02  0.1564809E+00
          2   -1    0    0  502    0  0.00000000000E+00  0.00000000000E+00  0.15261520877E+03  0.15261520877E+03  0.00000000000E+00 0. -1.
          1   -1    0    0  501    0 -0.00000000000E+00 -0.00000000000E+00 -0.13667067728E+04  0.13667067728E+04  0.00000000000E+00 0. -1.
         25    2    1    2    0    0 -0.40861881947E+02  0.15096236329E+02 -0.21323532283E+03  0.25098367005E+03  0.12500363986E+03 0.  0.
          2    1    1    2  501    0  0.63500855342E+01  0.21220195075E+02 -0.11297931066E+04  0.11300102141E+04  0.00000000000E+00 0. -1.
          1    1    1    2  502    0  0.34511796413E+02 -0.36316431404E+02  0.12893686539E+03  0.13832809743E+03  0.00000000000E+00 0. -1.
         22    1    3    3    0    0 -0.67373611565E+02  0.48910953941E+02 -0.17357590167E+03  0.19250994414E+03  0.00000000000E+00 0.  1.
         22    1    3    3    0    0  0.26511729618E+02 -0.33814717612E+02 -0.39659421160E+02  0.58473725905E+02  0.00000000000E+00 0.  1.
</event>
<event>
 7    1  0.6520971E-006  0.2055390E+03  0.7818608E-02  0.1182291E+00
          2   -1    0    0  502    0  0.00000000000E+00  0.00000000000E+00  0.12547617253E+04  0.12547617253E+04  0.00000000000E+00 0. -1.
          1   -1    0    0  501    0 -0.00000000000E+00 -0.00000000000E+00 -0.29076116646E+03  0.29076116646E+03  0.00000000000E+00 0. -1.
         25    2    1    2    0    0 -0.95775824362E+01 -0.78502944389E+02 -0.17654086703E+03  0.23031363365E+03  0.12499299881E+03 0.  0.
          2    1    1    2  501    0 -0.46169112266E+02 -0.12553679870E+03 -0.20269591290E+02  0.13528462990E+03  0.00000000000E+00 0. -1.
          1    1    1    2  502    0  0.55746694702E+02  0.20403974309E+03  0.11608110171E+04  0.11799246282E+04  0.00000000000E+00 0. -1.
         22    1    3    3    0    0 -0.12047716470E+02 -0.12548893043E+02 -0.16174165992E+03  0.16267448092E+03  0.00000000000E+00 0.  1.
         22    1    3    3    0    0  0.24701340336E+01 -0.65954051346E+02 -0.14799207108E+02  0.67639152731E+02  0.00000000000E+00 0.  1.
</event>
<event>
 7    1  0.6520971E-006  0.1101339E+03  0.7818608E-02  0.1399470E+00
          2   -1    0    0  502    0  0.00000000000E+00  0.00000000000E+00  0.15014274313E+04  0.15014274313E+04  0.00000000000E+00 0. -1.
          1   -1    0    0  501    0 -0.00000000000E+00 -0.00000000000E+00 -0.40854030807E+03  0.40854030807E+03  0.00000000000E+00 0. -1.
         25    2    1    2    0    0  0.86511234428E+02  0.38033095311E+01  0.63956150211E+02  0.16496715342E+03  0.12500045485E+03 0.  0.
          2    1    1    2  501    0  0.23172049246E+02 -0.22452550662E+02 -0.35507097273E+03  0.35653394870E+03  0.00000000000E+00 0. -1.
          1    1    1    2  502    0 -0.10968328367E+03  0.18649241131E+02  0.13840019458E+04  0.13884666373E+04  0.00000000000E+00 0. -1.
         22    1    3    3    0    0  0.32861088484E+02 -0.79333217214E+01 -0.36951953974E+02  0.50082288610E+02  0.00000000000E+00 0. -1.
         22    1    3    3    0    0  0.53650145943E+02  0.11736631252E+02  0.10090810418E+03  0.11488486481E+03  0.00000000000E+00 0. -1.
</event>
<event>
 7    1  0.6520971E-006  0.8975335E+02  0.7818608E-02  0.1426909E+00
          2   -1    0    0  502    0  0.00000000000E+00  0.00000000000E+00  0.18888867044E+03  0.18888867044E+03  0.00000000000E+00 0. -1.
          1   -1    0    0  501    0 -0.00000000000E+00 -0.00000000000E+00 -0.30187275161E+04  0.30187275161E+04  0.00000000000E+00 0. -1.
         25    2    1    2    0    0  0.58556772484E+02 -0.49739182272E+02  0.60779295504E+02  0.15877438708E+03  0.12494919517E+03 0.  0.
          2    1    1    2  501    0 -0.84393363257E+02  0.30871915735E+02 -0.29657870004E+04  0.29671480999E+04  0.00000000000E+00 0. -1.
          1    1    1    2  502    0  0.25836590773E+02  0.18867266538E+02  0.75168859180E+02  0.81693699634E+02  0.00000000000E+00 0. -1.
         22    1    3    3    0    0  0.45664549629E+02  0.29452263040E+02  0.56554945183E+02  0.78429259308E+02  0.00000000000E+00 0.  1.
         22    1    3    3    0    0  0.12892222855E+02 -0.79191445313E+02  0.42243503208E+01  0.80345127771E+02  0.00000000000E+00 0.  1.
</event>
<event>
 7    1  0.6520971E-006  0.2025030E+03  0.7818608E-02  0.1282123E+00
          2   -1    0    0  502    0  0.00000000000E+00  0.00000000000E+00  0.57113454051E+03  0.57113454051E+03  0.00000000000E+00 0. -1.
          1   -1    0    0  501    0 -0.00000000000E+00 -0.00000000000E+00 -0.35433678594E+03  0.35433678594E+03  0.00000000000E+00 0. -1.
         25    2    1    2    0    0 -0.56207666056E+02 -0.22526598062E+03  0.12533370858E+03  0.29195060631E+03  0.12499021668E+03 0.  0.
          2    1    1    2  501    0  0.16713562342E+02  0.19705935943E+03 -0.23290392450E+03  0.30554209587E+03  0.00000000000E+00 0. -1.
          1    1    1    2  502    0  0.39494103714E+02  0.28206621194E+02  0.32436797048E+03  0.32797862427E+03  0.00000000000E+00 0. -1.
         22    1    3    3    0    0  0.26168213443E+01 -0.18465768066E+03  0.12006991793E+03  0.22027730698E+03  0.00000000000E+00 0.  1.
         22    1    3    3    0    0 -0.58824487401E+02 -0.40608299960E+02  0.52637906593E+01  0.71673299322E+02  0.00000000000E+00 0.  1.
</event>
<event>
 7    1  0.6520971E-006  0.9531039E+02  0.7818608E-02  0.1467048E+00
          2   -1    0    0  502    0  0.00000000000E+00  0.00000000000E+00  0.34556173812E+03  0.34556173812E+03  0.00000000000E+00 0. -1.
          1   -1    0    0  501    0 -0.00000000000E+00 -0.00000000000E+00 -0.22974732804E+04  0.22974732804E+04  0.00000000000E+00 0. -1.
         25    2    1    2    0    0  0.76945846434E+02  0.56435483999E+02 -0.60312507444E+03  0.62329478930E+03  0.12502364503E+03 0.  0.
          2    1    1    2  501    0 -0.88136230043E+02 -0.37048682817E+02 -0.16825313612E+04  0.16852454959E+04  0.00000000000E+00 0. -1.
          1    1    1    2  502    0  0.11190383609E+02 -0.19386801182E+02  0.33374489339E+03  0.33449473331E+03  0.00000000000E+00 0. -1.
         22    1    3    3    0    0  0.83745790096E+02  0.89508277328E+02 -0.49886942855E+03  0.51370788957E+03  0.00000000000E+00 0.  1.
         22    1    3    3    0    0 -0.67999436617E+01 -0.33072793329E+02 -0.10425564589E+03  0.10958689973E+03  0.00000000000E+00 0.  1.
</event>
<event>
 7    1  0.6520971E-006  0.4074761E+02  0.7818608E-02  0.1504215E+00
          2   -1    0    0  502    0  0.00000000000E+00  0.00000000000E+00  0.12075656342E+04  0.12075656342E+04  0.00000000000E+00 0. -1.
          1   -1    0    0  501    0 -0.00000000000E+00 -0.00000000000E+00 -0.10095799644E+04  0.10095799644E+04  0.00000000000E+00 0. -1.
         25    2    1    2    0    0  0.29044542841E+02  0.60189221112E+01  0.46130259187E+03  0.47885799644E+03  0.12500034640E+03 0.  0.
          2    1    1    2  501    0 -0.19159623021E+02  0.35510997761E+02 -0.99977717489E+03  0.10005910861E+04  0.00000000000E+00 0. -1.
          1    1    1    2  502    0 -0.98849198198E+01 -0.41529919872E+02  0.73646025283E+03  0.73769651611E+03  0.00000000000E+00 0. -1.
         22    1    3    3    0    0  0.16390792287E+02 -0.58578599659E+02  0.18170464849E+03  0.19161599540E+03  0.00000000000E+00 0.  1.
         22    1    3    3    0    0  0.12653750554E+02  0.64597521770E+02  0.27959794338E+03  0.28724200104E+03  0.00000000000E+00 0.  1.
</event>
<event>
 7    1  0.6520971E-006  0.1265128E+03  0.7818608E-02  0.1354850E+00
          2   -1    0    0  502    0  0.00000000000E+00  0.00000000000E+00  0.46352027071E+03  0.46352027071E+03  0.00000000000E+00 0. -1.
          1   -1    0    0  501    0 -0.00000000000E+00 -0.00000000000E+00 -0.46001534587E+03  0.46001534587E+03  0.00000000000E+00 0. -1.
         25    2    1    2    0    0  0.13929584113E+03 -0.47862427925E+02 -0.83520912467E+02  0.21046498185E+03  0.12500248958E+03 0.  0.
          2    1    1    2  501    0 -0.14287083298E+02  0.37877752135E+02 -0.30180950316E+03  0.30451243169E+03  0.00000000000E+00 0. -1.
          1    1    1    2  502    0 -0.12500875783E+03  0.99846757899E+01  0.38883534047E+03  0.40855820305E+03  0.00000000000E+00 0. -1.
         22    1    3    3    0    0  0.20694647780E+02 -0.69566526093E+02 -0.33273883856E+02  0.79843104563E+02  0.00000000000E+00 0.  1.
         22    1    3    3    0    0  0.11860119335E+03  0.21704098168E+02 -0.50247028610E+02  0.13062187728E+03  0.00000000000E+00 0.  1.
</event>
<event>
 7    1  0.6520971E-006  0.1284973E+03  0.7818608E-02  0.1414720E+00
          2   -1    0    0  502    0  0.00000000000E+00  0.00000000000E+00  0.88398239814E+03  0.88398239814E+03  0.00000000000E+00 0. -1.
          1   -1    0    0  501    0 -0.00000000000E+00 -0.00000000000E+00 -0.28190285823E+03  0.28190285823E+03  0.00000000000E+00 0. -1.
         25    2    1    2    0    0 -0.50609634160E+02  0.91835426656E+02 -0.11072639410E+03  0.19718108041E+03  0.12499985385E+03 0.  0.
          2    1    1    2  501    0 -0.92663348666E+01  0.22722693466E+02 -0.12174929781E+03  0.12419773459E+03  0.00000000000E+00 0. -1.
          1    1    1    2  502    0  0.59875969027E+02 -0.11455812012E+03  0.83455523182E+03  0.84450644136E+03  0.00000000000E+00 0. -1.
         22    1    3    3    0    0  0.12612874293E+02 -0.79495973252E+01  0.17397287905E+02  0.22911707095E+02  0.00000000000E+00 0.  1.
         22    1    3    3    0    0 -0.63222508453E+02  0.99785023982E+02 -0.12812368201E+03  0.17426937332E+03  0.00000000000E+00 0.  1.
</event>
<event>
 7    1  0.6520971E-006  0.8764773E+02  0.7818608E-02  0.1319220E+00
          2   -1    0    0  502    0  0.00000000000E+00  0.00000000000E+00  0.22266105351E+04  0.22266105351E+04  0.00000000000E+00 0. -1.
          1   -1    0    0  501    0 -0.00000000000E+00 -0.00000000000E+00 -0.17444474106E+04  0.17444474106E+04  0.00000000000E+00 0. -1.
         25    2    1    2    0    0  0.12204464139E+03  0.89705386284E+02  0.47752590061E+03  0.51633111885E+03  0.12499955087E+03 0.  0.
          2    1    1    2  501    0 -0.39830911851E+02 -0.69008403559E+02 -0.17230847800E+04  0.17249260333E+04  0.00000000000E+00 0. -1.
          1    1    1    2  502    0 -0.82213729536E+02 -0.20696982725E+02  0.17277220039E+04  0.17298007935E+04  0.00000000000E+00 0. -1.
         22    1    3    3    0    0  0.11279490652E+03  0.70856707855E+02  0.21467817864E+03  0.25264616436E+03  0.00000000000E+00 0.  1.
         22    1    3    3    0    0  0.92497348624E+01  0.18848678429E+02  0.26284772197E+03  0.26368495448E+03  0.00000000000E+00 0.  1.
</event>
<event>
 7    1  0.6520971E-006  0.6105818E+02  0.7818608E-02  0.1482606E+00
          2   -1    0    0  502    0  0.00000000000E+00  0.00000000000E+00  0.21907242745E+04  0.21907242745E+04  0.00000000000E+00 0. -1.
          1   -1    0    0  501    0 -0.00000000000E+00 -0.00000000000E+00 -0.63647377101E+02  0.63647377101E+02  0.00000000000E+00 0. -1.
         25    2    1    2    0    0  0.51497413473E+02 -0.68258530156E+02  0.25814702575E+03  0.29929424780E+03  0.12500379725E+03 0.  0.
          2    1    1    2  501    0 -0.37177963063E+01  0.31058966116E+02 -0.36849669907E+02  0.48336110289E+02  0.00000000000E+00 0. -1.
          1    1    1    2  502    0 -0.47779617167E+02  0.37199564040E+02  0.19057795415E+04  0.19067412935E+04  0.00000000000E+00 0. -1.
         22    1    3    3    0    0  0.78412634266E+02 -0.58798262740E+01  0.10030811329E+03  0.12745521237E+03  0.00000000000E+00 0. -1.
         22    1    3    3    0    0 -0.26915220793E+02 -0.62378703882E+02  0.15783891246E+03  0.17183903542E+03  0.00000000000E+00 0. -1.
</event>
<event>
 7    1  0.6520971E-006  0.3915354E+02  0.7818608E-02  0.1612254E+00
          2   -1    0    0  502    0  0.00000000000E+00  0.00000000000E+00  0.19395513453E+04  0.19395513453E+04  0.00000000000E+00 0. -1.
          1   -1    0    0  501    0 -0.00000000000E+00 -0.00000000000E+00 -0.30429933754E+02  0.30429933754E+02  0.00000000000E+00 0. -1.
         25    2    1    2    0    0 -0.42870214405E+02 -0.41482110976E+02  0.10788910636E+04  0.10877438447E+04  0.12498849485E+03 0.  0.
          2    1    1    2  501    0  0.25718017910E+02  0.29158268456E+02 -0.11263769030E+02  0.40478309714E+02  0.00000000000E+00 0. -1.
          1    1    1    2  502    0  0.17152196495E+02  0.12323842520E+02  0.84149411704E+03  0.84175912466E+03  0.00000000000E+00 0. -1.
         22    1    3    3    0    0  0.33196419509E+02  0.20091566206E+02  0.23278812648E+03  0.23599996850E+03  0.00000000000E+00 0. -1.
         22    1    3    3    0    0 -0.76066633914E+02 -0.61573677183E+02  0.84610293708E+03  0.85174387621E+03  0.00000000000E+00 0. -1.
</event>
<event>
 7    1  0.6520971E-006  0.3677367E+02  0.7818608E-02  0.1576837E+00
          2   -1    0    0  502    0  0.00000000000E+00  0.00000000000E+00  0.10448167924E+03  0.10448167924E+03  0.00000000000E+00 0. -1.
          1   -1    0    0  501    0 -0.00000000000E+00 -0.00000000000E+00 -0.70944591761E+03  0.70944591761E+03  0.00000000000E+00 0. -1.
         25    2    1    2    0    0 -0.43171616543E+02  0.19244004153E+02 -0.10653242785E+03  0.17090000622E+03  0.12499413495E+03 0.  0.
          2    1    1    2  501    0  0.18316607395E+02 -0.31852868883E+02 -0.56742727571E+03  0.56861570202E+03  0.00000000000E+00 0. -1.
          1    1    1    2  502    0  0.24855009148E+02  0.12608864730E+02  0.68995465187E+02  0.74411888606E+02  0.00000000000E+00 0. -1.
         22    1    3    3    0    0 -0.45309488020E+02  0.61673773995E+02 -0.10293245222E+03  0.12826415642E+03  0.00000000000E+00 0. -1.
         22    1    3    3    0    0  0.21378714768E+01 -0.42429769842E+02 -0.35999756292E+01  0.42635849796E+02  0.00000000000E+00 0. -1.
</event>
<event>
 7    1  0.6520971E-006  0.1540123E+03  0.7818608E-02  0.1384494E+00
          2   -1    0    0  502    0  0.00000000000E+00  0.00000000000E+00  0.56207233418E+03  0.56207233418E+03  0.00000000000E+00 0. -1.
          1   -1    0    0  501    0 -0.00000000000E+00 -0.00000000000E+00 -0.27382711844E+03  0.27382711844E+03  0.00000000000E+00 0. -1.
         25    2    1    2    0    0  0.16624057358E+03 -0.39179313189E+02  0.23767127661E+03  0.31825087461E+03  0.12500014631E+03 0.  0.
          2    1    1    2  501    0 -0.14351809776E+03  0.51845476356E+02 -0.20788764553E+03  0.25788111789E+03  0.00000000000E+00 0. -1.
          1    1    1    2  502    0 -0.22722475815E+02 -0.12666163167E+02  0.25846158466E+03  0.25976746012E+03  0.00000000000E+00 0. -1.
         22    1    3    3    0    0  0.15785608848E+02  0.10140431242E+02  0.11877363478E+03  0.12024637255E+03  0.00000000000E+00 0. -1.
         22    1    3    3    0    0  0.15045496473E+03 -0.49319744431E+02  0.11889764184E+03  0.19800450206E+03  0.00000000000E+00 0. -1.
</event>
<event>
 7    1  0.6520971E-006  0.2188696E+03  0.7818608E-02  0.1365240E+00
          2   -1    0    0  502    0  0.00000000000E+00  0.00000000000E+00  0.10705524503E+04  0.10705524503E+04  0.00000000000E+00 0. -1.
          1   -1    0    0  501    0 -0.00000000000E+00 -0.00000000000E+00 -0.17942236858E+04  0.17942236858E+04  0.00000000000E+00 0. -1.
         25    2    1    2    0    0 -0.72944684086E+02 -0.22338613373E+03 -0.57440587098E+03  0.63307922719E+03  0.12499964639E+03 0.  0.
          2    1    1    2  501    0  0.17858648190E+02  0.11870324586E+02 -0.11789119745E+04  0.11791069839E+04  0.00000000000E+00 0. -1.
          1    1    1    2  502    0  0.55086035896E+02  0.21151580915E+03  0.10296466100E+04  0.10525899250E+04  0.00000000000E+00 0. -1.
         22    1    3    3    0    0 -0.26355528896E+02 -0.13261294280E+03 -0.46151531208E+03  0.48091287130E+03  0.00000000000E+00 0.  1.
         22    1    3    3    0    0 -0.46589155191E+02 -0.90773190934E+02 -0.11289055890E+03  0.15216635588E+03  0.00000000000E+00 0.  1.
</event>
<event>
 7    1  0.6520971E-006  0.1134309E+03  0.7818608E-02  0.1387127E+00
          2   -1    0    0  502    0  0.00000000000E+00  0.00000000000E+00  0.13649989971E+04  0.13649989971E+04  0.00000000000E+00 0. -1.
          1   -1    0    0  501    0 -0.00000000000E+00 -0.00000000000E+00 -0.66403046961E+03  0.66403046961E+03  0.00000000000E+00 0. -1.
         25    2    1    2    0    0 -0.62337873212E+02  0.74608323339E+02  0.19615542549E+03  0.25211144587E+03  0.12502326920E+03 0.  0.
          2    1    1    2  501    0  0.15455466306E+02  0.30930803854E+02 -0.63265671027E+03  0.63360089892E+03  0.00000000000E+00 0. -1.
          1    1    1    2  502    0  0.46882406907E+02 -0.10553912719E+03  0.11374698122E+04  0.11433171219E+04  0.00000000000E+00 0. -1.
         22    1    3    3    0    0 -0.51227872893E+02  0.10694030555E+03  0.12034074777E+03  0.16894501912E+03  0.00000000000E+00 0.  1.
         22    1    3    3    0    0 -0.11110000319E+02 -0.32331982209E+02  0.75814677723E+02  0.83166426754E+02  0.00000000000E+00 0.  1.
</event>
<event>
 7    1  0.6520971E-006  0.5927957E+02  0.7818608E-02  0.1478670E+00
          2   -1    0    0  502    0  0.00000000000E+00  0.00000000000E+00  0.23212103810E+04  0.23212103810E+04  0.00000000000E+00 0. -1.
          1   -1    0    0  501    0 -0.00000000000E+00 -0.00000000000E+00 -0.20417115286E+03  0.20417115286E+03  0.00000000000E+00 0. -1.
         25    2    1    2    0    0 -0.47653729024E+02 -0.32901141265E+02  0.34328391354E+03  0.36989478314E+03  0.12499976925E+03 0.  0.
          2    1    1    2  501    0  0.59384514514E+02  0.19210509287E+01 -0.18609840666E+03  0.19535308536E+03  0.00000000000E+00 0. -1.
          1    1    1    2  502    0 -0.11730785490E+02  0.30980090337E+02  0.19598537213E+04  0.19601336653E+04  0.00000000000E+00 0. -1.
         22    1    3    3    0    0  0.23449169482E+02 -0.30847879772E+02  0.24788719144E+03  0.25089741911E+03  0.00000000000E+00 0.  1.
         22    1    3    3    0    0 -0.71102898507E+02 -0.20532614935E+01  0.95396722107E+02  0.11899736404E+03  0.00000000000E+00 0.  1.
</event>
<event>
 7    1  0.6520971E-006  0.1658278E+03  0.7818608E-02  0.1318093E+00
          2   -1    0    0  502    0  0.00000000000E+00  0.00000000000E+00  0.13966287248E+04  0.13966287248E+04  0.00000000000E+00 0. -1.
          1   -1    0    0  501    0 -0.00000000000E+00 -0.00000000000E+00 -0.13315366068E+04  0.13315366068E+04  0.00000000000E+00 0. -1.
         25    2    1    2    0    0  0.13155472717E+03  0.99948224750E+02  0.23478007393E+03  0.31311799459E+03  0.12499960619E+03 0.  0.
          2    1    1    2  501    0 -0.15334917465E+03 -0.63414114621E+02 -0.12866341468E+04  0.12972913115E+04  0.00000000000E+00 0. -1.
          1    1    1    2  502    0  0.21794447483E+02 -0.36534110129E+02  0.11169461909E+04  0.11177560255E+04  0.00000000000E+00 0. -1.
         22    1    3    3    0    0  0.51131469199E+02  0.46606551273E+02  0.19817372687E+03  0.20990336773E+03  0.00000000000E+00 0.  1.
         22    1    3    3    0    0  0.80423257971E+02  0.53341673476E+02  0.36606347067E+02  0.10321462686E+03  0.00000000000E+00 0.  1.
</event>
<event>
 7    1  0.6520971E-006  0.1502242E+03  0.7818608E-02  0.1294271E+00
          2   -1    0    0  502    0  0.00000000000E+00  0.00000000000E+00  0.32023985903E+03  0.32023985903E+03  0.00000000000E+00 0. -1.
          1   -1    0    0  501    0 -0.00000000000E+00 -0.00000000000E+00 -0.22741780569E+03  0.22741780569E+03  0.00000000000E+00 0. -1.
         25    2    1    2    0    0  0.63366087102E+02  0.83746997370E+02 -0.49568426273E+02  0.17062880274E+03  0.12501335480E+03 0.  0.
          2    1    1    2  501    0  0.49213366091E+02  0.31382689998E+02 -0.82115757337E+02  0.10074634602E+03  0.00000000000E+00 0. -1.
          1    1    1    2  502    0 -0.11257945319E+03 -0.11512968737E+03  0.22450623695E+03  0.27628251596E+03  0.00000000000E+00 0. -1.
         22    1    3    3    0    0 -0.14986547794E+02 -0.12188895205E+02  0.20622951459E+02  0.28257245230E+02  0.00000000000E+00 0. -1.
         22    1    3    3    0    0  0.78352634897E+02  0.95935892575E+02 -0.70191377732E+02  0.14237155751E+03  0.00000000000E+00 0. -1.
</event>
<event>
 7    1  0.6520971E-006  0.9019612E+02  0.7818608E-02  0.1432378E+00
          2   -1    0    0  502    0  0.00000000000E+00  0.00000000000E+00  0.12852723692E+03  0.12852723692E+03  0.00000000000E+00 0. -1.
          1   -1    0    0  501    0 -0.00000000000E+00 -0.00000000000E+00 -0.15774455745E+04  0.15774455745E+04  0.00000000000E+00 0. -1.
         25    2    1    2    0    0 -0.96594546873E+02  0.41872337345E+02 -0.11708470146E+04  0.11821944461E+04  0.12496870648E+03 0.  0.
          2    1    1    2  501    0  0.73927263922E+01 -0.29633517248E+02 -0.38373943595E+03  0.38495292238E+03  0.00000000000E+00 0. -1.
          1    1    1    2  502    0  0.89201820480E+02 -0.12238820097E+02  0.10566811301E+03  0.13882544292E+03  0.00000000000E+00 0. -1.
         22    1    3    3    0    0 -0.10679205347E+03  0.16225538723E+01 -0.10250820977E+04  0.10306311088E+04  0.00000000000E+00 0.  1.
         22    1    3    3    0    0  0.10197506602E+02  0.40249783472E+02 -0.14576491691E+03  0.15156333730E+03  0.00000000000E+00 0.  1.
</event>
<event>
 7    1  0.6520971E-006  0.4844481E+02  0.7818608E-02  0.1510254E+00
          2   -1    0    0  502    0  0.00000000000E+00  0.00000000000E+00  0.17767147358E+04  0.17767147358E+04  0.00000000000E+00 0. -1.
          1   -1    0    0  501    0 -0.00000000000E+00 -0.00000000000E+00 -0.12076492061E+03  0.12076492061E+03  0.00000000000E+00 0. -1.
         25    2    1    2    0    0 -0.99917061052E+01 -0.71500724194E+02  0.20862002065E+03  0.25369057617E+03  0.12499763067E+03 0.  0.
          2    1    1    2  501    0  0.21232804833E+02  0.24701223627E+02 -0.95143654421E+02  0.10056489162E+03  0.00000000000E+00 0. -1.
          1    1    1    2  502    0 -0.11241098727E+02  0.46799500567E+02  0.15424734490E+04  0.15432241886E+04  0.00000000000E+00 0. -1.
         22    1    3    3    0    0 -0.58692773262E+02 -0.19915106041E+02  0.14771240950E+03  0.16018866689E+03  0.00000000000E+00 0.  1.
         22    1    3    3    0    0  0.48701067157E+02 -0.51585618153E+02  0.60907611148E+02  0.93501909276E+02  0.00000000000E+00 0.  1.
</event>
<event>
 7    1  0.6520971E-006  0.1746772E+03  0.7818608E-02  0.1327877E+00
          2   -1    0    0  502    0  0.00000000000E+00  0.00000000000E+00  0.61022582268E+03  0.61022582268E+03  0.00000000000E+00 0. -1.
          1   -1    0    0  501    0 -0.00000000000E+00 -0.00000000000E+00 -0.50734026186E+03  0.50734026186E+03  0.00000000000E+00 0. -1.
         25    2    1    2    0    0 -0.22010067195E+02 -0.20527094484E+03 -0.14074619207E+03  0.27938260244E+03  0.12499817642E+03 0.  0.
          2    1    1    2  501    0  0.17347185567E+02  0.32704514633E+02 -0.28226276371E+03  0.28468013261E+03  0.00000000000E+00 0. -1.
          1    1    1    2  502    0  0.46628816279E+01  0.17256643021E+03  0.52589451660E+03  0.55350334949E+03  0.00000000000E+00 0. -1.
         22    1    3    3    0    0 -0.23273492143E+02 -0.58919708597E+01  0.13279087742E+02  0.27435468438E+02  0.00000000000E+00 0.  1.
         22    1    3    3    0    0  0.12634249475E+01 -0.19937897398E+03 -0.15402527981E+03  0.25194713400E+03  0.00000000000E+00 0.  1.
</event>
<event>
 7    1  0.6520971E-006  0.4504943E+02  0.7818608E-02  0.1498363E+00
          2   -1    0    0  502    0  0.00000000000E+00  0.00000000000E+00  0.26078369231E+03  0.26078369231E+03  0.00000000000E+00 0. -1.
          1   -1    0    0  501    0 -0.00000000000E+00 -0.00000000000E+00 -0.17219016976E+03  0.17219016976E+03  0.00000000000E+00 0. -1.
         25    2    1    2    0    0 -0.17815531461E+02 -0.10041157749E+02  0.80668967316E+02  0.15016826482E+03  0.12499922984E+03 0.  0.
          2    1    1    2  501    0  0.52154437158E+01  0.45882563044E+02 -0.13093666668E+03  0.13884099224E+03  0.00000000000E+00 0. -1.
          1    1    1    2  502    0  0.12600087745E+02 -0.35841405295E+02  0.13886122191E+03  0.14396460501E+03  0.00000000000E+00 0. -1.
         22    1    3    3    0    0 -0.71212648836E+01  0.10385282421E+02  0.11119919705E+03  0.11190990988E+03  0.00000000000E+00 0. -1.
         22    1    3    3    0    0 -0.10694266578E+02 -0.20426440171E+02 -0.30530229732E+02  0.38258354946E+02  0.00000000000E+00 0. -1.
</event>
<event>
 7    1  0.6520971E-006  0.1594964E+03  0.7818608E-02  0.1204417E+00
          2   -1    0    0  502    0  0.00000000000E+00  0.00000000000E+00  0.19386567541E+03  0.19386567541E+03  0.00000000000E+00 0. -1.
          1   -1    0    0  501    0 -0.00000000000E+00 -0.00000000000E+00 -0.57333476626E+03  0.57333476626E+03  0.00000000000E+00 0. -1.
         25    2    1    2    0    0 -0.52897010651E+02  0.80604122835E+02 -0.18154635421E+03  0.24058043316E+03  0.12499899094E+03 0.  0.
          2    1    1    2  501    0 -0.12706926163E+03 -0.46115088113E+02 -0.29116890907E+03  0.32101796244E+03  0.00000000000E+00 0. -1.
          1    1    1    2  502    0  0.17996627228E+03 -0.34489034722E+02  0.93246172426E+02  0.20560204607E+03  0.00000000000E+00 0. -1.
         22    1    3    3    0    0 -0.91389050980E+02  0.37167629542E+02 -0.99864359839E+02  0.14037906429E+03  0.00000000000E+00 0.  1.
         22    1    3    3    0    0  0.38492040330E+02  0.43436493292E+02 -0.81681994371E+02  0.10020136887E+03  0.00000000000E+00 0.  1.
</event>
<event>
 7    1  0.6520971E-006  0.9086981E+02  0.7818608E-02  0.1319099E+00
          2   -1    0    0  502    0  0.00000000000E+00  0.00000000000E+00  0.29987116941E+02  0.29987116941E+02  0.00000000000E+00 0. -1.
          1   -1    0    0  501    0 -0.00000000000E+00 -0.00000000000E+00 -0.11495525868E+04  0.11495525868E+04  0.00000000000E+00 0. -1.
         25    2    1    2    0    0 -0.60650797700E+02 -0.43972234153E+01 -0.68063692629E+03  0.69468650899E+03  0.12499946203E+03 0.  0.
          2    1    1    2  501    0 -0.10036410926E+02  0.76278749342E+02 -0.31916153263E+03  0.32830361109E+03  0.00000000000E+00 0. -1.
          1    1    1    2  502    0  0.70687208625E+02 -0.71881525927E+02 -0.11976701092E+03  0.15654958364E+03  0.00000000000E+00 0. -1.
         22    1    3    3    0    0 -0.89362238446E+02  0.29694783518E+02 -0.44136767044E+03  0.45130124123E+03  0.00000000000E+00 0.  1.
         22    1    3    3    0    0  0.28711440746E+02 -0.34092006933E+02 -0.23926925585E+03  0.24338526776E+03  0.00000000000E+00 0.  1.
</event>
<event>
 7    1  0.6520971E-006  0.1566467E+03  0.7818608E-02  0.1251412E+00
          2   -1    0    0  502    0  0.00000000000E+00  0.00000000000E+00  0.97667155617E+02  0.97667155617E+02  0.00000000000E+00 0. -1.
          1   -1    0    0  501    0 -0.00000000000E+00 -0.00000000000E+00 -0.11847780253E+04  0.11847780253E+04  0.00000000000E+00 0. -1.
         25    2    1    2    0    0  0.16898936675E+03  0.81833952983E+02 -0.38444567932E+03  0.44573378294E+03  0.12500369185E+03 0.  0.
          2    1    1    2  501    0 -0.93679458201E+02 -0.12030642113E+03 -0.73160765851E+03  0.74732806842E+03  0.00000000000E+00 0. -1.
          1    1    1    2  502    0 -0.75309908547E+02  0.38472468148E+02  0.28942468184E+02  0.89383329516E+02  0.00000000000E+00 0. -1.
         22    1    3    3    0    0  0.60325565174E+02 -0.75817038466E+01 -0.37748267810E+02  0.71565269296E+02  0.00000000000E+00 0. -1.
         22    1    3    3    0    0  0.10866380157E+03  0.89415656829E+02 -0.34669741151E+03  0.37416851365E+03  0.00000000000E+00 0. -1.
</event>
<event>
 7    1  0.6520971E-006  0.6214483E+02  0.7818608E-02  0.1416036E+00
          2   -1    0    0  502    0  0.00000000000E+00  0.00000000000E+00  0.10043069323E+04  0.10043069323E+04  0.00000000000E+00 0. -1.
          1   -1    0    0  501    0 -0.00000000000E+00 -0.00000000000E+00 -0.91107837216E+03  0.91107837216E+03  0.00000000000E+00 0. -1.
         25    2    1    2    0    0 -0.10136396015E+03  0.25153626946E+02 -0.28003004535E+03  0.32395984555E+03  0.12500319143E+03 0.  0.
          2    1    1    2  501    0  0.39603428793E+02 -0.30890485033E+02 -0.60706618503E+03  0.60914038336E+03  0.00000000000E+00 0. -1.
          1    1    1    2  502    0  0.61760531358E+02  0.57368580878E+01  0.98032479048E+03  0.98228507553E+03  0.00000000000E+00 0. -1.
         22    1    3    3    0    0 -0.26581039599E+02  0.70494575675E+02 -0.12406118340E+03  0.14514549284E+03  0.00000000000E+00 0.  1.
         22    1    3    3    0    0 -0.74782920552E+02 -0.45340948729E+02 -0.15596886195E+03  0.17881435271E+03  0.00000000000E+00 0.  1.
</event>
<event>
 7    1  0.6520971E-006  0.1636450E+03  0.7818608E-02  0.1226253E+00
          2   -1    0    0  502    0  0.00000000000E+00  0.00000000000E+00  0.45712062353E+03  0.45712062353E+03  0.00000000000E+00 0. -1.
          1   -1    0    0  501    0 -0.00000000000E+00 -0.00000000000E+00 -0.15757987370E+04  0.15757987370E+04  0.00000000000E+00 0. -1.
         25    2    1    2    0    0  0.16126775117E+03  0.43196562274E+02  0.43956090463E+02  0.21314889840E+03  0.12500833748E+03 0.  0.
          2    1    1    2  501    0 -0.31809026251E+01 -0.10452141351E+03 -0.14673401747E+04  0.14710615325E+04  0.00000000000E+00 0. -1.
          1    1    1    2  502    0 -0.15808684855E+03  0.61324851234E+02  0.30470597072E+03  0.34870892970E+03  0.00000000000E+00 0. -1.
         22    1    3    3    0    0  0.95894170489E+02  0.45403186517E+01 -0.36317653426E+02  0.10264150417E+03  0.00000000000E+00 0.  1.
         22    1    3    3    0    0  0.65373580682E+02  0.38656243622E+02  0.80273743888E+02  0.11050739423E+03  0.00000000000E+00 0.  1.
</event>
<event>
 7    1  0.6520971E-006  0.8458436E+02  0.7818608E-02  0.1371666E+00
          2   -1    0    0  502    0  0.00000000000E+00  0.00000000000E+00  0.39142530036E+03  0.39142530036E+03  0.00000000000E+00 0. -1.
          1   -1    0    0  501    0 -0.00000000000E+00 -0.00000000000E+00 -0.13900780498E+04  0.13900780498E+04  0.00000000000E+00 0. -1.
         25    2    1    2    0    0 -0.62245826992E+02  0.30876268950E+02 -0.11412960797E+03  0.18297491425E+03  0.12500545935E+03 0.  0.
          2    1    1    2  501    0  0.84155698783E+02  0.16951112010E+02 -0.12380933806E+04  0.12410659696E+04  0.00000000000E+00 0. -1.
          1    1    1    2  502    0 -0.21909871791E+02 -0.47827380959E+02  0.35357023910E+03  0.35746246632E+03  0.00000000000E+00 0. -1.
         22    1    3    3    0    0 -0.53944158848E+02  0.50587233103E+02 -0.76261325930E+01  0.74345129801E+02  0.00000000000E+00 0.  1.
         22    1    3    3    0    0 -0.83016681433E+01 -0.19710964153E+02 -0.10650347538E+03  0.10862978445E+03  0.00000000000E+00 0.  1.
</event>
<event>
 7    1  0.6520971E-006  0.9363827E+02  0.7818608E-02  0.1305724E+00
          2   -1    0    0  502    0  0.00000000000E+00  0.00000000000E+00  0.57318390632E+03  0.57318390632E+03  0.00000000000E+00 0. -1.
          1   -1    0    0  501    0 -0.00000000000E+00 -0.00000000000E+00 -0.20668860400E+03  0.20668860400E+03  0.00000000000E+00 0. -1.
         25    2    1    2    0    0  0.11944867928E+02 -0.12114389350E+03  0.97155402738E+01  0.17475602187E+03  0.12500701043E+03 0.  0.
          2    1    1    2  501    0 -0.70912472265E+02  0.60959413941E+02 -0.10216567239E+03  0.13850073460E+03  0.00000000000E+00 0. -1.
          1    1    1    2  502    0  0.58967604337E+02  0.60184479559E+02  0.45894543444E+03  0.46661575384E+03  0.00000000000E+00 0. -1.
         22    1    3    3    0    0  0.46397809770E+02 -0.60368968531E+02 -0.42812311953E+02  0.87350232786E+02  0.00000000000E+00 0.  1.
         22    1    3    3    0    0 -0.34452941842E+02 -0.60774924970E+02  0.52527852227E+02  0.87405789089E+02  0.00000000000E+00 0.  1.
</event>
<event>
 7    1  0.6520971E-006  0.1018086E+03  0.7818608E-02  0.1318014E+00
          2   -1    0    0  502    0  0.00000000000E+00  0.00000000000E+00  0.12317365608E+04  0.12317365608E+04  0.00000000000E+00 0. -1.
          1   -1    0    0  501    0 -0.00000000000E+00 -0.00000000000E+00 -0.90879901040E+03  0.90879901040E+03  0.00000000000E+00 0. -1.
         25    2    1    2    0    0 -0.10406979868E+03  0.81955550571E+02  0.33693106925E+02  0.18522339321E+03  0.12500097868E+03 0.  0.
          2    1    1    2  501    0  0.10066226215E+03 -0.12699169758E+02 -0.82886651221E+03  0.83505320489E+03  0.00000000000E+00 0. -1.
          1    1    1    2  502    0  0.34075365359E+01 -0.69256380814E+02  0.11181109557E+04  0.11202589731E+04  0.00000000000E+00 0. -1.
         22    1    3    3    0    0 -0.85774930626E+02  0.38018112309E+02  0.76617529242E+02  0.12113199980E+03  0.00000000000E+00 0. -1.
         22    1    3    3    0    0 -0.18294868056E+02  0.43937438262E+02 -0.42924422317E+02  0.64091393412E+02  0.00000000000E+00 0. -1.
</event>
<event>
 7    1  0.6520971E-006  0.2720811E+03  0.7818608E-02  0.1346796E+00
          2   -1    0    0  502    0  0.00000000000E+00  0.00000000000E+00  0.83472769808E+03  0.83472769808E+03  0.00000000000E+00 0. -1.
          1   -1    0    0  501    0 -0.00000000000E+00 -0.00000000000E+00 -0.30600652470E+04  0.30600652470E+04  0.00000000000E+00 0. -1.
         25    2    1    2    0    0 -0.12427334225E+03 -0.22061298757E+03 -0.19018839077E+04  0.19227328677E+04  0.12500131183E+03 0.  0.
          2    1    1    2  501    0 -0.15171610097E+02 -0.13277067605E+02 -0.11251755681E+04  0.11253561736E+04  0.00000000000E+00 0. -1.
          1    1    1    2  502    0  0.13944495234E+03  0.23389005518E+03  0.80172192695E+03  0.84670390385E+03  0.00000000000E+00 0. -1.
         22    1    3    3    0    0 -0.13592824788E+03 -0.19004326532E+03 -0.13649971565E+04  0.13848502333E+04  0.00000000000E+00 0. -1.
         22    1    3    3    0    0  0.11654905629E+02 -0.30569722257E+02 -0.53688675121E+03  0.53788263439E+03  0.00000000000E+00 0. -1.
</event>
<event>
 7    1  0.6520971E-006  0.3065107E+03  0.7818608E-02  0.1211313E+00
          2   -1    0    0  502    0  0.00000000000E+00  0.00000000000E+00  0.11449598619E+04  0.11449598619E+04  0.00000000000E+00 0. -1.
          1   -1    0    0  501    0 -0.00000000000E+00 -0.00000000000E+00 -0.17691245607E+04  0.17691245607E+04  0.00000000000E+00 0. -1.
         25    2    1    2    0    0  0.13055197990E+03 -0.26269696305E+03 -0.43477269032E+03  0.53917126044E+03  0.12499936794E+03 0.  0.
          2    1    1    2  501    0  0.61314269930E+02  0.22554539136E+02 -0.12596741032E+04  0.12613671128E+04  0.00000000000E+00 0. -1.
          1    1    1    2  502    0 -0.19186624983E+03  0.24014242391E+03  0.10702820948E+04  0.11135460493E+04  0.00000000000E+00 0. -1.
         22    1    3    3    0    0  0.12166070963E+03 -0.20117813966E+03 -0.40925660665E+03  0.47197981125E+03  0.00000000000E+00 0.  1.
         22    1    3    3    0    0  0.88912702697E+01 -0.61518823390E+02 -0.25516083674E+02  0.67191449191E+02  0.00000000000E+00 0.  1.
</event>
<event>
 7    1  0.6520971E-006  0.3183327E+03  0.7818608E-02  0.1145799E+00
          2   -1    0    0  502    0  0.00000000000E+00  0.00000000000E+00  0.49803650959E+03  0.49803650959E+03  0.00000000000E+00 0. -1.
          1   -1    0    0  501    0 -0.00000000000E+00 -0.00000000000E+00 -0.58424753046E+03  0.58424753046E+03  0.00000000000E+00 0. -1.
         25    2    1    2    0    0  0.23820722006E+03 -0.33555968723E+03 -0.16758920904E+03  0.46157926274E+03  0.12500515757E+03 0.  0.
          2    1    1    2  501    0 -0.20262055949E+02  0.13011525172E+03 -0.18010513736E+03  0.22311071275E+03  0.00000000000E+00 0. -1.
          1    1    1    2  502    0 -0.21794516411E+03  0.20544443551E+03  0.26148332553E+03  0.39759406456E+03  0.00000000000E+00 0. -1.
         22    1    3    3    0    0  0.23891154136E+03 -0.25502499223E+03 -0.13247040409E+03  0.37371764639E+03  0.00000000000E+00 0.  1.
         22    1    3    3    0    0 -0.70432130045E+00 -0.80534694999E+02 -0.35118804943E+02  0.87861616350E+02  0.00000000000E+00 0.  1.
</event>
<event>
 7    1  0.6520971E-006  0.1100321E+03  0.7818608E-02  0.1376648E+00
          2   -1    0    0  502    0  0.00000000000E+00  0.00000000000E+00  0.86214976076E+03  0.86214976076E+03  0.00000000000E+00 0. -1.
          1   -1    0    0  501    0 -0.00000000000E+00 -0.00000000000E+00 -0.18318264570E+04  0.18318264570E+04  0.00000000000E+00 0. -1.
         25    2    1    2    0    0 -0.13839943357E+03 -0.13363730494E+00 -0.58293387663E+02  0.19539229141E+03  0.12500242969E+03 0.  0.
          2    1    1    2  501    0  0.31523868925E+02 -0.22648373284E+02 -0.17009993704E+04  0.17014422003E+04  0.00000000000E+00 0. -1.
          1    1    1    2  502    0  0.10687556464E+03  0.22782010589E+02  0.78961606178E+03  0.79714172601E+03  0.00000000000E+00 0. -1.
         22    1    3    3    0    0 -0.84907262703E+02  0.53527519800E+02 -0.95974909383E+00  0.10037609155E+03  0.00000000000E+00 0.  1.
         22    1    3    3    0    0 -0.53492170863E+02 -0.53661157105E+02 -0.57333638570E+02  0.95016199867E+02  0.00000000000E+00 0.  1.
</event>
<event>
 7    1  0.6520971E-006  0.3778146E+02  0.7818608E-02  0.1605964E+00
          2   -1    0    0  502    0  0.00000000000E+00  0.00000000000E+00  0.20126530811E+03  0.20126530811E+03  0.00000000000E+00 0. -1.
          1   -1    0    0  501    0 -0.00000000000E+00 -0.00000000000E+00 -0.50573090373E+03  0.50573090373E+03  0.00000000000E+00 0. -1.
         25    2    1    2    0    0  0.15104928045E+02  0.11680504988E+02 -0.17647416294E+02  0.12767868537E+03  0.12500328935E+03 0.  0.
          2    1    1    2  501    0  0.22475892902E+02 -0.33330903324E+01 -0.43022952365E+03  0.43082910565E+03  0.00000000000E+00 0. -1.
          1    1    1    2  502    0 -0.37580820948E+02 -0.83474146561E+01  0.14341134433E+03  0.14848842082E+03  0.00000000000E+00 0. -1.
         22    1    3    3    0    0  0.41299137929E+02 -0.34593080086E+02 -0.42849082228E+02  0.68835629083E+02  0.00000000000E+00 0.  1.
         22    1    3    3    0    0 -0.26194209883E+02  0.46273585074E+02  0.25201665934E+02  0.58843056285E+02  0.00000000000E+00 0.  1.
</event>
<event>
 7    1  0.6520971E-006  0.7814501E+02  0.7818608E-02  0.1360176E+00
          2   -1    0    0  502    0  0.00000000000E+00  0.00000000000E+00  0.54972654972E+03  0.54972654972E+03  0.00000000000E+00 0. -1.
          1   -1    0    0  501    0 -0.00000000000E+00 -0.00000000000E+00 -0.60412999338E+02  0.60412999338E+02  0.00000000000E+00 0. -1.
         25    2    1    2    0    0 -0.20888273166E+02 -0.17610408118E+02  0.12465519813E+03  0.17863517666E+03  0.12500064596E+03 0.  0.
          2    1    1    2  501    0 -0.28609953787E+02 -0.55747515766E+02  0.69880122245E+01  0.63048769097E+02  0.00000000000E+00 0. -1.
          1    1    1    2  502    0  0.49498226953E+02  0.73357923884E+02  0.35767034003E+03  0.36845560330E+03  0.00000000000E+00 0. -1.
         22    1    3    3    0    0  0.23483728513E+02 -0.60041688368E+02  0.47743188122E+02  0.80224072815E+02  0.00000000000E+00 0.  1.
         22    1    3    3    0    0 -0.44372001679E+02  0.42431280251E+02  0.76912010010E+02  0.98411103847E+02  0.00000000000E+00 0.  1.
</event>
<event>
 7    1  0.6520971E-006  0.6541532E+02  0.7818608E-02  0.1507081E+00
          2   -1    0    0  502    0  0.00000000000E+00  0.00000000000E+00  0.63501476567E+03  0.63501476567E+03  0.00000000000E+00 0. -1.
          1   -1    0    0  501    0 -0.00000000000E+00 -0.00000000000E+00 -0.67324314376E+03  0.67324314376E+03  0.00000000000E+00 0. -1.
         25    2    1    2    0    0  0.85192479263E+02 -0.24651101265E+02 -0.23444396215E+03  0.28009684047E+03  0.12499933334E+03 0.  0.
          2    1    1    2  501    0 -0.20996423413E+02  0.12909997343E+02 -0.41386580033E+03  0.41459910577E+03  0.00000000000E+00 0. -1.
          1    1    1    2  502    0 -0.64196055850E+02  0.11741103922E+02  0.61008138438E+03  0.61356196319E+03  0.00000000000E+00 0. -1.
         22    1    3    3    0    0 -0.26015362875E+02  0.20247001484E+02 -0.58882665496E+02  0.67482653108E+02  0.00000000000E+00 0. -1.
         22    1    3    3    0    0  0.11120784214E+03 -0.44898102750E+02 -0.17556129666E+03  0.21261418736E+03  0.00000000000E+00 0. -1.
</event>
<event>
 7    1  0.6520971E-006  0.9130896E+02  0.7818608E-02  0.1463696E+00
          2   -1    0    0  502    0  0.00000000000E+00  0.00000000000E+00  0.15806762733E+03  0.15806762733E+03  0.00000000000E+00 0. -1.
          1   -1    0    0  501    0 -0.00000000000E+00 -0.00000000000E+00 -0.16532390099E+04  0.16532390099E+04  0.00000000000E+00 0. -1.
         25    2    1    2    0    0 -0.16198035361E+02  0.93573902547E+02 -0.84318027312E+03  0.85766943675E+03  0.12500175261E+03 0.  0.
          2    1    1    2  501    0 -0.21540431009E+02 -0.10440116546E+02 -0.78879939113E+03  0.78916250902E+03  0.00000000000E+00 0. -1.
          1    1    1    2  502    0  0.37738466370E+02 -0.83133786001E+02  0.13680828164E+03  0.16447469150E+03  0.00000000000E+00 0. -1.
         22    1    3    3    0    0 -0.29478750241E+02  0.11402885590E+03 -0.50252895648E+03  0.51614622811E+03  0.00000000000E+00 0. -1.
         22    1    3    3    0    0  0.13280714879E+02 -0.20454953355E+02 -0.34065131665E+03  0.34152320864E+03  0.00000000000E+00 0. -1.
</event>
<event>
 7    1  0.6520971E-006  0.5515748E+02  0.7818608E-02  0.1516180E+00
          2   -1    0    0  502    0  0.00000000000E+00  0.00000000000E+00  0.94223188081E+03  0.94223188081E+03  0.00000000000E+00 0. -1.
          1   -1    0    0  501    0 -0.00000000000E+00 -0.00000000000E+00 -0.63675832696E+03  0.63675832696E+03  0.00000000000E+00 0. -1.
         25    2    1    2    0    0  0.51909460353E+02  0.56192626513E+02  0.24256922600E+03  0.28340191833E+03  0.12499845825E+03 0.  0.
          2    1    1    2  501    0 -0.46687506640E+02 -0.29206070946E+02 -0.61483271050E+03  0.61729407883E+03  0.00000000000E+00 0. -1.
          1    1    1    2  502    0 -0.52219537133E+01 -0.26986555567E+02  0.67773703835E+03  0.67829421060E+03  0.00000000000E+00 0. -1.
         22    1    3    3    0    0 -0.23028588973E+02  0.66167752113E+02  0.13231137885E+03  0.14971569157E+03  0.00000000000E+00 0. -1.
         22    1    3    3    0    0  0.74938049326E+02 -0.99751255994E+01  0.11025784715E+03  0.13368622676E+03  0.00000000000E+00 0. -1.
</event>
<event>
 7    1  0.6520971E-006  0.7906868E+02  0.7818608E-02  0.1478468E+00
          2   -1    0    0  502    0  0.00000000000E+00  0.00000000000E+00  0.47511939453E+03  0.47511939453E+03  0.00000000000E+00 0. -1.
          1   -1    0    0  501    0 -0.00000000000E+00 -0.00000000000E+00 -0.57306182344E+03  0.57306182344E+03  0.00000000000E+00 0. -1.
         25    2    1    2    0    0  0.74640967653E+01 -0.85460709919E+02 -0.10611763034E+03  0.18505259869E+03  0.12499706850E+03 0.  0.
          2    1    1    2  501    0  0.15966266979E+02  0.77117968087E+02 -0.42348855239E+03  0.43074894857E+03  0.00000000000E+00 0. -1.
          1    1    1    2  502    0 -0.23430363744E+02  0.83427418321E+01  0.43166375382E+03  0.43237967072E+03  0.00000000000E+00 0. -1.
         22    1    3    3    0    0  0.54358413870E+02 -0.76059623496E+02 -0.99903385509E+02  0.13682320681E+03  0.00000000000E+00 0.  1.
         22    1    3    3    0    0 -0.46894317105E+02 -0.94010864228E+01 -0.62142448326E+01  0.48229391884E+02  0.00000000000E+00 0.  1.
</event>
<event>
 7    1  0.6520971E-006  0.1115990E+03  0.7818608E-02  0.1340785E+00
          2   -1    0    0  502    0  0.00000000000E+00  0.00000000000E+00  0.42366818753E+03  0.42366818753E+03  0.00000000000E+00 0. -1.
          1   -1    0    0  501    0 -0.00000000000E+00 -0.00000000000E+00 -0.13919550683E+04  0.13919550683E+04  0.00000000000E+00 0. -1.
         25    2    1    2    0    0  0.13818586588E+03 -0.82543858045E+02 -0.25754022571E+03  0.32842160816E+03  0.12499985126E+03 0.  0.
          2    1    1    2  501    0 -0.39313524085E+02  0.33674631325E+02 -0.10905148102E+04  0.10917426827E+04  0.00000000000E+00 0. -1.
          1    1    1    2  502    0 -0.98872341798E+02  0.48869226720E+02  0.37976815516E+03  0.39545896496E+03  0.00000000000E+00 0. -1.
         22    1    3    3    0    0  0.22735546066E+02 -0.31841739577E+02  0.27249352535E+01  0.39220233379E+02  0.00000000000E+00 0. -1.
         22    1    3    3    0    0  0.11545031982E+03 -0.50702118468E+02 -0.26026516096E+03  0.28920137478E+03  0.00000000000E+00 0. -1.
</event>
<event>
 7    1  0.6520971E-006  0.7047631E+02  0.7818608E-02  0.1487548E+00
          2   -1    0    0  502    0  0.00000000000E+00  0.00000000000E+00  0.76189446057E+03  0.76189446057E+03  0.00000000000E+00 0. -1.
          1   -1    0    0  501    0 -0.00000000000E+00 -0.00000000000E+00 -0.13838125155E+04  0.13838125155E+04  0.00000000000E+00 0. -1.
         25    2    1    2    0    0 -0.61417440622E+02  0.74168191546E+02  0.51907118542E+03  0.54252456483E+03  0.12499994105E+03 0.  0.
          2    1    1    2  501    0  0.47525957758E+02 -0.51980979375E+02 -0.13704372568E+04  0.13722459742E+04  0.00000000000E+00 0. -1.
          1    1    1    2  502    0  0.13891482863E+02 -0.22187212171E+02  0.22944801647E+03  0.23093643702E+03  0.00000000000E+00 0. -1.
         22    1    3    3    0    0 -0.30120075353E+02  0.75513383980E+02  0.49841291089E+03  0.50499992064E+03  0.00000000000E+00 0.  1.
         22    1    3    3    0    0 -0.31297365269E+02 -0.13451924334E+01  0.20658274527E+02  0.37524644194E+02  0.00000000000E+00 0.  1.
</event>
<event>
 7    1  0.6520971E-006  0.1061673E+03  0.7818608E-02  0.1336455E+00
          2   -1    0    0  502    0  0.00000000000E+00  0.00000000000E+00  0.71935696553E+03  0.71935696553E+03  0.00000000000E+00 0. -1.
          1   -1    0    0  501    0 -0.00000000000E+00 -0.00000000000E+00 -0.11819729812E+04  0.11819729812E+04  0.00000000000E+00 0. -1.
         25    2    1    2    0    0  0.16862578565E+02  0.92095505991E+02 -0.25147716984E+02  0.15818610390E+03  0.12499802805E+03 0.  0.
          2    1    1    2  501    0 -0.55932005748E+02  0.79691673872E+01 -0.10851473055E+04  0.10866170308E+04  0.00000000000E+00 0. -1.
          1    1    1    2  502    0  0.39069427183E+02 -0.10006467338E+03  0.64767900685E+03  0.65652681203E+03  0.00000000000E+00 0. -1.
         22    1    3    3    0    0  0.33855220062E+02 -0.15274578115E+02  0.17945688329E+02  0.41249683534E+02  0.00000000000E+00 0. -1.
         22    1    3    3    0    0 -0.16992641497E+02  0.10737008411E+03 -0.43093405312E+02  0.11693642036E+03  0.00000000000E+00 0. -1.
</event>
<event>
 7    1  0.6520971E-006  0.3564866E+02  0.7818608E-02  0.1557031E+00
          2   -1    0    0  502    0  0.00000000000E+00  0.00000000000E+00  0.13170211044E+04  0.13170211044E+04  0.00000000000E+00 0. -1.
          1   -1    0    0  501    0 -0.00000000000E+00 -0.00000000000E+00 -0.72861777936E+03  0.72861777936E+03  0.00000000000E+00 0. -1.
         25    2    1    2    0    0 -0.45327633080E+02 -0.49897731526E+01  0.10560406801E+03  0.16985176968E+03  0.12497164609E+03 0.  0.
          2    1    1    2  501    0  0.17573892883E+02  0.27408396569E+02 -0.69584335818E+03  0.69660465189E+03  0.00000000000E+00 0. -1.
          1    1    1    2  502    0  0.27753740197E+02 -0.22418623416E+02  0.11786426152E+04  0.11791824622E+04  0.00000000000E+00 0. -1.
         22    1    3    3    0    0  0.32182096713E+02  0.87508748356E+01  0.80648821178E+02  0.87272547325E+02  0.00000000000E+00 0. -1.
         22    1    3    3    0    0 -0.77509729793E+02 -0.13740647988E+02  0.24955246833E+02  0.82579222352E+02  0.00000000000E+00 0. -1.
</event>
<event>
 7    1  0.6520971E-006  0.6485570E+02  0.7818608E-02  0.1481404E+00
          2   -1    0    0  502    0  0.00000000000E+00  0.00000000000E+00  0.20906945814E+04  0.20906945814E+04  0.00000000000E+00 0. -1.
          1   -1    0    0  501    0 -0.00000000000E+00 -0.00000000000E+00 -0.10782461846E+03  0.10782461846E+03  0.00000000000E+00 0. -1.
         25    2    1    2    0    0 -0.28825417171E+02 -0.67935984318E+02  0.57531371585E+03  0.59334314180E+03  0.12499603847E+03 0.  0.
          2    1    1    2  501    0  0.29511691824E+02  0.33341403845E+01 -0.95868685556E+02  0.10036364539E+03  0.00000000000E+00 0. -1.
          1    1    1    2  502    0 -0.68627465210E+00  0.64601843933E+02  0.15034249326E+04  0.15048124126E+04  0.00000000000E+00 0. -1.
         22    1    3    3    0    0  0.27745261066E+02  0.22014813980E+02  0.94296816106E+02  0.10072904782E+03  0.00000000000E+00 0. -1.
         22    1    3    3    0    0 -0.56570678238E+02 -0.89950798298E+02  0.48101689975E+03  0.49261409398E+03  0.00000000000E+00 0. -1.
</event>
<event>
 7    1  0.6520971E-006  0.8206395E+02  0.7818608E-02  0.1477908E+00
          2   -1    0    0  502    0  0.00000000000E+00  0.00000000000E+00  0.26362712149E+04  0.26362712149E+04  0.00000000000E+00 0. -1.
          1   -1    0    0  501    0 -0.00000000000E+00 -0.00000000000E+00 -0.15060294048E+03  0.15060294048E+03  0.00000000000E+00 0. -1.
         25    2    1    2    0    0 -0.15666501386E+02 -0.65874038290E+02  0.17178980859E+04  0.17237700683E+04  0.12499834570E+03 0.  0.
          2    1    1    2  501    0  0.38814963091E+02  0.72429350321E+02 -0.13606230326E+03  0.15895144704E+03  0.00000000000E+00 0. -1.
          1    1    1    2  502    0 -0.23148461705E+02 -0.65553120312E+01  0.90383249177E+03  0.90415264008E+03  0.00000000000E+00 0. -1.
         22    1    3    3    0    0 -0.63769424073E+02 -0.26734888710E+02  0.56671582405E+03  0.57091866229E+03  0.00000000000E+00 0. -1.
         22    1    3    3    0    0  0.48102922687E+02 -0.39139149580E+02  0.11511822619E+04  0.11528514060E+04  0.00000000000E+00 0. -1.
</event>
<event>
 7    1  0.6520971E-006  0.5600643E+02  0.7818608E-02  0.1468389E+00
          2   -1    0    0  502    0  0.00000000000E+00  0.00000000000E+00  0.23925008756E+04  0.23925008756E+04  0.00000000000E+00 0. -1.
          1   -1    0    0  501    0 -0.00000000000E+00 -0.00000000000E+00 -0.17990500985E+03  0.17990500985E+03  0.00000000000E+00 0. -1.
         25    2    1    2    0    0 -0.78992057611E+02  0.44385620370E+02  0.20308298114E+04  0.20366896390E+04  0.12500053847E+03 0.  0.
          2    1    1    2  501    0  0.53393148162E+02 -0.16670582964E+02 -0.17152572264E+03  0.18041565934E+03  0.00000000000E+00 0. -1.
          1    1    1    2  502    0  0.25598909449E+02 -0.27715037406E+02  0.35329177707E+03  0.35530058712E+03  0.00000000000E+00 0. -1.
         22    1    3    3    0    0 -0.35051622693E+02 -0.28722185812E+02  0.26853593575E+03  0.27233275418E+03  0.00000000000E+00 0. -1.
         22    1    3    3    0    0 -0.43940434918E+02  0.73107806181E+02  0.17622938756E+04  0.17643568849E+04  0.00000000000E+00 0. -1.
</event>
<event>
 7    1  0.6520971E-006  0.6918655E+02  0.7818608E-02  0.1440945E+00
          2   -1    0    0  502    0  0.00000000000E+00  0.00000000000E+00  0.16567613012E+04  0.16567613012E+04  0.00000000000E+00 0. -1.
          1   -1    0    0  501    0 -0.00000000000E+00 -0.00000000000E+00 -0.28473044645E+04  0.28473044645E+04  0.00000000000E+00 0. -1.
         25    2    1    2    0    0  0.93609339928E+02 -0.32788415841E+02  0.14402935997E+03  0.21496042835E+03  0.12500296192E+03 0.  0.
          2    1    1    2  501    0 -0.68960810075E+02  0.47456571931E+01 -0.28111781060E+04  0.28120278196E+04  0.00000000000E+00 0. -1.
          1    1    1    2  502    0 -0.24648529853E+02  0.28042758648E+02  0.14766055828E+04  0.14770775177E+04  0.00000000000E+00 0. -1.
         22    1    3    3    0    0 -0.10059969868E+02 -0.16003295928E+02 -0.15173379439E+02  0.24239222717E+02  0.00000000000E+00 0. -1.
         22    1    3    3    0    0  0.10366930980E+03 -0.16785119913E+02  0.15920273940E+03  0.19072120563E+03  0.00000000000E+00 0. -1.
</event>
<event>
 7    1  0.6520971E-006  0.9503654E+02  0.7818608E-02  0.1398561E+00
          2   -1    0    0  502    0  0.00000000000E+00  0.00000000000E+00  0.17316102327E+04  0.17316102327E+04  0.00000000000E+00 0. -1.
          1   -1    0    0  501    0 -0.00000000000E+00 -0.00000000000E+00 -0.14559187328E+03  0.14559187328E+03  0.00000000000E+00 0. -1.
         25    2    1    2    0    0 -0.42735521200E+02  0.10390290764E+03  0.32449847273E+03  0.36544158500E+03  0.12500461694E+03 0.  0.
          2    1    1    2  501    0  0.61777958875E+02 -0.71410284146E+02 -0.10700955475E+03  0.14271296260E+03  0.00000000000E+00 0. -1.
          1    1    1    2  502    0 -0.19042437675E+02 -0.32492623493E+02  0.13685294414E+04  0.13690475584E+04  0.00000000000E+00 0. -1.
         22    1    3    3    0    0 -0.45130529287E+01  0.10153876954E+03  0.11941546562E+03  0.15681372004E+03  0.00000000000E+00 0.  1.
         22    1    3    3    0    0 -0.38222468271E+02  0.23641381040E+01  0.20508300711E+03  0.20862786496E+03  0.00000000000E+00 0.  1.
</event>
<event>
 7    1  0.6520971E-006  0.6564552E+02  0.7818608E-02  0.1438075E+00
          2   -1    0    0  502    0  0.00000000000E+00  0.00000000000E+00  0.13905092050E+04  0.13905092050E+04  0.00000000000E+00 0. -1.
          1   -1    0    0  501    0 -0.00000000000E+00 -0.00000000000E+00 -0.55438047117E+03  0.55438047117E+03  0.00000000000E+00 0. -1.
         25    2    1    2    0    0 -0.26184292217E+02 -0.78704446779E+02  0.26771436533E+02  0.15238081292E+03  0.12499278071E+03 0.  0.
          2    1    1    2  501    0  0.37625893204E+02  0.14163039246E+02 -0.48992621902E+03  0.49157298502E+03  0.00000000000E+00 0. -1.
          1    1    1    2  502    0 -0.11441600986E+02  0.64541407533E+02  0.12992835163E+04  0.13009358782E+04  0.00000000000E+00 0. -1.
         22    1    3    3    0    0  0.62439098217E+01  0.29303052011E+02  0.25904629996E+02  0.39606882258E+02  0.00000000000E+00 0. -1.
         22    1    3    3    0    0 -0.32428202039E+02 -0.10800749879E+03  0.86680653769E+00  0.11277393066E+03  0.00000000000E+00 0. -1.
</event>
<event>
 7    1  0.6520971E-006  0.1639268E+03  0.7818608E-02  0.1279676E+00
          2   -1    0    0  502    0  0.00000000000E+00  0.00000000000E+00  0.93136878097E+03  0.93136878097E+03  0.00000000000E+00 0. -1.
          1   -1    0    0  501    0 -0.00000000000E+00 -0.00000000000E+00 -0.85481271124E+03  0.85481271124E+03  0.00000000000E+00 0. -1.
         25    2    1    2    0    0 -0.52974217160E+02  0.11602912633E+03  0.18421645762E+03  0.25657170656E+03  0.12499724600E+03 0.  0.
          2    1    1    2  501    0  0.22305736803E+02  0.57165981619E+02 -0.80657337062E+03  0.80890425734E+03  0.00000000000E+00 0. -1.
          1    1    1    2  502    0  0.30668480357E+02 -0.17319510795E+03  0.69891298274E+03  0.72070552832E+03  0.00000000000E+00 0. -1.
         22    1    3    3    0    0 -0.45157054883E+02  0.96297240169E+02  0.44568042836E+02  0.11531967964E+03  0.00000000000E+00 0. -1.
         22    1    3    3    0    0 -0.78171622772E+01  0.19731886162E+02  0.13964841478E+03  0.14125202692E+03  0.00000000000E+00 0. -1.
</event>
<event>
 7    1  0.6520971E-006  0.1232985E+03  0.7818608E-02  0.1403350E+00
          2   -1    0    0  502    0  0.00000000000E+00  0.00000000000E+00  0.10415989840E+04  0.10415989840E+04  0.00000000000E+00 0. -1.
          1   -1    0    0  501    0 -0.00000000000E+00 -0.00000000000E+00 -0.63889546911E+02  0.63889546911E+02  0.00000000000E+00 0. -1.
         25    2    1    2    0    0 -0.10152086811E+03 -0.73351873957E+01  0.57386491827E+03  0.59607627549E+03  0.12500276051E+03 0.  0.
          2    1    1    2  501    0  0.12385556000E+03  0.24139202503E+02  0.23885626065E+02  0.12842672609E+03  0.00000000000E+00 0. -1.
          1    1    1    2  502    0 -0.22334691888E+02 -0.16804015107E+02  0.37995889275E+03  0.38098552933E+03  0.00000000000E+00 0. -1.
         22    1    3    3    0    0 -0.49544013316E+02 -0.46182736842E+02  0.46049276843E+03  0.46544714438E+03  0.00000000000E+00 0.  1.
         22    1    3    3    0    0 -0.51976854797E+02  0.38847549447E+02  0.11337214984E+03  0.13062913110E+03  0.00000000000E+00 0.  1.
</event>
<event>
 7    1  0.6520971E-006  0.1381873E+03  0.7818608E-02  0.1292585E+00
          2   -1    0    0  502    0  0.00000000000E+00  0.00000000000E+00  0.19876068426E+03  0.19876068426E+03  0.00000000000E+00 0. -1.
          1   -1    0    0  501    0 -0.00000000000E+00 -0.00000000000E+00 -0.41738472470E+03  0.41738472470E+03  0.00000000000E+00 0. -1.
         25    2    1    2    0    0 -0.77002183797E+02 -0.13553407130E+03 -0.59310435136E+02  0.20841935008E+03  0.12498830737E+03 0.  0.
          2    1    1    2  501    0  0.11048122323E+03  0.80454253543E+02 -0.25677290141E+03  0.29088023395E+03  0.00000000000E+00 0. -1.
          1    1    1    2  502    0 -0.33479039437E+02  0.55079817762E+02  0.97459296109E+02  0.11684582493E+03  0.00000000000E+00 0. -1.
         22    1    3    3    0    0  0.15842712905E+02 -0.53794866239E+02 -0.63412319573E+02  0.84652238361E+02  0.00000000000E+00 0. -1.
         22    1    3    3    0    0 -0.92844896702E+02 -0.81739205065E+02  0.41018844369E+01  0.12376711172E+03  0.00000000000E+00 0. -1.
</event>
<event>
 7    1  0.6520971E-006  0.6285237E+02  0.7818608E-02  0.1511439E+00
          2   -1    0    0  502    0  0.00000000000E+00  0.00000000000E+00  0.64145330324E+03  0.64145330324E+03  0.00000000000E+00 0. -1.
          1   -1    0    0  501    0 -0.00000000000E+00 -0.00000000000E+00 -0.14135170390E+04  0.14135170390E+04  0.00000000000E+00 0. -1.
         25    2    1    2    0    0  0.83795325759E+02 -0.33301765482E+01  0.12730980607E+03  0.19714727000E+03  0.12500605047E+03 0.  0.
          2    1    1    2  501    0 -0.61219371488E+02  0.13847476857E+02 -0.13775596521E+04  0.13789888176E+04  0.00000000000E+00 0. -1.
          1    1    1    2  502    0 -0.22575954271E+02 -0.10517300309E+02  0.47818611027E+03  0.47883425460E+03  0.00000000000E+00 0. -1.
         22    1    3    3    0    0  0.40134723338E+02 -0.63900270720E+02  0.71217444056E+02  0.10375916805E+03  0.00000000000E+00 0. -1.
         22    1    3    3    0    0  0.43660602421E+02  0.60570094172E+02  0.56092362009E+02  0.93388101960E+02  0.00000000000E+00 0. -1.
</event>
<event>
 7    1  0.6520971E-006  0.5717233E+02  0.7818608E-02  0.1428334E+00
          2   -1    0    0  502    0  0.00000000000E+00  0.00000000000E+00  0.20306824634E+03  0.20306824634E+03  0.00000000000E+00 0. -1.
          1   -1    0    0  501    0 -0.00000000000E+00 -0.00000000000E+00 -0.10265902340E+04  0.10265902340E+04  0.00000000000E+00 0. -1.
         25    2    1    2    0    0 -0.52913253400E+02  0.61713476611E+02 -0.48151175152E+03  0.50407021078E+03  0.12499937985E+03 0.  0.
          2    1    1    2  501    0  0.54522848996E+02 -0.12057107896E+02 -0.52908762098E+03  0.53202615122E+03  0.00000000000E+00 0. -1.
          1    1    1    2  502    0 -0.16095955952E+01 -0.49656368714E+02  0.18707738482E+03  0.19356211835E+03  0.00000000000E+00 0. -1.
         22    1    3    3    0    0 -0.29917847237E+02  0.96967420014E+02 -0.27065416978E+03  0.28905265566E+03  0.00000000000E+00 0.  1.
         22    1    3    3    0    0 -0.22995406164E+02 -0.35253943404E+02 -0.21085758175E+03  0.21501755512E+03  0.00000000000E+00 0.  1.
</event>
<event>
 7    1  0.6520971E-006  0.2905080E+02  0.7818608E-02  0.1641278E+00
          2   -1    0    0  502    0  0.00000000000E+00  0.00000000000E+00  0.55095221277E+02  0.55095221277E+02  0.00000000000E+00 0. -1.
          1   -1    0    0  501    0 -0.00000000000E+00 -0.00000000000E+00 -0.55846143380E+03  0.55846143380E+03  0.00000000000E+00 0. -1.
         25    2    1    2    0    0 -0.79073806169E+01 -0.74623569459E+01 -0.28677146373E+03  0.31301944977E+03  0.12500036035E+03 0.  0.
          2    1    1    2  501    0  0.10607257003E+01  0.30511936219E+02 -0.25413189159E+03  0.25595921885E+03  0.00000000000E+00 0. -1.
          1    1    1    2  502    0  0.68466549166E+01 -0.23049579273E+02  0.37537142788E+02  0.44577986461E+02  0.00000000000E+00 0. -1.
         22    1    3    3    0    0  0.15068659248E+02 -0.24059128692E+02 -0.38111914392E+01  0.28643172749E+02  0.00000000000E+00 0. -1.
         22    1    3    3    0    0 -0.22976039865E+02  0.16596771746E+02 -0.28296027229E+03  0.28437627702E+03  0.00000000000E+00 0. -1.
</event>
<event>
 7    1  0.6520971E-006  0.5784863E+02  0.7818608E-02  0.1437615E+00
          2   -1    0    0  502    0  0.00000000000E+00  0.00000000000E+00  0.11709180408E+04  0.11709180408E+04  0.00000000000E+00 0. -1.
          1   -1    0    0  501    0 -0.00000000000E+00 -0.00000000000E+00 -0.75637056995E+02  0.75637056995E+02  0.00000000000E+00 0. -1.
         25    2    1    2    0    0 -0.46522968520E+02  0.64690073742E+01  0.12369928073E+03  0.18202287592E+03  0.12499832258E+03 0.  0.
          2    1    1    2  501    0  0.46901475803E+02  0.39308901666E+02 -0.25575075500E+02  0.66325128492E+02  0.00000000000E+00 0. -1.
          1    1    1    2  502    0 -0.37850728229E+00 -0.45777909040E+02  0.99715677857E+03  0.99820709338E+03  0.00000000000E+00 0. -1.
         22    1    3    3    0    0  0.11977290863E+02  0.48379356367E+02  0.89285190939E+02  0.10225391406E+03  0.00000000000E+00 0.  1.
         22    1    3    3    0    0 -0.58500259383E+02 -0.41910348993E+02  0.34414089794E+02  0.79768961865E+02  0.00000000000E+00 0.  1.
</event>
<event>
 7    1  0.6520971E-006  0.5184734E+02  0.7818608E-02  0.1518862E+00
          2   -1    0    0  502    0  0.00000000000E+00  0.00000000000E+00  0.20169087717E+04  0.20169087717E+04  0.00000000000E+00 0. -1.
          1   -1    0    0  501    0 -0.00000000000E+00 -0.00000000000E+00 -0.74974783641E+01  0.74974783641E+01  0.00000000000E+00 0. -1.
         25    2    1    2    0    0 -0.12146125661E+02 -0.26438710298E+02  0.98067381742E+03  0.98903727243E+03  0.12500822496E+03 0.  0.
          2    1    1    2  501    0 -0.31327117059E+00 -0.28718796150E+02  0.80910842491E+02  0.85857042948E+02  0.00000000000E+00 0. -1.
          1    1    1    2  502    0  0.12459396832E+02  0.55157506448E+02  0.94782663343E+03  0.94951193470E+03  0.00000000000E+00 0. -1.
         22    1    3    3    0    0  0.15219479653E+02 -0.51381337782E+02  0.88229889029E+03  0.88392477408E+03  0.00000000000E+00 0.  1.
         22    1    3    3    0    0 -0.27365605315E+02  0.24942627484E+02  0.98374927131E+02  0.10511249834E+03  0.00000000000E+00 0.  1.
</event>
<event>
 7    1  0.6520971E-006  0.4506770E+02  0.7818608E-02  0.1544056E+00
          2   -1    0    0  502    0  0.00000000000E+00  0.00000000000E+00  0.76439956639E+03  0.76439956639E+03  0.00000000000E+00 0. -1.
          1   -1    0    0  501    0 -0.00000000000E+00 -0.00000000000E+00 -0.38010787115E+02  0.38010787115E+02  0.00000000000E+00 0. -1.
         25    2    1    2    0    0 -0.40889550020E+02  0.16902370218E+02  0.54723481766E+03  0.56306998059E+03  0.12499684782E+03 0.  0.
          2    1    1    2  501    0  0.44029306573E+02  0.10911484012E+02 -0.11375526284E+02  0.46765830677E+02  0.00000000000E+00 0. -1.
          1    1    1    2  502    0 -0.31397565528E+01 -0.27813854231E+02  0.19052948790E+03  0.19257454223E+03  0.00000000000E+00 0. -1.
         22    1    3    3    0    0 -0.83753088528E+02  0.82621365499E+01  0.28325186669E+03  0.29549020749E+03  0.00000000000E+00 0. -1.
         22    1    3    3    0    0  0.42863538508E+02  0.86402336685E+01  0.26398295096E+03  0.26757977310E+03  0.00000000000E+00 0. -1.
</event>
<event>
 7    1  0.6520971E-006  0.3499354E+02  0.7818608E-02  0.1567447E+00
          2   -1    0    0  502    0  0.00000000000E+00  0.00000000000E+00  0.28436522082E+04  0.28436522082E+04  0.00000000000E+00 0. -1.
          1   -1    0    0  501    0 -0.00000000000E+00 -0.00000000000E+00 -0.19475736961E+03  0.19475736961E+03  0.00000000000E+00 0. -1.
         25    2    1    2    0    0 -0.80972859931E+00 -0.20814141687E+02  0.67979681663E+03  0.69150737620E+03  0.12499942116E+03 0.  0.
          2    1    1    2  501    0  0.31415293273E+02  0.15549501564E+02 -0.18716319960E+03  0.19041735986E+03  0.00000000000E+00 0. -1.
          1    1    1    2  502    0 -0.30605564674E+02  0.52646401231E+01  0.21562612215E+04  0.21564848417E+04  0.00000000000E+00 0. -1.
         22    1    3    3    0    0  0.54196508627E+02 -0.30178206807E+01  0.17030885560E+03  0.17874975548E+03  0.00000000000E+00 0.  1.
         22    1    3    3    0    0 -0.55006237226E+02 -0.17796321007E+02  0.50948796103E+03  0.51275762072E+03  0.00000000000E+00 0.  1.
</event>
<event>
 7    1  0.6520971E-006  0.8333334E+02  0.7818608E-02  0.1395531E+00
          2   -1    0    0  502    0  0.00000000000E+00  0.00000000000E+00  0.85521477532E+03  0.85521477532E+03  0.00000000000E+00 0. -1.
          1   -1    0    0  501    0 -0.00000000000E+00 -0.00000000000E+00 -0.36692675897E+03  0.36692675897E+03  0.00000000000E+00 0. -1.
         25    2    1    2    0    0  0.89757698771E+02 -0.77883858835E+02 -0.14640722313E+03  0.22623514666E+03  0.12499970657E+03 0.  0.
          2    1    1    2  501    0 -0.51377392997E+02  0.56371452410E+02 -0.17192661913E+03  0.18808545804E+03  0.00000000000E+00 0. -1.
          1    1    1    2  502    0 -0.38380305775E+02  0.21512406425E+02  0.80662185862E+03  0.80782092960E+03  0.00000000000E+00 0. -1.
         22    1    3    3    0    0  0.66859459862E+01 -0.43061641854E+02 -0.12676122479E+03  0.13404258645E+03  0.00000000000E+00 0. -1.
         22    1    3    3    0    0  0.83071752785E+02 -0.34822216981E+02 -0.19645998345E+02  0.92192560206E+02  0.00000000000E+00 0. -1.
</event>
<event>
 7    1  0.6520971E-006  0.7472552E+02  0.7818608E-02  0.1462533E+00
          2   -1    0    0  502    0  0.00000000000E+00  0.00000000000E+00  0.18866341720E+04  0.18866341720E+04  0.00000000000E+00 0. -1.
          1   -1    0    0  501    0 -0.00000000000E+00 -0.00000000000E+00 -0.60752528353E+03  0.60752528353E+03  0.00000000000E+00 0. -1.
         25    2    1    2    0    0  0.67771461611E+02 -0.15076503593E+02  0.44207150305E+03  0.46462142145E+03  0.12500231795E+03 0.  0.
          2    1    1    2  501    0 -0.73486056211E+02 -0.13861156684E+02 -0.59375292878E+03  0.59844370876E+03  0.00000000000E+00 0. -1.
          1    1    1    2  502    0  0.57145945999E+01  0.28937660277E+02  0.14307903142E+04  0.14310943253E+04  0.00000000000E+00 0. -1.
         22    1    3    3    0    0  0.23667752494E+02 -0.32470501460E+02  0.39757804282E+03  0.39960329842E+03  0.00000000000E+00 0. -1.
         22    1    3    3    0    0  0.44103709118E+02  0.17393997867E+02  0.44493460235E+02  0.65018123038E+02  0.00000000000E+00 0. -1.
</event>
<event>
 7    1  0.6520971E-006  0.6171636E+02  0.7818608E-02  0.1407155E+00
          2   -1    0    0  502    0  0.00000000000E+00  0.00000000000E+00  0.23643961864E+03  0.23643961864E+03  0.00000000000E+00 0. -1.
          1   -1    0    0  501    0 -0.00000000000E+00 -0.00000000000E+00 -0.15404602828E+04  0.15404602828E+04  0.00000000000E+00 0. -1.
         25    2    1    2    0    0  0.19687692533E+02  0.49218005810E+02 -0.85242843464E+03  0.86317476017E+03  0.12500565222E+03 0.  0.
          2    1    1    2  501    0  0.33096452304E+02 -0.61503070730E+02 -0.67766123645E+03  0.68125087468E+03  0.00000000000E+00 0. -1.
          1    1    1    2  502    0 -0.52784144837E+02  0.12285064919E+02  0.22606900689E+03  0.23247426663E+03  0.00000000000E+00 0. -1.
         22    1    3    3    0    0  0.32295468083E+02  0.71430554588E+01 -0.52560474356E+02  0.62101722718E+02  0.00000000000E+00 0.  1.
         22    1    3    3    0    0 -0.12607775550E+02  0.42074950351E+02 -0.79986796028E+03  0.80107303746E+03  0.00000000000E+00 0.  1.
</event>
<event>
 7    1  0.6520971E-006  0.9311589E+02  0.7818608E-02  0.1372969E+00
          2   -1    0    0  502    0  0.00000000000E+00  0.00000000000E+00  0.37517885623E+03  0.37517885623E+03  0.00000000000E+00 0. -1.
          1   -1    0    0  501    0 -0.00000000000E+00 -0.00000000000E+00 -0.89530637981E+02  0.89530637981E+02  0.00000000000E+00 0. -1.
         25    2    1    2    0    0 -0.10244801027E+03  0.80253686505E+02  0.14412011198E+03  0.23093736207E+03  0.12500083806E+03 0.  0.
          2    1    1    2  501    0  0.42409761194E+02 -0.20890765571E+02 -0.20138251230E+02  0.51386390156E+02  0.00000000000E+00 0. -1.
          1    1    1    2  502    0  0.60038249078E+02 -0.59362920934E+02  0.16166635750E+03  0.18238574199E+03  0.00000000000E+00 0. -1.
         22    1    3    3    0    0 -0.47410544992E+02 -0.12613132948E+02  0.10538967861E+03  0.11624902260E+03  0.00000000000E+00 0. -1.
         22    1    3    3    0    0 -0.55037465279E+02  0.92866819453E+02  0.38730433376E+02  0.11468833946E+03  0.00000000000E+00 0. -1.
</event>
<event>
 7    1  0.6520971E-006  0.9123254E+02  0.7818608E-02  0.1372413E+00
          2   -1    0    0  502    0  0.00000000000E+00  0.00000000000E+00  0.41772573566E+03  0.41772573566E+03  0.00000000000E+00 0. -1.
          1   -1    0    0  501    0 -0.00000000000E+00 -0.00000000000E+00 -0.64669002346E+03  0.64669002346E+03  0.00000000000E+00 0. -1.
         25    2    1    2    0    0 -0.43716402109E+02 -0.61742859347E+02 -0.31403720152E+03  0.34636386175E+03  0.12500102518E+03 0.  0.
          2    1    1    2  501    0 -0.40776313205E+02  0.26210493469E+02 -0.30934683905E+03  0.31312164492E+03  0.00000000000E+00 0. -1.
          1    1    1    2  502    0  0.84492715313E+02  0.35532365878E+02  0.39441975278E+03  0.40493025245E+03  0.00000000000E+00 0. -1.
         22    1    3    3    0    0 -0.44928869713E+02 -0.97387516352E+02 -0.20087042372E+03  0.22771003228E+03  0.00000000000E+00 0. -1.
         22    1    3    3    0    0  0.12124676048E+01  0.35644657006E+02 -0.11316677780E+03  0.11865382947E+03  0.00000000000E+00 0. -1.
</event>
<event>
 7    1  0.6520971E-006  0.7980942E+02  0.7818608E-02  0.1402597E+00
          2   -1    0    0  502    0  0.00000000000E+00  0.00000000000E+00  0.55135939661E+03  0.55135939661E+03  0.00000000000E+00 0. -1.
          1   -1    0    0  501    0 -0.00000000000E+00 -0.00000000000E+00 -0.19082277573E+03  0.19082277573E+03  0.00000000000E+00 0. -1.
         25    2    1    2    0    0  0.31374325980E+02 -0.75481942309E+02  0.27316926476E+03  0.31133322042E+03  0.12500021994E+03 0.  0.
          2    1    1    2  501    0 -0.64554315975E+02  0.47447563186E+02 -0.16040412248E+03  0.17929867114E+03  0.00000000000E+00 0. -1.
          1    1    1    2  502    0  0.33179989996E+02  0.28034379123E+02  0.24777147860E+03  0.25155028078E+03  0.00000000000E+00 0. -1.
         22    1    3    3    0    0  0.23866204115E+01 -0.14182360388E+02 -0.11678218317E+02  0.18526092039E+02  0.00000000000E+00 0. -1.
         22    1    3    3    0    0  0.28987705568E+02 -0.61299581921E+02  0.28484748308E+03  0.29280712839E+03  0.00000000000E+00 0. -1.
</event>
<event>
 7    1  0.6520971E-006  0.1159839E+03  0.7818608E-02  0.1305039E+00
          2   -1    0    0  502    0  0.00000000000E+00  0.00000000000E+00  0.49339338113E+03  0.49339338113E+03  0.00000000000E+00 0. -1.
          1   -1    0    0  501    0 -0.00000000000E+00 -0.00000000000E+00 -0.95686604956E+03  0.95686604956E+03  0.00000000000E+00 0. -1.
         25    2    1    2    0    0 -0.63088260070E+01  0.97276040011E+02 -0.40667480768E+02  0.16364877962E+03  0.12499859933E+03 0.  0.
          2    1    1    2  501    0  0.74552132897E+02 -0.91934575717E+02 -0.84785856562E+03  0.85608068197E+03  0.00000000000E+00 0. -1.
          1    1    1    2  502    0 -0.68243306890E+02 -0.53414642939E+01  0.42505337796E+03  0.43052996910E+03  0.00000000000E+00 0. -1.
         22    1    3    3    0    0  0.37994948478E+01  0.96740359290E+02 -0.78402510714E+02  0.12457964104E+03  0.00000000000E+00 0.  1.
         22    1    3    3    0    0 -0.10108320855E+02  0.53568072166E+00  0.37735029946E+02  0.39069138580E+02  0.00000000000E+00 0.  1.
</event>
<event>
 7    1  0.6520971E-006  0.9008025E+02  0.7818608E-02  0.1410391E+00
          2   -1    0    0  502    0  0.00000000000E+00  0.00000000000E+00  0.58641034822E+03  0.58641034822E+03  0.00000000000E+00 0. -1.
          1   -1    0    0  501    0 -0.00000000000E+00 -0.00000000000E+00 -0.11395869098E+04  0.11395869098E+04  0.00000000000E+00 0. -1.
         25    2    1    2    0    0  0.74908119199E+02 -0.96710198607E+02 -0.83748371155E+03  0.85555126762E+03  0.12499966231E+03 0.  0.
          2    1    1    2  501    0 -0.31433024097E+02  0.17961390262E+02 -0.28842740689E+03  0.29069058393E+03  0.00000000000E+00 0. -1.
          1    1    1    2  502    0 -0.43475095102E+02  0.78748808345E+02  0.57273455686E+03  0.57975540647E+03  0.00000000000E+00 0. -1.
         22    1    3    3    0    0  0.92219302719E+01 -0.10287201539E+03 -0.39993107921E+03  0.41305273715E+03  0.00000000000E+00 0.  1.
         22    1    3    3    0    0  0.65686188927E+02  0.61618167793E+01 -0.43755263234E+03  0.44249853047E+03  0.00000000000E+00 0.  1.
</event>
<event>
 7    1  0.6520971E-006  0.1328513E+03  0.7818608E-02  0.1357607E+00
          2   -1    0    0  502    0  0.00000000000E+00  0.00000000000E+00  0.20993266295E+04  0.20993266295E+04  0.00000000000E+00 0. -1.
          1   -1    0    0  501    0 -0.00000000000E+00 -0.00000000000E+00 -0.13698790343E+04  0.13698790343E+04  0.00000000000E+00 0. -1.
         25    2    1    2    0    0  0.35199629164E+02 -0.90441773414E+02 -0.26797756837E+02  0.16051734839E+03  0.12501588336E+03 0.  0.
          2    1    1    2  501    0  0.36579085159E+01 -0.37485323496E+02 -0.12737441103E+04  0.12743008233E+04  0.00000000000E+00 0. -1.
          1    1    1    2  502    0 -0.38857537680E+02  0.12792709691E+03  0.20299894624E+04  0.20343874921E+04  0.00000000000E+00 0. -1.
         22    1    3    3    0    0  0.45787668497E+02 -0.26542673424E+02  0.40853991835E+02  0.66858602646E+02  0.00000000000E+00 0. -1.
         22    1    3    3    0    0 -0.10588039333E+02 -0.63899099990E+02 -0.67651748672E+02  0.93658745747E+02  0.00000000000E+00 0. -1.
</event>
<event>
 7    1  0.6520971E-006  0.5738101E+02  0.7818608E-02  0.1424092E+00
          2   -1    0    0  502    0  0.00000000000E+00  0.00000000000E+00  0.77313024273E+03  0.77313024273E+03  0.00000000000E+00 0. -1.
          1   -1    0    0  501    0 -0.00000000000E+00 -0.00000000000E+00 -0.89735107181E+03  0.89735107181E+03  0.00000000000E+00 0. -1.
         25    2    1    2    0    0  0.42681130499E+02  0.98177080792E+02  0.51732959744E+03  0.54287698079E+03  0.12500034316E+03 0.  0.
          2    1    1    2  501    0 -0.30453591524E+02 -0.48532475690E+02 -0.88094730450E+03  0.88280857253E+03  0.00000000000E+00 0. -1.
          1    1    1    2  502    0 -0.12227538976E+02 -0.49644605102E+02  0.23939687798E+03  0.24479576122E+03  0.00000000000E+00 0. -1.
         22    1    3    3    0    0  0.65554789364E+02  0.76429507596E+02  0.49258558850E+03  0.50277177928E+03  0.00000000000E+00 0.  1.
         22    1    3    3    0    0 -0.22873658865E+02  0.21747573196E+02  0.24744008936E+02  0.40105201508E+02  0.00000000000E+00 0.  1.
</event>
<event>
 7    1  0.8297184E-006  0.1344572E+03  0.7818608E-02  0.1223841E+00
          2   -1    0    0  502    0  0.00000000000E+00  0.00000000000E+00  0.17345937677E+04  0.17345937677E+04  0.00000000000E+00 0. -1.
          1   -1    0    0  501    0 -0.00000000000E+00 -0.00000000000E+00 -0.11744323307E+04  0.11744323307E+04  0.00000000000E+00 0. -1.
         25    2    1    2    0    0 -0.81038373778E+02 -0.13318434648E+03 -0.31112694224E+03  0.36977121061E+03  0.12500194332E+03 0.  0.
          2    1    1    2  501    0  0.13575482915E+03  0.10363991090E+02 -0.82574966783E+03  0.83689861982E+03  0.00000000000E+00 0. -1.
          1    1    1    2  502    0 -0.54716455373E+02  0.12282035539E+03  0.16970380470E+04  0.17023562680E+04  0.00000000000E+00 0. -1.
         22    1    3    3    0    0 -0.24921949813E+02 -0.62159334361E+02 -0.28107194195E+02  0.72628512281E+02  0.00000000000E+00 0. -1.
         22    1    3    3    0    0 -0.56116423965E+02 -0.71025012119E+02 -0.28301974805E+03  0.29714269833E+03  0.00000000000E+00 0. -1.
</event>
<event>
 7    1  0.6520971E-006  0.1744545E+03  0.7818608E-02  0.1274370E+00
          2   -1    0    0  502    0  0.00000000000E+00  0.00000000000E+00  0.45757190312E+03  0.45757190312E+03  0.00000000000E+00 0. -1.
          1   -1    0    0  501    0 -0.00000000000E+00 -0.00000000000E+00 -0.48219661412E+03  0.48219661412E+03  0.00000000000E+00 0. -1.
         25    2    1    2    0    0 -0.11218343639E+03  0.16480736254E+03 -0.18454312621E+03  0.29904417230E+03  0.12499864564E+03 0.  0.
          2    1    1    2  501    0 -0.22687386676E+02 -0.56259026817E+02 -0.21733523168E+03  0.22564219140E+03  0.00000000000E+00 0. -1.
          1    1    1    2  502    0  0.13487082306E+03 -0.10854833572E+03  0.37725364688E+03  0.41508215354E+03  0.00000000000E+00 0. -1.
         22    1    3    3    0    0 -0.84486973923E+02  0.33282697847E+02 -0.33331107818E+02  0.96730292500E+02  0.00000000000E+00 0.  1.
         22    1    3    3    0    0 -0.27696462464E+02  0.13152466469E+03 -0.15121201839E+03  0.20231387980E+03  0.00000000000E+00 0.  1.
</event>
<event>
 7    1  0.6520971E-006  0.1102447E+03  0.7818608E-02  0.1327824E+00
          2   -1    0    0  502    0  0.00000000000E+00  0.00000000000E+00  0.14084539835E+04  0.14084539835E+04  0.00000000000E+00 0. -1.
          1   -1    0    0  501    0 -0.00000000000E+00 -0.00000000000E+00 -0.74269075874E+02  0.74269075874E+02  0.00000000000E+00 0. -1.
         25    2    1    2    0    0  0.87982870863E+02  0.86016213811E+01  0.60078736547E+03  0.61998312322E+03  0.12497456188E+03 0.  0.
          2    1    1    2  501    0  0.19102672264E+02  0.55488151429E+02 -0.45281642934E+02  0.74123371641E+02  0.00000000000E+00 0. -1.
          1    1    1    2  502    0 -0.10708554313E+03 -0.64089772810E+02  0.77867918509E+03  0.78861656451E+03  0.00000000000E+00 0. -1.
         22    1    3    3    0    0  0.76102858639E+02  0.88661394779E+01  0.14462714640E+03  0.16366815512E+03  0.00000000000E+00 0.  1.
         22    1    3    3    0    0  0.11880012224E+02 -0.26451809674E+00  0.45616021907E+03  0.45631496811E+03  0.00000000000E+00 0.  1.
</event>
<event>
 7    1  0.6520971E-006  0.4461732E+02  0.7818608E-02  0.1493815E+00
          2   -1    0    0  502    0  0.00000000000E+00  0.00000000000E+00  0.31909997034E+03  0.31909997034E+03  0.00000000000E+00 0. -1.
          1   -1    0    0  501    0 -0.00000000000E+00 -0.00000000000E+00 -0.12700601374E+04  0.12700601374E+04  0.00000000000E+00 0. -1.
         25    2    1    2    0    0  0.33325561639E+02  0.76535136201E+02 -0.29002868072E+03  0.32666461732E+03  0.12499966576E+03 0.  0.
          2    1    1    2  501    0 -0.11417812854E+02 -0.37901563961E+02 -0.95966376795E+03  0.96047979808E+03  0.00000000000E+00 0. -1.
          1    1    1    2  502    0 -0.21907748786E+02 -0.38633572240E+02  0.29873228159E+03  0.30201569235E+03  0.00000000000E+00 0. -1.
         22    1    3    3    0    0  0.46314497577E+02  0.10210716533E+03 -0.17286812445E+03  0.20604439897E+03  0.00000000000E+00 0.  1.
         22    1    3    3    0    0 -0.12988935938E+02 -0.25572029125E+02 -0.11716055627E+03  0.12062021835E+03  0.00000000000E+00 0.  1.
</event>
<event>
 7    1  0.6520971E-006  0.6997177E+02  0.7818608E-02  0.1360696E+00
          2   -1    0    0  502    0  0.00000000000E+00  0.00000000000E+00  0.12531865934E+03  0.12531865934E+03  0.00000000000E+00 0. -1.
          1   -1    0    0  501    0 -0.00000000000E+00 -0.00000000000E+00 -0.21034357527E+04  0.21034357527E+04  0.00000000000E+00 0. -1.
         25    2    1    2    0    0  0.97461515477E+01 -0.32451719431E+02 -0.14572247456E+04  0.14629686211E+04  0.12500050197E+03 0.  0.
          2    1    1    2  501    0  0.60630365372E+02  0.34328997147E+02 -0.63114156500E+03  0.63497574467E+03  0.00000000000E+00 0. -1.
          1    1    1    2  502    0 -0.70376516920E+02 -0.18772777158E+01  0.11024921725E+03  0.13081004629E+03  0.00000000000E+00 0. -1.
         22    1    3    3    0    0 -0.54479180345E+02 -0.22807095657E+02 -0.90770253214E+03  0.90962191682E+03  0.00000000000E+00 0.  1.
         22    1    3    3    0    0  0.64225331892E+02 -0.96446237738E+01 -0.54952221351E+03  0.55334670430E+03  0.00000000000E+00 0.  1.
</event>
<event>
 7    1  0.6520971E-006  0.1455385E+03  0.7818608E-02  0.1321885E+00
          2   -1    0    0  502    0  0.00000000000E+00  0.00000000000E+00  0.54572358819E+03  0.54572358819E+03  0.00000000000E+00 0. -1.
          1   -1    0    0  501    0 -0.00000000000E+00 -0.00000000000E+00 -0.14129251779E+03  0.14129251779E+03  0.00000000000E+00 0. -1.
         25    2    1    2    0    0  0.15447898041E+03 -0.73314001493E+02  0.64442805194E+02  0.22139829873E+03  0.12500253331E+03 0.  0.
          2    1    1    2  501    0 -0.12909371905E+03  0.33929255126E+02  0.11686027998E+02  0.13398860362E+03  0.00000000000E+00 0. -1.
          1    1    1    2  502    0 -0.25385261368E+02  0.39384746367E+02  0.32830223721E+03  0.33162920362E+03  0.00000000000E+00 0. -1.
         22    1    3    3    0    0  0.21167246498E+02 -0.71549265157E+02  0.32046585452E+01  0.74683462059E+02  0.00000000000E+00 0. -1.
         22    1    3    3    0    0  0.13331173391E+03 -0.17647363364E+01  0.61238146649E+02  0.14671483667E+03  0.00000000000E+00 0. -1.
</event>
<event>
 7    1  0.6520971E-006  0.1874249E+03  0.7818608E-02  0.1366265E+00
          2   -1    0    0  502    0  0.00000000000E+00  0.00000000000E+00  0.14077910708E+04  0.14077910708E+04  0.00000000000E+00 0. -1.
          1   -1    0    0  501    0 -0.00000000000E+00 -0.00000000000E+00 -0.27384233467E+03  0.27384233467E+03  0.00000000000E+00 0. -1.
         25    2    1    2    0    0 -0.12031443819E+03  0.12195575091E+03  0.24535330485E+01  0.21209879768E+03  0.12502444135E+03 0.  0.
          2    1    1    2  501    0  0.13537875307E+03 -0.14169217055E+03 -0.11204996141E+03  0.22574160412E+03  0.00000000000E+00 0. -1.
          1    1    1    2  502    0 -0.15064314885E+02  0.19736419645E+02  0.12435451645E+04  0.12437930036E+04  0.00000000000E+00 0. -1.
         22    1    3    3    0    0 -0.10827279725E+03  0.41929890682E+02  0.40108461775E+02  0.12284055952E+03  0.00000000000E+00 0.  1.
         22    1    3    3    0    0 -0.12041640933E+02  0.80025860227E+02 -0.37654928726E+02  0.89258238157E+02  0.00000000000E+00 0.  1.
</event>
<event>
 7    1  0.6520971E-006  0.3959843E+03  0.7818608E-02  0.1189210E+00
          2   -1    0    0  502    0  0.00000000000E+00  0.00000000000E+00  0.74435632044E+03  0.74435632044E+03  0.00000000000E+00 0. -1.
          1   -1    0    0  501    0 -0.00000000000E+00 -0.00000000000E+00 -0.14909776042E+04  0.14909776042E+04  0.00000000000E+00 0. -1.
         25    2    1    2    0    0  0.18431931564E+03  0.29264828574E+03 -0.51788486424E+03  0.63517246838E+03  0.12499081050E+03 0.  0.
          2    1    1    2  501    0 -0.10581044838E+01  0.64274137399E+02 -0.85444792197E+03  0.85686261191E+03  0.00000000000E+00 0. -1.
          1    1    1    2  502    0 -0.18326121115E+03 -0.35692242314E+03  0.62571150248E+03  0.74329884433E+03  0.00000000000E+00 0. -1.
         22    1    3    3    0    0  0.28255705482E+02  0.18624329365E+02 -0.13482515043E+03  0.13900745205E+03  0.00000000000E+00 0.  1.
         22    1    3    3    0    0  0.15606361015E+03  0.27402395638E+03 -0.38305971381E+03  0.49616501633E+03  0.00000000000E+00 0.  1.
</event>
<event>
 7    1  0.6520971E-006  0.8209496E+02  0.7818608E-02  0.1421798E+00
          2   -1    0    0  502    0  0.00000000000E+00  0.00000000000E+00  0.29436342555E+04  0.29436342555E+04  0.00000000000E+00 0. -1.
          1   -1    0    0  501    0 -0.00000000000E+00 -0.00000000000E+00 -0.87724511302E+03  0.87724511302E+03  0.00000000000E+00 0. -1.
         25    2    1    2    0    0 -0.65943395913E+02  0.41648926730E+02  0.30591254711E+03  0.33954472058E+03  0.12499986492E+03 0.  0.
          2    1    1    2  501    0 -0.16108163838E+02 -0.32608274880E+02 -0.85939432064E+03  0.86016357217E+03  0.00000000000E+00 0. -1.
          1    1    1    2  502    0  0.82051559751E+02 -0.90406518505E+01  0.26198709160E+04  0.26211710757E+04  0.00000000000E+00 0. -1.
         22    1    3    3    0    0 -0.36875355201E+01  0.75904262031E+02  0.14751921569E+03  0.16594268260E+03  0.00000000000E+00 0.  1.
         22    1    3    3    0    0 -0.62255860393E+02 -0.34255335300E+02  0.15839333142E+03  0.17360203797E+03  0.00000000000E+00 0.  1.
</event>
<event>
 7    1  0.6520971E-006  0.9906983E+02  0.7818608E-02  0.1437522E+00
          2   -1    0    0  502    0  0.00000000000E+00  0.00000000000E+00  0.17391363697E+04  0.17391363697E+04  0.00000000000E+00 0. -1.
          1   -1    0    0  501    0 -0.00000000000E+00 -0.00000000000E+00 -0.78386871252E+03  0.78386871252E+03  0.00000000000E+00 0. -1.
         25    2    1    2    0    0 -0.41973340492E+02 -0.11105177168E+03 -0.35404261115E+03  0.39378274472E+03  0.12499768889E+03 0.  0.
          2    1    1    2  501    0 -0.79294075687E+01  0.25547686820E+02 -0.40809257933E+03  0.40896835221E+03  0.00000000000E+00 0. -1.
          1    1    1    2  502    0  0.49902748061E+02  0.85504084858E+02  0.17174028476E+04  0.17202539853E+04  0.00000000000E+00 0. -1.
         22    1    3    3    0    0 -0.80950561028E+02 -0.43121476105E+02 -0.15827046811E+03  0.18292620399E+03  0.00000000000E+00 0. -1.
         22    1    3    3    0    0  0.38977220536E+02 -0.67930295573E+02 -0.19577214304E+03  0.21085654073E+03  0.00000000000E+00 0. -1.
</event>
<event>
 7    1  0.6520971E-006  0.1744079E+03  0.7818608E-02  0.1227317E+00
          2   -1    0    0  502    0  0.00000000000E+00  0.00000000000E+00  0.52033784894E+03  0.52033784894E+03  0.00000000000E+00 0. -1.
          1   -1    0    0  501    0 -0.00000000000E+00 -0.00000000000E+00 -0.32156343956E+03  0.32156343956E+03  0.00000000000E+00 0. -1.
         25    2    1    2    0    0 -0.19344469031E+03  0.14006113024E+03  0.15054133831E+03  0.30874165046E+03  0.12498297394E+03 0.  0.
          2    1    1    2  501    0  0.96459506935E+02 -0.13683114954E+03 -0.20341613464E+03  0.26344890168E+03  0.00000000000E+00 0. -1.
          1    1    1    2  502    0  0.96985183374E+02 -0.32299806983E+01  0.25164920571E+03  0.26971073636E+03  0.00000000000E+00 0. -1.
         22    1    3    3    0    0 -0.18247038850E+03  0.16247462889E+03  0.13241798103E+03  0.27789920729E+03  0.00000000000E+00 0. -1.
         22    1    3    3    0    0 -0.10974301812E+02 -0.22413498646E+02  0.18123357276E+02  0.30842443171E+02  0.00000000000E+00 0. -1.
</event>
<event>
 7    1  0.6520971E-006  0.1125630E+03  0.7818608E-02  0.1352185E+00
          2   -1    0    0  502    0  0.00000000000E+00  0.00000000000E+00  0.89670981284E+03  0.89670981284E+03  0.00000000000E+00 0. -1.
          1   -1    0    0  501    0 -0.00000000000E+00 -0.00000000000E+00 -0.12163410246E+04  0.12163410246E+04  0.00000000000E+00 0. -1.
         25    2    1    2    0    0 -0.55510767454E+02 -0.64157181906E+02 -0.47293146361E+03  0.49648488778E+03  0.12504193387E+03 0.  0.
          2    1    1    2  501    0  0.10052661774E+03  0.75971651185E+02 -0.72558729487E+03  0.73644702127E+03  0.00000000000E+00 0. -1.
          1    1    1    2  502    0 -0.45015850289E+02 -0.11814469279E+02  0.87888754669E+03  0.88011892843E+03  0.00000000000E+00 0. -1.
         22    1    3    3    0    0  0.79309269837E+01  0.13375051618E+02 -0.26726442119E+03  0.26771638434E+03  0.00000000000E+00 0. -1.
         22    1    3    3    0    0 -0.63441694437E+02 -0.77532233523E+02 -0.20566704242E+03  0.22876850344E+03  0.00000000000E+00 0. -1.
</event>
<event>
 7    1  0.6520971E-006  0.8548930E+02  0.7818608E-02  0.1427694E+00
          2   -1    0    0  502    0  0.00000000000E+00  0.00000000000E+00  0.73985558439E+03  0.73985558439E+03  0.00000000000E+00 0. -1.
          1   -1    0    0  501    0 -0.00000000000E+00 -0.00000000000E+00 -0.48292351615E+02  0.48292351615E+02  0.00000000000E+00 0. -1.
         25    2    1    2    0    0 -0.29083599541E+02  0.10242333710E+03  0.50723775934E+03  0.53315198066E+03  0.12499797692E+03 0.  0.
          2    1    1    2  501    0  0.17529837745E+02 -0.28415625139E+02 -0.18927896737E+02  0.38379789450E+02  0.00000000000E+00 0. -1.
          1    1    1    2  502    0  0.11553761796E+02 -0.74007711963E+02  0.20325337017E+03  0.21661616589E+03  0.00000000000E+00 0. -1.
         22    1    3    3    0    0  0.13035247394E+02 -0.19298303773E+02  0.17963324208E+03  0.18113653376E+03  0.00000000000E+00 0.  1.
         22    1    3    3    0    0 -0.42118846934E+02  0.12172164087E+03  0.32760451726E+03  0.35201544690E+03  0.00000000000E+00 0.  1.
</event>
<event>
 7    1  0.6520971E-006  0.1815302E+03  0.7818608E-02  0.1331986E+00
          2   -1    0    0  502    0  0.00000000000E+00  0.00000000000E+00  0.25430209861E+03  0.25430209861E+03  0.00000000000E+00 0. -1.
          1   -1    0    0  501    0 -0.00000000000E+00 -0.00000000000E+00 -0.41425510528E+03  0.41425510528E+03  0.00000000000E+00 0. -1.
         25    2    1    2    0    0  0.15363552961E+03 -0.29591670753E+02  0.11858607053E+03  0.23273956484E+03  0.12500202392E+03 0.  0.
          2    1    1    2  501    0 -0.17677017564E+03  0.54993730007E+02 -0.32738262227E+03  0.37610023491E+03  0.00000000000E+00 0. -1.
          1    1    1    2  502    0  0.23134646033E+02 -0.25402059253E+02  0.48843545077E+02  0.59717404139E+02  0.00000000000E+00 0. -1.
         22    1    3    3    0    0  0.82100929377E+01  0.10147162346E+02 -0.22661368722E+02  0.26151637847E+02  0.00000000000E+00 0. -1.
         22    1    3    3    0    0  0.14542543667E+03 -0.39738833099E+02  0.14124743925E+03  0.20658792700E+03  0.00000000000E+00 0. -1.
</event>
<event>
 7    1  0.6520971E-006  0.1118581E+03  0.7818608E-02  0.1274096E+00
          2   -1    0    0  502    0  0.00000000000E+00  0.00000000000E+00  0.70936843814E+03  0.70936843814E+03  0.00000000000E+00 0. -1.
          1   -1    0    0  501    0 -0.00000000000E+00 -0.00000000000E+00 -0.16212690894E+04  0.16212690894E+04  0.00000000000E+00 0. -1.
         25    2    1    2    0    0 -0.13518629322E+03  0.83981979803E+02  0.22101020434E+03  0.29965287657E+03  0.12497211372E+03 0.  0.
          2    1    1    2  501    0  0.27386766387E+02 -0.90817353362E+02 -0.15740033717E+04  0.15768590428E+04  0.00000000000E+00 0. -1.
          1    1    1    2  502    0  0.10779952684E+03  0.68353735596E+01  0.44109251606E+03  0.45412560822E+03  0.00000000000E+00 0. -1.
         22    1    3    3    0    0 -0.85378607338E+01 -0.23817296272E+02  0.30469667486E+01  0.25484165161E+02  0.00000000000E+00 0.  1.
         22    1    3    3    0    0 -0.12664843249E+03  0.10779927607E+03  0.21796323760E+03  0.27416871141E+03  0.00000000000E+00 0.  1.
</event>
<event>
 7    1  0.6520971E-006  0.9059447E+02  0.7818608E-02  0.1309341E+00
          2   -1    0    0  502    0  0.00000000000E+00  0.00000000000E+00  0.32570785629E+04  0.32570785629E+04  0.00000000000E+00 0. -1.
          1   -1    0    0  501    0 -0.00000000000E+00 -0.00000000000E+00 -0.27739208116E+02  0.27739208116E+02  0.00000000000E+00 0. -1.
         25    2    1    2    0    0  0.18081714429E+01  0.12680369465E+02  0.21873918848E+04  0.21909982233E+04  0.12500358271E+03 0.  0.
          2    1    1    2  501    0  0.47085201505E+02 -0.81311082130E+02  0.67396209267E+02  0.11563199082E+03  0.00000000000E+00 0. -1.
          1    1    1    2  502    0 -0.48893372948E+02  0.68630712665E+02  0.97455126068E+03  0.97818755683E+03  0.00000000000E+00 0. -1.
         22    1    3    3    0    0 -0.22272105630E+02 -0.47253778158E+02  0.13951549685E+04  0.13961326414E+04  0.00000000000E+00 0. -1.
         22    1    3    3    0    0  0.24080277073E+02  0.59934147623E+02  0.79223691630E+03  0.79486558193E+03  0.00000000000E+00 0. -1.
</event>
<event>
 7    1  0.6520971E-006  0.1141234E+03  0.7818608E-02  0.1407934E+00
          2   -1    0    0  502    0  0.00000000000E+00  0.00000000000E+00  0.21913238715E+04  0.21913238715E+04  0.00000000000E+00 0. -1.
          1   -1    0    0  501    0 -0.00000000000E+00 -0.00000000000E+00 -0.80974562116E+03  0.80974562116E+03  0.00000000000E+00 0. -1.
         25    2    1    2    0    0 -0.69523820961E+02 -0.49993622259E+02 -0.10027881010E+02  0.15185141659E+03  0.12500148149E+03 0.  0.
          2    1    1    2  501    0 -0.25116837607E+02 -0.14754108114E+02 -0.72696376403E+03  0.72754714861E+03  0.00000000000E+00 0. -1.
          1    1    1    2  502    0  0.94640658568E+02  0.64747730373E+02  0.21185698954E+04  0.21216709275E+04  0.00000000000E+00 0. -1.
         22    1    3    3    0    0 -0.73896311477E+02  0.89766441206E+01  0.30200631682E+02  0.80332578345E+02  0.00000000000E+00 0.  1.
         22    1    3    3    0    0  0.43724905156E+01 -0.58970266380E+02 -0.40228512692E+02  0.71518838243E+02  0.00000000000E+00 0.  1.
</event>
<event>
 7    1  0.6520971E-006  0.7842215E+02  0.7818608E-02  0.1372598E+00
          2   -1    0    0  502    0  0.00000000000E+00  0.00000000000E+00  0.21649995874E+04  0.21649995874E+04  0.00000000000E+00 0. -1.
          1   -1    0    0  501    0 -0.00000000000E+00 -0.00000000000E+00 -0.44405088339E+02  0.44405088339E+02  0.00000000000E+00 0. -1.
         25    2    1    2    0    0  0.19134406334E+02  0.23404089657E+02  0.33819091031E+03  0.36181667538E+03  0.12499735136E+03 0.  0.
          2    1    1    2  501    0 -0.50137958215E+02 -0.70405721172E+02  0.25968229267E+02  0.90250370409E+02  0.00000000000E+00 0. -1.
          1    1    1    2  502    0  0.31003551881E+02  0.47001631515E+02  0.17564353595E+04  0.17573376299E+04  0.00000000000E+00 0. -1.
         22    1    3    3    0    0  0.32469227086E+02  0.49703281898E+02  0.69042462883E+02  0.91057831184E+02  0.00000000000E+00 0. -1.
         22    1    3    3    0    0 -0.13334820752E+02 -0.26299192241E+02  0.26914844743E+03  0.27075884419E+03  0.00000000000E+00 0. -1.
</event>
<event>
 7    1  0.6520971E-006  0.1077537E+03  0.7818608E-02  0.1398474E+00
          2   -1    0    0  502    0  0.00000000000E+00  0.00000000000E+00  0.72452091233E+03  0.72452091233E+03  0.00000000000E+00 0. -1.
          1   -1    0    0  501    0 -0.00000000000E+00 -0.00000000000E+00 -0.96559118441E+03  0.96559118441E+03  0.00000000000E+00 0. -1.
         25    2    1    2    0    0 -0.62787365751E+02 -0.81344037481E+02 -0.35352328437E+03  0.38879802423E+03  0.12500434123E+03 0.  0.
          2    1    1    2  501    0  0.90518137079E+02  0.63017134742E+02 -0.58891742343E+03  0.59915642701E+03  0.00000000000E+00 0. -1.
          1    1    1    2  502    0 -0.27730771328E+02  0.18326902738E+02  0.70137043571E+03  0.70215764550E+03  0.00000000000E+00 0. -1.
         22    1    3    3    0    0 -0.69412750445E+02 -0.87921687624E+02 -0.36026733122E+03  0.37728093382E+03  0.00000000000E+00 0.  1.
         22    1    3    3    0    0  0.66253846938E+01  0.65776501429E+01  0.67440468509E+01  0.11517090417E+02  0.00000000000E+00 0.  1.
</event>
<event>
 7    1  0.6520971E-006  0.1089662E+03  0.7818608E-02  0.1338089E+00
          2   -1    0    0  502    0  0.00000000000E+00  0.00000000000E+00  0.97787062833E+03  0.97787062833E+03  0.00000000000E+00 0. -1.
          1   -1    0    0  501    0 -0.00000000000E+00 -0.00000000000E+00 -0.22287084291E+04  0.22287084291E+04  0.00000000000E+00 0. -1.
         25    2    1    2    0    0  0.53921420047E+02 -0.13351848358E+03 -0.93988651126E+02  0.21258613703E+03  0.12499717645E+03 0.  0.
          2    1    1    2  501    0 -0.48017552954E+02  0.25286934473E+02 -0.20718668830E+04  0.20725775005E+04  0.00000000000E+00 0. -1.
          1    1    1    2  502    0 -0.59038670929E+01  0.10823154911E+03  0.91501773333E+03  0.92141541998E+03  0.00000000000E+00 0. -1.
         22    1    3    3    0    0 -0.17081652327E+02 -0.75212016921E+02 -0.92848015418E+02  0.12070370459E+03  0.00000000000E+00 0. -1.
         22    1    3    3    0    0  0.71003072374E+02 -0.58306466664E+02 -0.11406357082E+01  0.91882432441E+02  0.00000000000E+00 0. -1.
</event>
<event>
 7    1  0.6520971E-006  0.7985854E+02  0.7818608E-02  0.1361324E+00
          2   -1    0    0  502    0  0.00000000000E+00  0.00000000000E+00  0.29379819727E+04  0.29379819727E+04  0.00000000000E+00 0. -1.
          1   -1    0    0  501    0 -0.00000000000E+00 -0.00000000000E+00 -0.59995658231E+02  0.59995658231E+02  0.00000000000E+00 0. -1.
         25    2    1    2    0    0  0.27452863960E+02 -0.95713385382E+01  0.24922406015E+03  0.28032327603E+03  0.12499294645E+03 0.  0.
          2    1    1    2  501    0 -0.88159334879E+02  0.79580159898E+01  0.32773314657E+00  0.88518392178E+02  0.00000000000E+00 0. -1.
          1    1    1    2  502    0  0.60706470919E+02  0.16133225484E+01  0.26284345212E+04  0.26291359628E+04  0.00000000000E+00 0. -1.
         22    1    3    3    0    0  0.16433638730E+02 -0.60105282114E+02  0.69677093883E+02  0.93475166927E+02  0.00000000000E+00 0. -1.
         22    1    3    3    0    0  0.11019225230E+02  0.50533943576E+02  0.17954696627E+03  0.18684810910E+03  0.00000000000E+00 0. -1.
</event>
<event>
 7    1  0.6520971E-006  0.5149017E+02  0.7818608E-02  0.1456693E+00
          2   -1    0    0  502    0  0.00000000000E+00  0.00000000000E+00  0.57926588304E+03  0.57926588304E+03  0.00000000000E+00 0. -1.
          1   -1    0    0  501    0 -0.00000000000E+00 -0.00000000000E+00 -0.32015767141E+03  0.32015767141E+03  0.00000000000E+00 0. -1.
         25    2    1    2    0    0  0.62822266744E+02  0.54117573560E+02 -0.16267535589E+03  0.22127507210E+03  0.12499614856E+03 0.  0.
          2    1    1    2  501    0 -0.12729431366E+02 -0.42810667901E+02 -0.12304753509E+03  0.13090258822E+03  0.00000000000E+00 0. -1.
          1    1    1    2  502    0 -0.50092835378E+02 -0.11306905659E+02  0.54483110260E+03  0.54724589413E+03  0.00000000000E+00 0. -1.
         22    1    3    3    0    0 -0.14296913599E+02  0.21458532675E+02  0.11329695781E+02  0.28164381220E+02  0.00000000000E+00 0. -1.
         22    1    3    3    0    0  0.77119180343E+02  0.32659040885E+02 -0.17400505167E+03  0.19311069088E+03  0.00000000000E+00 0. -1.
</event>
<event>
 7    1  0.6520971E-006  0.7015719E+02  0.7818608E-02  0.1484497E+00
          2   -1    0    0  502    0  0.00000000000E+00  0.00000000000E+00  0.12527922949E+04  0.12527922949E+04  0.00000000000E+00 0. -1.
          1   -1    0    0  501    0 -0.00000000000E+00 -0.00000000000E+00 -0.16717082144E+02  0.16717082144E+02  0.00000000000E+00 0. -1.
         25    2    1    2    0    0 -0.39240061732E+02 -0.28710654390E+02  0.69935535757E+03  0.71209791999E+03  0.12498578869E+03 0.  0.
          2    1    1    2  501    0  0.64962789032E+02  0.36458327423E+02  0.13019831593E+03  0.15000325019E+03  0.00000000000E+00 0. -1.
          1    1    1    2  502    0 -0.25722727300E+02 -0.77476730330E+01  0.40652153930E+03  0.40740820690E+03  0.00000000000E+00 0. -1.
         22    1    3    3    0    0 -0.43813682647E+02 -0.59924854421E+02  0.64494658771E+03  0.64920468880E+03  0.00000000000E+00 0.  1.
         22    1    3    3    0    0  0.45736209151E+01  0.31214200032E+02  0.54408769867E+02  0.62893231197E+02  0.00000000000E+00 0.  1.
</event>
<event>
 7    1  0.6520971E-006  0.4965450E+02  0.7818608E-02  0.1475346E+00
          2   -1    0    0  502    0  0.00000000000E+00  0.00000000000E+00  0.85752234499E+02  0.85752234499E+02  0.00000000000E+00 0. -1.
          1   -1    0    0  501    0 -0.00000000000E+00 -0.00000000000E+00 -0.11628295344E+04  0.11628295344E+04  0.00000000000E+00 0. -1.
         25    2    1    2    0    0  0.12070693449E+02  0.30370053113E+02 -0.65430817204E+03  0.66694432677E+03  0.12501003659E+03 0.  0.
          2    1    1    2  501    0  0.36352180143E+02 -0.17834443770E+02 -0.49341670825E+03  0.49507534413E+03  0.00000000000E+00 0. -1.
          1    1    1    2  502    0 -0.48422873592E+02 -0.12535609343E+02  0.70647580410E+02  0.86562097977E+02  0.00000000000E+00 0. -1.
         22    1    3    3    0    0  0.38524709328E+02  0.69790588668E+02 -0.46438765082E+03  0.47118018817E+03  0.00000000000E+00 0. -1.
         22    1    3    3    0    0 -0.26454015879E+02 -0.39420535555E+02 -0.18992052122E+03  0.19576413860E+03  0.00000000000E+00 0. -1.
</event>
<event>
 7    1  0.6520971E-006  0.1825543E+03  0.7818608E-02  0.1236619E+00
          2   -1    0    0  502    0  0.00000000000E+00  0.00000000000E+00  0.86755088359E+03  0.86755088359E+03  0.00000000000E+00 0. -1.
          1   -1    0    0  501    0 -0.00000000000E+00 -0.00000000000E+00 -0.19755838542E+04  0.19755838542E+04  0.00000000000E+00 0. -1.
         25    2    1    2    0    0  0.10345996197E+03 -0.29994938376E+02 -0.11762037197E+03  0.20264039738E+03  0.12499967475E+03 0.  0.
          2    1    1    2  501    0  0.63919828257E+02 -0.54878217034E+02 -0.18037855661E+04  0.18057518467E+04  0.00000000000E+00 0. -1.
          1    1    1    2  502    0 -0.16737979023E+03  0.84873155410E+02  0.81337296747E+03  0.83474249376E+03  0.00000000000E+00 0. -1.
         22    1    3    3    0    0  0.52679814587E+02 -0.57355003428E+02 -0.12206054323E+03  0.14478789831E+03  0.00000000000E+00 0.  1.
         22    1    3    3    0    0  0.50780147387E+02  0.27360065052E+02  0.44401712572E+01  0.57852499074E+02  0.00000000000E+00 0.  1.
</event>
<event>
 7    1  0.6520971E-006  0.1684976E+03  0.7818608E-02  0.1264358E+00
          2   -1    0    0  502    0  0.00000000000E+00  0.00000000000E+00  0.13135083964E+04  0.13135083964E+04  0.00000000000E+00 0. -1.
          1   -1    0    0  501    0 -0.00000000000E+00 -0.00000000000E+00 -0.10876186649E+04  0.10876186649E+04  0.00000000000E+00 0. -1.
         25    2    1    2    0    0  0.20634719077E+03  0.44117427268E+02  0.33339733345E+03  0.41388925053E+03  0.12500007691E+03 0.  0.
          2    1    1    2  501    0 -0.62243404716E+02  0.30232691025E+02 -0.10392194731E+04  0.10415207008E+04  0.00000000000E+00 0. -1.
          1    1    1    2  502    0 -0.14410378605E+03 -0.74350118293E+02  0.93171187108E+03  0.94571710990E+03  0.00000000000E+00 0. -1.
         22    1    3    3    0    0  0.12114013509E+03  0.86568472862E+02  0.22269744115E+03  0.26788651164E+03  0.00000000000E+00 0.  1.
         22    1    3    3    0    0  0.85207055676E+02 -0.42451045594E+02  0.11069989230E+03  0.14600273890E+03  0.00000000000E+00 0.  1.
</event>
<event>
 7    1  0.6520971E-006  0.1559190E+03  0.7818608E-02  0.1333104E+00
          2   -1    0    0  502    0  0.00000000000E+00  0.00000000000E+00  0.46509475422E+03  0.46509475422E+03  0.00000000000E+00 0. -1.
          1   -1    0    0  501    0 -0.00000000000E+00 -0.00000000000E+00 -0.11055929676E+04  0.11055929676E+04  0.00000000000E+00 0. -1.
         25    2    1    2    0    0  0.30274254263E+02 -0.12084428211E+03  0.52075560231E+02  0.18400117726E+03  0.12499879308E+03 0.  0.
          2    1    1    2  501    0 -0.61653981306E+02  0.14501850580E+03 -0.10325022054E+04  0.10444579381E+04  0.00000000000E+00 0. -1.
          1    1    1    2  502    0  0.31379727043E+02 -0.24174223695E+02  0.33992843174E+03  0.34222860644E+03  0.00000000000E+00 0. -1.
         22    1    3    3    0    0 -0.76629610316E+00  0.25415091962E+02 -0.71964732557E+00  0.25436823729E+02  0.00000000000E+00 0. -1.
         22    1    3    3    0    0  0.31040550366E+02 -0.14625937407E+03  0.52795207557E+02  0.15856435353E+03  0.00000000000E+00 0. -1.
</event>
<event>
 7    1  0.6520971E-006  0.1960531E+03  0.7818608E-02  0.1242452E+00
          2   -1    0    0  502    0  0.00000000000E+00  0.00000000000E+00  0.45261417190E+03  0.45261417190E+03  0.00000000000E+00 0. -1.
          1   -1    0    0  501    0 -0.00000000000E+00 -0.00000000000E+00 -0.12724266100E+04  0.12724266100E+04  0.00000000000E+00 0. -1.
         25    2    1    2    0    0 -0.35806906796E+02  0.19302736134E+03 -0.33505189130E+03  0.40795307797E+03  0.12499698863E+03 0.  0.
          2    1    1    2  501    0  0.73929985214E+02  0.10550242758E+00 -0.87599931698E+03  0.87911344956E+03  0.00000000000E+00 0. -1.
          1    1    1    2  502    0 -0.38123078417E+02 -0.19313286377E+03  0.39123877019E+03  0.43797425435E+03  0.00000000000E+00 0. -1.
         22    1    3    3    0    0 -0.68270556854E+02  0.18249194136E+03 -0.25492235200E+03  0.32085757455E+03  0.00000000000E+00 0. -1.
         22    1    3    3    0    0  0.32463650058E+02  0.10535419979E+02 -0.80129539293E+02  0.87095503424E+02  0.00000000000E+00 0. -1.
</event>
<event>
 7    1  0.6520971E-006  0.5932467E+02  0.7818608E-02  0.1427121E+00
          2   -1    0    0  502    0  0.00000000000E+00  0.00000000000E+00  0.11478458461E+04  0.11478458461E+04  0.00000000000E+00 0. -1.
          1   -1    0    0  501    0 -0.00000000000E+00 -0.00000000000E+00 -0.30965342462E+02  0.30965342462E+02  0.00000000000E+00 0. -1.
         25    2    1    2    0    0  0.21760188140E+02  0.63080847979E+02  0.34344489862E+03  0.37151789046E+03  0.12497377875E+03 0.  0.
          2    1    1    2  501    0  0.25879113546E+02 -0.54977271778E+02  0.41084457294E+02  0.73349584602E+02  0.00000000000E+00 0. -1.
          1    1    1    2  502    0 -0.47639301685E+02 -0.81035762005E+01  0.73235114777E+03  0.73394371354E+03  0.00000000000E+00 0. -1.
         22    1    3    3    0    0  0.58769693882E+01 -0.38447098003E+02  0.91811144800E+02  0.99709600458E+02  0.00000000000E+00 0. -1.
         22    1    3    3    0    0  0.15883218751E+02  0.10152794598E+03  0.25163375382E+03  0.27180829001E+03  0.00000000000E+00 0. -1.
</event>
<event>
 7    1  0.6520971E-006  0.1313360E+03  0.7818608E-02  0.1352227E+00
          2   -1    0    0  502    0  0.00000000000E+00  0.00000000000E+00  0.86836361207E+03  0.86836361207E+03  0.00000000000E+00 0. -1.
          1   -1    0    0  501    0 -0.00000000000E+00 -0.00000000000E+00 -0.42897565773E+02  0.42897565773E+02  0.00000000000E+00 0. -1.
         25    2    1    2    0    0 -0.11963228187E+03 -0.24680565950E+01  0.34409875212E+03  0.38514368756E+03  0.12495493063E+03 0.  0.
          2    1    1    2  501    0  0.13655266083E+03 -0.33637566136E+02  0.21584720545E+03  0.25762012953E+03  0.00000000000E+00 0. -1.
          1    1    1    2  502    0 -0.16920378960E+02  0.36105622731E+02  0.26552008872E+03  0.26849736075E+03  0.00000000000E+00 0. -1.
         22    1    3    3    0    0 -0.12221365775E+03  0.20463833319E+02  0.33977475385E+03  0.36166535633E+03  0.00000000000E+00 0. -1.
         22    1    3    3    0    0  0.25813758746E+01 -0.22931889914E+02  0.43239982695E+01  0.23478331232E+02  0.00000000000E+00 0. -1.
</event>
<event>
 7    1  0.6520971E-006  0.1457900E+03  0.7818608E-02  0.1296377E+00
          2   -1    0    0  502    0  0.00000000000E+00  0.00000000000E+00  0.63980381787E+03  0.63980381787E+03  0.00000000000E+00 0. -1.
          1   -1    0    0  501    0 -0.00000000000E+00 -0.00000000000E+00 -0.93468904906E+03  0.93468904906E+03  0.00000000000E+00 0. -1.
         25    2    1    2    0    0  0.18900720822E+03  0.54304163715E+02 -0.14852529945E+02  0.23348859710E+03  0.12499464138E+03 0.  0.
          2    1    1    2  501    0 -0.14167918833E+03 -0.19111838261E+02 -0.80254246013E+03  0.81517645641E+03  0.00000000000E+00 0. -1.
          1    1    1    2  502    0 -0.47328019893E+02 -0.35192325454E+02  0.52250975889E+03  0.52582781343E+03  0.00000000000E+00 0. -1.
         22    1    3    3    0    0 -0.15920947510E+02 -0.92495983021E+01 -0.24298075047E+01  0.18572442027E+02  0.00000000000E+00 0. -1.
         22    1    3    3    0    0  0.20492815573E+03  0.63553762017E+02 -0.12422722441E+02  0.21491615507E+03  0.00000000000E+00 0. -1.
</event>
<event>
 7    1  0.6520971E-006  0.5431048E+02  0.7818608E-02  0.1535011E+00
          2   -1    0    0  502    0  0.00000000000E+00  0.00000000000E+00  0.83326399949E+02  0.83326399949E+02  0.00000000000E+00 0. -1.
          1   -1    0    0  501    0 -0.00000000000E+00 -0.00000000000E+00 -0.35170712434E+03  0.35170712434E+03  0.00000000000E+00 0. -1.
         25    2    1    2    0    0 -0.68582102602E+02  0.26868710869E+02 -0.78205654156E+02  0.16482803742E+03  0.12500690044E+03 0.  0.
          2    1    1    2  501    0  0.24632493352E+02  0.43882723286E+00 -0.21244890823E+03  0.21387260438E+03  0.00000000000E+00 0. -1.
          1    1    1    2  502    0  0.43949609250E+02 -0.27307538101E+02  0.22273837993E+02  0.56332882487E+02  0.00000000000E+00 0. -1.
         22    1    3    3    0    0 -0.68631962427E+02  0.30163698618E+02  0.10817077585E+02  0.75744334101E+02  0.00000000000E+00 0. -1.
         22    1    3    3    0    0  0.49859824993E-01 -0.32949877496E+01 -0.89022731741E+02  0.89083703318E+02  0.00000000000E+00 0. -1.
</event>
<event>
 7    1  0.6520971E-006  0.1311770E+03  0.7818608E-02  0.1239456E+00
          2   -1    0    0  502    0  0.00000000000E+00  0.00000000000E+00  0.85336815594E+03  0.85336815594E+03  0.00000000000E+00 0. -1.
          1   -1    0    0  501    0 -0.00000000000E+00 -0.00000000000E+00 -0.73522406117E+03  0.73522406117E+03  0.00000000000E+00 0. -1.
         25    2    1    2    0    0 -0.19863569006E+03  0.12554907583E+03 -0.15651642344E+03  0.30877403201E+03  0.12500121691E+03 0.  0.
          2    1    1    2  501    0  0.10099599968E+03 -0.66898211397E+02 -0.49100417004E+03  0.50572784938E+03  0.00000000000E+00 0. -1.
          1    1    1    2  502    0  0.97639690384E+02 -0.58650864433E+02  0.76566468824E+03  0.77409033572E+03  0.00000000000E+00 0. -1.
         22    1    3    3    0    0 -0.16764123580E+03  0.59295100932E+02 -0.59992499930E+02  0.18766617432E+03  0.00000000000E+00 0. -1.
         22    1    3    3    0    0 -0.30994454258E+02  0.66253974899E+02 -0.96523923508E+02  0.12110785769E+03  0.00000000000E+00 0. -1.
</event>
<event>
 7    1  0.6520971E-006  0.1052688E+03  0.7818608E-02  0.1380429E+00
          2   -1    0    0  502    0  0.00000000000E+00  0.00000000000E+00  0.17519698820E+04  0.17519698820E+04  0.00000000000E+00 0. -1.
          1   -1    0    0  501    0 -0.00000000000E+00 -0.00000000000E+00 -0.28042645357E+03  0.28042645357E+03  0.00000000000E+00 0. -1.
         25    2    1    2    0    0 -0.74852969804E+02  0.10997275398E+03  0.13626750780E+02  0.18303928224E+03  0.12498286602E+03 0.  0.
          2    1    1    2  501    0  0.73346314286E+02 -0.70663453946E+02 -0.18221856780E+03  0.20875011855E+03  0.00000000000E+00 0. -1.
          1    1    1    2  502    0  0.15066555177E+01 -0.39309300035E+02  0.16401352455E+04  0.16406069348E+04  0.00000000000E+00 0. -1.
         22    1    3    3    0    0 -0.10150380358E+03  0.11549559142E+03  0.29087583770E+01  0.15378788851E+03  0.00000000000E+00 0. -1.
         22    1    3    3    0    0  0.26650833772E+02 -0.55228374346E+01  0.10717992403E+02  0.29251393731E+02  0.00000000000E+00 0. -1.
</event>
<event>
 7    1  0.6520971E-006  0.1142591E+03  0.7818608E-02  0.1336659E+00
          2   -1    0    0  502    0  0.00000000000E+00  0.00000000000E+00  0.23816121562E+04  0.23816121562E+04  0.00000000000E+00 0. -1.
          1   -1    0    0  501    0 -0.00000000000E+00 -0.00000000000E+00 -0.17216572048E+04  0.17216572048E+04  0.00000000000E+00 0. -1.
         25    2    1    2    0    0  0.10048005662E+03 -0.63819872695E+02  0.15054136002E+03  0.22903381427E+03  0.12499827628E+03 0.  0.
          2    1    1    2  501    0 -0.60122549054E+02  0.97246319660E+02 -0.16801547359E+04  0.16840402323E+04  0.00000000000E+00 0. -1.
          1    1    1    2  502    0 -0.40357507565E+02 -0.33426446964E+02  0.21895683273E+04  0.21901953145E+04  0.00000000000E+00 0. -1.
         22    1    3    3    0    0  0.54346925750E+02 -0.11233048416E+02 -0.76925327616E+01  0.56026286469E+02  0.00000000000E+00 0. -1.
         22    1    3    3    0    0  0.46133130869E+02 -0.52586824279E+02  0.15823389278E+03  0.17300752780E+03  0.00000000000E+00 0. -1.
</event>
<event>
 7    1  0.6520971E-006  0.5791764E+02  0.7818608E-02  0.1488777E+00
          2   -1    0    0  502    0  0.00000000000E+00  0.00000000000E+00  0.70923330609E+03  0.70923330609E+03  0.00000000000E+00 0. -1.
          1   -1    0    0  501    0 -0.00000000000E+00 -0.00000000000E+00 -0.11647391164E+04  0.11647391164E+04  0.00000000000E+00 0. -1.
         25    2    1    2    0    0  0.10422458082E+02 -0.68402407030E+02  0.22025272033E+03  0.26253324477E+03  0.12499970751E+03 0.  0.
          2    1    1    2  501    0  0.18165758424E+02  0.54982954708E+02 -0.11423316921E+04  0.11437984153E+04  0.00000000000E+00 0. -1.
          1    1    1    2  502    0 -0.28588216505E+02  0.13419452322E+02  0.46657316138E+03  0.46764076249E+03  0.00000000000E+00 0. -1.
         22    1    3    3    0    0 -0.22601384158E+02  0.26113366473E+02  0.10146203849E+03  0.10717870931E+03  0.00000000000E+00 0. -1.
         22    1    3    3    0    0  0.33023842239E+02 -0.94515773503E+02  0.11879068184E+03  0.15535453546E+03  0.00000000000E+00 0. -1.
</event>
<event>
 7    1  0.6520971E-006  0.8253467E+02  0.7818608E-02  0.1375477E+00
          2   -1    0    0  502    0  0.00000000000E+00  0.00000000000E+00  0.30282647193E+03  0.30282647193E+03  0.00000000000E+00 0. -1.
          1   -1    0    0  501    0 -0.00000000000E+00 -0.00000000000E+00 -0.30915326552E+04  0.30915326552E+04  0.00000000000E+00 0. -1.
         25    2    1    2    0    0  0.12206056311E+03 -0.13134180183E+02 -0.46972862711E+03  0.50133938129E+03  0.12499961742E+03 0.  0.
          2    1    1    2  501    0 -0.41938025268E+02  0.31161669644E+02 -0.25998561352E+04  0.26003810819E+04  0.00000000000E+00 0. -1.
          1    1    1    2  502    0 -0.80122537847E+02 -0.18027489461E+02  0.28087857903E+03  0.29263866389E+03  0.00000000000E+00 0. -1.
         22    1    3    3    0    0  0.12513562648E+03  0.21111527198E+02 -0.43217918305E+03  0.45042587387E+03  0.00000000000E+00 0.  1.
         22    1    3    3    0    0 -0.30750633613E+01 -0.34245707381E+02 -0.37549444059E+02  0.50913507420E+02  0.00000000000E+00 0.  1.
</event>
<event>
 7    1  0.6520971E-006  0.1201163E+03  0.7818608E-02  0.1251285E+00
          2   -1    0    0  502    0  0.00000000000E+00  0.00000000000E+00  0.19366069240E+03  0.19366069240E+03  0.00000000000E+00 0. -1.
          1   -1    0    0  501    0 -0.00000000000E+00 -0.00000000000E+00 -0.85447769244E+03  0.85447769244E+03  0.00000000000E+00 0. -1.
         25    2    1    2    0    0 -0.17826869893E+02  0.15088533470E+03 -0.94177400986E+01  0.19697386907E+03  0.12500331895E+03 0.  0.
          2    1    1    2  501    0 -0.76492285707E+02 -0.93457554182E+02 -0.71405818074E+03  0.72419919200E+03  0.00000000000E+00 0. -1.
          1    1    1    2  502    0  0.94319155599E+02 -0.57427780515E+02  0.62658920795E+02  0.12696532378E+03  0.00000000000E+00 0. -1.
         22    1    3    3    0    0 -0.68428601891E+02  0.78672755152E+02  0.15331416301E+02  0.10538941259E+03  0.00000000000E+00 0.  1.
         22    1    3    3    0    0  0.50601731998E+02  0.72212579545E+02 -0.24749156399E+02  0.91584456477E+02  0.00000000000E+00 0.  1.
</event>
<event>
 7    1  0.6520971E-006  0.4003323E+02  0.7818608E-02  0.1605493E+00
          2   -1    0    0  502    0  0.00000000000E+00  0.00000000000E+00  0.15364627530E+04  0.15364627530E+04  0.00000000000E+00 0. -1.
          1   -1    0    0  501    0 -0.00000000000E+00 -0.00000000000E+00 -0.12412038041E+04  0.12412038041E+04  0.00000000000E+00 0. -1.
         25    2    1    2    0    0  0.51912327959E+01 -0.51215171426E+02  0.17589940819E+03  0.22184408711E+03  0.12499701798E+03 0.  0.
          2    1    1    2  501    0 -0.17065611043E+02  0.13083931436E+02 -0.12178384145E+04  0.12180282543E+04  0.00000000000E+00 0. -1.
          1    1    1    2  502    0  0.11874378247E+02  0.38131239990E+02  0.13371979552E+04  0.13377942158E+04  0.00000000000E+00 0. -1.
         22    1    3    3    0    0  0.40578575381E+02  0.13031628888E+02  0.15291113435E+02  0.45279822013E+02  0.00000000000E+00 0. -1.
         22    1    3    3    0    0 -0.35387342585E+02 -0.64246800314E+02  0.16060829475E+03  0.17656426510E+03  0.00000000000E+00 0. -1.
</event>
<event>
 7    1  0.6520971E-006  0.6869414E+02  0.7818608E-02  0.1486079E+00
          2   -1    0    0  502    0  0.00000000000E+00  0.00000000000E+00  0.18592180807E+03  0.18592180807E+03  0.00000000000E+00 0. -1.
          1   -1    0    0  501    0 -0.00000000000E+00 -0.00000000000E+00 -0.14578176964E+03  0.14578176964E+03  0.00000000000E+00 0. -1.
         25    2    1    2    0    0  0.17476608959E+02 -0.40132446010E+02 -0.95164637411E+02  0.16308912533E+03  0.12500283798E+03 0.  0.
          2    1    1    2  501    0  0.15057969723E+02 -0.22571978996E+02  0.21291451917E+02  0.34490036427E+02  0.00000000000E+00 0. -1.
          1    1    1    2  502    0 -0.32534578682E+02  0.62704425005E+02  0.11401322393E+03  0.13412441596E+03  0.00000000000E+00 0. -1.
         22    1    3    3    0    0  0.11388401993E+02 -0.80715614627E+02 -0.31594207681E+02  0.87423681595E+02  0.00000000000E+00 0.  1.
         22    1    3    3    0    0  0.60882069667E+01  0.40583168617E+02 -0.63570429729E+02  0.75665443731E+02  0.00000000000E+00 0.  1.
</event>
<event>
 7    1  0.6520971E-006  0.1087214E+03  0.7818608E-02  0.1376255E+00
          2   -1    0    0  502    0  0.00000000000E+00  0.00000000000E+00  0.17778660480E+04  0.17778660480E+04  0.00000000000E+00 0. -1.
          1   -1    0    0  501    0 -0.00000000000E+00 -0.00000000000E+00 -0.19180333521E+02  0.19180333521E+02  0.00000000000E+00 0. -1.
         25    2    1    2    0    0  0.94680654340E+02 -0.12999743644E+02  0.99581037931E+03  0.10081651658E+04  0.12500108140E+03 0.  0.
          2    1    1    2  501    0 -0.10073535690E+03  0.51942971814E+02  0.24997469257E+03  0.27446863460E+03  0.00000000000E+00 0. -1.
          1    1    1    2  502    0  0.60547025589E+01 -0.38943228170E+02  0.51290064263E+03  0.51441258116E+03  0.00000000000E+00 0. -1.
         22    1    3    3    0    0  0.48021687161E+02  0.21754663842E+02  0.84311023288E+03  0.84475689558E+03  0.00000000000E+00 0.  1.
         22    1    3    3    0    0  0.46658967178E+02 -0.34754407486E+02  0.15270014643E+03  0.16340827022E+03  0.00000000000E+00 0.  1.
</event>
<event>
 7    1  0.6520971E-006  0.1092301E+03  0.7818608E-02  0.1450488E+00
          2   -1    0    0  502    0  0.00000000000E+00  0.00000000000E+00  0.89453360197E+03  0.89453360197E+03  0.00000000000E+00 0. -1.
          1   -1    0    0  501    0 -0.00000000000E+00 -0.00000000000E+00 -0.82183042007E+02  0.82183042007E+02  0.00000000000E+00 0. -1.
         25    2    1    2    0    0  0.50216700941E+02  0.10161125411E+03  0.65087012621E+03  0.67238644416E+03  0.12500018031E+03 0.  0.
          2    1    1    2  501    0 -0.66347877147E+02 -0.86602716001E+02 -0.28755417762E+02  0.11282262748E+03  0.00000000000E+00 0. -1.
          1    1    1    2  502    0  0.16131176206E+02 -0.15008538112E+02  0.19023585152E+03  0.19150757234E+03  0.00000000000E+00 0. -1.
         22    1    3    3    0    0  0.91506840355E+02  0.66572901424E+02  0.39749347333E+03  0.41328744763E+03  0.00000000000E+00 0.  1.
         22    1    3    3    0    0 -0.41290139414E+02  0.35038352689E+02  0.25337665289E+03  0.25909899652E+03  0.00000000000E+00 0.  1.
</event>
<event>
 7    1  0.6520971E-006  0.1997316E+03  0.7818608E-02  0.1344621E+00
          2   -1    0    0  502    0  0.00000000000E+00  0.00000000000E+00  0.19201328892E+04  0.19201328892E+04  0.00000000000E+00 0. -1.
          1   -1    0    0  501    0 -0.00000000000E+00 -0.00000000000E+00 -0.20905263277E+04  0.20905263277E+04  0.00000000000E+00 0. -1.
         25    2    1    2    0    0 -0.21839192114E+03 -0.59091997614E+01 -0.43198264902E+03  0.49996452320E+03  0.12500226214E+03 0.  0.
          2    1    1    2  501    0  0.19372406048E+02  0.20190998435E+02 -0.16191545141E+04  0.16193962786E+04  0.00000000000E+00 0. -1.
          1    1    1    2  502    0  0.19901951509E+03 -0.14281798674E+02  0.18807437247E+04  0.18912984151E+04  0.00000000000E+00 0. -1.
         22    1    3    3    0    0 -0.21032154950E+03 -0.41876577285E+02 -0.37804631694E+03  0.43463527200E+03  0.00000000000E+00 0.  1.
         22    1    3    3    0    0 -0.80703716347E+01  0.35967377523E+02 -0.53936332081E+02  0.65329251202E+02  0.00000000000E+00 0.  1.
</event>
<event>
 7    1  0.6520971E-006  0.8992610E+02  0.7818608E-02  0.1359631E+00
          2   -1    0    0  502    0  0.00000000000E+00  0.00000000000E+00  0.11853200474E+04  0.11853200474E+04  0.00000000000E+00 0. -1.
          1   -1    0    0  501    0 -0.00000000000E+00 -0.00000000000E+00 -0.88473304879E+03  0.88473304879E+03  0.00000000000E+00 0. -1.
         25    2    1    2    0    0 -0.10928234758E+03 -0.13645059276E+02 -0.98337084395E+02  0.19345077681E+03  0.12499680695E+03 0.  0.
          2    1    1    2  501    0  0.71806248492E+02  0.53492006968E+02 -0.73546475924E+03  0.74089536657E+03  0.00000000000E+00 0. -1.
          1    1    1    2  502    0  0.37476099084E+02 -0.39846947691E+02  0.11343888422E+04  0.11357069528E+04  0.00000000000E+00 0. -1.
         22    1    3    3    0    0 -0.89272434556E+02 -0.38461112660E+02 -0.12035581310E+03  0.15470729299E+03  0.00000000000E+00 0. -1.
         22    1    3    3    0    0 -0.20009913020E+02  0.24816053384E+02  0.22018728703E+02  0.38743483818E+02  0.00000000000E+00 0. -1.
</event>
<event>
 7    1  0.6520971E-006  0.4361532E+02  0.7818608E-02  0.1498971E+00
          2   -1    0    0  502    0  0.00000000000E+00  0.00000000000E+00  0.83219467134E+03  0.83219467134E+03  0.00000000000E+00 0. -1.
          1   -1    0    0  501    0 -0.00000000000E+00 -0.00000000000E+00 -0.46029946920E+03  0.46029946920E+03  0.00000000000E+00 0. -1.
         25    2    1    2    0    0 -0.48460583844E+01 -0.56665463717E-01  0.14101079217E+03  0.18848931039E+03  0.12498275533E+03 0.  0.
          2    1    1    2  501    0  0.43417869538E+02  0.63194615248E+01 -0.43488345882E+03  0.43709114581E+03  0.00000000000E+00 0. -1.
          1    1    1    2  502    0 -0.38571811153E+02 -0.62627960611E+01  0.66576786880E+03  0.66691368433E+03  0.00000000000E+00 0. -1.
         22    1    3    3    0    0  0.49069538418E+01  0.60646353464E+02  0.50498369020E+02  0.79070498026E+02  0.00000000000E+00 0.  1.
         22    1    3    3    0    0 -0.97530122263E+01 -0.60703018928E+02  0.90512423150E+02  0.10941881236E+03  0.00000000000E+00 0.  1.
</event>
<event>
 7    1  0.6520971E-006  0.5221150E+02  0.7818608E-02  0.1528216E+00
          2   -1    0    0  502    0  0.00000000000E+00  0.00000000000E+00  0.11694466901E+04  0.11694466901E+04  0.00000000000E+00 0. -1.
          1   -1    0    0  501    0 -0.00000000000E+00 -0.00000000000E+00 -0.12659090328E+04  0.12659090328E+04  0.00000000000E+00 0. -1.
         25    2    1    2    0    0  0.63965636959E+01 -0.25237949761E+02  0.31136532655E+02  0.13142500645E+03  0.12500071407E+03 0.  0.
          2    1    1    2  501    0  0.11850154445E+02 -0.24036617982E+02 -0.12149826437E+04  0.12152781614E+04  0.00000000000E+00 0. -1.
          1    1    1    2  502    0 -0.18246718141E+02  0.49274567743E+02  0.10873837684E+04  0.10886525550E+04  0.00000000000E+00 0. -1.
         22    1    3    3    0    0 -0.13801728667E+02 -0.55469346494E+02 -0.26716320893E+02  0.63095942158E+02  0.00000000000E+00 0. -1.
         22    1    3    3    0    0  0.20198292363E+02  0.30231396733E+02  0.57852853548E+02  0.68329064288E+02  0.00000000000E+00 0. -1.
</event>
<event>
 7    1  0.6520971E-006  0.1301990E+03  0.7818608E-02  0.1251390E+00
          2   -1    0    0  502    0  0.00000000000E+00  0.00000000000E+00  0.12553185244E+04  0.12553185244E+04  0.00000000000E+00 0. -1.
          1   -1    0    0  501    0 -0.00000000000E+00 -0.00000000000E+00 -0.11527518343E+04  0.11527518343E+04  0.00000000000E+00 0. -1.
         25    2    1    2    0    0  0.10635402141E+03  0.80673699619E+02  0.25896126827E+03  0.31702748040E+03  0.12500424467E+03 0.  0.
          2    1    1    2  501    0 -0.12936263488E+03  0.18459906070E+02 -0.11172234902E+04  0.11248394492E+04  0.00000000000E+00 0. -1.
          1    1    1    2  502    0  0.23008613466E+02 -0.99133605689E+02  0.96082891205E+03  0.96620342905E+03  0.00000000000E+00 0. -1.
         22    1    3    3    0    0  0.42984719402E+02  0.46462103619E+02  0.23142995937E+03  0.23992965483E+03  0.00000000000E+00 0.  1.
         22    1    3    3    0    0  0.63369302009E+02  0.34211596000E+02  0.27531308907E+02  0.77097825574E+02  0.00000000000E+00 0.  1.
</event>
<event>
 7    1  0.6520971E-006  0.5101618E+02  0.7818608E-02  0.1524187E+00
          2   -1    0    0  502    0  0.00000000000E+00  0.00000000000E+00  0.16328735750E+04  0.16328735750E+04  0.00000000000E+00 0. -1.
          1   -1    0    0  501    0 -0.00000000000E+00 -0.00000000000E+00 -0.95885736339E+03  0.95885736339E+03  0.00000000000E+00 0. -1.
         25    2    1    2    0    0  0.26278266072E+02 -0.44294200965E+02  0.10575389408E+04  0.10661456121E+04  0.12500132582E+03 0.  0.
          2    1    1    2  501    0  0.20161060515E+02  0.19673706268E+02 -0.95313594032E+03  0.95355211908E+03  0.00000000000E+00 0. -1.
          1    1    1    2  502    0 -0.46439326587E+02  0.24620494698E+02  0.56961321114E+03  0.57203320718E+03  0.00000000000E+00 0. -1.
         22    1    3    3    0    0 -0.83337174828E+01 -0.44449532414E+02  0.12440557123E+03  0.13237053272E+03  0.00000000000E+00 0. -1.
         22    1    3    3    0    0  0.34611983554E+02  0.15533144867E+00  0.93313336953E+03  0.93377507938E+03  0.00000000000E+00 0. -1.
</event>
<event>
 7    1  0.6520971E-006  0.5631694E+02  0.7818608E-02  0.1422282E+00
          2   -1    0    0  502    0  0.00000000000E+00  0.00000000000E+00  0.14847764201E+04  0.14847764201E+04  0.00000000000E+00 0. -1.
          1   -1    0    0  501    0 -0.00000000000E+00 -0.00000000000E+00 -0.68646164660E+02  0.68646164660E+02  0.00000000000E+00 0. -1.
         25    2    1    2    0    0 -0.37192113573E+01  0.65666475659E+01  0.17355284972E+03  0.21401470142E+03  0.12499898953E+03 0.  0.
          2    1    1    2  501    0  0.18364617811E+02  0.49525933502E+02 -0.33151356665E+02  0.62362566699E+02  0.00000000000E+00 0. -1.
          1    1    1    2  502    0 -0.14645406453E+02 -0.56092581068E+02  0.12757287624E+04  0.12770453166E+04  0.00000000000E+00 0. -1.
         22    1    3    3    0    0  0.23757194692E+02  0.59896510524E+02  0.77777372327E+02  0.10100156394E+03  0.00000000000E+00 0.  1.
         22    1    3    3    0    0 -0.27476406050E+02 -0.53329862958E+02  0.95775477390E+02  0.11301313747E+03  0.00000000000E+00 0.  1.
</event>
<event>
 7    1  0.6520971E-006  0.3455209E+03  0.7818608E-02  0.1293913E+00
          2   -1    0    0  502    0  0.00000000000E+00  0.00000000000E+00  0.19724464962E+04  0.19724464962E+04  0.00000000000E+00 0. -1.
          1   -1    0    0  501    0 -0.00000000000E+00 -0.00000000000E+00 -0.75505065049E+03  0.75505065049E+03  0.00000000000E+00 0. -1.
         25    2    1    2    0    0 -0.25884404094E+03 -0.19290106061E+03 -0.50823900201E+02  0.34988318486E+03  0.12499646997E+03 0.  0.
          2    1    1    2  501    0 -0.23765523812E+02 -0.91378403323E+01 -0.53784171869E+03  0.53844406823E+03  0.00000000000E+00 0. -1.
          1    1    1    2  502    0  0.28260956475E+03  0.20203890094E+03  0.18060614646E+04  0.18391698936E+04  0.00000000000E+00 0. -1.
         22    1    3    3    0    0 -0.24666025993E+02 -0.12569459537E+02  0.32601437787E+02  0.42769824609E+02  0.00000000000E+00 0. -1.
         22    1    3    3    0    0 -0.23417801494E+03 -0.18033160107E+03 -0.83425337987E+02  0.30711336025E+03  0.00000000000E+00 0. -1.
</event>
<event>
 7    1  0.6520971E-006  0.8500713E+02  0.7818608E-02  0.1456552E+00
          2   -1    0    0  502    0  0.00000000000E+00  0.00000000000E+00  0.20658278745E+03  0.20658278745E+03  0.00000000000E+00 0. -1.
          1   -1    0    0  501    0 -0.00000000000E+00 -0.00000000000E+00 -0.14297553318E+03  0.14297553318E+03  0.00000000000E+00 0. -1.
         25    2    1    2    0    0  0.61743817241E+01  0.71921424567E+02  0.66816433500E+02  0.15906132616E+03  0.12500102156E+03 0.  0.
          2    1    1    2  501    0 -0.31314759328E+02 -0.81988180763E+02 -0.73939596243E+02  0.11475948688E+03  0.00000000000E+00 0. -1.
          1    1    1    2  502    0  0.25140377604E+02  0.10066756196E+02  0.70730417007E+02  0.75737507593E+02  0.00000000000E+00 0. -1.
         22    1    3    3    0    0 -0.25482255304E+02  0.63447606800E+02 -0.15806273874E+02  0.70176794154E+02  0.00000000000E+00 0.  1.
         22    1    3    3    0    0  0.31656637029E+02  0.84738177672E+01  0.82622707374E+02  0.88884532002E+02  0.00000000000E+00 0.  1.
</event>
<event>
 7    1  0.6520971E-006  0.6755333E+02  0.7818608E-02  0.1512379E+00
          2   -1    0    0  502    0  0.00000000000E+00  0.00000000000E+00  0.24163744723E+04  0.24163744723E+04  0.00000000000E+00 0. -1.
          1   -1    0    0  501    0 -0.00000000000E+00 -0.00000000000E+00 -0.80954706833E+02  0.80954706833E+02  0.00000000000E+00 0. -1.
         25    2    1    2    0    0  0.40537029535E+02  0.32418125343E+02  0.17204843976E+04  0.17258000015E+04  0.12499958785E+03 0.  0.
          2    1    1    2  501    0 -0.38936040894E+02 -0.55388003095E+02 -0.63428864946E+02  0.92774280249E+02  0.00000000000E+00 0. -1.
          1    1    1    2  502    0 -0.16009886410E+01  0.22969877752E+02  0.67836423284E+03  0.67875489748E+03  0.00000000000E+00 0. -1.
         22    1    3    3    0    0  0.68970908457E+02  0.53610787635E+02  0.14944149042E+04  0.14969659343E+04  0.00000000000E+00 0.  1.
         22    1    3    3    0    0 -0.28433878922E+02 -0.21192662293E+02  0.22606949346E+03  0.22883406713E+03  0.00000000000E+00 0.  1.
</event>
<event>
 7    1  0.6520971E-006  0.2179429E+03  0.7818608E-02  0.1319357E+00
          2   -1    0    0  502    0  0.00000000000E+00  0.00000000000E+00  0.79021022667E+03  0.79021022667E+03  0.00000000000E+00 0. -1.
          1   -1    0    0  501    0 -0.00000000000E+00 -0.00000000000E+00 -0.80528851928E+03  0.80528851928E+03  0.00000000000E+00 0. -1.
         25    2    1    2    0    0  0.12601174238E+03 -0.21243086688E+03  0.12151890937E+03  0.30231937889E+03  0.12499731637E+03 0.  0.
          2    1    1    2  501    0 -0.11546571739E+03  0.18221425066E+03 -0.69814897985E+03  0.73071633559E+03  0.00000000000E+00 0. -1.
          1    1    1    2  502    0 -0.10546024996E+02  0.30216616220E+02  0.56155177787E+03  0.56246303147E+03  0.00000000000E+00 0. -1.
         22    1    3    3    0    0  0.46039539741E+02 -0.54673371762E+02 -0.21740857778E+02  0.74709314655E+02  0.00000000000E+00 0.  1.
         22    1    3    3    0    0  0.79972202642E+02 -0.15775749511E+03  0.14325976714E+03  0.22761006424E+03  0.00000000000E+00 0.  1.
</event>
<event>
 7    1  0.6520971E-006  0.4566802E+02  0.7818608E-02  0.1544378E+00
          2   -1    0    0  502    0  0.00000000000E+00  0.00000000000E+00  0.90725133445E+03  0.90725133445E+03  0.00000000000E+00 0. -1.
          1   -1    0    0  501    0 -0.00000000000E+00 -0.00000000000E+00 -0.41523533985E+03  0.41523533985E+03  0.00000000000E+00 0. -1.
         25    2    1    2    0    0  0.32121894950E+02 -0.18190867661E+02  0.37608414116E+03  0.39802951856E+03  0.12500197045E+03 0.  0.
          2    1    1    2  501    0  0.14756559144E+02  0.23282514657E+02 -0.40272195111E+03  0.40366421867E+03  0.00000000000E+00 0. -1.
          1    1    1    2  502    0 -0.46878454093E+02 -0.50916469958E+01  0.51865380455E+03  0.52079293707E+03  0.00000000000E+00 0. -1.
         22    1    3    3    0    0  0.36543909675E+02  0.47303370474E+02  0.23400627207E+03  0.24152018872E+03  0.00000000000E+00 0. -1.
         22    1    3    3    0    0 -0.44220147251E+01 -0.65494238135E+02  0.14207786909E+03  0.15650932984E+03  0.00000000000E+00 0. -1.
</event>
<event>
 7    1  0.6520971E-006  0.1796455E+03  0.7818608E-02  0.1293395E+00
          2   -1    0    0  502    0  0.00000000000E+00  0.00000000000E+00  0.27523574131E+04  0.27523574131E+04  0.00000000000E+00 0. -1.
          1   -1    0    0  501    0 -0.00000000000E+00 -0.00000000000E+00 -0.42119371389E+03  0.42119371389E+03  0.00000000000E+00 0. -1.
         25    2    1    2    0    0 -0.62622069550E+02  0.14081106045E+03  0.53780952639E+03  0.57324869708E+03  0.12500281472E+03 0.  0.
          2    1    1    2  501    0  0.30561181388E+02 -0.17814178961E+03 -0.38294004125E+03  0.42345195502E+03  0.00000000000E+00 0. -1.
          1    1    1    2  502    0  0.32060888162E+02  0.37330729161E+02  0.21762942140E+04  0.21768504749E+04  0.00000000000E+00 0. -1.
         22    1    3    3    0    0  0.30744287944E+02  0.68576438288E+02  0.27614408524E+03  0.28618786652E+03  0.00000000000E+00 0.  1.
         22    1    3    3    0    0 -0.93366357494E+02  0.72234622165E+02  0.26166544115E+03  0.28706083056E+03  0.00000000000E+00 0.  1.
</event>
<event>
 7    1  0.6520971E-006  0.7411963E+02  0.7818608E-02  0.1398419E+00
          2   -1    0    0  502    0  0.00000000000E+00  0.00000000000E+00  0.17459631753E+04  0.17459631753E+04  0.00000000000E+00 0. -1.
          1   -1    0    0  501    0 -0.00000000000E+00 -0.00000000000E+00 -0.22838376221E+03  0.22838376221E+03  0.00000000000E+00 0. -1.
         25    2    1    2    0    0  0.32255196585E+02  0.52190779687E+02 -0.10051857963E+03  0.17173135330E+03  0.12499359050E+03 0.  0.
          2    1    1    2  501    0  0.38424198612E+02 -0.29338108180E+02 -0.85060058114E+02  0.97838423520E+02  0.00000000000E+00 0. -1.
          1    1    1    2  502    0 -0.70679395197E+02 -0.22852671507E+02  0.17031580509E+04  0.17047771607E+04  0.00000000000E+00 0. -1.
         22    1    3    3    0    0  0.58715922004E+02 -0.14971665188E+02 -0.72026081411E+02  0.94124739886E+02  0.00000000000E+00 0. -1.
         22    1    3    3    0    0 -0.26460725419E+02  0.67162444874E+02 -0.28492498218E+02  0.77606613416E+02  0.00000000000E+00 0. -1.
</event>
<event>
 7    1  0.6520971E-006  0.1354595E+03  0.7818608E-02  0.1299890E+00
          2   -1    0    0  502    0  0.00000000000E+00  0.00000000000E+00  0.37618147364E+03  0.37618147364E+03  0.00000000000E+00 0. -1.
          1   -1    0    0  501    0 -0.00000000000E+00 -0.00000000000E+00 -0.15427596552E+04  0.15427596552E+04  0.00000000000E+00 0. -1.
         25    2    1    2    0    0  0.10368722324E+03  0.15191168459E+02 -0.34710108744E+03  0.38351949711E+03  0.12500491149E+03 0.  0.
          2    1    1    2  501    0  0.27292814181E+02 -0.55053680269E+02 -0.11635179705E+04  0.11651394222E+04  0.00000000000E+00 0. -1.
          1    1    1    2  502    0 -0.13098003743E+03  0.39862511810E+02  0.34404087641E+03  0.37028220953E+03  0.00000000000E+00 0. -1.
         22    1    3    3    0    0  0.73832959593E+01  0.16378801384E+01 -0.23496032254E+03  0.23508200458E+03  0.00000000000E+00 0. -1.
         22    1    3    3    0    0  0.96303927285E+02  0.13553288321E+02 -0.11214076490E+03  0.14843749253E+03  0.00000000000E+00 0. -1.
</event>
<event>
 7    1  0.6520971E-006  0.4144763E+02  0.7818608E-02  0.1545712E+00
          2   -1    0    0  502    0  0.00000000000E+00  0.00000000000E+00  0.47912458310E+02  0.47912458310E+02  0.00000000000E+00 0. -1.
          1   -1    0    0  501    0 -0.00000000000E+00 -0.00000000000E+00 -0.23265174649E+04  0.23265174649E+04  0.00000000000E+00 0. -1.
         25    2    1    2    0    0 -0.21086550756E+02 -0.61862476389E+02 -0.11868034725E+03  0.18434241977E+03  0.12500197716E+03 0.  0.
          2    1    1    2  501    0 -0.92612242467E+00  0.41317034135E+02 -0.21595791091E+04  0.21599745099E+04  0.00000000000E+00 0. -1.
          1    1    1    2  502    0  0.22012673180E+02  0.20545442254E+02 -0.34555029513E+00  0.30112993590E+02  0.00000000000E+00 0. -1.
         22    1    3    3    0    0 -0.53339838227E+02 -0.70194714713E+02 -0.36045153943E+02  0.95245416889E+02  0.00000000000E+00 0.  1.
         22    1    3    3    0    0  0.32253287472E+02  0.83322383235E+01 -0.82635193311E+02  0.89097002878E+02  0.00000000000E+00 0.  1.
</event>
<event>
 7    1  0.6520971E-006  0.8242058E+02  0.7818608E-02  0.1454795E+00
          2   -1    0    0  502    0  0.00000000000E+00  0.00000000000E+00  0.17647878573E+04  0.17647878573E+04  0.00000000000E+00 0. -1.
          1   -1    0    0  501    0 -0.00000000000E+00 -0.00000000000E+00 -0.76446262030E+03  0.76446262030E+03  0.00000000000E+00 0. -1.
         25    2    1    2    0    0 -0.50417203941E+02 -0.24872859767E+02 -0.56691529545E+02  0.14832014907E+03  0.12499753395E+03 0.  0.
          2    1    1    2  501    0  0.72022969340E+02  0.43138163537E+02 -0.65917783616E+03  0.66450254247E+03  0.00000000000E+00 0. -1.
          1    1    1    2  502    0 -0.21605765399E+02 -0.18265303770E+02  0.17161946027E+04  0.17164277861E+04  0.00000000000E+00 0. -1.
         22    1    3    3    0    0 -0.75077926509E+02 -0.22673786337E+02 -0.81615142182E+02  0.11318934168E+03  0.00000000000E+00 0.  1.
         22    1    3    3    0    0  0.24660722568E+02 -0.21990734306E+01  0.24923612637E+02  0.35130807398E+02  0.00000000000E+00 0.  1.
</event>
<event>
 7    1  0.6520971E-006  0.1583746E+03  0.7818608E-02  0.1367409E+00
          2   -1    0    0  502    0  0.00000000000E+00  0.00000000000E+00  0.17153581348E+04  0.17153581348E+04  0.00000000000E+00 0. -1.
          1   -1    0    0  501    0 -0.00000000000E+00 -0.00000000000E+00 -0.75308877601E+02  0.75308877601E+02  0.00000000000E+00 0. -1.
         25    2    1    2    0    0  0.18207110662E+03 -0.30417562765E+01  0.54036774308E+03  0.58376524172E+03  0.12500167809E+03 0.  0.
          2    1    1    2  501    0 -0.15349035965E+03  0.85391332147E+01  0.57216098636E+02  0.16403014736E+03  0.00000000000E+00 0. -1.
          1    1    1    2  502    0 -0.28580746977E+02 -0.54973769383E+01  0.10424654155E+04  0.10428716234E+04  0.00000000000E+00 0. -1.
         22    1    3    3    0    0  0.94017530462E+02  0.51753061423E+02  0.36054688582E+03  0.37618045175E+03  0.00000000000E+00 0.  1.
         22    1    3    3    0    0  0.88053576162E+02 -0.54794817699E+02  0.17982085726E+03  0.20758478997E+03  0.00000000000E+00 0.  1.
</event>
<event>
 7    1  0.6520971E-006  0.1021244E+03  0.7818608E-02  0.1285479E+00
          2   -1    0    0  502    0  0.00000000000E+00  0.00000000000E+00  0.33475046493E+04  0.33475046493E+04  0.00000000000E+00 0. -1.
          1   -1    0    0  501    0 -0.00000000000E+00 -0.00000000000E+00 -0.41168459470E+03  0.41168459470E+03  0.00000000000E+00 0. -1.
         25    2    1    2    0    0 -0.83806220637E+02 -0.19971860662E+02  0.26133295008E+03  0.30222946464E+03  0.12500152263E+03 0.  0.
          2    1    1    2  501    0  0.73644328995E+02 -0.72701491342E+02 -0.38367048135E+03  0.39738146950E+03  0.00000000000E+00 0. -1.
          1    1    1    2  502    0  0.10161891642E+02  0.92673352003E+02  0.30581575858E+04  0.30595783098E+04  0.00000000000E+00 0. -1.
         22    1    3    3    0    0  0.26661135740E+02 -0.23819586261E+02  0.10381239673E+03  0.10979618647E+03  0.00000000000E+00 0.  1.
         22    1    3    3    0    0 -0.11046735638E+03  0.38477255996E+01  0.15752055335E+03  0.19243327816E+03  0.00000000000E+00 0.  1.
</event>
<event>
 7    1  0.6520971E-006  0.3353638E+02  0.7818608E-02  0.1629165E+00
          2   -1    0    0  502    0  0.00000000000E+00  0.00000000000E+00  0.15074477198E+03  0.15074477198E+03  0.00000000000E+00 0. -1.
          1   -1    0    0  501    0 -0.00000000000E+00 -0.00000000000E+00 -0.11303447372E+03  0.11303447372E+03  0.00000000000E+00 0. -1.
         25    2    1    2    0    0 -0.53426548976E+02 -0.95210498452E+01 -0.65237198709E+01  0.13642914388E+03  0.12500122341E+03 0.  0.
          2    1    1    2  501    0  0.22329525673E+02 -0.33276014477E+00 -0.35082606944E+02  0.41587350914E+02  0.00000000000E+00 0. -1.
          1    1    1    2  502    0  0.31097023303E+02  0.98538099900E+01  0.79316625076E+02  0.85762750907E+02  0.00000000000E+00 0. -1.
         22    1    3    3    0    0 -0.91663754799E+02  0.10858061424E+02  0.17315417453E+01  0.92320851808E+02  0.00000000000E+00 0.  1.
         22    1    3    3    0    0  0.38237205824E+02 -0.20379111269E+02 -0.82552616162E+01  0.44108292074E+02  0.00000000000E+00 0.  1.
</event>
<event>
 7    1  0.6520971E-006  0.5840620E+02  0.7818608E-02  0.1409878E+00
          2   -1    0    0  502    0  0.00000000000E+00  0.00000000000E+00  0.95053272100E+03  0.95053272100E+03  0.00000000000E+00 0. -1.
          1   -1    0    0  501    0 -0.00000000000E+00 -0.00000000000E+00 -0.11485136112E+03  0.11485136112E+03  0.00000000000E+00 0. -1.
         25    2    1    2    0    0 -0.39265807929E+02 -0.47804642690E+02  0.16699404777E+03  0.21756961843E+03  0.12498975694E+03 0.  0.
          2    1    1    2  501    0 -0.15974083874E+02  0.57358673920E+02 -0.78500407009E+02  0.98526659996E+02  0.00000000000E+00 0. -1.
          1    1    1    2  502    0  0.55239891803E+02 -0.95540312299E+01  0.74718771912E+03  0.74928780369E+03  0.00000000000E+00 0. -1.
         22    1    3    3    0    0  0.42219187685E+02  0.30173636120E+01  0.39011271344E+02  0.57562518915E+02  0.00000000000E+00 0.  1.
         22    1    3    3    0    0 -0.81484995613E+02 -0.50822006302E+02  0.12798277642E+03  0.16000709952E+03  0.00000000000E+00 0.  1.
</event>
<event>
 7    1  0.6520971E-006  0.5774602E+02  0.7818608E-02  0.1420328E+00
          2   -1    0    0  502    0  0.00000000000E+00  0.00000000000E+00  0.20111030435E+03  0.20111030435E+03  0.00000000000E+00 0. -1.
          1   -1    0    0  501    0 -0.00000000000E+00 -0.00000000000E+00 -0.18422229019E+04  0.18422229019E+04  0.00000000000E+00 0. -1.
         25    2    1    2    0    0 -0.25171405516E+02  0.93119755475E+01 -0.10731628318E+04  0.10807509014E+04  0.12499493857E+03 0.  0.
          2    1    1    2  501    0  0.51651464986E+02  0.42004778919E+02 -0.75955362897E+03  0.76246573075E+03  0.00000000000E+00 0. -1.
          1    1    1    2  502    0 -0.26480059470E+02 -0.51316754467E+02  0.19160386324E+03  0.20011657414E+03  0.00000000000E+00 0. -1.
         22    1    3    3    0    0 -0.80896579820E+01  0.65704583544E+01 -0.35672092306E+01  0.11015374299E+02  0.00000000000E+00 0. -1.
         22    1    3    3    0    0 -0.17081747534E+02  0.27415171932E+01 -0.10695956226E+04  0.10697355271E+04  0.00000000000E+00 0. -1.
</event>
<event>
 7    1  0.6520971E-006  0.6621052E+02  0.7818608E-02  0.1435811E+00
          2   -1    0    0  502    0  0.00000000000E+00  0.00000000000E+00  0.10337573499E+03  0.10337573499E+03  0.00000000000E+00 0. -1.
          1   -1    0    0  501    0 -0.00000000000E+00 -0.00000000000E+00 -0.43724171986E+03  0.43724171986E+03  0.00000000000E+00 0. -1.
         25    2    1    2    0    0  0.19664911495E+02  0.53095246373E+02 -0.58357288198E+02  0.14911496577E+03  0.12499554392E+03 0.  0.
          2    1    1    2  501    0  0.19079908474E+02 -0.65035956895E+02 -0.32243864973E+03  0.32948505496E+03  0.00000000000E+00 0. -1.
          1    1    1    2  502    0 -0.38744819968E+02  0.11940710522E+02  0.46929953055E+02  0.62017434129E+02  0.00000000000E+00 0. -1.
         22    1    3    3    0    0 -0.13667236768E+02  0.58278070519E+02  0.20559059899E+02  0.63291403905E+02  0.00000000000E+00 0.  1.
         22    1    3    3    0    0  0.33332148263E+02 -0.51828241460E+01 -0.78916348097E+02  0.85823561864E+02  0.00000000000E+00 0.  1.
</event>
<event>
 7    1  0.6520971E-006  0.1008008E+03  0.7818608E-02  0.1306259E+00
          2   -1    0    0  502    0  0.00000000000E+00  0.00000000000E+00  0.47446027815E+03  0.47446027815E+03  0.00000000000E+00 0. -1.
          1   -1    0    0  501    0 -0.00000000000E+00 -0.00000000000E+00 -0.30794239030E+03  0.30794239030E+03  0.00000000000E+00 0. -1.
         25    2    1    2    0    0  0.68905418700E+02 -0.46316797480E+02  0.21337652361E+03  0.26085726649E+03  0.12499508068E+03 0.  0.
          2    1    1    2  501    0  0.52198165680E+02  0.57811439281E+02 -0.26257987556E+03  0.27388866727E+03  0.00000000000E+00 0. -1.
          1    1    1    2  502    0 -0.12110358438E+03 -0.11494641802E+02  0.21572123980E+03  0.24765673469E+03  0.00000000000E+00 0. -1.
         22    1    3    3    0    0 -0.34451769951E+02 -0.13471453866E+02  0.85666448987E+02  0.93312083912E+02  0.00000000000E+00 0. -1.
         22    1    3    3    0    0  0.10335718865E+03 -0.32845343614E+02  0.12771007463E+03  0.16754518257E+03  0.00000000000E+00 0. -1.
</event>
<event>
 7    1  0.6520971E-006  0.7238595E+02  0.7818608E-02  0.1402495E+00
          2   -1    0    0  502    0  0.00000000000E+00  0.00000000000E+00  0.39473216159E+03  0.39473216159E+03  0.00000000000E+00 0. -1.
          1   -1    0    0  501    0 -0.00000000000E+00 -0.00000000000E+00 -0.29195454032E+04  0.29195454032E+04  0.00000000000E+00 0. -1.
         25    2    1    2    0    0 -0.11808258739E+03 -0.20071550356E+02 -0.51004638741E+03  0.53863024507E+03  0.12501543510E+03 0.  0.
          2    1    1    2  501    0  0.46502079494E+02  0.11616017776E+02 -0.23915508169E+04  0.23920310795E+04  0.00000000000E+00 0. -1.
          1    1    1    2  502    0  0.71580507901E+02  0.84555325809E+01  0.37678396277E+03  0.38361624019E+03  0.00000000000E+00 0. -1.
         22    1    3    3    0    0 -0.11576204093E+03 -0.24344384040E+02 -0.23087210834E+03  0.25941362640E+03  0.00000000000E+00 0.  1.
         22    1    3    3    0    0 -0.23205464610E+01  0.42728336831E+01 -0.27917427907E+03  0.27921661866E+03  0.00000000000E+00 0.  1.
</event>
<event>
 7    1  0.6520971E-006  0.4728876E+02  0.7818608E-02  0.1480411E+00
          2   -1    0    0  502    0  0.00000000000E+00  0.00000000000E+00  0.44260960790E+03  0.44260960790E+03  0.00000000000E+00 0. -1.
          1   -1    0    0  501    0 -0.00000000000E+00 -0.00000000000E+00 -0.47972022698E+02  0.47972022698E+02  0.00000000000E+00 0. -1.
         25    2    1    2    0    0 -0.61804691768E+01  0.98152275433E+01  0.27205906855E+03  0.29962363007E+03  0.12499458397E+03 0.  0.
          2    1    1    2  501    0 -0.26776150572E+01 -0.49865902706E+02 -0.11075576091E+02  0.51151209769E+02  0.00000000000E+00 0. -1.
          1    1    1    2  502    0  0.88580842340E+01  0.40050675163E+02  0.13365409274E+03  0.13980679076E+03  0.00000000000E+00 0. -1.
         22    1    3    3    0    0  0.37539687775E+02  0.22995687818E+02  0.23957076397E+03  0.24358197956E+03  0.00000000000E+00 0. -1.
         22    1    3    3    0    0 -0.43720156952E+02 -0.13180460275E+02  0.32488304584E+02  0.56041650508E+02  0.00000000000E+00 0. -1.
</event>
<event>
 7    1  0.6520971E-006  0.1252421E+03  0.7818608E-02  0.1383428E+00
          2   -1    0    0  502    0  0.00000000000E+00  0.00000000000E+00  0.89426498841E+03  0.89426498841E+03  0.00000000000E+00 0. -1.
          1   -1    0    0  501    0 -0.00000000000E+00 -0.00000000000E+00 -0.53510204130E+03  0.53510204130E+03  0.00000000000E+00 0. -1.
         25    2    1    2    0    0  0.13293949102E+03  0.72232499763E+01 -0.49534411539E+01  0.18268580929E+03  0.12499793888E+03 0.  0.
          2    1    1    2  501    0 -0.12260516967E+03  0.23345153835E+02 -0.43212423004E+03  0.44978703186E+03  0.00000000000E+00 0. -1.
          1    1    1    2  502    0 -0.10334321350E+02 -0.30568403811E+02  0.79624061831E+03  0.79689418856E+03  0.00000000000E+00 0. -1.
         22    1    3    3    0    0 -0.16656970915E+02 -0.21457652815E+02 -0.13077929468E+02  0.30148263359E+02  0.00000000000E+00 0.  1.
         22    1    3    3    0    0  0.14959646194E+03  0.28680902792E+02  0.81244883140E+01  0.15253754594E+03  0.00000000000E+00 0.  1.
</event>
<event>
 7    1  0.6520971E-006  0.1115115E+03  0.7818608E-02  0.1261314E+00
          2   -1    0    0  502    0  0.00000000000E+00  0.00000000000E+00  0.35778553675E+04  0.35778553675E+04  0.00000000000E+00 0. -1.
          1   -1    0    0  501    0 -0.00000000000E+00 -0.00000000000E+00 -0.83198619020E+02  0.83198619020E+02  0.00000000000E+00 0. -1.
         25    2    1    2    0    0 -0.86166311487E+02  0.98343987959E+02  0.22928390241E+03  0.29204641190E+03  0.12499530230E+03 0.  0.
          2    1    1    2  501    0 -0.24744834996E+02 -0.10989995241E+03  0.11513600725E+02  0.11323810931E+03  0.00000000000E+00 0. -1.
          1    1    1    2  502    0  0.11091114648E+03  0.11555964448E+02  0.32538592453E+04  0.32557694653E+04  0.00000000000E+00 0. -1.
         22    1    3    3    0    0 -0.99078362893E+02  0.21663751016E+02  0.14934144916E+03  0.18052342934E+03  0.00000000000E+00 0. -1.
         22    1    3    3    0    0  0.12912051407E+02  0.76680236943E+02  0.79942453248E+02  0.11152298257E+03  0.00000000000E+00 0. -1.
</event>
<event>
 7    1  0.6520971E-006  0.1280536E+03  0.7818608E-02  0.1299544E+00
          2   -1    0    0  502    0  0.00000000000E+00  0.00000000000E+00  0.18847278210E+04  0.18847278210E+04  0.00000000000E+00 0. -1.
          1   -1    0    0  501    0 -0.00000000000E+00 -0.00000000000E+00 -0.16328064102E+03  0.16328064102E+03  0.00000000000E+00 0. -1.
         25    2    1    2    0    0  0.12507099288E+03 -0.49821634470E+02  0.10209647681E+04  0.10373621423E+04  0.12500483187E+03 0.  0.
          2    1    1    2  501    0 -0.81936651117E+02  0.98726675153E+02 -0.12704273014E+03  0.18055588184E+03  0.00000000000E+00 0. -1.
          1    1    1    2  502    0 -0.43134341763E+02 -0.48905040684E+02  0.82752514205E+03  0.83009043794E+03  0.00000000000E+00 0. -1.
         22    1    3    3    0    0  0.19349080566E+02  0.32590956092E+02  0.10481144296E+03  0.11145400806E+03  0.00000000000E+00 0. -1.
         22    1    3    3    0    0  0.10572191231E+03 -0.82412590562E+02  0.91615332513E+03  0.92590813420E+03  0.00000000000E+00 0. -1.
</event>
<event>
 7    1  0.6520971E-006  0.6973453E+02  0.7818608E-02  0.1389663E+00
          2   -1    0    0  502    0  0.00000000000E+00  0.00000000000E+00  0.16483392609E+04  0.16483392609E+04  0.00000000000E+00 0. -1.
          1   -1    0    0  501    0 -0.00000000000E+00 -0.00000000000E+00 -0.38692128547E+03  0.38692128547E+03  0.00000000000E+00 0. -1.
         25    2    1    2    0    0 -0.80615385321E+02  0.88175567752E+02 -0.12513467039E+02  0.17337042504E+03  0.12500778505E+03 0.  0.
          2    1    1    2  501    0  0.48080263851E+02 -0.26926246784E+02 -0.29062191979E+03  0.29580032927E+03  0.00000000000E+00 0. -1.
          1    1    1    2  502    0  0.32535121470E+02 -0.61249320968E+02  0.15645533623E+04  0.15660897921E+04  0.00000000000E+00 0. -1.
         22    1    3    3    0    0  0.29047362085E+02  0.31108328465E+02  0.17722381272E+02  0.46103797478E+02  0.00000000000E+00 0.  1.
         22    1    3    3    0    0 -0.10966274741E+03  0.57067239287E+02 -0.30235848312E+02  0.12726662756E+03  0.00000000000E+00 0.  1.
</event>
<event>
 7    1  0.6520971E-006  0.1293868E+03  0.7818608E-02  0.1297746E+00
          2   -1    0    0  502    0  0.00000000000E+00  0.00000000000E+00  0.11337577641E+04  0.11337577641E+04  0.00000000000E+00 0. -1.
          1   -1    0    0  501    0 -0.00000000000E+00 -0.00000000000E+00 -0.44027264836E+03  0.44027264836E+03  0.00000000000E+00 0. -1.
         25    2    1    2    0    0  0.85508778880E+02  0.71515050188E+02  0.14568045104E+03  0.22197922772E+03  0.12500332017E+03 0.  0.
          2    1    1    2  501    0 -0.12929821981E+03 -0.22645099109E+02 -0.39023408392E+03  0.41172013603E+03  0.00000000000E+00 0. -1.
          1    1    1    2  502    0  0.43789440925E+02 -0.48869951080E+02  0.93803874866E+03  0.94033104875E+03  0.00000000000E+00 0. -1.
         22    1    3    3    0    0  0.79370563099E+02  0.10119114000E+03  0.85012665423E+02  0.15416382968E+03  0.00000000000E+00 0.  1.
         22    1    3    3    0    0  0.61382157811E+01 -0.29676089808E+02  0.60667785613E+02  0.67815398033E+02  0.00000000000E+00 0.  1.
</event>
<event>
 7    1  0.6520971E-006  0.6010725E+02  0.7818608E-02  0.1526516E+00
          2   -1    0    0  502    0  0.00000000000E+00  0.00000000000E+00  0.24695581578E+03  0.24695581578E+03  0.00000000000E+00 0. -1.
          1   -1    0    0  501    0 -0.00000000000E+00 -0.00000000000E+00 -0.14117993925E+03  0.14117993925E+03  0.00000000000E+00 0. -1.
         25    2    1    2    0    0  0.77254674189E+02  0.13337193223E+02  0.53458637234E+02  0.15693605964E+03  0.12499974205E+03 0.  0.
          2    1    1    2  501    0 -0.58526981662E+02  0.92826314601E+00 -0.78701547877E+02  0.98082632984E+02  0.00000000000E+00 0. -1.
          1    1    1    2  502    0 -0.18727692527E+02 -0.14265456369E+02  0.13101878717E+03  0.13311706241E+03  0.00000000000E+00 0. -1.
         22    1    3    3    0    0  0.93775050124E+02  0.43369467242E+01 -0.64953251195E+01  0.94099725722E+02  0.00000000000E+00 0. -1.
         22    1    3    3    0    0 -0.16520375935E+02  0.90002464983E+01  0.59953962353E+02  0.62836333915E+02  0.00000000000E+00 0. -1.
</event>
<event>
 7    1  0.6520971E-006  0.6534027E+02  0.7818608E-02  0.1432622E+00
          2   -1    0    0  502    0  0.00000000000E+00  0.00000000000E+00  0.75836809136E+03  0.75836809136E+03  0.00000000000E+00 0. -1.
          1   -1    0    0  501    0 -0.00000000000E+00 -0.00000000000E+00 -0.79897390890E+03  0.79897390890E+03  0.00000000000E+00 0. -1.
         25    2    1    2    0    0  0.37433150693E+02  0.38859415496E+02  0.58437462256E+02  0.14815874510E+03  0.12499912725E+03 0.  0.
          2    1    1    2  501    0 -0.32160873259E+02  0.27140364473E+02 -0.75185035453E+03  0.75302714211E+03  0.00000000000E+00 0. -1.
          1    1    1    2  502    0 -0.52722774343E+01 -0.65999779969E+02  0.65280707474E+03  0.65615611305E+03  0.00000000000E+00 0. -1.
         22    1    3    3    0    0  0.11568059993E+02 -0.28955809914E+02  0.68137424459E+02  0.74933087162E+02  0.00000000000E+00 0. -1.
         22    1    3    3    0    0  0.25865090700E+02  0.67815225409E+02 -0.96999622024E+01  0.73225657941E+02  0.00000000000E+00 0. -1.
</event>
<event>
 7    1  0.6520971E-006  0.4959758E+02  0.7818608E-02  0.1479542E+00
          2   -1    0    0  502    0  0.00000000000E+00  0.00000000000E+00  0.16422274302E+04  0.16422274302E+04  0.00000000000E+00 0. -1.
          1   -1    0    0  501    0 -0.00000000000E+00 -0.00000000000E+00 -0.35133962147E+03  0.35133962147E+03  0.00000000000E+00 0. -1.
         25    2    1    2    0    0 -0.38966645765E+02  0.15077146429E+02 -0.14935773195E+03  0.19918401927E+03  0.12498328533E+03 0.  0.
          2    1    1    2  501    0  0.22995663583E+02  0.31931292092E+02 -0.17449632839E+03  0.17887810536E+03  0.00000000000E+00 0. -1.
          1    1    1    2  502    0  0.15970982183E+02 -0.47008438522E+02  0.16147418691E+04  0.16155049271E+04  0.00000000000E+00 0. -1.
         22    1    3    3    0    0 -0.81765557561E+01  0.65345147790E+02 -0.46448817011E+02  0.80587449429E+02  0.00000000000E+00 0. -1.
         22    1    3    3    0    0 -0.30790090009E+02 -0.50268001360E+02 -0.10290891494E+03  0.11859656984E+03  0.00000000000E+00 0. -1.
</event>
<event>
 7    1  0.6520971E-006  0.7271535E+02  0.7818608E-02  0.1353679E+00
          2   -1    0    0  502    0  0.00000000000E+00  0.00000000000E+00  0.82418889650E+03  0.82418889650E+03  0.00000000000E+00 0. -1.
          1   -1    0    0  501    0 -0.00000000000E+00 -0.00000000000E+00 -0.11579858389E+03  0.11579858389E+03  0.00000000000E+00 0. -1.
         25    2    1    2    0    0  0.16694983693E+02  0.71583918138E+02  0.15425628771E+03  0.21171199305E+03  0.12499594349E+03 0.  0.
          2    1    1    2  501    0 -0.70356334949E+02 -0.22512724526E+02 -0.68898429030E+02  0.10101400970E+03  0.00000000000E+00 0. -1.
          1    1    1    2  502    0  0.53661351257E+02 -0.49071193612E+02  0.62303245393E+03  0.62726147763E+03  0.00000000000E+00 0. -1.
         22    1    3    3    0    0 -0.20727731004E+02  0.23444973394E+02  0.14701600601E+03  0.15030971903E+03  0.00000000000E+00 0. -1.
         22    1    3    3    0    0  0.37422714697E+02  0.48138944744E+02  0.72402816928E+01  0.61402274024E+02  0.00000000000E+00 0. -1.
</event>
<event>
 7    1  0.6520971E-006  0.1097606E+03  0.7818608E-02  0.1385122E+00
          2   -1    0    0  502    0  0.00000000000E+00  0.00000000000E+00  0.11979098340E+04  0.11979098340E+04  0.00000000000E+00 0. -1.
          1   -1    0    0  501    0 -0.00000000000E+00 -0.00000000000E+00 -0.18671668305E+04  0.18671668305E+04  0.00000000000E+00 0. -1.
         25    2    1    2    0    0  0.13694807754E+02  0.10193896645E+03 -0.52981300438E+03  0.55399096806E+03  0.12500028977E+03 0.  0.
          2    1    1    2  501    0  0.21738746294E+02 -0.10990215761E+03 -0.13226180725E+04  0.13273543698E+04  0.00000000000E+00 0. -1.
          1    1    1    2  502    0 -0.35433554049E+02  0.79631911580E+01  0.11831740803E+04  0.11837313266E+04  0.00000000000E+00 0. -1.
         22    1    3    3    0    0 -0.41647733337E+02 -0.21727828835E+01 -0.10120405179E+03  0.10946010586E+03  0.00000000000E+00 0. -1.
         22    1    3    3    0    0  0.55342541091E+02  0.10411174933E+03 -0.42860895259E+03  0.44453086220E+03  0.00000000000E+00 0. -1.
</event>
<event>
 7    1  0.6520971E-006  0.9419816E+02  0.7818608E-02  0.1320577E+00
          2   -1    0    0  502    0  0.00000000000E+00  0.00000000000E+00  0.22232971206E+04  0.22232971206E+04  0.00000000000E+00 0. -1.
          1   -1    0    0  501    0 -0.00000000000E+00 -0.00000000000E+00 -0.28767906079E+03  0.28767906079E+03  0.00000000000E+00 0. -1.
         25    2    1    2    0    0  0.99482905582E+02 -0.51675980041E+02 -0.19233245023E+03  0.25530080201E+03  0.12497788876E+03 0.  0.
          2    1    1    2  501    0 -0.33010215061E+02  0.82434114346E+02 -0.32071385130E+02  0.94412029162E+02  0.00000000000E+00 0. -1.
          1    1    1    2  502    0 -0.66472690521E+02 -0.30758134305E+02  0.21600218952E+04  0.21612633502E+04  0.00000000000E+00 0. -1.
         22    1    3    3    0    0 -0.24399924986E+02 -0.31949330414E+02 -0.65914506572E+02  0.77206464949E+02  0.00000000000E+00 0. -1.
         22    1    3    3    0    0  0.12388283057E+03 -0.19726649627E+02 -0.12641794366E+03  0.17809433706E+03  0.00000000000E+00 0. -1.
</event>
<event>
 7    1  0.6520971E-006  0.9175866E+02  0.7818608E-02  0.1314560E+00
          2   -1    0    0  502    0  0.00000000000E+00  0.00000000000E+00  0.16512480075E+04  0.16512480075E+04  0.00000000000E+00 0. -1.
          1   -1    0    0  501    0 -0.00000000000E+00 -0.00000000000E+00 -0.18962123702E+04  0.18962123702E+04  0.00000000000E+00 0. -1.
         25    2    1    2    0    0  0.67368058212E+02 -0.11510962870E+02 -0.40446194718E+02  0.14809460313E+03  0.12500063710E+03 0.  0.
          2    1    1    2  501    0 -0.43299801061E+01  0.79241812472E+02 -0.17997269502E+04  0.18014758141E+04  0.00000000000E+00 0. -1.
          1    1    1    2  502    0 -0.63038078106E+02 -0.67730849603E+02  0.15952087822E+04  0.15978899606E+04  0.00000000000E+00 0. -1.
         22    1    3    3    0    0 -0.32011971197E+02 -0.26912583863E+02 -0.96802898571E+01  0.42927397799E+02  0.00000000000E+00 0. -1.
         22    1    3    3    0    0  0.99380029410E+02  0.15401620993E+02 -0.30765904861E+02  0.10516720533E+03  0.00000000000E+00 0. -1.
</event>
<event>
 7    1  0.6520971E-006  0.6320779E+02  0.7818608E-02  0.1448900E+00
          2   -1    0    0  502    0  0.00000000000E+00  0.00000000000E+00  0.15550088537E+04  0.15550088537E+04  0.00000000000E+00 0. -1.
          1   -1    0    0  501    0 -0.00000000000E+00 -0.00000000000E+00 -0.34094018247E+02  0.34094018247E+02  0.00000000000E+00 0. -1.
         25    2    1    2    0    0  0.29079538555E+01  0.60779253290E+02  0.29411995821E+03  0.32532003178E+03  0.12499599769E+03 0.  0.
          2    1    1    2  501    0 -0.40322540882E+02 -0.51598451726E+02  0.40784943406E+02  0.77147385778E+02  0.00000000000E+00 0. -1.
          1    1    1    2  502    0  0.37414587026E+02 -0.91808015645E+01  0.11860099338E+04  0.11866354544E+04  0.00000000000E+00 0. -1.
         22    1    3    3    0    0 -0.11343338550E+02  0.55340507194E+02  0.30262697127E+03  0.30785439221E+03  0.00000000000E+00 0. -1.
         22    1    3    3    0    0  0.14251292406E+02  0.54387460964E+01 -0.85070130621E+01  0.17465639570E+02  0.00000000000E+00 0. -1.
</event>
<event>
 7    1  0.6520971E-006  0.5542232E+02  0.7818608E-02  0.1495545E+00
          2   -1    0    0  502    0  0.00000000000E+00  0.00000000000E+00  0.28581662796E+04  0.28581662796E+04  0.00000000000E+00 0. -1.
          1   -1    0    0  501    0 -0.00000000000E+00 -0.00000000000E+00 -0.29430519172E+03  0.29430519172E+03  0.00000000000E+00 0. -1.
         25    2    1    2    0    0  0.30080855093E+02 -0.47102243446E+00  0.71898020055E+03  0.73038583165E+03  0.12500341831E+03 0.  0.
          2    1    1    2  501    0 -0.49417362872E+02  0.25321687145E+02 -0.28581411768E+03  0.29115798711E+03  0.00000000000E+00 0. -1.
          1    1    1    2  502    0  0.19336507778E+02 -0.24850664710E+02  0.21306950050E+04  0.21309276526E+04  0.00000000000E+00 0. -1.
         22    1    3    3    0    0  0.15028977501E+02 -0.61180530961E+02  0.43948248003E+03  0.44397497428E+03  0.00000000000E+00 0. -1.
         22    1    3    3    0    0  0.15051877593E+02  0.60709508527E+02  0.27949772052E+03  0.28641085737E+03  0.00000000000E+00 0. -1.
</event>
<event>
 7    1  0.6520971E-006  0.1424214E+03  0.7818608E-02  0.1358297E+00
          2   -1    0    0  502    0  0.00000000000E+00  0.00000000000E+00  0.68775747640E+03  0.68775747640E+03  0.00000000000E+00 0. -1.
          1   -1    0    0  501    0 -0.00000000000E+00 -0.00000000000E+00 -0.13297905465E+03  0.13297905465E+03  0.00000000000E+00 0. -1.
         25    2    1    2    0    0 -0.10433347779E+03 -0.12140941332E+03  0.32879964951E+03  0.38647144056E+03  0.12500097846E+03 0.  0.
          2    1    1    2  501    0  0.34324461094E+02  0.64688228633E+01 -0.86906501227E+02  0.93662982304E+02  0.00000000000E+00 0. -1.
          1    1    1    2  502    0  0.70009016698E+02  0.11494059045E+03  0.31288527346E+03  0.34060210819E+03  0.00000000000E+00 0. -1.
         22    1    3    3    0    0 -0.69009624363E+02 -0.22970488594E+02  0.48824901075E+02  0.87600471266E+02  0.00000000000E+00 0.  1.
         22    1    3    3    0    0 -0.35323853429E+02 -0.98438924721E+02  0.27997474844E+03  0.29887096929E+03  0.00000000000E+00 0.  1.
</event>
<event>
 7    1  0.6520971E-006  0.9805004E+02  0.7818608E-02  0.1406589E+00
          2   -1    0    0  502    0  0.00000000000E+00  0.00000000000E+00  0.77016924827E+03  0.77016924827E+03  0.00000000000E+00 0. -1.
          1   -1    0    0  501    0 -0.00000000000E+00 -0.00000000000E+00 -0.41652814438E+03  0.41652814438E+03  0.00000000000E+00 0. -1.
         25    2    1    2    0    0 -0.29394913962E+02  0.73014047415E+02  0.31734019983E+03  0.35003407989E+03  0.12499577021E+03 0.  0.
          2    1    1    2  501    0 -0.31076561910E+02  0.14431871950E+02 -0.39295035156E+03  0.39444139035E+03  0.00000000000E+00 0. -1.
          1    1    1    2  502    0  0.60471475873E+02 -0.87445919364E+02  0.42925125561E+03  0.44222192240E+03  0.00000000000E+00 0. -1.
         22    1    3    3    0    0 -0.32826372869E+02  0.98481195295E+02  0.16078744898E+03  0.19138631177E+03  0.00000000000E+00 0. -1.
         22    1    3    3    0    0  0.34314589063E+01 -0.25467147880E+02  0.15655275085E+03  0.15864776813E+03  0.00000000000E+00 0. -1.
</event>
<event>
 7    1  0.6520971E-006  0.3541539E+02  0.7818608E-02  0.1594574E+00
          2   -1    0    0  502    0  0.00000000000E+00  0.00000000000E+00  0.94180676469E+03  0.94180676469E+03  0.00000000000E+00 0. -1.
          1   -1    0    0  501    0 -0.00000000000E+00 -0.00000000000E+00 -0.14210137128E+03  0.14210137128E+03  0.00000000000E+00 0. -1.
         25    2    1    2    0    0  0.83439343271E+00  0.47655491697E+02 -0.26328277417E+02  0.13634575640E+03  0.12500097998E+03 0.  0.
          2    1    1    2  501    0 -0.19241398018E+02 -0.17424345838E+02 -0.57621472054E+02  0.63198680898E+02  0.00000000000E+00 0. -1.
          1    1    1    2  502    0  0.18407004586E+02 -0.30231145859E+02  0.88365514288E+03  0.88436369867E+03  0.00000000000E+00 0. -1.
         22    1    3    3    0    0 -0.44851794323E+02  0.11568129742E+02  0.30121777451E+02  0.55252389600E+02  0.00000000000E+00 0. -1.
         22    1    3    3    0    0  0.45686187756E+02  0.36087361956E+02 -0.56450054868E+02  0.81093366802E+02  0.00000000000E+00 0. -1.
</event>
<event>
 7    1  0.6520971E-006  0.5509758E+02  0.7818608E-02  0.1470366E+00
          2   -1    0    0  502    0  0.00000000000E+00  0.00000000000E+00  0.15718783365E+03  0.15718783365E+03  0.00000000000E+00 0. -1.
          1   -1    0    0  501    0 -0.00000000000E+00 -0.00000000000E+00 -0.46003505238E+03  0.46003505238E+03  0.00000000000E+00 0. -1.
         25    2    1    2    0    0 -0.99933461291E+01 -0.38638470666E+02 -0.94457956863E+02  0.16167955509E+03  0.12500069815E+03 0.  0.
          2    1    1    2  501    0  0.36070995459E+02 -0.11338508852E+02 -0.32438186018E+03  0.32657812191E+03  0.00000000000E+00 0. -1.
          1    1    1    2  502    0 -0.26077649330E+02  0.49976979518E+02  0.11599259832E+03  0.12896520903E+03  0.00000000000E+00 0. -1.
         22    1    3    3    0    0 -0.31755486354E+00 -0.55763260572E+01  0.31040447796E+02  0.31538954529E+02  0.00000000000E+00 0. -1.
         22    1    3    3    0    0 -0.96757912656E+01 -0.33062144609E+02 -0.12549840466E+03  0.13014060056E+03  0.00000000000E+00 0. -1.
</event>
<event>
 7    1  0.6520971E-006  0.5888705E+02  0.7818608E-02  0.1438807E+00
          2   -1    0    0  502    0  0.00000000000E+00  0.00000000000E+00  0.15619677145E+04  0.15619677145E+04  0.00000000000E+00 0. -1.
          1   -1    0    0  501    0 -0.00000000000E+00 -0.00000000000E+00 -0.20524763282E+03  0.20524763282E+03  0.00000000000E+00 0. -1.
         25    2    1    2    0    0 -0.59739079070E+02 -0.40259699163E+02  0.13959965294E+03  0.20075414713E+03  0.12499825417E+03 0.  0.
          2    1    1    2  501    0  0.18076008315E+02  0.56098484602E+02 -0.16933012155E+03  0.17929437280E+03  0.00000000000E+00 0. -1.
          1    1    1    2  502    0  0.41663070756E+02 -0.15838785439E+02  0.13864505503E+04  0.13871668273E+04  0.00000000000E+00 0. -1.
         22    1    3    3    0    0 -0.86003019156E+02 -0.65298770674E+02  0.10472686520E+03  0.15042661018E+03  0.00000000000E+00 0.  1.
         22    1    3    3    0    0  0.26263940086E+02  0.25039071511E+02  0.34872787739E+02  0.50327536952E+02  0.00000000000E+00 0.  1.
</event>
<event>
 7    1  0.6520971E-006  0.4706574E+02  0.7818608E-02  0.1559648E+00
          2   -1    0    0  502    0  0.00000000000E+00  0.00000000000E+00  0.13305505268E+03  0.13305505268E+03  0.00000000000E+00 0. -1.
          1   -1    0    0  501    0 -0.00000000000E+00 -0.00000000000E+00 -0.22333689651E+03  0.22333689651E+03  0.00000000000E+00 0. -1.
         25    2    1    2    0    0 -0.45033161411E+02 -0.50300415727E+02 -0.95438958968E+02  0.17114562811E+03  0.12499645468E+03 0.  0.
          2    1    1    2  501    0  0.25331742614E+02  0.36154348701E+02 -0.82893816818E+02  0.93916020893E+02  0.00000000000E+00 0. -1.
          1    1    1    2  502    0  0.19701418797E+02  0.14146067026E+02  0.88050931953E+02  0.91330300190E+02  0.00000000000E+00 0. -1.
         22    1    3    3    0    0  0.96555810777E+00 -0.84622035429E+02 -0.58967270535E+02  0.10314533522E+03  0.00000000000E+00 0.  1.
         22    1    3    3    0    0 -0.45998719519E+02  0.34321619702E+02 -0.36471688433E+02  0.68000292893E+02  0.00000000000E+00 0.  1.
</event>
<event>
 7    1  0.6520971E-006  0.7371737E+02  0.7818608E-02  0.1357654E+00
          2   -1    0    0  502    0  0.00000000000E+00  0.00000000000E+00  0.15535887280E+04  0.15535887280E+04  0.00000000000E+00 0. -1.
          1   -1    0    0  501    0 -0.00000000000E+00 -0.00000000000E+00 -0.30176229856E+03  0.30176229856E+03  0.00000000000E+00 0. -1.
         25    2    1    2    0    0 -0.94179928978E+02  0.10031987381E+03  0.93287594315E+03  0.95121808098E+03  0.12499750462E+03 0.  0.
          2    1    1    2  501    0  0.37398981669E+02 -0.63179729959E+02 -0.28605918988E+03  0.29533069976E+03  0.00000000000E+00 0. -1.
          1    1    1    2  502    0  0.56780947309E+02 -0.37140143850E+02  0.60500967615E+03  0.60880224581E+03  0.00000000000E+00 0. -1.
         22    1    3    3    0    0  0.23148255765E+02  0.16143447855E+02  0.57956960316E+02  0.64462872281E+02  0.00000000000E+00 0.  1.
         22    1    3    3    0    0 -0.11732818474E+03  0.84176425954E+02  0.87491898284E+03  0.88675520869E+03  0.00000000000E+00 0.  1.
</event>
<event>
 7    1  0.6520971E-006  0.5571961E+02  0.7818608E-02  0.1449435E+00
          2   -1    0    0  502    0  0.00000000000E+00  0.00000000000E+00  0.29958200397E+04  0.29958200397E+04  0.00000000000E+00 0. -1.
          1   -1    0    0  501    0 -0.00000000000E+00 -0.00000000000E+00 -0.55877851407E+02  0.55877851407E+02  0.00000000000E+00 0. -1.
         25    2    1    2    0    0 -0.15387000919E+02  0.70550867259E+01  0.16656414140E+03  0.20893982660E+03  0.12500281554E+03 0.  0.
          2    1    1    2  501    0 -0.39957952280E+02 -0.17268318752E+02 -0.20638697421E+02  0.48174563975E+02  0.00000000000E+00 0. -1.
          1    1    1    2  502    0  0.55344953199E+02  0.10213232026E+02  0.27940167443E+04  0.27945835005E+04  0.00000000000E+00 0. -1.
         22    1    3    3    0    0 -0.24385502276E+02  0.33623125233E+02  0.15558202867E+01  0.41564261674E+02  0.00000000000E+00 0.  1.
         22    1    3    3    0    0  0.89985013576E+01 -0.26568038507E+02  0.16500832111E+03  0.16737556492E+03  0.00000000000E+00 0.  1.
</event>
<event>
 7    1  0.6520971E-006  0.8609442E+02  0.7818608E-02  0.1335547E+00
          2   -1    0    0  502    0  0.00000000000E+00  0.00000000000E+00  0.95949875622E+03  0.95949875622E+03  0.00000000000E+00 0. -1.
          1   -1    0    0  501    0 -0.00000000000E+00 -0.00000000000E+00 -0.41331347848E+02  0.41331347848E+02  0.00000000000E+00 0. -1.
         25    2    1    2    0    0  0.99143784030E+02  0.28206126574E+01  0.26078965253E+03  0.30573379068E+03  0.12499784850E+03 0.  0.
          2    1    1    2  501    0 -0.37427612182E+02  0.59417503115E+02  0.63157361438E+02  0.94446377029E+02  0.00000000000E+00 0. -1.
          1    1    1    2  502    0 -0.61716171848E+02 -0.62238115773E+02  0.59422039440E+03  0.60064993636E+03  0.00000000000E+00 0. -1.
         22    1    3    3    0    0  0.10541759973E+03  0.11828827693E+02  0.27082587436E+03  0.29085983862E+03  0.00000000000E+00 0. -1.
         22    1    3    3    0    0 -0.62738156989E+01 -0.90082150354E+01 -0.10036221826E+02  0.14873952067E+02  0.00000000000E+00 0. -1.
</event>
<event>
 7    1  0.6520971E-006  0.7975254E+02  0.7818608E-02  0.1400053E+00
          2   -1    0    0  502    0  0.00000000000E+00  0.00000000000E+00  0.14900231687E+04  0.14900231687E+04  0.00000000000E+00 0. -1.
          1   -1    0    0  501    0 -0.00000000000E+00 -0.00000000000E+00 -0.25317854225E+02  0.25317854225E+02  0.00000000000E+00 0. -1.
         25    2    1    2    0    0 -0.20789843846E+02  0.51956296577E+02  0.24472554585E+03  0.28044243011E+03  0.12500275779E+03 0.  0.
          2    1    1    2  501    0 -0.44323760643E+02 -0.15702975795E+01  0.76260311010E+02  0.88219593217E+02  0.00000000000E+00 0. -1.
          1    1    1    2  502    0  0.65113604490E+02 -0.50385998998E+02  0.11437194576E+04  0.11466789996E+04  0.00000000000E+00 0. -1.
         22    1    3    3    0    0 -0.58121286342E+02 -0.21828764178E+00  0.18065084056E+03  0.18977053979E+03  0.00000000000E+00 0. -1.
         22    1    3    3    0    0  0.37331442496E+02  0.52174584219E+02  0.64074705285E+02  0.90671890322E+02  0.00000000000E+00 0. -1.
</event>
<event>
 7    1  0.6520971E-006  0.6272618E+02  0.7818608E-02  0.1399259E+00
          2   -1    0    0  502    0  0.00000000000E+00  0.00000000000E+00  0.94259669484E+03  0.94259669484E+03  0.00000000000E+00 0. -1.
          1   -1    0    0  501    0 -0.00000000000E+00 -0.00000000000E+00 -0.24563212923E+04  0.24563212923E+04  0.00000000000E+00 0. -1.
         25    2    1    2    0    0  0.10111627253E+03  0.51543089102E+02 -0.11509361871E+03  0.20433876152E+03  0.12500639099E+03 0.  0.
          2    1    1    2  501    0 -0.61289309035E+02 -0.11121329650E+02 -0.22952856539E+04  0.22961307229E+04  0.00000000000E+00 0. -1.
          1    1    1    2  502    0 -0.39826963495E+02 -0.40421759452E+02  0.89665467516E+03  0.89844850278E+03  0.00000000000E+00 0. -1.
         22    1    3    3    0    0  0.64587043183E+02 -0.32185068033E+02 -0.76518440095E+02  0.10517811762E+03  0.00000000000E+00 0.  1.
         22    1    3    3    0    0  0.36529229347E+02  0.83728157135E+02 -0.38575178615E+02  0.99160643903E+02  0.00000000000E+00 0.  1.
</event>
<event>
 7    1  0.6520971E-006  0.4715779E+02  0.7818608E-02  0.1481281E+00
          2   -1    0    0  502    0  0.00000000000E+00  0.00000000000E+00  0.11817604107E+03  0.11817604107E+03  0.00000000000E+00 0. -1.
          1   -1    0    0  501    0 -0.00000000000E+00 -0.00000000000E+00 -0.24771219832E+04  0.24771219832E+04  0.00000000000E+00 0. -1.
         25    2    1    2    0    0 -0.42246775672E+02 -0.55211869208E+02  0.14739327548E+02  0.14379044875E+03  0.12500121927E+03 0.  0.
          2    1    1    2  501    0  0.85486451421E-01  0.40880784029E+02 -0.23996247895E+04  0.23999729949E+04  0.00000000000E+00 0. -1.
          1    1    1    2  502    0  0.42161289221E+02  0.14331085179E+02  0.25939519822E+02  0.51534580621E+02  0.00000000000E+00 0. -1.
         22    1    3    3    0    0 -0.35804818784E+02 -0.48374026509E+02  0.67364829312E+02  0.90333004583E+02  0.00000000000E+00 0.  1.
         22    1    3    3    0    0 -0.64419568882E+01 -0.68378426992E+01 -0.52625501764E+02  0.53457444170E+02  0.00000000000E+00 0.  1.
</event>
<event>
 7    1  0.6520971E-006  0.5296097E+02  0.7818608E-02  0.1494603E+00
          2   -1    0    0  502    0  0.00000000000E+00  0.00000000000E+00  0.37019463390E+03  0.37019463390E+03  0.00000000000E+00 0. -1.
          1   -1    0    0  501    0 -0.00000000000E+00 -0.00000000000E+00 -0.21622989835E+03  0.21622989835E+03  0.00000000000E+00 0. -1.
         25    2    1    2    0    0 -0.30987659937E+02 -0.56984523346E+02 -0.96218369852E+02  0.17055988209E+03  0.12500091085E+03 0.  0.
          2    1    1    2  501    0 -0.14442004939E+02  0.29856715715E+02 -0.77310329518E+02  0.84124205970E+02  0.00000000000E+00 0. -1.
          1    1    1    2  502    0  0.45429664876E+02  0.27127807631E+02  0.32749343492E+03  0.33174044419E+03  0.00000000000E+00 0. -1.
         22    1    3    3    0    0 -0.77800949960E+02 -0.52150367092E+02 -0.60924990548E+02  0.11173407303E+03  0.00000000000E+00 0. -1.
         22    1    3    3    0    0  0.46813290023E+02 -0.48341562539E+01 -0.35293379304E+02  0.58825809065E+02  0.00000000000E+00 0. -1.
</event>
<event>
 7    1  0.6520971E-006  0.1248005E+03  0.7818608E-02  0.1410739E+00
          2   -1    0    0  502    0  0.00000000000E+00  0.00000000000E+00  0.21433094036E+04  0.21433094036E+04  0.00000000000E+00 0. -1.
          1   -1    0    0  501    0 -0.00000000000E+00 -0.00000000000E+00 -0.31683984022E+03  0.31683984022E+03  0.00000000000E+00 0. -1.
         25    2    1    2    0    0 -0.69585693141E+02 -0.10910890325E+03  0.94941256588E+03  0.96631370287E+03  0.12502412030E+03 0.  0.
          2    1    1    2  501    0  0.44604098205E+02  0.11652909249E+03 -0.29561771501E+03  0.32087129569E+03  0.00000000000E+00 0. -1.
          1    1    1    2  502    0  0.24981594936E+02 -0.74201892345E+01  0.11726747125E+04  0.11729642453E+04  0.00000000000E+00 0. -1.
         22    1    3    3    0    0 -0.38018011577E+02  0.46348534705E+01  0.77502671944E+02  0.86449495253E+02  0.00000000000E+00 0.  1.
         22    1    3    3    0    0 -0.31567681564E+02 -0.11374375672E+03  0.87190989393E+03  0.87986420762E+03  0.00000000000E+00 0.  1.
</event>
<event>
 7    1  0.6520971E-006  0.1179671E+03  0.7818608E-02  0.1442729E+00
          2   -1    0    0  502    0  0.00000000000E+00  0.00000000000E+00  0.90166544142E+03  0.90166544142E+03  0.00000000000E+00 0. -1.
          1   -1    0    0  501    0 -0.00000000000E+00 -0.00000000000E+00 -0.13369899199E+04  0.13369899199E+04  0.00000000000E+00 0. -1.
         25    2    1    2    0    0  0.61159045855E+02 -0.79286306163E+02 -0.48837679171E+03  0.51396856246E+03  0.12500018114E+03 0.  0.
          2    1    1    2  501    0  0.20834964012E+02 -0.57271694301E+01 -0.83175270233E+03  0.83203332507E+03  0.00000000000E+00 0. -1.
          1    1    1    2  502    0 -0.81994009867E+02  0.85013475593E+02  0.88480501556E+03  0.89265347378E+03  0.00000000000E+00 0. -1.
         22    1    3    3    0    0  0.45796143692E+02 -0.88240799713E+01 -0.45149501192E+02  0.64912468928E+02  0.00000000000E+00 0. -1.
         22    1    3    3    0    0  0.15362902163E+02 -0.70462226191E+02 -0.44322729052E+03  0.44905609354E+03  0.00000000000E+00 0. -1.
</event>
<event>
 7    1  0.6520971E-006  0.7373422E+02  0.7818608E-02  0.1397522E+00
          2   -1    0    0  502    0  0.00000000000E+00  0.00000000000E+00  0.70731529290E+02  0.70731529290E+02  0.00000000000E+00 0. -1.
          1   -1    0    0  501    0 -0.00000000000E+00 -0.00000000000E+00 -0.47175015006E+03  0.47175015006E+03  0.00000000000E+00 0. -1.
         25    2    1    2    0    0  0.43335814600E+02  0.42567492219E+02 -0.18361358060E+03  0.23028069939E+03  0.12500107725E+03 0.  0.
          2    1    1    2  501    0 -0.34456901404E+02  0.34760308728E+02 -0.22840628100E+03  0.23359149453E+03  0.00000000000E+00 0. -1.
          1    1    1    2  502    0 -0.88789131961E+01 -0.77327800947E+02  0.11001240829E+02  0.78609485424E+02  0.00000000000E+00 0. -1.
         22    1    3    3    0    0 -0.40552085992E+01  0.84606883037E+01 -0.17008772743E+03  0.17034630312E+03  0.00000000000E+00 0. -1.
         22    1    3    3    0    0  0.47391023199E+02  0.34106803916E+02 -0.13525853168E+02  0.59934396277E+02  0.00000000000E+00 0. -1.
</event>
<event>
 7    1  0.6520971E-006  0.3157264E+02  0.7818608E-02  0.1654969E+00
          2   -1    0    0  502    0  0.00000000000E+00  0.00000000000E+00  0.86975502033E+03  0.86975502033E+03  0.00000000000E+00 0. -1.
          1   -1    0    0  501    0 -0.00000000000E+00 -0.00000000000E+00 -0.12850894429E+04  0.12850894429E+04  0.00000000000E+00 0. -1.
         25    2    1    2    0    0 -0.10920801593E+02  0.79681133972E+01 -0.17227483856E+03  0.21327327449E+03  0.12499645944E+03 0.  0.
          2    1    1    2  501    0  0.14993879643E+02 -0.28033562234E+02 -0.10919606010E+04  0.10924232931E+04  0.00000000000E+00 0. -1.
          1    1    1    2  502    0 -0.40730780508E+01  0.20065448836E+02  0.84890101697E+03  0.84914789573E+03  0.00000000000E+00 0. -1.
         22    1    3    3    0    0 -0.46304585191E+02 -0.42679256237E+02 -0.10015890553E+03  0.11831077668E+03  0.00000000000E+00 0.  1.
         22    1    3    3    0    0  0.35383783599E+02  0.50647369634E+02 -0.72115933028E+02  0.94962497804E+02  0.00000000000E+00 0.  1.
</event>
<event>
 7    1  0.6520971E-006  0.1100642E+03  0.7818608E-02  0.1356614E+00
          2   -1    0    0  502    0  0.00000000000E+00  0.00000000000E+00  0.18324181507E+04  0.18324181507E+04  0.00000000000E+00 0. -1.
          1   -1    0    0  501    0 -0.00000000000E+00 -0.00000000000E+00 -0.18574141839E+04  0.18574141839E+04  0.00000000000E+00 0. -1.
         25    2    1    2    0    0 -0.50155163029E+02  0.49903304030E+02  0.49931042711E+02  0.15205425784E+03  0.12498603190E+03 0.  0.
          2    1    1    2  501    0 -0.82460959170E+01  0.45095729319E+02 -0.18042655579E+04  0.18048478679E+04  0.00000000000E+00 0. -1.
          1    1    1    2  502    0  0.58401258946E+02 -0.94999033349E+02  0.17293384820E+04  0.17329302089E+04  0.00000000000E+00 0. -1.
         22    1    3    3    0    0  0.22118429080E+02  0.25204429640E+02 -0.27444437261E+02  0.43332266442E+02  0.00000000000E+00 0. -1.
         22    1    3    3    0    0 -0.72273592109E+02  0.24698874390E+02  0.77375479972E+02  0.10872199140E+03  0.00000000000E+00 0. -1.
</event>
<event>
 7    1  0.6520971E-006  0.1357777E+03  0.7818608E-02  0.1280891E+00
          2   -1    0    0  502    0  0.00000000000E+00  0.00000000000E+00  0.66091405788E+03  0.66091405788E+03  0.00000000000E+00 0. -1.
          1   -1    0    0  501    0 -0.00000000000E+00 -0.00000000000E+00 -0.15264326194E+03  0.15264326194E+03  0.00000000000E+00 0. -1.
         25    2    1    2    0    0 -0.39855569407E+02  0.19762558525E+03  0.71383860970E+02  0.24771873090E+03  0.12499830268E+03 0.  0.
          2    1    1    2  501    0  0.23417471115E+02 -0.69389314656E+02 -0.31657978769E+02  0.79783974341E+02  0.00000000000E+00 0. -1.
          1    1    1    2  502    0  0.16438098292E+02 -0.12823627059E+03  0.46854491373E+03  0.48605461458E+03  0.00000000000E+00 0. -1.
         22    1    3    3    0    0 -0.56936301489E+02  0.14081696171E+03  0.10000159003E+03  0.18185564918E+03  0.00000000000E+00 0. -1.
         22    1    3    3    0    0  0.17080732082E+02  0.56808623540E+02 -0.28617729055E+02  0.65863081717E+02  0.00000000000E+00 0. -1.
</event>
<event>
 7    1  0.6520971E-006  0.2536095E+03  0.7818608E-02  0.1218307E+00
          2   -1    0    0  502    0  0.00000000000E+00  0.00000000000E+00  0.17723681387E+04  0.17723681387E+04  0.00000000000E+00 0. -1.
          1   -1    0    0  501    0 -0.00000000000E+00 -0.00000000000E+00 -0.27125966243E+03  0.27125966243E+03  0.00000000000E+00 0. -1.
         25    2    1    2    0    0 -0.18796303437E+03  0.69025936801E+02  0.41458332566E+03  0.47707352443E+03  0.12500052624E+03 0.  0.
          2    1    1    2  501    0  0.22795458907E+03 -0.13048151777E+03 -0.16676195073E+03  0.31112420248E+03  0.00000000000E+00 0. -1.
          1    1    1    2  502    0 -0.39991554692E+02  0.61455580969E+02  0.12532871013E+04  0.12554300742E+04  0.00000000000E+00 0. -1.
         22    1    3    3    0    0 -0.10271522517E+02  0.15568209621E+02 -0.41145572741E+01  0.19099814324E+02  0.00000000000E+00 0. -1.
         22    1    3    3    0    0 -0.17769151186E+03  0.53457727180E+02  0.41869788293E+03  0.45797371011E+03  0.00000000000E+00 0. -1.
</event>
<event>
 7    1  0.6520971E-006  0.8664387E+02  0.7818608E-02  0.1348868E+00
          2   -1    0    0  502    0  0.00000000000E+00  0.00000000000E+00  0.82090713357E+03  0.82090713357E+03  0.00000000000E+00 0. -1.
          1   -1    0    0  501    0 -0.00000000000E+00 -0.00000000000E+00 -0.76085601044E+03  0.76085601044E+03  0.00000000000E+00 0. -1.
         25    2    1    2    0    0  0.61724470011E+02  0.74436782941E+02 -0.11162416770E+03  0.19348193410E+03  0.12499823661E+03 0.  0.
          2    1    1    2  501    0  0.23452197474E+02 -0.57606082439E+02 -0.60428559034E+03  0.60747801688E+03  0.00000000000E+00 0. -1.
          1    1    1    2  502    0 -0.85176667484E+02 -0.16830700502E+02  0.77596088116E+03  0.78080319304E+03  0.00000000000E+00 0. -1.
         22    1    3    3    0    0 -0.28321946975E+02  0.58461421064E+02 -0.32920252435E+02  0.72825911966E+02  0.00000000000E+00 0.  1.
         22    1    3    3    0    0  0.90046416986E+02  0.15975361877E+02 -0.78703915262E+02  0.12065602213E+03  0.00000000000E+00 0.  1.
</event>
<event>
 7    1  0.6520971E-006  0.6112705E+02  0.7818608E-02  0.1425118E+00
          2   -1    0    0  502    0  0.00000000000E+00  0.00000000000E+00  0.10924952025E+03  0.10924952025E+03  0.00000000000E+00 0. -1.
          1   -1    0    0  501    0 -0.00000000000E+00 -0.00000000000E+00 -0.21363839043E+03  0.21363839043E+03  0.00000000000E+00 0. -1.
         25    2    1    2    0    0 -0.11701316400E+02 -0.36953663616E+02 -0.68805165079E+01  0.13104433482E+03  0.12499112817E+03 0.  0.
          2    1    1    2  501    0  0.58693552522E+02  0.29245608215E+02 -0.12184076305E+03  0.13836694059E+03  0.00000000000E+00 0. -1.
          1    1    1    2  502    0 -0.46992236123E+02  0.77080554005E+01  0.24332409380E+02  0.53476635273E+02  0.00000000000E+00 0. -1.
         22    1    3    3    0    0 -0.39450928010E+02 -0.74334570385E+02 -0.74701670199E+01  0.84485545926E+02  0.00000000000E+00 0.  1.
         22    1    3    3    0    0  0.27749611610E+02  0.37380906769E+02  0.58965051200E+00  0.46558788892E+02  0.00000000000E+00 0.  1.
</event>
<event>
 7    1  0.6520971E-006  0.7989459E+02  0.7818608E-02  0.1488060E+00
          2   -1    0    0  502    0  0.00000000000E+00  0.00000000000E+00  0.18315542882E+03  0.18315542882E+03  0.00000000000E+00 0. -1.
          1   -1    0    0  501    0 -0.00000000000E+00 -0.00000000000E+00 -0.57644849303E+03  0.57644849303E+03  0.00000000000E+00 0. -1.
         25    2    1    2    0    0 -0.99865225928E+02 -0.10068975374E+02 -0.29362729882E+03  0.33454004573E+03  0.12500241586E+03 0.  0.
          2    1    1    2  501    0  0.22223632623E+02 -0.59592028871E+01 -0.25215224894E+03  0.25319983924E+03  0.00000000000E+00 0. -1.
          1    1    1    2  502    0  0.77641593305E+02  0.16028178262E+02  0.15248648355E+03  0.17186403689E+03  0.00000000000E+00 0. -1.
         22    1    3    3    0    0 -0.11169985505E+03  0.45796788660E+01 -0.29518343663E+03  0.31564393284E+03  0.00000000000E+00 0. -1.
         22    1    3    3    0    0  0.11834629122E+02 -0.14648654240E+02  0.15561378129E+01  0.18896112892E+02  0.00000000000E+00 0. -1.
</event>
<event>
 7    1  0.6520971E-006  0.4590896E+02  0.7818608E-02  0.1557348E+00
          2   -1    0    0  502    0  0.00000000000E+00  0.00000000000E+00  0.13758523667E+04  0.13758523667E+04  0.00000000000E+00 0. -1.
          1   -1    0    0  501    0 -0.00000000000E+00 -0.00000000000E+00 -0.25122142463E+04  0.25122142463E+04  0.00000000000E+00 0. -1.
         25    2    1    2    0    0 -0.54306747807E+02 -0.84994189219E+01  0.89767038023E+02  0.16341580526E+03  0.12500056526E+03 0.  0.
          2    1    1    2  501    0  0.43603573790E+02 -0.14348964176E+02 -0.24750496221E+04  0.24754752667E+04  0.00000000000E+00 0. -1.
          1    1    1    2  502    0  0.10703174017E+02  0.22848383098E+02  0.12489207044E+04  0.12491755410E+04  0.00000000000E+00 0. -1.
         22    1    3    3    0    0  0.11931440903E+02  0.32970306461E+02  0.76495022553E+02  0.84148017597E+02  0.00000000000E+00 0. -1.
         22    1    3    3    0    0 -0.66238188710E+02 -0.41469725383E+02  0.13272015470E+02  0.79267787667E+02  0.00000000000E+00 0. -1.
</event>
<event>
 7    1  0.6520971E-006  0.1332037E+03  0.7818608E-02  0.1342539E+00
          2   -1    0    0  502    0  0.00000000000E+00  0.00000000000E+00  0.51015226123E+03  0.51015226123E+03  0.00000000000E+00 0. -1.
          1   -1    0    0  501    0 -0.00000000000E+00 -0.00000000000E+00 -0.22847534413E+03  0.22847534413E+03  0.00000000000E+00 0. -1.
         25    2    1    2    0    0 -0.57956092283E+02  0.12847958699E+03 -0.45767564013E+02  0.19386977993E+03  0.12499963499E+03 0.  0.
          2    1    1    2  501    0  0.42556759637E+02  0.36878927605E+01 -0.93761827988E+02  0.10303377471E+03  0.00000000000E+00 0. -1.
          1    1    1    2  502    0  0.15399332645E+02 -0.13216747975E+03  0.42120630910E+03  0.44172405071E+03  0.00000000000E+00 0. -1.
         22    1    3    3    0    0 -0.54944163354E+02  0.38506393549E+02  0.32526511380E+02  0.74562573543E+02  0.00000000000E+00 0. -1.
         22    1    3    3    0    0 -0.30119289293E+01  0.89973193444E+02 -0.78294075394E+02  0.11930720639E+03  0.00000000000E+00 0. -1.
</event>
<event>
 7    1  0.6520971E-006  0.1553955E+03  0.7818608E-02  0.1272034E+00
          2   -1    0    0  502    0  0.00000000000E+00  0.00000000000E+00  0.19787501754E+04  0.19787501754E+04  0.00000000000E+00 0. -1.
          1   -1    0    0  501    0 -0.00000000000E+00 -0.00000000000E+00 -0.18133035603E+04  0.18133035603E+04  0.00000000000E+00 0. -1.
         25    2    1    2    0    0  0.10775412700E+03 -0.19187647798E+03 -0.26104243090E+03  0.36358639784E+03  0.12499753308E+03 0.  0.
          2    1    1    2  501    0 -0.77715324875E+02  0.12903808139E+03 -0.14965778746E+04  0.15041395657E+04  0.00000000000E+00 0. -1.
          1    1    1    2  502    0 -0.30038802124E+02  0.62838396586E+02  0.19230669207E+04  0.19243277723E+04  0.00000000000E+00 0. -1.
         22    1    3    3    0    0  0.98364301045E+02 -0.56983531087E+02 -0.86781732725E+02  0.14301652936E+03  0.00000000000E+00 0. -1.
         22    1    3    3    0    0  0.93898259539E+01 -0.13489294689E+03 -0.17426069817E+03  0.22056986848E+03  0.00000000000E+00 0. -1.
</event>
<event>
 7    1  0.6520971E-006  0.1340327E+03  0.7818608E-02  0.1340894E+00
          2   -1    0    0  502    0  0.00000000000E+00  0.00000000000E+00  0.27124754548E+03  0.27124754548E+03  0.00000000000E+00 0. -1.
          1   -1    0    0  501    0 -0.00000000000E+00 -0.00000000000E+00 -0.41391587199E+03  0.41391587199E+03  0.00000000000E+00 0. -1.
         25    2    1    2    0    0 -0.14676926696E+03  0.51563305911E+02 -0.14827880131E+03  0.24862550418E+03  0.12501218411E+03 0.  0.
          2    1    1    2  501    0  0.36911495531E+02  0.22173613853E+02 -0.19308110220E+03  0.19782426464E+03  0.00000000000E+00 0. -1.
          1    1    1    2  502    0  0.10985777143E+03 -0.73736919764E+02  0.19869157700E+03  0.23871364864E+03  0.00000000000E+00 0. -1.
         22    1    3    3    0    0 -0.14621516412E+03  0.49297501479E+02 -0.68518308422E+02  0.16883091085E+03  0.00000000000E+00 0. -1.
         22    1    3    3    0    0 -0.55410283579E+00  0.22658044315E+01 -0.79760492884E+02  0.79794593330E+02  0.00000000000E+00 0. -1.
</event>
<event>
 7    1  0.9529871E-006  0.9337442E+02  0.7818608E-02  0.1305743E+00
          2   -1    0    0  502    0  0.00000000000E+00  0.00000000000E+00  0.84738841656E+03  0.84738841656E+03  0.00000000000E+00 0. -1.
          1   -1    0    0  501    0 -0.00000000000E+00 -0.00000000000E+00 -0.31795789223E+04  0.31795789223E+04  0.00000000000E+00 0. -1.
         25    2    1    2    0    0  0.53393741982E+02  0.10908191793E+03 -0.87486708014E+03  0.89205676393E+03  0.12499242237E+03 0.  0.
          2    1    1    2  501    0 -0.87968092814E+02 -0.31999888735E+02 -0.22930324774E+04  0.22949423349E+04  0.00000000000E+00 0. -1.
          1    1    1    2  502    0  0.34574350831E+02 -0.77082029195E+02  0.83570905180E+03  0.83996824001E+03  0.00000000000E+00 0. -1.
         22    1    3    3    0    0  0.81075603823E+02  0.24861002666E+02 -0.47109395480E+03  0.47866568421E+03  0.00000000000E+00 0. -1.
         22    1    3    3    0    0 -0.27681861840E+02  0.84220915264E+02 -0.40377312534E+03  0.41339107972E+03  0.00000000000E+00 0. -1.
</event>
<event>
 7    1  0.6520971E-006  0.7363052E+02  0.7818608E-02  0.1378662E+00
          2   -1    0    0  502    0  0.00000000000E+00  0.00000000000E+00  0.15939470314E+04  0.15939470314E+04  0.00000000000E+00 0. -1.
          1   -1    0    0  501    0 -0.00000000000E+00 -0.00000000000E+00 -0.33105413569E+03  0.33105413569E+03  0.00000000000E+00 0. -1.
         25    2    1    2    0    0  0.24715800092E+02  0.80302133610E+02 -0.10164563644E+03  0.18170207794E+03  0.12499802513E+03 0.  0.
          2    1    1    2  501    0  0.38380464636E+02 -0.42220680112E+02 -0.18418629067E+03  0.19282177151E+03  0.00000000000E+00 0. -1.
          1    1    1    2  502    0 -0.63096264727E+02 -0.38081453498E+02  0.15487248228E+04  0.15504773177E+04  0.00000000000E+00 0. -1.
         22    1    3    3    0    0 -0.34694599338E+02 -0.71852814857E+00 -0.66953891627E+02  0.75412565995E+02  0.00000000000E+00 0.  1.
         22    1    3    3    0    0  0.59410399429E+02  0.81020661758E+02 -0.34691744810E+02  0.10628951195E+03  0.00000000000E+00 0.  1.
</event>
<event>
 7    1  0.1456918E-005  0.4989392E+02  0.7818608E-02  0.1528837E+00
          2   -1    0    0  502    0  0.00000000000E+00  0.00000000000E+00  0.20199789614E+04  0.20199789614E+04  0.00000000000E+00 0. -1.
          1   -1    0    0  501    0 -0.00000000000E+00 -0.00000000000E+00 -0.15420238009E+04  0.15420238009E+04  0.00000000000E+00 0. -1.
         25    2    1    2    0    0  0.22980520072E+02 -0.73682503501E+02 -0.37826047022E+03  0.40578567613E+03  0.12499526391E+03 0.  0.
          2    1    1    2  501    0 -0.37162994335E+01  0.27680689355E+02 -0.11495211376E+04  0.11498603729E+04  0.00000000000E+00 0. -1.
          1    1    1    2  502    0 -0.19264220638E+02  0.46001814146E+02  0.20057367683E+04  0.20063567132E+04  0.00000000000E+00 0. -1.
         22    1    3    3    0    0 -0.30349036323E+02  0.21562984345E+02 -0.82033280213E+02  0.90085988711E+02  0.00000000000E+00 0. -1.
         22    1    3    3    0    0  0.53329556395E+02 -0.95245487846E+02 -0.29622719001E+03  0.31569968742E+03  0.00000000000E+00 0. -1.
</event>
<event>
 7    1  0.6520971E-006  0.7878510E+02  0.7818608E-02  0.1347843E+00
          2   -1    0    0  502    0  0.00000000000E+00  0.00000000000E+00  0.59677404187E+03  0.59677404187E+03  0.00000000000E+00 0. -1.
          1   -1    0    0  501    0 -0.00000000000E+00 -0.00000000000E+00 -0.40745742359E+03  0.40745742359E+03  0.00000000000E+00 0. -1.
         25    2    1    2    0    0  0.11829773538E+02  0.10186158904E+03  0.19056489943E+02  0.16280219832E+03  0.12500271639E+03 0.  0.
          2    1    1    2  501    0  0.45926080501E+02 -0.64103022504E+02 -0.32854391093E+03  0.33787498246E+03  0.00000000000E+00 0. -1.
          1    1    1    2  502    0 -0.57755854038E+02 -0.37758566539E+02  0.49880403927E+03  0.50355428467E+03  0.00000000000E+00 0. -1.
         22    1    3    3    0    0  0.56825134811E+02  0.83411698639E+01  0.12729230455E+02  0.58827751690E+02  0.00000000000E+00 0. -1.
         22    1    3    3    0    0 -0.44995361273E+02  0.93520419179E+02  0.63272594876E+01  0.10397444663E+03  0.00000000000E+00 0. -1.
</event>
<event>
 7    1  0.6520971E-006  0.2979608E+02  0.7818608E-02  0.1640386E+00
          2   -1    0    0  502    0  0.00000000000E+00  0.00000000000E+00  0.28073204244E+04  0.28073204244E+04  0.00000000000E+00 0. -1.
          1   -1    0    0  501    0 -0.00000000000E+00 -0.00000000000E+00 -0.19304148584E+02  0.19304148584E+02  0.00000000000E+00 0. -1.
         25    2    1    2    0    0  0.14639053442E+02  0.42281046925E+02  0.71029556132E+03  0.72259708166E+03  0.12499907670E+03 0.  0.
          2    1    1    2  501    0 -0.19607146675E+02 -0.13068481307E+02 -0.24096222231E+01  0.23686107398E+02  0.00000000000E+00 0. -1.
          1    1    1    2  502    0  0.49680932333E+01 -0.29212565618E+02  0.20801303367E+04  0.20803413839E+04  0.00000000000E+00 0. -1.
         22    1    3    3    0    0 -0.24851876782E+02  0.23910619808E+02  0.49282383645E+02  0.60150534968E+02  0.00000000000E+00 0. -1.
         22    1    3    3    0    0  0.39490930224E+02  0.18370427118E+02  0.66101317768E+03  0.66244654669E+03  0.00000000000E+00 0. -1.
</event>
<event>
 7    1  0.6520971E-006  0.7425611E+02  0.7818608E-02  0.1438028E+00
          2   -1    0    0  502    0  0.00000000000E+00  0.00000000000E+00  0.89642725904E+03  0.89642725904E+03  0.00000000000E+00 0. -1.
          1   -1    0    0  501    0 -0.00000000000E+00 -0.00000000000E+00 -0.88487734595E+02  0.88487734595E+02  0.00000000000E+00 0. -1.
         25    2    1    2    0    0  0.62229947627E+02  0.60360165216E+02  0.34035737237E+03  0.37280572806E+03  0.12500021610E+03 0.  0.
          2    1    1    2  501    0 -0.27645605224E+02 -0.68605786675E+02 -0.52569066436E+02  0.90744367316E+02  0.00000000000E+00 0. -1.
          1    1    1    2  502    0 -0.34584342403E+02  0.82456214588E+01  0.52015121852E+03  0.52136489826E+03  0.00000000000E+00 0. -1.
         22    1    3    3    0    0  0.79521168723E+02 -0.94667120129E+01  0.17243947949E+03  0.19012787538E+03  0.00000000000E+00 0. -1.
         22    1    3    3    0    0 -0.17291221096E+02  0.69826877229E+02  0.16791789288E+03  0.18267785268E+03  0.00000000000E+00 0. -1.
</event>
<event>
 7    1  0.6520971E-006  0.1859638E+03  0.7818608E-02  0.1349853E+00
          2   -1    0    0  502    0  0.00000000000E+00  0.00000000000E+00  0.26905783601E+04  0.26905783601E+04  0.00000000000E+00 0. -1.
          1   -1    0    0  501    0 -0.00000000000E+00 -0.00000000000E+00 -0.15812858101E+04  0.15812858101E+04  0.00000000000E+00 0. -1.
         25    2    1    2    0    0 -0.20573543177E+03 -0.42939320601E+02  0.51098211582E+03  0.56647734210E+03  0.12499201288E+03 0.  0.
          2    1    1    2  501    0  0.28682384621E+02 -0.17502747039E+01 -0.15495307561E+04  0.15497971825E+04  0.00000000000E+00 0. -1.
          1    1    1    2  502    0  0.17705304714E+03  0.44689595304E+02  0.21478411903E+04  0.21555896456E+04  0.00000000000E+00 0. -1.
         22    1    3    3    0    0  0.13553118893E+01 -0.20395594032E+02  0.13591434934E+03  0.13744281531E+03  0.00000000000E+00 0.  1.
         22    1    3    3    0    0 -0.20709074365E+03 -0.22543726569E+02  0.37506776648E+03  0.42903452678E+03  0.00000000000E+00 0.  1.
</event>
<event>
 7    1  0.6520971E-006  0.4061574E+02  0.7818608E-02  0.1560510E+00
          2   -1    0    0  502    0  0.00000000000E+00  0.00000000000E+00  0.10132487671E+04  0.10132487671E+04  0.00000000000E+00 0. -1.
          1   -1    0    0  501    0 -0.00000000000E+00 -0.00000000000E+00 -0.11011477682E+04  0.11011477682E+04  0.00000000000E+00 0. -1.
         25    2    1    2    0    0 -0.55337758178E+02  0.11552309596E+02  0.17831120670E+03  0.22497984986E+03  0.12500129227E+03 0.  0.
          2    1    1    2  501    0  0.16466043567E+02 -0.22587962567E+02 -0.10771290616E+04  0.10774916992E+04  0.00000000000E+00 0. -1.
          1    1    1    2  502    0  0.38871714611E+02  0.11035652971E+02  0.81091885374E+03  0.81192498618E+03  0.00000000000E+00 0. -1.
         22    1    3    3    0    0  0.26402161877E+01 -0.20692939784E+02 -0.11561934461E+02  0.23850509992E+02  0.00000000000E+00 0. -1.
         22    1    3    3    0    0 -0.57977974365E+02  0.32245249380E+02  0.18987314117E+03  0.20112933987E+03  0.00000000000E+00 0. -1.
</event>
<event>
 7    1  0.6520971E-006  0.1427823E+03  0.7818608E-02  0.1303761E+00
          2   -1    0    0  502    0  0.00000000000E+00  0.00000000000E+00  0.18488563084E+04  0.18488563084E+04  0.00000000000E+00 0. -1.
          1   -1    0    0  501    0 -0.00000000000E+00 -0.00000000000E+00 -0.71514757988E+03  0.71514757988E+03  0.00000000000E+00 0. -1.
         25    2    1    2    0    0  0.12190429670E+03 -0.14717957509E+03 -0.52384455191E+02  0.23429281257E+03  0.12500602385E+03 0.  0.
          2    1    1    2  501    0 -0.74714250756E+02  0.11655038528E+03 -0.56297039843E+03  0.57974294397E+03  0.00000000000E+00 0. -1.
          1    1    1    2  502    0 -0.47190045947E+02  0.30629189810E+02  0.17490635822E+04  0.17499681318E+04  0.00000000000E+00 0. -1.
         22    1    3    3    0    0  0.12969089035E+03 -0.77051930144E+02 -0.61970346162E+02  0.16308602264E+03  0.00000000000E+00 0. -1.
         22    1    3    3    0    0 -0.77865936441E+01 -0.70127644946E+02  0.95858909703E+01  0.71206789928E+02  0.00000000000E+00 0. -1.
</event>
<event>
 7    1  0.6520971E-006  0.4087293E+02  0.7818608E-02  0.1527909E+00
          2   -1    0    0  502    0  0.00000000000E+00  0.00000000000E+00  0.22559452201E+04  0.22559452201E+04  0.00000000000E+00 0. -1.
          1   -1    0    0  501    0 -0.00000000000E+00 -0.00000000000E+00 -0.32714714364E+02  0.32714714364E+02  0.00000000000E+00 0. -1.
         25    2    1    2    0    0 -0.28456189436E+02 -0.21545607784E+01  0.12815635139E+03  0.18128147288E+03  0.12499810061E+03 0.  0.
          2    1    1    2  501    0  0.40812142183E+02  0.34155000190E+02  0.11192906772E+03  0.12393672251E+03  0.00000000000E+00 0. -1.
          1    1    1    2  502    0 -0.12355952747E+02 -0.32000439411E+02  0.19831450867E+04  0.19834417391E+04  0.00000000000E+00 0. -1.
         22    1    3    3    0    0  0.48844820696E+02 -0.11697785198E+02  0.53767280634E+02  0.73577001530E+02  0.00000000000E+00 0.  1.
         22    1    3    3    0    0 -0.77301010131E+02  0.95432244199E+01  0.74389070759E+02  0.10770447135E+03  0.00000000000E+00 0.  1.
</event>
<event>
 7    1  0.6520971E-006  0.5781450E+02  0.7818608E-02  0.1497562E+00
          2   -1    0    0  502    0  0.00000000000E+00  0.00000000000E+00  0.30498239669E+04  0.30498239669E+04  0.00000000000E+00 0. -1.
          1   -1    0    0  501    0 -0.00000000000E+00 -0.00000000000E+00 -0.32870240375E+02  0.32870240375E+02  0.00000000000E+00 0. -1.
         25    2    1    2    0    0 -0.41631508766E+02  0.73330180601E+02  0.44824507016E+03  0.47292541301E+03  0.12499722173E+03 0.  0.
          2    1    1    2  501    0  0.22535709964E+02 -0.19447948372E+02 -0.92540078160E+01  0.31172384897E+02  0.00000000000E+00 0. -1.
          1    1    1    2  502    0  0.19095798802E+02 -0.53882232229E+02  0.25779626641E+04  0.25785964093E+04  0.00000000000E+00 0. -1.
         22    1    3    3    0    0 -0.27487515694E+02 -0.11494249600E+02  0.30051676586E+03  0.30199007907E+03  0.00000000000E+00 0. -1.
         22    1    3    3    0    0 -0.14143993071E+02  0.84824430201E+02  0.14772830430E+03  0.17093533394E+03  0.00000000000E+00 0. -1.
</event>
<event>
 7    1  0.6520971E-006  0.9137249E+02  0.7818608E-02  0.1412964E+00
          2   -1    0    0  502    0  0.00000000000E+00  0.00000000000E+00  0.50078531506E+03  0.50078531506E+03  0.00000000000E+00 0. -1.
          1   -1    0    0  501    0 -0.00000000000E+00 -0.00000000000E+00 -0.36622233586E+03  0.36622233586E+03  0.00000000000E+00 0. -1.
         25    2    1    2    0    0 -0.12165606339E+03 -0.13236002659E+02  0.21757895778E+03  0.27917995222E+03  0.12500181329E+03 0.  0.
          2    1    1    2  501    0  0.90589308362E+02 -0.28475795370E+01 -0.32803413004E+03  0.34032473018E+03  0.00000000000E+00 0. -1.
          1    1    1    2  502    0  0.31066755024E+02  0.16083582196E+02  0.24501815146E+03  0.24750296852E+03  0.00000000000E+00 0. -1.
         22    1    3    3    0    0 -0.77579208936E+02 -0.29872752602E+02  0.21665730168E+03  0.23205883172E+03  0.00000000000E+00 0. -1.
         22    1    3    3    0    0 -0.44076854451E+02  0.16636749942E+02  0.92165609756E+00  0.47121120497E+02  0.00000000000E+00 0. -1.
</event>
<event>
 7    1  0.6520971E-006  0.3881777E+02  0.7818608E-02  0.1587938E+00
          2   -1    0    0  502    0  0.00000000000E+00  0.00000000000E+00  0.39084599166E+02  0.39084599166E+02  0.00000000000E+00 0. -1.
          1   -1    0    0  501    0 -0.00000000000E+00 -0.00000000000E+00 -0.72994385781E+03  0.72994385781E+03  0.00000000000E+00 0. -1.
         25    2    1    2    0    0 -0.64235592789E+01 -0.50316511773E+02 -0.66482005409E+03  0.67837223130E+03  0.12502066391E+03 0.  0.
          2    1    1    2  501    0  0.15822720291E+02  0.27519121812E+02 -0.48059255799E+02  0.57596463526E+02  0.00000000000E+00 0. -1.
          1    1    1    2  502    0 -0.93991610122E+01  0.22797389960E+02  0.22020051245E+02  0.33059762152E+02  0.00000000000E+00 0. -1.
         22    1    3    3    0    0 -0.47166999008E+02 -0.32610992423E+02 -0.57808734102E+03  0.58092441546E+03  0.00000000000E+00 0. -1.
         22    1    3    3    0    0  0.40743439729E+02 -0.17705519349E+02 -0.86732713067E+02  0.97447815842E+02  0.00000000000E+00 0. -1.
</event>
<event>
 7    1  0.6520971E-006  0.4917192E+02  0.7818608E-02  0.1480008E+00
          2   -1    0    0  502    0  0.00000000000E+00  0.00000000000E+00  0.10535310627E+04  0.10535310627E+04  0.00000000000E+00 0. -1.
          1   -1    0    0  501    0 -0.00000000000E+00 -0.00000000000E+00 -0.16355197498E+04  0.16355197498E+04  0.00000000000E+00 0. -1.
         25    2    1    2    0    0 -0.27587639097E+02 -0.84229000612E+02  0.17296372535E+03  0.23107593131E+03  0.12499613342E+03 0.  0.
          2    1    1    2  501    0  0.16310408420E+02  0.46310356656E+02 -0.16056287068E+04  0.16063792276E+04  0.00000000000E+00 0. -1.
          1    1    1    2  502    0  0.11277230677E+02  0.37918643956E+02  0.85067629435E+03  0.85159565361E+03  0.00000000000E+00 0. -1.
         22    1    3    3    0    0  0.10977393632E+02 -0.87409718049E+02  0.17096564629E+03  0.19232840193E+03  0.00000000000E+00 0. -1.
         22    1    3    3    0    0 -0.38565032729E+02  0.31807174376E+01  0.19980790591E+01  0.38747529376E+02  0.00000000000E+00 0. -1.
</event>
<event>
 7    1  0.6520971E-006  0.1243477E+03  0.7818608E-02  0.1327443E+00
          2   -1    0    0  502    0  0.00000000000E+00  0.00000000000E+00  0.14810838278E+04  0.14810838278E+04  0.00000000000E+00 0. -1.
          1   -1    0    0  501    0 -0.00000000000E+00 -0.00000000000E+00 -0.54529314765E+03  0.54529314765E+03  0.00000000000E+00 0. -1.
         25    2    1    2    0    0 -0.83285624967E+02  0.13414060414E+03 -0.91654665337E+02  0.22125864155E+03  0.12499844709E+03 0.  0.
          2    1    1    2  501    0  0.34687087569E+02 -0.11507599577E+03 -0.37905291254E+03  0.39765159292E+03  0.00000000000E+00 0. -1.
          1    1    1    2  502    0  0.48598537398E+02 -0.19064608378E+02  0.14064982580E+04  0.14074667410E+04  0.00000000000E+00 0. -1.
         22    1    3    3    0    0 -0.88481305440E+02  0.55538038610E+02 -0.56348261391E+01  0.10461914935E+03  0.00000000000E+00 0.  1.
         22    1    3    3    0    0  0.51956804730E+01  0.78602565534E+02 -0.86019839198E+02  0.11663949220E+03  0.00000000000E+00 0.  1.
</event>
<event>
 7    1  0.6520971E-006  0.7358423E+02  0.7818608E-02  0.1400321E+00
          2   -1    0    0  502    0  0.00000000000E+00  0.00000000000E+00  0.29477840109E+04  0.29477840109E+04  0.00000000000E+00 0. -1.
          1   -1    0    0  501    0 -0.00000000000E+00 -0.00000000000E+00 -0.16727517068E+02  0.16727517068E+02  0.00000000000E+00 0. -1.
         25    2    1    2    0    0  0.73470981586E+02 -0.19272922300E+02  0.62594381860E+03  0.64281092532E+03  0.12502316182E+03 0.  0.
          2    1    1    2  501    0 -0.46554023518E+01  0.47740841989E+02  0.67276311727E+02  0.82625437272E+02  0.00000000000E+00 0. -1.
          1    1    1    2  502    0 -0.68815579234E+02 -0.28467919689E+02  0.22378363635E+04  0.22390751654E+04  0.00000000000E+00 0. -1.
         22    1    3    3    0    0  0.29654343830E+02  0.34071764510E+02  0.47128639558E+03  0.47344601794E+03  0.00000000000E+00 0. -1.
         22    1    3    3    0    0  0.43816637756E+02 -0.53344686810E+02  0.15465742303E+03  0.16936490738E+03  0.00000000000E+00 0. -1.
</event>
<event>
 7    1  0.6520971E-006  0.8699084E+02  0.7818608E-02  0.1342640E+00
          2   -1    0    0  502    0  0.00000000000E+00  0.00000000000E+00  0.43109692303E+03  0.43109692303E+03  0.00000000000E+00 0. -1.
          1   -1    0    0  501    0 -0.00000000000E+00 -0.00000000000E+00 -0.14078148703E+04  0.14078148703E+04  0.00000000000E+00 0. -1.
         25    2    1    2    0    0  0.13307766489E+03 -0.61751425607E+02  0.83265328386E+02  0.20995403456E+03  0.12499871303E+03 0.  0.
          2    1    1    2  501    0 -0.60498149027E+02  0.24714856285E+02 -0.13378218759E+04  0.13394171202E+04  0.00000000000E+00 0. -1.
          1    1    1    2  502    0 -0.72579515862E+02  0.37036569322E+02  0.27783860027E+03  0.28954063858E+03  0.00000000000E+00 0. -1.
         22    1    3    3    0    0 -0.11754818570E+02 -0.15466340637E+02  0.50924591293E+02  0.54504104898E+02  0.00000000000E+00 0. -1.
         22    1    3    3    0    0  0.14483248346E+03 -0.46285084970E+02  0.32340737093E+02  0.15544992966E+03  0.00000000000E+00 0. -1.
</event>
<event>
 7    1  0.6520971E-006  0.3083492E+03  0.7818608E-02  0.1295823E+00
          2   -1    0    0  502    0  0.00000000000E+00  0.00000000000E+00  0.28251711438E+03  0.28251711438E+03  0.00000000000E+00 0. -1.
          1   -1    0    0  501    0 -0.00000000000E+00 -0.00000000000E+00 -0.10638562813E+04  0.10638562813E+04  0.00000000000E+00 0. -1.
         25    2    1    2    0    0 -0.23003902604E+02 -0.31014125776E+03  0.51780559055E+02  0.33915060652E+03  0.12500051322E+03 0.  0.
          2    1    1    2  501    0 -0.49513022090E+01  0.30810660832E+03 -0.89107172739E+03  0.94284835517E+03  0.00000000000E+00 0. -1.
          1    1    1    2  502    0  0.27955204813E+02  0.20346494426E+01  0.57952001456E+02  0.64374433956E+02  0.00000000000E+00 0. -1.
         22    1    3    3    0    0  0.34697490426E+02 -0.24636764615E+03  0.31465692463E+02  0.25078082605E+03  0.00000000000E+00 0.  1.
         22    1    3    3    0    0 -0.57701393030E+02 -0.63773611610E+02  0.20314866592E+02  0.88369780469E+02  0.00000000000E+00 0.  1.
</event>
<event>
 7    1  0.6520971E-006  0.2091069E+03  0.7818608E-02  0.1251929E+00
          2   -1    0    0  502    0  0.00000000000E+00  0.00000000000E+00  0.17127815221E+04  0.17127815221E+04  0.00000000000E+00 0. -1.
          1   -1    0    0  501    0 -0.00000000000E+00 -0.00000000000E+00 -0.18380441525E+04  0.18380441525E+04  0.00000000000E+00 0. -1.
         25    2    1    2    0    0  0.12839913366E+01 -0.26823640730E+03  0.92552249444E+01  0.29607985595E+03  0.12500081229E+03 0.  0.
          2    1    1    2  501    0  0.99577961129E+01  0.62234510281E+02 -0.16872203629E+04  0.16883971230E+04  0.00000000000E+00 0. -1.
          1    1    1    2  502    0 -0.11241787450E+02  0.20600189702E+03  0.15527025076E+04  0.15663486956E+04  0.00000000000E+00 0. -1.
         22    1    3    3    0    0  0.28682486094E+02 -0.24119064024E+03 -0.25485650393E+02  0.24422352123E+03  0.00000000000E+00 0. -1.
         22    1    3    3    0    0 -0.27398494757E+02 -0.27045767064E+02  0.34740875338E+02  0.51856334717E+02  0.00000000000E+00 0. -1.
</event>
<event>
 7    1  0.6520971E-006  0.7766464E+02  0.7818608E-02  0.1345354E+00
          2   -1    0    0  502    0  0.00000000000E+00  0.00000000000E+00  0.41339044706E+03  0.41339044706E+03  0.00000000000E+00 0. -1.
          1   -1    0    0  501    0 -0.00000000000E+00 -0.00000000000E+00 -0.80050241918E+03  0.80050241918E+03  0.00000000000E+00 0. -1.
         25    2    1    2    0    0  0.61829633877E+02 -0.91146678800E+02 -0.15066996692E+03  0.22463298326E+03  0.12501166967E+03 0.  0.
          2    1    1    2  501    0 -0.70109684839E+02  0.14076086797E+02 -0.60673823001E+03  0.61093762684E+03  0.00000000000E+00 0. -1.
          1    1    1    2  502    0  0.82800509624E+01  0.77070592003E+02  0.37029622480E+03  0.37832225615E+03  0.00000000000E+00 0. -1.
         22    1    3    3    0    0 -0.34020029619E+02 -0.28968547658E+02 -0.14708341619E+02  0.47041199835E+02  0.00000000000E+00 0. -1.
         22    1    3    3    0    0  0.95849663496E+02 -0.62178131142E+02 -0.13596162530E+03  0.17759178342E+03  0.00000000000E+00 0. -1.
</event>
<event>
 7    1  0.6520971E-006  0.6419399E+02  0.7818608E-02  0.1388988E+00
          2   -1    0    0  502    0  0.00000000000E+00  0.00000000000E+00  0.20980170535E+04  0.20980170535E+04  0.00000000000E+00 0. -1.
          1   -1    0    0  501    0 -0.00000000000E+00 -0.00000000000E+00 -0.11451206292E+03  0.11451206292E+03  0.00000000000E+00 0. -1.
         25    2    1    2    0    0  0.95902118865E+01 -0.19716154471E+02  0.51045405682E+02  0.13678940257E+03  0.12500003321E+03 0.  0.
          2    1    1    2  501    0 -0.69314788564E+02 -0.38177131989E+01 -0.54181932141E+02  0.88061323056E+02  0.00000000000E+00 0. -1.
          1    1    1    2  502    0  0.59724576678E+02  0.23533867670E+02  0.19866415171E+04  0.19876783908E+04  0.00000000000E+00 0. -1.
         22    1    3    3    0    0  0.49208218834E+02 -0.71764650469E+01  0.74120867686E+02  0.89257232076E+02  0.00000000000E+00 0. -1.
         22    1    3    3    0    0 -0.39618006948E+02 -0.12539689424E+02 -0.23075462003E+02  0.47532170496E+02  0.00000000000E+00 0. -1.
</event>
<event>
 7    1  0.6520971E-006  0.1394096E+03  0.7818608E-02  0.1237083E+00
          2   -1    0    0  502    0  0.00000000000E+00  0.00000000000E+00  0.10604932401E+04  0.10604932401E+04  0.00000000000E+00 0. -1.
          1   -1    0    0  501    0 -0.00000000000E+00 -0.00000000000E+00 -0.17738496464E+04  0.17738496464E+04  0.00000000000E+00 0. -1.
         25    2    1    2    0    0  0.63680639630E+02 -0.63377233527E+02 -0.13606965433E+02  0.15453731285E+03  0.12499893585E+03 0.  0.
          2    1    1    2  501    0  0.12610028712E+02  0.14233952787E+03 -0.16836974779E+04  0.16897504997E+04  0.00000000000E+00 0. -1.
          1    1    1    2  502    0 -0.76290668342E+02 -0.78962294339E+02  0.98394803704E+03  0.99005507403E+03  0.00000000000E+00 0. -1.
         22    1    3    3    0    0 -0.15602927327E+02 -0.66528974112E+02 -0.28086066927E+02  0.73880869601E+02  0.00000000000E+00 0. -1.
         22    1    3    3    0    0  0.79283566957E+02  0.31517405855E+01  0.14479101495E+02  0.80656443253E+02  0.00000000000E+00 0. -1.
</event>
<event>
 7    1  0.6520971E-006  0.1022127E+03  0.7818608E-02  0.1447602E+00
          2   -1    0    0  502    0  0.00000000000E+00  0.00000000000E+00  0.10893903997E+04  0.10893903997E+04  0.00000000000E+00 0. -1.
          1   -1    0    0  501    0 -0.00000000000E+00 -0.00000000000E+00 -0.87665472517E+02  0.87665472517E+02  0.00000000000E+00 0. -1.
         25    2    1    2    0    0 -0.81436649331E+02  0.49331939048E+02  0.55963970337E+02  0.16680045856E+03  0.12499943574E+03 0.  0.
          2    1    1    2  501    0  0.10228389270E+03 -0.37334760390E+02  0.60297884492E+02  0.12446571381E+03  0.00000000000E+00 0. -1.
          1    1    1    2  502    0 -0.20847243374E+02 -0.11997178658E+02  0.88546307231E+03  0.88578969980E+03  0.00000000000E+00 0. -1.
         22    1    3    3    0    0 -0.69953455762E+01  0.68689261031E+02  0.57524386337E+02  0.89867705345E+02  0.00000000000E+00 0. -1.
         22    1    3    3    0    0 -0.74441303755E+02 -0.19357321982E+02 -0.15604159993E+01  0.76932753214E+02  0.00000000000E+00 0. -1.
</event>
<event>
 7    1  0.6520971E-006  0.2911281E+02  0.7818608E-02  0.1668404E+00
          2   -1    0    0  502    0  0.00000000000E+00  0.00000000000E+00  0.25608901353E+03  0.25608901353E+03  0.00000000000E+00 0. -1.
          1   -1    0    0  501    0 -0.00000000000E+00 -0.00000000000E+00 -0.36859050403E+03  0.36859050403E+03  0.00000000000E+00 0. -1.
         25    2    1    2    0    0  0.15069292266E+02 -0.14324834171E+02 -0.17428800276E+03  0.21548765168E+03  0.12500534260E+03 0.  0.
          2    1    1    2  501    0 -0.29980677080E+02  0.10446360067E+00 -0.17195240159E+03  0.17454649903E+03  0.00000000000E+00 0. -1.
          1    1    1    2  502    0  0.14911384815E+02  0.14220370570E+02  0.23373891384E+03  0.23464536684E+03  0.00000000000E+00 0. -1.
         22    1    3    3    0    0 -0.45427365193E+02  0.12691680805E+01 -0.13313427681E+03  0.14067690627E+03  0.00000000000E+00 0.  1.
         22    1    3    3    0    0  0.60496657458E+02 -0.15594002252E+02 -0.41153725953E+02  0.74810745416E+02  0.00000000000E+00 0.  1.
</event>
<event>
 7    1  0.6520971E-006  0.1210460E+03  0.7818608E-02  0.1299907E+00
          2   -1    0    0  502    0  0.00000000000E+00  0.00000000000E+00  0.14976778320E+04  0.14976778320E+04  0.00000000000E+00 0. -1.
          1   -1    0    0  501    0 -0.00000000000E+00 -0.00000000000E+00 -0.26579234659E+03  0.26579234659E+03  0.00000000000E+00 0. -1.
         25    2    1    2    0    0 -0.45247362429E+02  0.88426923847E+02  0.68671781882E+03  0.70503030459E+03  0.12497889036E+03 0.  0.
          2    1    1    2  501    0  0.44603869487E+02  0.52321688089E+02 -0.24570356684E+03  0.25514173899E+03  0.00000000000E+00 0. -1.
          1    1    1    2  502    0  0.64349294187E+00 -0.14074861194E+03  0.79087123343E+03  0.80329813501E+03  0.00000000000E+00 0. -1.
         22    1    3    3    0    0 -0.15605519358E+02  0.78583943000E+02  0.65716741846E+03  0.66203321987E+03  0.00000000000E+00 0. -1.
         22    1    3    3    0    0 -0.29641843071E+02  0.98429808473E+01  0.29550400364E+02  0.42997084719E+02  0.00000000000E+00 0. -1.
</event>
<event>
 7    1  0.6520971E-006  0.1128151E+03  0.7818608E-02  0.1276760E+00
          2   -1    0    0  502    0  0.00000000000E+00  0.00000000000E+00  0.11457305953E+04  0.11457305953E+04  0.00000000000E+00 0. -1.
          1   -1    0    0  501    0 -0.00000000000E+00 -0.00000000000E+00 -0.29303326855E+04  0.29303326855E+04  0.00000000000E+00 0. -1.
         25    2    1    2    0    0  0.14507559056E+03 -0.72742596736E+02 -0.18203346902E+03  0.27404455249E+03  0.12500328215E+03 0.  0.
          2    1    1    2  501    0 -0.11149947849E+03 -0.12568472757E+02 -0.26992152810E+04  0.27015464522E+04  0.00000000000E+00 0. -1.
          1    1    1    2  502    0 -0.33576112069E+02  0.85311069493E+02  0.10966466598E+04  0.11004722761E+04  0.00000000000E+00 0. -1.
         22    1    3    3    0    0  0.11374703595E+03 -0.10832829732E+03 -0.13277065887E+03  0.20567317775E+03  0.00000000000E+00 0.  1.
         22    1    3    3    0    0  0.31328554611E+02  0.35585700585E+02 -0.49262810151E+02  0.68371374742E+02  0.00000000000E+00 0.  1.
</event>
<event>
 7    1  0.6520971E-006  0.1540998E+03  0.7818608E-02  0.1283187E+00
          2   -1    0    0  502    0  0.00000000000E+00  0.00000000000E+00  0.47738533011E+03  0.47738533011E+03  0.00000000000E+00 0. -1.
          1   -1    0    0  501    0 -0.00000000000E+00 -0.00000000000E+00 -0.39622154605E+03  0.39622154605E+03  0.00000000000E+00 0. -1.
         25    2    1    2    0    0 -0.18865017291E+02 -0.12214433927E+03 -0.12130839860E+03  0.21357430494E+03  0.12499251044E+03 0.  0.
          2    1    1    2  501    0  0.62981225416E+02  0.16731141030E+03 -0.19095063373E+03  0.26157577735E+03  0.00000000000E+00 0. -1.
          1    1    1    2  502    0 -0.44116208124E+02 -0.45167071023E+02  0.39342281640E+03  0.39845679388E+03  0.00000000000E+00 0. -1.
         22    1    3    3    0    0  0.27441695347E+02 -0.12506140905E+03 -0.76937497991E+02  0.14937463397E+03  0.00000000000E+00 0. -1.
         22    1    3    3    0    0 -0.46306712638E+02  0.29170697776E+01 -0.44370900610E+02  0.64199670968E+02  0.00000000000E+00 0. -1.
</event>
<event>
 7    1  0.7302117E-006  0.1030340E+03  0.7818608E-02  0.1277793E+00
          2   -1    0    0  502    0  0.00000000000E+00  0.00000000000E+00  0.13493305184E+04  0.13493305184E+04  0.00000000000E+00 0. -1.
          1   -1    0    0  501    0 -0.00000000000E+00 -0.00000000000E+00 -0.29028020206E+04  0.29028020206E+04  0.00000000000E+00 0. -1.
         25    2    1    2    0    0  0.58791520606E+02  0.19397192044E+02 -0.26380123405E+03  0.29840940419E+03  0.12499754987E+03 0.  0.
          2    1    1    2  501    0 -0.12254484517E+02 -0.10722823973E+03 -0.26187293130E+04  0.26209523618E+04  0.00000000000E+00 0. -1.
          1    1    1    2  502    0 -0.46537036089E+02  0.87831047681E+02  0.13290590449E+04  0.13327707730E+04  0.00000000000E+00 0. -1.
         22    1    3    3    0    0 -0.17199767842E+01 -0.20741120320E+02 -0.20196385768E+03  0.20303337706E+03  0.00000000000E+00 0.  1.
         22    1    3    3    0    0  0.60511497390E+02  0.40138312364E+02 -0.61837376368E+02  0.95376027134E+02  0.00000000000E+00 0.  1.
</event>
<event>
 7    1  0.6520971E-006  0.2214055E+03  0.7818608E-02  0.1156471E+00
          2   -1    0    0  502    0  0.00000000000E+00  0.00000000000E+00  0.12418172138E+03  0.12418172138E+03  0.00000000000E+00 0. -1.
          1   -1    0    0  501    0 -0.00000000000E+00 -0.00000000000E+00 -0.20684539138E+04  0.20684539138E+04  0.00000000000E+00 0. -1.
         25    2    1    2    0    0  0.70624169714E+02  0.11691688910E+03 -0.48543927093E+03  0.51955135083E+03  0.12499995236E+03 0.  0.
          2    1    1    2  501    0 -0.20656261852E+03 -0.21372836922E+03 -0.14757084024E+04  0.15053448841E+04  0.00000000000E+00 0. -1.
          1    1    1    2  502    0  0.13593844881E+03  0.96811480124E+02  0.16875480873E+02  0.16773940027E+03  0.00000000000E+00 0. -1.
         22    1    3    3    0    0  0.10029005024E+03  0.11289471669E+03 -0.43949576645E+03  0.46471479421E+03  0.00000000000E+00 0.  1.
         22    1    3    3    0    0 -0.29665880527E+02  0.40221724082E+01 -0.45943504482E+02  0.54836556624E+02  0.00000000000E+00 0.  1.
</event>
<event>
 7    1  0.6520971E-006  0.6485073E+02  0.7818608E-02  0.1394430E+00
          2   -1    0    0  502    0  0.00000000000E+00  0.00000000000E+00  0.70238842585E+02  0.70238842585E+02  0.00000000000E+00 0. -1.
          1   -1    0    0  501    0 -0.00000000000E+00 -0.00000000000E+00 -0.12438536077E+04  0.12438536077E+04  0.00000000000E+00 0. -1.
         25    2    1    2    0    0 -0.15939475674E+02 -0.11720051820E+03 -0.90073820882E+02  0.19423699928E+03  0.12499876131E+03 0.  0.
          2    1    1    2  501    0  0.20909741960E+02  0.60381191513E+02 -0.10534161613E+04  0.10553524125E+04  0.00000000000E+00 0. -1.
          1    1    1    2  502    0 -0.49702662855E+01  0.56819326686E+02 -0.30124782887E+02  0.64503038502E+02  0.00000000000E+00 0. -1.
         22    1    3    3    0    0  0.33327396211E+02 -0.92375988922E+01 -0.63980746591E+02  0.72729529807E+02  0.00000000000E+00 0. -1.
         22    1    3    3    0    0 -0.49266871886E+02 -0.10796291931E+03 -0.26093074290E+02  0.12150746947E+03  0.00000000000E+00 0. -1.
</event>
<event>
 7    1  0.6520971E-006  0.1332951E+03  0.7818608E-02  0.1329570E+00
          2   -1    0    0  502    0  0.00000000000E+00  0.00000000000E+00  0.30295102290E+04  0.30295102290E+04  0.00000000000E+00 0. -1.
          1   -1    0    0  501    0 -0.00000000000E+00 -0.00000000000E+00 -0.97330327212E+02  0.97330327212E+02  0.00000000000E+00 0. -1.
         25    2    1    2    0    0  0.19231991734E+02 -0.11250277751E+03  0.62471246588E+02  0.18042457202E+03  0.12499450022E+03 0.  0.
          2    1    1    2  501    0  0.47660616702E+02 -0.35843637950E+01 -0.21284212436E+02  0.52320165780E+02  0.00000000000E+00 0. -1.
          1    1    1    2  502    0 -0.66892608436E+02  0.11608714130E+03  0.28909928676E+04  0.28940958184E+04  0.00000000000E+00 0. -1.
         22    1    3    3    0    0  0.79784708483E+01  0.25900184643E+02 -0.23054842575E+01  0.27199095928E+02  0.00000000000E+00 0. -1.
         22    1    3    3    0    0  0.11253520886E+02 -0.13840296215E+03  0.64776730846E+02  0.15322547609E+03  0.00000000000E+00 0. -1.
</event>
<event>
 7    1  0.6520971E-006  0.6134585E+02  0.7818608E-02  0.1476667E+00
          2   -1    0    0  502    0  0.00000000000E+00  0.00000000000E+00  0.95628609101E+03  0.95628609101E+03  0.00000000000E+00 0. -1.
          1   -1    0    0  501    0 -0.00000000000E+00 -0.00000000000E+00 -0.94693895376E+03  0.94693895376E+03  0.00000000000E+00 0. -1.
         25    2    1    2    0    0  0.30402115074E+02  0.90336615317E+01  0.26229682848E+02  0.13160240380E+03  0.12500120313E+03 0.  0.
          2    1    1    2  501    0  0.22293000927E+02  0.23605584337E+02 -0.89286237153E+03  0.89345252587E+03  0.00000000000E+00 0. -1.
          1    1    1    2  502    0 -0.52695116001E+02 -0.32639245869E+02  0.87597982593E+03  0.87817011510E+03  0.00000000000E+00 0. -1.
         22    1    3    3    0    0  0.52645592109E+02  0.51648723719E+02 -0.55774574348E+01  0.73961186184E+02  0.00000000000E+00 0.  1.
         22    1    3    3    0    0 -0.22243477035E+02 -0.42615062188E+02  0.31807140282E+02  0.57641217621E+02  0.00000000000E+00 0.  1.
</event>
<event>
 7    1  0.6520971E-006  0.1103102E+03  0.7818608E-02  0.1302508E+00
          2   -1    0    0  502    0  0.00000000000E+00  0.00000000000E+00  0.17709170512E+04  0.17709170512E+04  0.00000000000E+00 0. -1.
          1   -1    0    0  501    0 -0.00000000000E+00 -0.00000000000E+00 -0.31861120859E+03  0.31861120859E+03  0.00000000000E+00 0. -1.
         25    2    1    2    0    0 -0.49197581920E+02 -0.16431238177E+01  0.25746548095E+03  0.29040774858E+03  0.12500033853E+03 0.  0.
          2    1    1    2  501    0 -0.66329433458E+02  0.32037459315E+02 -0.29522422985E+03  0.30427510321E+03  0.00000000000E+00 0. -1.
          1    1    1    2  502    0  0.11552701538E+03 -0.30394335498E+02  0.14900645915E+04  0.14948454080E+04  0.00000000000E+00 0. -1.
         22    1    3    3    0    0 -0.40128999221E+02 -0.41179116052E+02  0.23903686524E+03  0.24585499613E+03  0.00000000000E+00 0. -1.
         22    1    3    3    0    0 -0.90685826995E+01  0.39535992234E+02  0.18428615711E+02  0.44552752453E+02  0.00000000000E+00 0. -1.
</event>
<event>
 7    1  0.6520971E-006  0.5877626E+02  0.7818608E-02  0.1419244E+00
          2   -1    0    0  502    0  0.00000000000E+00  0.00000000000E+00  0.37622517026E+04  0.37622517026E+04  0.00000000000E+00 0. -1.
          1   -1    0    0  501    0 -0.00000000000E+00 -0.00000000000E+00 -0.23258121449E+03  0.23258121449E+03  0.00000000000E+00 0. -1.
         25    2    1    2    0    0 -0.48166313102E+01  0.80812672372E+02 -0.27219185832E+02  0.15139482555E+03  0.12500248466E+03 0.  0.
          2    1    1    2  501    0 -0.34422169795E+02 -0.46987002644E+02 -0.13716519056E+03  0.14901997749E+03  0.00000000000E+00 0. -1.
          1    1    1    2  502    0  0.39238801105E+02 -0.33825669728E+02  0.36940548645E+04  0.36944181140E+04  0.00000000000E+00 0. -1.
         22    1    3    3    0    0  0.53825383533E+02  0.10309082198E+02 -0.23459368301E+02  0.59613681730E+02  0.00000000000E+00 0.  1.
         22    1    3    3    0    0 -0.58642014844E+02  0.70503590174E+02 -0.37598175310E+01  0.91781143816E+02  0.00000000000E+00 0.  1.
</event>
<event>
 7    1  0.6520971E-006  0.4370646E+02  0.7818608E-02  0.1577810E+00
          2   -1    0    0  502    0  0.00000000000E+00  0.00000000000E+00  0.58010870998E+03  0.58010870998E+03  0.00000000000E+00 0. -1.
          1   -1    0    0  501    0 -0.00000000000E+00 -0.00000000000E+00 -0.72521816028E+03  0.72521816028E+03  0.00000000000E+00 0. -1.
         25    2    1    2    0    0  0.13353297751E+02  0.64478696834E+02 -0.45367232508E+03  0.47516301704E+03  0.12500200523E+03 0.  0.
          2    1    1    2  501    0 -0.10279484608E+02 -0.20919450424E+02 -0.25943997371E+03  0.26048491543E+03  0.00000000000E+00 0. -1.
          1    1    1    2  502    0 -0.30738131431E+01 -0.43559246410E+02  0.56800284849E+03  0.56967893779E+03  0.00000000000E+00 0. -1.
         22    1    3    3    0    0 -0.26773167569E+02  0.30024493800E+02 -0.39140031034E+03  0.39346216548E+03  0.00000000000E+00 0. -1.
         22    1    3    3    0    0  0.40126465320E+02  0.34454203034E+02 -0.62272014736E+02  0.81700851556E+02  0.00000000000E+00 0. -1.
</event>
<event>
 7    1  0.6520971E-006  0.6392622E+02  0.7818608E-02  0.1433228E+00
          2   -1    0    0  502    0  0.00000000000E+00  0.00000000000E+00  0.89323418013E+03  0.89323418013E+03  0.00000000000E+00 0. -1.
          1   -1    0    0  501    0 -0.00000000000E+00 -0.00000000000E+00 -0.52120108358E+03  0.52120108358E+03  0.00000000000E+00 0. -1.
         25    2    1    2    0    0  0.13404308728E+02 -0.10244831746E+03  0.24976019478E+02  0.16408438542E+03  0.12499820297E+03 0.  0.
          2    1    1    2  501    0  0.63049378623E+01  0.42350020296E+02 -0.44937559591E+03  0.45141079147E+03  0.00000000000E+00 0. -1.
          1    1    1    2  502    0 -0.19709246590E+02  0.60098297168E+02  0.79643267298E+03  0.79894008681E+03  0.00000000000E+00 0. -1.
         22    1    3    3    0    0 -0.22984563338E+02 -0.94952151469E+02 -0.25916291426E+02  0.10107351474E+03  0.00000000000E+00 0.  1.
         22    1    3    3    0    0  0.36388872066E+02 -0.74961659954E+01  0.50892310905E+02  0.63010870682E+02  0.00000000000E+00 0.  1.
</event>
<event>
 7    1  0.6520971E-006  0.4908991E+02  0.7818608E-02  0.1551806E+00
          2   -1    0    0  502    0  0.00000000000E+00  0.00000000000E+00  0.26470697283E+02  0.26470697283E+02  0.00000000000E+00 0. -1.
          1   -1    0    0  501    0 -0.00000000000E+00 -0.00000000000E+00 -0.43023510625E+03  0.43023510625E+03  0.00000000000E+00 0. -1.
         25    2    1    2    0    0 -0.18176516649E+02  0.25245528862E+02 -0.24079196555E+03  0.27308050515E+03  0.12499787652E+03 0.  0.
          2    1    1    2  501    0 -0.11173480445E+02  0.21742815132E+02 -0.81602688644E+02  0.85185652954E+02  0.00000000000E+00 0. -1.
          1    1    1    2  502    0  0.29349997094E+02 -0.46988343994E+02 -0.81369754770E+02  0.98439645429E+02  0.00000000000E+00 0. -1.
         22    1    3    3    0    0 -0.39086951887E+02  0.48407572455E+02 -0.50182021165E+02  0.79933210414E+02  0.00000000000E+00 0. -1.
         22    1    3    3    0    0  0.20910435238E+02 -0.23162043593E+02 -0.19060994439E+03  0.19314729474E+03  0.00000000000E+00 0. -1.
</event>
<event>
 7    1  0.6520971E-006  0.9244759E+02  0.7818608E-02  0.1385475E+00
          2   -1    0    0  502    0  0.00000000000E+00  0.00000000000E+00  0.57488759983E+03  0.57488759983E+03  0.00000000000E+00 0. -1.
          1   -1    0    0  501    0 -0.00000000000E+00 -0.00000000000E+00 -0.20192073387E+03  0.20192073387E+03  0.00000000000E+00 0. -1.
         25    2    1    2    0    0 -0.66055597638E+02 -0.11441915754E+03 -0.46205034160E+02  0.18765585336E+03  0.12499891411E+03 0.  0.
          2    1    1    2  501    0  0.11657378221E+02  0.41384973887E+02 -0.75113238704E+02  0.86548305351E+02  0.00000000000E+00 0. -1.
          1    1    1    2  502    0  0.54398219417E+02  0.73034183655E+02  0.49428513882E+03  0.50260417499E+03  0.00000000000E+00 0. -1.
         22    1    3    3    0    0 -0.10282429758E+03 -0.75337227300E+02 -0.40215982355E+02  0.13366323064E+03  0.00000000000E+00 0. -1.
         22    1    3    3    0    0  0.36768699939E+02 -0.39081930242E+02 -0.59890518048E+01  0.53992622719E+02  0.00000000000E+00 0. -1.
</event>
<event>
 7    1  0.6520971E-006  0.3072763E+02  0.7818608E-02  0.1632703E+00
          2   -1    0    0  502    0  0.00000000000E+00  0.00000000000E+00  0.25722846263E+03  0.25722846263E+03  0.00000000000E+00 0. -1.
          1   -1    0    0  501    0 -0.00000000000E+00 -0.00000000000E+00 -0.35411741579E+03  0.35411741579E+03  0.00000000000E+00 0. -1.
         25    2    1    2    0    0  0.25879874380E+02 -0.32630395706E+02 -0.56014457223E+02  0.14315836987E+03  0.12498875479E+03 0.  0.
          2    1    1    2  501    0 -0.20887240021E+01  0.30576143155E+02 -0.25293588479E+03  0.25478584166E+03  0.00000000000E+00 0. -1.
          1    1    1    2  502    0 -0.23791150378E+02  0.20542525513E+01  0.21206138885E+03  0.21340166689E+03  0.00000000000E+00 0. -1.
         22    1    3    3    0    0  0.62340200859E+02  0.20110703708E+02 -0.15496203691E+02  0.67311762535E+02  0.00000000000E+00 0. -1.
         22    1    3    3    0    0 -0.36460326479E+02 -0.52741099414E+02 -0.40518253532E+02  0.75846607331E+02  0.00000000000E+00 0. -1.
</event>
<event>
 7    1  0.6520971E-006  0.7742185E+02  0.7818608E-02  0.1408151E+00
          2   -1    0    0  502    0  0.00000000000E+00  0.00000000000E+00  0.96664632682E+03  0.96664632682E+03  0.00000000000E+00 0. -1.
          1   -1    0    0  501    0 -0.00000000000E+00 -0.00000000000E+00 -0.63353620527E+02  0.63353620527E+02  0.00000000000E+00 0. -1.
         25    2    1    2    0    0  0.72769225673E+02 -0.36717140619E+02  0.29529873347E+03  0.33085826768E+03  0.12498937028E+03 0.  0.
          2    1    1    2  501    0 -0.77907774842E+02 -0.58392497901E+01 -0.10796062403E+02  0.78868708512E+02  0.00000000000E+00 0. -1.
          1    1    1    2  502    0  0.51385491686E+01  0.42556390409E+02  0.61879003522E+03  0.62027297115E+03  0.00000000000E+00 0. -1.
         22    1    3    3    0    0  0.68905332050E+02 -0.65564382299E+02  0.11981835503E+03  0.15298062365E+03  0.00000000000E+00 0.  1.
         22    1    3    3    0    0  0.38638936232E+01  0.28847241680E+02  0.17548037845E+03  0.17787764403E+03  0.00000000000E+00 0.  1.
</event>
<event>
 7    1  0.6520971E-006  0.8382544E+02  0.7818608E-02  0.1447152E+00
          2   -1    0    0  502    0  0.00000000000E+00  0.00000000000E+00  0.10635970631E+04  0.10635970631E+04  0.00000000000E+00 0. -1.
          1   -1    0    0  501    0 -0.00000000000E+00 -0.00000000000E+00 -0.14132780277E+04  0.14132780277E+04  0.00000000000E+00 0. -1.
         25    2    1    2    0    0 -0.89789351624E+02  0.66802702790E+02  0.23986376278E+03  0.29271783713E+03  0.12499751485E+03 0.  0.
          2    1    1    2  501    0  0.62597551772E+02 -0.55554136789E+02 -0.13853160950E+04  0.13878419934E+04  0.00000000000E+00 0. -1.
          1    1    1    2  502    0  0.27191799852E+02 -0.11248566000E+02  0.79577136763E+03  0.79631526028E+03  0.00000000000E+00 0. -1.
         22    1    3    3    0    0 -0.13931293355E+02 -0.36156852080E+02  0.71088348154E+02  0.80962658863E+02  0.00000000000E+00 0. -1.
         22    1    3    3    0    0 -0.75858058269E+02  0.10295955487E+03  0.16877541462E+03  0.21175517827E+03  0.00000000000E+00 0. -1.
</event>
<event>
 7    1  0.6520971E-006  0.2269415E+03  0.7818608E-02  0.1282150E+00
          2   -1    0    0  502    0  0.00000000000E+00  0.00000000000E+00  0.21928600885E+04  0.21928600885E+04  0.00000000000E+00 0. -1.
          1   -1    0    0  501    0 -0.00000000000E+00 -0.00000000000E+00 -0.21592154321E+03  0.21592154321E+03  0.00000000000E+00 0. -1.
         25    2    1    2    0    0  0.14343670072E+03  0.21556600082E+03  0.58020758999E+03  0.64754061025E+03  0.12500082649E+03 0.  0.
          2    1    1    2  501    0 -0.36252641674E+02 -0.23668663332E+02 -0.17190858776E+03  0.17727668261E+03  0.00000000000E+00 0. -1.
          1    1    1    2  502    0 -0.10718405905E+03 -0.19189733749E+03  0.15686395431E+04  0.15839643388E+04  0.00000000000E+00 0. -1.
         22    1    3    3    0    0  0.55780157113E+02  0.14323688273E+03  0.44563897393E+03  0.47140463043E+03  0.00000000000E+00 0. -1.
         22    1    3    3    0    0  0.87656543612E+02  0.72329118095E+02  0.13456861605E+03  0.17613597982E+03  0.00000000000E+00 0. -1.
</event>
<event>
 7    1  0.6520971E-006  0.9242816E+02  0.7818608E-02  0.1407380E+00
          2   -1    0    0  502    0  0.00000000000E+00  0.00000000000E+00  0.58555347792E+03  0.58555347792E+03  0.00000000000E+00 0. -1.
          1   -1    0    0  501    0 -0.00000000000E+00 -0.00000000000E+00 -0.34861921090E+03  0.34861921090E+03  0.00000000000E+00 0. -1.
         25    2    1    2    0    0 -0.18408661472E+02 -0.12058254782E+03 -0.79124587482E+01  0.17484651921E+03  0.12501867309E+03 0.  0.
          2    1    1    2  501    0 -0.44773447788E+00  0.89771298421E+02 -0.24872724038E+03  0.26443208314E+03  0.00000000000E+00 0. -1.
          1    1    1    2  502    0  0.18856395950E+02  0.30811249397E+02  0.49357396615E+03  0.49489408647E+03  0.00000000000E+00 0. -1.
         22    1    3    3    0    0 -0.56364852444E+02 -0.11688719583E+03  0.14560471041E+02  0.13058185347E+03  0.00000000000E+00 0. -1.
         22    1    3    3    0    0  0.37956190972E+02 -0.36953519917E+01 -0.22472929790E+02  0.44264665737E+02  0.00000000000E+00 0. -1.
</event>
<event>
 7    1  0.6520971E-006  0.4195290E+02  0.7818608E-02  0.1546145E+00
          2   -1    0    0  502    0  0.00000000000E+00  0.00000000000E+00  0.80382907128E+03  0.80382907128E+03  0.00000000000E+00 0. -1.
          1   -1    0    0  501    0 -0.00000000000E+00 -0.00000000000E+00 -0.18353820513E+03  0.18353820513E+03  0.00000000000E+00 0. -1.
         25    2    1    2    0    0  0.43496705071E+02 -0.60971325709E+01  0.81562096785E+02  0.15559722226E+03  0.12501592524E+03 0.  0.
          2    1    1    2  501    0 -0.35650180191E+02 -0.22511594548E+02 -0.14315825734E+03  0.14923804435E+03  0.00000000000E+00 0. -1.
          1    1    1    2  502    0 -0.78465248802E+01  0.28608727119E+02  0.68188702671E+03  0.68253200981E+03  0.00000000000E+00 0. -1.
         22    1    3    3    0    0  0.52472761292E+02 -0.42431856853E+02  0.94391154721E+02  0.11603250942E+03  0.00000000000E+00 0.  1.
         22    1    3    3    0    0 -0.89760562203E+01  0.36334724282E+02 -0.12829057936E+02  0.39564712832E+02  0.00000000000E+00 0.  1.
</event>
<event>
 7    1  0.6520971E-006  0.8955915E+02  0.7818608E-02  0.1425102E+00
          2   -1    0    0  502    0  0.00000000000E+00  0.00000000000E+00  0.12826450154E+04  0.12826450154E+04  0.00000000000E+00 0. -1.
          1   -1    0    0  501    0 -0.00000000000E+00 -0.00000000000E+00 -0.18588414422E+04  0.18588414422E+04  0.00000000000E+00 0. -1.
         25    2    1    2    0    0  0.49699752824E+01 -0.69140151900E+02  0.12046800823E+03  0.18693128517E+03  0.12500281240E+03 0.  0.
          2    1    1    2  501    0 -0.34440365307E+02  0.82857107149E+02 -0.18242728726E+04  0.18264782924E+04  0.00000000000E+00 0. -1.
          1    1    1    2  502    0  0.29470390024E+02 -0.13716955249E+02  0.11276084376E+04  0.11280768800E+04  0.00000000000E+00 0. -1.
         22    1    3    3    0    0 -0.53454883774E+02 -0.40245261032E+02  0.25198371180E+02  0.71498696106E+02  0.00000000000E+00 0. -1.
         22    1    3    3    0    0  0.58424859056E+02 -0.28894890869E+02  0.95269637049E+02  0.11543258906E+03  0.00000000000E+00 0. -1.
</event>
<event>
 7    1  0.6520971E-006  0.2587401E+02  0.7818608E-02  0.1653826E+00
          2   -1    0    0  502    0  0.00000000000E+00  0.00000000000E+00  0.86104802725E+02  0.86104802725E+02  0.00000000000E+00 0. -1.
          1   -1    0    0  501    0 -0.00000000000E+00 -0.00000000000E+00 -0.18935720665E+04  0.18935720665E+04  0.00000000000E+00 0. -1.
         25    2    1    2    0    0  0.20825909460E+02  0.12182278349E+01 -0.13817748522E+04  0.13875735860E+04  0.12499404661E+03 0.  0.
          2    1    1    2  501    0 -0.10462862715E+02 -0.24926283644E+02 -0.50651717717E+03  0.50723805247E+03  0.00000000000E+00 0. -1.
          1    1    1    2  502    0 -0.10363046744E+02  0.23708055809E+02  0.80824765642E+02  0.84865230744E+02  0.00000000000E+00 0. -1.
         22    1    3    3    0    0  0.45594836351E+02 -0.15090076729E+02 -0.20993503531E+03  0.21535858137E+03  0.00000000000E+00 0. -1.
         22    1    3    3    0    0 -0.24768926892E+02  0.16308304564E+02 -0.11718398169E+04  0.11722150046E+04  0.00000000000E+00 0. -1.
</event>
<event>
 7    1  0.6520971E-006  0.2974443E+03  0.7818608E-02  0.1267532E+00
          2   -1    0    0  502    0  0.00000000000E+00  0.00000000000E+00  0.30849755779E+03  0.30849755779E+03  0.00000000000E+00 0. -1.
          1   -1    0    0  501    0 -0.00000000000E+00 -0.00000000000E+00 -0.44945012148E+03  0.44945012148E+03  0.00000000000E+00 0. -1.
         25    2    1    2    0    0  0.19943307878E+03 -0.19420749044E+03 -0.94745036029E+02  0.31951769837E+03  0.12499934186E+03 0.  0.
          2    1    1    2  501    0  0.37792007459E+02 -0.40346748825E+01 -0.11551184449E+03  0.12160386773E+03  0.00000000000E+00 0. -1.
          1    1    1    2  502    0 -0.23722508624E+03  0.19824216533E+03  0.69304316830E+02  0.31682611317E+03  0.00000000000E+00 0. -1.
         22    1    3    3    0    0  0.18506511508E+03 -0.20190944242E+03 -0.11188536957E+03  0.29586290015E+03  0.00000000000E+00 0.  1.
         22    1    3    3    0    0  0.14367963701E+02  0.77019519793E+01  0.17140333541E+02  0.23654798226E+02  0.00000000000E+00 0.  1.
</event>
<event>
 7    1  0.6520971E-006  0.5862278E+02  0.7818608E-02  0.1492319E+00
          2   -1    0    0  502    0  0.00000000000E+00  0.00000000000E+00  0.22031771478E+04  0.22031771478E+04  0.00000000000E+00 0. -1.
          1   -1    0    0  501    0 -0.00000000000E+00 -0.00000000000E+00 -0.20618344403E+03  0.20618344403E+03  0.00000000000E+00 0. -1.
         25    2    1    2    0    0 -0.73549872218E+02  0.38064691617E+01  0.79181421159E+03  0.80499658832E+03  0.12500275442E+03 0.  0.
          2    1    1    2  501    0  0.21616385613E+02  0.21433751383E+02 -0.19783422852E+03  0.20016257342E+03  0.00000000000E+00 0. -1.
          1    1    1    2  502    0  0.51933486605E+02 -0.25240220545E+02  0.14030137207E+04  0.14042014301E+04  0.00000000000E+00 0. -1.
         22    1    3    3    0    0 -0.14676513194E+02 -0.52092444377E+02  0.18430111502E+03  0.19208311690E+03  0.00000000000E+00 0. -1.
         22    1    3    3    0    0 -0.58873359023E+02  0.55898913539E+02  0.60751309657E+03  0.61291347141E+03  0.00000000000E+00 0. -1.
</event>
<event>
 7    1  0.6520971E-006  0.1123462E+03  0.7818608E-02  0.1415899E+00
          2   -1    0    0  502    0  0.00000000000E+00  0.00000000000E+00  0.16258716503E+04  0.16258716503E+04  0.00000000000E+00 0. -1.
          1   -1    0    0  501    0 -0.00000000000E+00 -0.00000000000E+00 -0.12992454144E+03  0.12992454144E+03  0.00000000000E+00 0. -1.
         25    2    1    2    0    0  0.12071113288E+02  0.11134020373E+03  0.33587946858E+03  0.37547603832E+03  0.12499954081E+03 0.  0.
          2    1    1    2  501    0  0.15740389780E+02 -0.11152736350E+03 -0.81130661278E+02  0.13881029097E+03  0.00000000000E+00 0. -1.
          1    1    1    2  502    0 -0.27811503068E+02  0.18715977083E+00  0.12411983016E+04  0.12415098624E+04  0.00000000000E+00 0. -1.
         22    1    3    3    0    0  0.26064945699E+02  0.52329720439E+02  0.34135976882E+02  0.67698197562E+02  0.00000000000E+00 0.  1.
         22    1    3    3    0    0 -0.13993832411E+02  0.59010483289E+02  0.30174349169E+03  0.30777784076E+03  0.00000000000E+00 0.  1.
</event>
<event>
 7    1  0.6520971E-006  0.1117715E+03  0.7818608E-02  0.1387238E+00
          2   -1    0    0  502    0  0.00000000000E+00  0.00000000000E+00  0.78411901368E+03  0.78411901368E+03  0.00000000000E+00 0. -1.
          1   -1    0    0  501    0 -0.00000000000E+00 -0.00000000000E+00 -0.96628765560E+03  0.96628765560E+03  0.00000000000E+00 0. -1.
         25    2    1    2    0    0  0.11661494971E+03  0.50770534421E+02 -0.57989168019E+03  0.60669211201E+03  0.12499705740E+03 0.  0.
          2    1    1    2  501    0 -0.10281145557E+03 -0.18543149053E+02 -0.36527020672E+03  0.37991626405E+03  0.00000000000E+00 0. -1.
          1    1    1    2  502    0 -0.13803494136E+02 -0.32227385368E+02  0.76299324499E+03  0.76379829321E+03  0.00000000000E+00 0. -1.
         22    1    3    3    0    0 -0.66256900766E+01 -0.18092207412E+01  0.37792279574E+01  0.78393630248E+01  0.00000000000E+00 0. -1.
         22    1    3    3    0    0  0.12324063978E+03  0.52579755162E+02 -0.58367090815E+03  0.59885274899E+03  0.00000000000E+00 0. -1.
</event>
<event>
 7    1  0.6520971E-006  0.1289236E+03  0.7818608E-02  0.1295985E+00
          2   -1    0    0  502    0  0.00000000000E+00  0.00000000000E+00  0.33231856560E+03  0.33231856560E+03  0.00000000000E+00 0. -1.
          1   -1    0    0  501    0 -0.00000000000E+00 -0.00000000000E+00 -0.67904238968E+03  0.67904238968E+03  0.00000000000E+00 0. -1.
         25    2    1    2    0    0 -0.12843869624E+03 -0.11749862922E+03  0.92183166649E+01  0.21450611738E+03  0.12500188188E+03 0.  0.
          2    1    1    2  501    0  0.61873702899E+02  0.11045064783E+03 -0.56413492917E+03  0.57816599609E+03  0.00000000000E+00 0. -1.
          1    1    1    2  502    0  0.66564993340E+02  0.70479813838E+01  0.20819278843E+03  0.21868884181E+03  0.00000000000E+00 0. -1.
         22    1    3    3    0    0 -0.12766043967E+03 -0.11609379521E+03  0.45289899257E+02  0.17839880077E+03  0.00000000000E+00 0.  1.
         22    1    3    3    0    0 -0.77825657219E+00 -0.14048340026E+01 -0.36071582592E+02  0.36107316607E+02  0.00000000000E+00 0.  1.
</event>
<event>
 7    1  0.6520971E-006  0.1637237E+03  0.7818608E-02  0.1269001E+00
          2   -1    0    0  502    0  0.00000000000E+00  0.00000000000E+00  0.15895769448E+04  0.15895769448E+04  0.00000000000E+00 0. -1.
          1   -1    0    0  501    0 -0.00000000000E+00 -0.00000000000E+00 -0.34809055565E+03  0.34809055565E+03  0.00000000000E+00 0. -1.
         25    2    1    2    0    0 -0.23020973017E+02 -0.15969127651E+03  0.19697747996E+03  0.28364799330E+03  0.12499915000E+03 0.  0.
          2    1    1    2  501    0 -0.65168218728E+02  0.19670073473E+02 -0.29580118052E+03  0.30353277734E+03  0.00000000000E+00 0. -1.
          1    1    1    2  502    0  0.88189191745E+02  0.14002120304E+03  0.13403100897E+04  0.13504867299E+04  0.00000000000E+00 0. -1.
         22    1    3    3    0    0 -0.60358316082E+02 -0.27539668625E+02  0.72925710261E+02  0.98588634666E+02  0.00000000000E+00 0.  1.
         22    1    3    3    0    0  0.37337343065E+02 -0.13215160788E+03  0.12405176970E+03  0.18505935864E+03  0.00000000000E+00 0.  1.
</event>
<event>
 7    1  0.6520971E-006  0.3143310E+02  0.7818608E-02  0.1656386E+00
          2   -1    0    0  502    0  0.00000000000E+00  0.00000000000E+00  0.32683996959E+03  0.32683996959E+03  0.00000000000E+00 0. -1.
          1   -1    0    0  501    0 -0.00000000000E+00 -0.00000000000E+00 -0.95836622394E+02  0.95836622394E+02  0.00000000000E+00 0. -1.
         25    2    1    2    0    0  0.47903149481E+02 -0.13470429656E+02  0.20082591169E+03  0.24172744458E+03  0.12499978580E+03 0.  0.
          2    1    1    2  501    0 -0.20127341780E+02  0.33414699645E+01 -0.71867559194E+02  0.74707572395E+02  0.00000000000E+00 0. -1.
          1    1    1    2  502    0 -0.27775807701E+02  0.10128959691E+02  0.10204499470E+03  0.10624157501E+03  0.00000000000E+00 0. -1.
         22    1    3    3    0    0  0.70276416438E+02 -0.50555252677E+02  0.16143528314E+03  0.18318285652E+03  0.00000000000E+00 0. -1.
         22    1    3    3    0    0 -0.22373266957E+02  0.37084823021E+02  0.39390628550E+02  0.58544588054E+02  0.00000000000E+00 0. -1.
</event>
<event>
 7    1  0.6520971E-006  0.4454070E+02  0.7818608E-02  0.1563252E+00
          2   -1    0    0  502    0  0.00000000000E+00  0.00000000000E+00  0.29719733418E+03  0.29719733418E+03  0.00000000000E+00 0. -1.
          1   -1    0    0  501    0 -0.00000000000E+00 -0.00000000000E+00 -0.97760039766E+03  0.97760039766E+03  0.00000000000E+00 0. -1.
         25    2    1    2    0    0 -0.37725455790E+02  0.53282212373E+00 -0.27008656875E+03  0.29999207716E+03  0.12499999131E+03 0.  0.
          2    1    1    2  501    0  0.43950643393E+00 -0.25047408421E+02 -0.69056881268E+03  0.69102304656E+03  0.00000000000E+00 0. -1.
          1    1    1    2  502    0  0.37285949356E+02  0.24514586297E+02  0.28025231794E+03  0.28378260812E+03  0.00000000000E+00 0. -1.
         22    1    3    3    0    0 -0.29290536966E+02 -0.25228482628E+02 -0.27013292895E+03  0.27288497796E+03  0.00000000000E+00 0.  1.
         22    1    3    3    0    0 -0.84349188237E+01  0.25761304751E+02  0.46360202668E-01  0.27107099205E+02  0.00000000000E+00 0.  1.
</event>
<event>
 7    1  0.6520971E-006  0.1137556E+03  0.7818608E-02  0.1381028E+00
          2   -1    0    0  502    0  0.00000000000E+00  0.00000000000E+00  0.86832767231E+03  0.86832767231E+03  0.00000000000E+00 0. -1.
          1   -1    0    0  501    0 -0.00000000000E+00 -0.00000000000E+00 -0.71992431530E+03  0.71992431530E+03  0.00000000000E+00 0. -1.
         25    2    1    2    0    0  0.10573373505E+03  0.97050599214E+02  0.37469085977E+02  0.19397752535E+03  0.12499962560E+03 0.  0.
          2    1    1    2  501    0 -0.34797596697E+02 -0.10072093534E+02 -0.63696804834E+03  0.63799734672E+03  0.00000000000E+00 0. -1.
          1    1    1    2  502    0 -0.70936138358E+02 -0.86978505681E+02  0.74790231937E+03  0.75627711555E+03  0.00000000000E+00 0. -1.
         22    1    3    3    0    0  0.45341088674E+02  0.50677386415E+02 -0.45148536639E+02  0.81623539353E+02  0.00000000000E+00 0. -1.
         22    1    3    3    0    0  0.60392646381E+02  0.46373212800E+02  0.82617622616E+02  0.11235398599E+03  0.00000000000E+00 0. -1.
</event>
<event>
 7    1  0.6520971E-006  0.4220107E+02  0.7818608E-02  0.1533973E+00
          2   -1    0    0  502    0  0.00000000000E+00  0.00000000000E+00  0.19632488375E+04  0.19632488375E+04  0.00000000000E+00 0. -1.
          1   -1    0    0  501    0 -0.00000000000E+00 -0.00000000000E+00 -0.11752053600E+03  0.11752053600E+03  0.00000000000E+00 0. -1.
         25    2    1    2    0    0 -0.14870529148E+02 -0.44288978207E+01  0.28574388827E+03  0.31227003287E+03  0.12498902340E+03 0.  0.
          2    1    1    2  501    0 -0.10299493023E+02 -0.30214991190E+02 -0.10153158401E+03  0.10643161091E+03  0.00000000000E+00 0. -1.
          1    1    1    2  502    0  0.25170022171E+02  0.34643889010E+02  0.16615159972E+04  0.16620677297E+04  0.00000000000E+00 0. -1.
         22    1    3    3    0    0 -0.11059936136E+02  0.54166077283E+02  0.72998402102E+02  0.91569934067E+02  0.00000000000E+00 0. -1.
         22    1    3    3    0    0 -0.38105930122E+01 -0.58594975104E+02  0.21274548616E+03  0.22070009880E+03  0.00000000000E+00 0. -1.
</event>
<event>
 7    1  0.6520971E-006  0.1340839E+03  0.7818608E-02  0.1419760E+00
          2   -1    0    0  502    0  0.00000000000E+00  0.00000000000E+00  0.79159672561E+03  0.79159672561E+03  0.00000000000E+00 0. -1.
          1   -1    0    0  501    0 -0.00000000000E+00 -0.00000000000E+00 -0.25648466406E+03  0.25648466406E+03  0.00000000000E+00 0. -1.
         25    2    1    2    0    0 -0.11506425809E+03  0.62577101855E+02  0.25541862614E+03  0.31308061772E+03  0.12500048580E+03 0.  0.
          2    1    1    2  501    0  0.84122580146E+01  0.20997006246E+02 -0.21801137376E+03  0.21918165855E+03  0.00000000000E+00 0. -1.
          1    1    1    2  502    0  0.10665200008E+03 -0.83574108101E+02  0.49770480918E+03  0.51581911340E+03  0.00000000000E+00 0. -1.
         22    1    3    3    0    0 -0.52451368123E+02  0.95963952707E+02  0.14093034063E+03  0.17838606208E+03  0.00000000000E+00 0. -1.
         22    1    3    3    0    0 -0.62612889970E+02 -0.33386850852E+02  0.11448828551E+03  0.13469455564E+03  0.00000000000E+00 0. -1.
</event>
<event>
 7    1  0.6520971E-006  0.1007215E+03  0.7818608E-02  0.1333990E+00
          2   -1    0    0  502    0  0.00000000000E+00  0.00000000000E+00  0.29899660681E+03  0.29899660681E+03  0.00000000000E+00 0. -1.
          1   -1    0    0  501    0 -0.00000000000E+00 -0.00000000000E+00 -0.40427689923E+03  0.40427689923E+03  0.00000000000E+00 0. -1.
         25    2    1    2    0    0 -0.85258654590E+02 -0.86059764161E-01  0.53137614207E+02  0.16039563742E+03  0.12503643018E+03 0.  0.
          2    1    1    2  501    0 -0.50064533353E+01  0.60640214890E+02 -0.33229625425E+03  0.33782110773E+03  0.00000000000E+00 0. -1.
          1    1    1    2  502    0  0.90265107925E+02 -0.60554155126E+02  0.17387834762E+03  0.20505676088E+03  0.00000000000E+00 0. -1.
         22    1    3    3    0    0 -0.10669841898E+03 -0.75530562880E+01  0.48942499429E+01  0.10707733166E+03  0.00000000000E+00 0.  1.
         22    1    3    3    0    0  0.21439764391E+02  0.74669965239E+01  0.48243364264E+02  0.53318305766E+02  0.00000000000E+00 0.  1.
</event>
<event>
 7    1  0.6520971E-006  0.1005263E+03  0.7818608E-02  0.1391739E+00
          2   -1    0    0  502    0  0.00000000000E+00  0.00000000000E+00  0.96884534018E+03  0.96884534018E+03  0.00000000000E+00 0. -1.
          1   -1    0    0  501    0 -0.00000000000E+00 -0.00000000000E+00 -0.26638273104E+03  0.26638273104E+03  0.00000000000E+00 0. -1.
         25    2    1    2    0    0  0.27073401247E+02 -0.11690770326E+03  0.95408195536E+02  0.19781129839E+03  0.12500482334E+03 0.  0.
          2    1    1    2  501    0  0.22239729914E+02  0.30311900479E+02 -0.21049011315E+03  0.21382119781E+03  0.00000000000E+00 0. -1.
          1    1    1    2  502    0 -0.49313131161E+02  0.86595802783E+02  0.81754452676E+03  0.82359557502E+03  0.00000000000E+00 0. -1.
         22    1    3    3    0    0  0.55405471295E+02 -0.98007272420E+02  0.19026458701E+02  0.11418054925E+03  0.00000000000E+00 0. -1.
         22    1    3    3    0    0 -0.28332070048E+02 -0.18900430843E+02  0.76381736835E+02  0.83630749137E+02  0.00000000000E+00 0. -1.
</event>
<event>
 7    1  0.6520971E-006  0.3542179E+02  0.7818608E-02  0.1627701E+00
          2   -1    0    0  502    0  0.00000000000E+00  0.00000000000E+00  0.15963417028E+04  0.15963417028E+04  0.00000000000E+00 0. -1.
          1   -1    0    0  501    0 -0.00000000000E+00 -0.00000000000E+00 -0.15369331547E+04  0.15369331547E+04  0.00000000000E+00 0. -1.
         25    2    1    2    0    0  0.46027304578E+02 -0.24811120535E+02  0.73810902670E+03  0.75044259492E+03  0.12500019404E+03 0.  0.
          2    1    1    2  501    0 -0.24711099199E+02  0.25372868770E+02 -0.15304280426E+04  0.15308378146E+04  0.00000000000E+00 0. -1.
          1    1    1    2  502    0 -0.21316205379E+02 -0.56174823499E+00  0.85172756396E+03  0.85199444797E+03  0.00000000000E+00 0. -1.
         22    1    3    3    0    0  0.72448382256E+02 -0.33245978518E+02  0.69242881133E+03  0.69700195261E+03  0.00000000000E+00 0.  1.
         22    1    3    3    0    0 -0.26421077678E+02  0.84348579829E+01  0.45680215371E+02  0.53440642317E+02  0.00000000000E+00 0.  1.
</event>
<event>
 7    1  0.6520971E-006  0.4222715E+02  0.7818608E-02  0.1596743E+00
          2   -1    0    0  502    0  0.00000000000E+00  0.00000000000E+00  0.15279662265E+04  0.15279662265E+04  0.00000000000E+00 0. -1.
          1   -1    0    0  501    0 -0.00000000000E+00 -0.00000000000E+00 -0.33631248163E+02  0.33631248163E+02  0.00000000000E+00 0. -1.
         25    2    1    2    0    0  0.32722087385E+02  0.13424176443E+02  0.71340399483E+03  0.72513512789E+03  0.12499900141E+03 0.  0.
          2    1    1    2  501    0 -0.42076557499E+02  0.59198084742E+01 -0.11277864302E+02  0.43962154708E+02  0.00000000000E+00 0. -1.
          1    1    1    2  502    0  0.93544701145E+01 -0.19343984917E+02  0.79220884785E+03  0.79250019210E+03  0.00000000000E+00 0. -1.
         22    1    3    3    0    0  0.38479797996E+02  0.66332487017E+02  0.42064386852E+03  0.42757684433E+03  0.00000000000E+00 0. -1.
         22    1    3    3    0    0 -0.57577106112E+01 -0.52908310574E+02  0.29276012631E+03  0.29755828356E+03  0.00000000000E+00 0. -1.
</event>
<event>
 7    1  0.6520971E-006  0.9747436E+02  0.7818608E-02  0.1338638E+00
          2   -1    0    0  502    0  0.00000000000E+00  0.00000000000E+00  0.12674081755E+04  0.12674081755E+04  0.00000000000E+00 0. -1.
          1   -1    0    0  501    0 -0.00000000000E+00 -0.00000000000E+00 -0.17020297448E+03  0.17020297448E+03  0.00000000000E+00 0. -1.
         25    2    1    2    0    0  0.52862415761E+02 -0.94822402646E+02  0.67188672265E+02  0.17867591136E+03  0.12500016231E+03 0.  0.
          2    1    1    2  501    0 -0.87201698014E+02  0.45159796261E+02 -0.92434349655E+02  0.13486160436E+03  0.00000000000E+00 0. -1.
          1    1    1    2  502    0  0.34339282254E+02  0.49662606386E+02  0.11224508784E+04  0.11240736342E+04  0.00000000000E+00 0. -1.
         22    1    3    3    0    0  0.58170843500E+02  0.64309344404E+01  0.47532245978E+02  0.75395744966E+02  0.00000000000E+00 0.  1.
         22    1    3    3    0    0 -0.53084277393E+01 -0.10125333709E+03  0.19656426286E+02  0.10328016640E+03  0.00000000000E+00 0.  1.
</event>
<event>
 7    1  0.6520971E-006  0.8045054E+02  0.7818608E-02  0.1422132E+00
          2   -1    0    0  502    0  0.00000000000E+00  0.00000000000E+00  0.13816719460E+03  0.13816719460E+03  0.00000000000E+00 0. -1.
          1   -1    0    0  501    0 -0.00000000000E+00 -0.00000000000E+00 -0.68354202148E+03  0.68354202148E+03  0.00000000000E+00 0. -1.
         25    2    1    2    0    0 -0.36733127584E+02  0.36984892310E+02 -0.17470128634E+03  0.22104956849E+03  0.12500066945E+03 0.  0.
          2    1    1    2  501    0 -0.37012898157E+02  0.63011522849E+00 -0.46994429479E+03  0.47140003381E+03  0.00000000000E+00 0. -1.
          1    1    1    2  502    0  0.73746025741E+02 -0.37615007539E+02  0.99270754239E+02  0.12925961377E+03  0.00000000000E+00 0. -1.
         22    1    3    3    0    0  0.41681672415E+02  0.54953676125E+01 -0.99162430408E+02  0.10770677084E+03  0.00000000000E+00 0.  1.
         22    1    3    3    0    0 -0.78414799999E+02  0.31489524698E+02 -0.75538855931E+02  0.11334279765E+03  0.00000000000E+00 0.  1.
</event>
<event>
 7    1  0.6520971E-006  0.4642470E+03  0.7818608E-02  0.1199023E+00
          2   -1    0    0  502    0  0.00000000000E+00  0.00000000000E+00  0.11711357098E+04  0.11711357098E+04  0.00000000000E+00 0. -1.
          1   -1    0    0  501    0 -0.00000000000E+00 -0.00000000000E+00 -0.16032328898E+04  0.16032328898E+04  0.00000000000E+00 0. -1.
         25    2    1    2    0    0 -0.86148773005E+02  0.43977271176E+03 -0.72422885631E+03  0.86079499638E+03  0.12505574909E+03 0.  0.
          2    1    1    2  501    0  0.12882358942E+03 -0.46432793450E+03 -0.73847964763E+03  0.88178690051E+03  0.00000000000E+00 0. -1.
          1    1    1    2  502    0 -0.42674816415E+02  0.24555222737E+02  0.10306113240E+04  0.10317867028E+04  0.00000000000E+00 0. -1.
         22    1    3    3    0    0 -0.22970278100E+02  0.26249113175E+03 -0.52078702471E+03  0.58365088283E+03  0.00000000000E+00 0. -1.
         22    1    3    3    0    0 -0.63178494905E+02  0.17728158001E+03 -0.20344183160E+03  0.27714411355E+03  0.00000000000E+00 0. -1.
</event>
<event>
 7    1  0.6520971E-006  0.7224256E+02  0.7818608E-02  0.1382040E+00
          2   -1    0    0  502    0  0.00000000000E+00  0.00000000000E+00  0.20933796928E+03  0.20933796928E+03  0.00000000000E+00 0. -1.
          1   -1    0    0  501    0 -0.00000000000E+00 -0.00000000000E+00 -0.28954344559E+03  0.28954344559E+03  0.00000000000E+00 0. -1.
         25    2    1    2    0    0  0.88274679270E+02 -0.64082865343E+02  0.51350949128E+02  0.17366912527E+03  0.12500004986E+03 0.  0.
          2    1    1    2  501    0 -0.31703041975E+02  0.63472696395E+02 -0.21386984109E+03  0.22533125612E+03  0.00000000000E+00 0. -1.
          1    1    1    2  502    0 -0.56571637295E+02  0.61016894870E+00  0.82313415650E+02  0.99881033476E+02  0.00000000000E+00 0. -1.
         22    1    3    3    0    0 -0.13918055636E+02  0.16304872706E+02  0.37127629820E+02  0.42872159296E+02  0.00000000000E+00 0. -1.
         22    1    3    3    0    0  0.10219273491E+03 -0.80387738049E+02  0.14223319309E+02  0.13079696598E+03  0.00000000000E+00 0. -1.
</event>
<event>
 7    1  0.6520971E-006  0.4513277E+02  0.7818608E-02  0.1555755E+00
          2   -1    0    0  502    0  0.00000000000E+00  0.00000000000E+00  0.14926863730E+04  0.14926863730E+04  0.00000000000E+00 0. -1.
          1   -1    0    0  501    0 -0.00000000000E+00 -0.00000000000E+00 -0.89067791215E+02  0.89067791215E+02  0.00000000000E+00 0. -1.
         25    2    1    2    0    0 -0.52909680757E+02 -0.24071538737E+02  0.59139572758E+02  0.15000652688E+03  0.12500238296E+03 0.  0.
          2    1    1    2  501    0  0.23782038452E+02 -0.10324617446E+02 -0.39383522708E+02  0.47151298384E+02  0.00000000000E+00 0. -1.
          1    1    1    2  502    0  0.29127642305E+02  0.34396156183E+02  0.13838625317E+04  0.13845963389E+04  0.00000000000E+00 0. -1.
         22    1    3    3    0    0 -0.36870160397E+02  0.43279499046E+02 -0.30571322003E+01  0.56937420232E+02  0.00000000000E+00 0. -1.
         22    1    3    3    0    0 -0.16039520360E+02 -0.67351037783E+02  0.62196704959E+02  0.93069106644E+02  0.00000000000E+00 0. -1.
</event>
<event>
 7    1  0.6520971E-006  0.3362105E+02  0.7818608E-02  0.1624316E+00
          2   -1    0    0  502    0  0.00000000000E+00  0.00000000000E+00  0.36883618367E+03  0.36883618367E+03  0.00000000000E+00 0. -1.
          1   -1    0    0  501    0 -0.00000000000E+00 -0.00000000000E+00 -0.73274709854E+03  0.73274709854E+03  0.00000000000E+00 0. -1.
         25    2    1    2    0    0  0.52736909169E+02  0.30165232708E+01 -0.18336421102E+03  0.22811720210E+03  0.12499897202E+03 0.  0.
          2    1    1    2  501    0 -0.31303897701E+02 -0.11117116172E+02 -0.52610312670E+03  0.52715085526E+03  0.00000000000E+00 0. -1.
          1    1    1    2  502    0 -0.21433011469E+02  0.81005929013E+01  0.34555642285E+03  0.34631522484E+03  0.00000000000E+00 0. -1.
         22    1    3    3    0    0  0.25077964447E+01 -0.50306436301E+02 -0.12396181509E+03  0.13380417848E+03  0.00000000000E+00 0. -1.
         22    1    3    3    0    0  0.50229112724E+02  0.53322959571E+02 -0.59402395931E+02  0.94313023623E+02  0.00000000000E+00 0. -1.
</event>
<event>
 7    1  0.6520971E-006  0.5325227E+02  0.7818608E-02  0.1518092E+00
          2   -1    0    0  502    0  0.00000000000E+00  0.00000000000E+00  0.97982976814E+02  0.97982976814E+02  0.00000000000E+00 0. -1.
          1   -1    0    0  501    0 -0.00000000000E+00 -0.00000000000E+00 -0.39912573863E+04  0.39912573863E+04  0.00000000000E+00 0. -1.
         25    2    1    2    0    0  0.37825305769E+02 -0.40013700259E+02 -0.10028249895E+04  0.10120840672E+04  0.12499739779E+03 0.  0.
          2    1    1    2  501    0 -0.12429555259E+02  0.52058672127E+02 -0.29814415335E+04  0.29819218998E+04  0.00000000000E+00 0. -1.
          1    1    1    2  502    0 -0.25395750510E+02 -0.12044971869E+02  0.90992113481E+02  0.95234396134E+02  0.00000000000E+00 0. -1.
         22    1    3    3    0    0 -0.12496476633E+02  0.27298710770E+01 -0.80351108605E+01  0.15105533122E+02  0.00000000000E+00 0. -1.
         22    1    3    3    0    0  0.50321782402E+02 -0.42743571336E+02 -0.99478987864E+03  0.99697853403E+03  0.00000000000E+00 0. -1.
</event>
<event>
 7    1  0.9305277E-006  0.1065651E+03  0.7818608E-02  0.1305997E+00
          2   -1    0    0  502    0  0.00000000000E+00  0.00000000000E+00  0.13485878345E+04  0.13485878345E+04  0.00000000000E+00 0. -1.
          1   -1    0    0  501    0 -0.00000000000E+00 -0.00000000000E+00 -0.18482915123E+04  0.18482915123E+04  0.00000000000E+00 0. -1.
         25    2    1    2    0    0  0.62364407942E+01 -0.17274154620E+03 -0.36159875919E+03  0.41983049111E+03  0.12500177456E+03 0.  0.
          2    1    1    2  501    0 -0.27298298691E+02  0.68622419748E+02 -0.14545004449E+04  0.14563741888E+04  0.00000000000E+00 0. -1.
          1    1    1    2  502    0  0.21061857897E+02  0.10411912645E+03  0.13163955263E+04  0.13206746669E+04  0.00000000000E+00 0. -1.
         22    1    3    3    0    0 -0.34615814590E+02 -0.16146695560E+03 -0.32177825890E+03  0.36167814459E+03  0.00000000000E+00 0. -1.
         22    1    3    3    0    0  0.40852255384E+02 -0.11274590594E+02 -0.39820500290E+02  0.58152346525E+02  0.00000000000E+00 0. -1.
</event>
<event>
 7    1  0.6520971E-006  0.1289607E+03  0.7818608E-02  0.1298439E+00
          2   -1    0    0  502    0  0.00000000000E+00  0.00000000000E+00  0.47029973476E+03  0.47029973476E+03  0.00000000000E+00 0. -1.
          1   -1    0    0  501    0 -0.00000000000E+00 -0.00000000000E+00 -0.19321260394E+04  0.19321260394E+04  0.00000000000E+00 0. -1.
         25    2    1    2    0    0 -0.78752378095E+01  0.12419181833E+03 -0.25032233500E+03  0.30622192770E+03  0.12499988199E+03 0.  0.
          2    1    1    2  501    0  0.64951368175E+02 -0.77709929568E+01 -0.16436880970E+04  0.16449892488E+04  0.00000000000E+00 0. -1.
          1    1    1    2  502    0 -0.57076130365E+02 -0.11642082537E+03  0.43218412731E+03  0.45121459766E+03  0.00000000000E+00 0. -1.
         22    1    3    3    0    0 -0.63645305995E+02  0.81799507878E+02 -0.17476547836E+03  0.20318675373E+03  0.00000000000E+00 0. -1.
         22    1    3    3    0    0  0.55770068186E+02  0.42392310451E+02 -0.75556856636E+02  0.10303517397E+03  0.00000000000E+00 0. -1.
</event>
<event>
 7    1  0.6520971E-006  0.4767823E+02  0.7818608E-02  0.1507130E+00
          2   -1    0    0  502    0  0.00000000000E+00  0.00000000000E+00  0.12455285399E+03  0.12455285399E+03  0.00000000000E+00 0. -1.
          1   -1    0    0  501    0 -0.00000000000E+00 -0.00000000000E+00 -0.10286009984E+04  0.10286009984E+04  0.00000000000E+00 0. -1.
         25    2    1    2    0    0 -0.71647542058E+02 -0.29067449091E+02  0.39832486479E+00  0.14697834457E+03  0.12499675287E+03 0.  0.
          2    1    1    2  501    0  0.32510212146E+02  0.92702125563E+01 -0.94549758652E+03  0.94610175819E+03  0.00000000000E+00 0. -1.
          1    1    1    2  502    0  0.39137329912E+02  0.19797236535E+02  0.41051117250E+02  0.60073749630E+02  0.00000000000E+00 0. -1.
         22    1    3    3    0    0  0.87435047539E+01 -0.57827172587E+02  0.14953861046E+02  0.60365956672E+02  0.00000000000E+00 0. -1.
         22    1    3    3    0    0 -0.80391046812E+02  0.28759723496E+02 -0.14555536181E+02  0.86612387894E+02  0.00000000000E+00 0. -1.
</event>
<event>
 7    1  0.6520971E-006  0.4377123E+02  0.7818608E-02  0.1501016E+00
          2   -1    0    0  502    0  0.00000000000E+00  0.00000000000E+00  0.57013227312E+02  0.57013227312E+02  0.00000000000E+00 0. -1.
          1   -1    0    0  501    0 -0.00000000000E+00 -0.00000000000E+00 -0.10367371867E+04  0.10367371867E+04  0.00000000000E+00 0. -1.
         25    2    1    2    0    0  0.93437556200E+01 -0.37484251097E+01 -0.91159419060E+02  0.15503688004E+03  0.12500015212E+03 0.  0.
          2    1    1    2  501    0 -0.39891524102E+02 -0.19510243804E+02 -0.89806412826E+03  0.89916136582E+03  0.00000000000E+00 0. -1.
          1    1    1    2  502    0  0.30547768482E+02  0.23258668914E+02  0.94995878906E+01  0.39552168195E+02  0.00000000000E+00 0. -1.
         22    1    3    3    0    0  0.60537769146E+01  0.47852524523E+02 -0.91382252775E+02  0.10333067521E+03  0.00000000000E+00 0. -1.
         22    1    3    3    0    0  0.32899787053E+01 -0.51600949632E+02  0.22283371506E+00  0.51706204828E+02  0.00000000000E+00 0. -1.
</event>
<event>
 7    1  0.6520971E-006  0.4188209E+02  0.7818608E-02  0.1564360E+00
          2   -1    0    0  502    0  0.00000000000E+00  0.00000000000E+00  0.85346473136E+03  0.85346473136E+03  0.00000000000E+00 0. -1.
          1   -1    0    0  501    0 -0.00000000000E+00 -0.00000000000E+00 -0.36080345180E+03  0.36080345180E+03  0.00000000000E+00 0. -1.
         25    2    1    2    0    0 -0.21754677740E+02  0.37437769840E+01 -0.21226918990E+03  0.24732751724E+03  0.12500163973E+03 0.  0.
          2    1    1    2  501    0  0.41893976750E+02 -0.20899769864E+02 -0.12660513044E+03  0.13498431288E+03  0.00000000000E+00 0. -1.
          1    1    1    2  502    0 -0.20139299010E+02  0.17155992880E+02  0.83153559991E+03  0.83195635304E+03  0.00000000000E+00 0. -1.
         22    1    3    3    0    0 -0.21440911688E+02 -0.93778198849E+01  0.94369787357E+01  0.25233168003E+02  0.00000000000E+00 0.  1.
         22    1    3    3    0    0 -0.31376605233E+00  0.13121596869E+02 -0.22170616863E+03  0.22209434924E+03  0.00000000000E+00 0.  1.
</event>
<event>
 7    1  0.6520971E-006  0.1408724E+03  0.7818608E-02  0.1415115E+00
          2   -1    0    0  502    0  0.00000000000E+00  0.00000000000E+00  0.79535215152E+02  0.79535215152E+02  0.00000000000E+00 0. -1.
          1   -1    0    0  501    0 -0.00000000000E+00 -0.00000000000E+00 -0.73884729727E+03  0.73884729727E+03  0.00000000000E+00 0. -1.
         25    2    1    2    0    0 -0.62189506426E+02 -0.13741735835E+03 -0.83552004698E+02  0.21297234089E+03  0.12500086162E+03 0.  0.
          2    1    1    2  501    0  0.74016282075E+02  0.11849376202E+03 -0.56219623703E+03  0.57929594387E+03  0.00000000000E+00 0. -1.
          1    1    1    2  502    0 -0.11826775649E+02  0.18923596337E+02 -0.13563840389E+02  0.26114227667E+02  0.00000000000E+00 0. -1.
         22    1    3    3    0    0 -0.26337608814E+02  0.12349612106E+02 -0.46058587752E+02  0.54475462943E+02  0.00000000000E+00 0.  1.
         22    1    3    3    0    0 -0.35851897612E+02 -0.14976697046E+03 -0.37493416946E+02  0.15849687794E+03  0.00000000000E+00 0.  1.
</event>
<event>
 7    1  0.6520971E-006  0.2877167E+02  0.7818608E-02  0.1637500E+00
          2   -1    0    0  502    0  0.00000000000E+00  0.00000000000E+00  0.13802936686E+04  0.13802936686E+04  0.00000000000E+00 0. -1.
          1   -1    0    0  501    0 -0.00000000000E+00 -0.00000000000E+00 -0.32671181189E+03  0.32671181189E+03  0.00000000000E+00 0. -1.
         25    2    1    2    0    0  0.11163657069E+02 -0.56834263969E+01  0.90337235312E+03  0.91206333138E+03  0.12498393291E+03 0.  0.
          2    1    1    2  501    0 -0.24375997309E+02 -0.15314401331E+02 -0.32139694740E+03  0.32268361894E+03  0.00000000000E+00 0. -1.
          1    1    1    2  502    0  0.13212340239E+02  0.20997827728E+02  0.47160645101E+03  0.47225853019E+03  0.00000000000E+00 0. -1.
         22    1    3    3    0    0 -0.12103966995E+02  0.51471348601E+02  0.60907622037E+03  0.61136703212E+03  0.00000000000E+00 0.  1.
         22    1    3    3    0    0  0.23267624064E+02 -0.57154774998E+02  0.29429613275E+03  0.30069629926E+03  0.00000000000E+00 0.  1.
</event>
<event>
 7    1  0.6520971E-006  0.1955750E+03  0.7818608E-02  0.1251182E+00
          2   -1    0    0  502    0  0.00000000000E+00  0.00000000000E+00  0.19774763079E+04  0.19774763079E+04  0.00000000000E+00 0. -1.
          1   -1    0    0  501    0 -0.00000000000E+00 -0.00000000000E+00 -0.29150148230E+04  0.29150148230E+04  0.00000000000E+00 0. -1.
         25    2    1    2    0    0 -0.21962386343E+03  0.49238808788E+02  0.17159612973E+03  0.30940407874E+03  0.12500620194E+03 0.  0.
          2    1    1    2  501    0  0.26154554606E+02 -0.62650151607E+02 -0.28402907758E+04  0.28411020386E+04  0.00000000000E+00 0. -1.
          1    1    1    2  502    0  0.19346930882E+03  0.13411342819E+02  0.17311561310E+04  0.17419850136E+04  0.00000000000E+00 0. -1.
         22    1    3    3    0    0 -0.10965413788E+03 -0.16011402295E+02  0.22666994831E+02  0.11311139471E+03  0.00000000000E+00 0.  1.
         22    1    3    3    0    0 -0.10996972555E+03  0.65250211083E+02  0.14892913489E+03  0.19629268403E+03  0.00000000000E+00 0.  1.
</event>
<event>
 7    1  0.6520971E-006  0.6340703E+02  0.7818608E-02  0.1468002E+00
          2   -1    0    0  502    0  0.00000000000E+00  0.00000000000E+00  0.51981967815E+02  0.51981967815E+02  0.00000000000E+00 0. -1.
          1   -1    0    0  501    0 -0.00000000000E+00 -0.00000000000E+00 -0.16939067051E+04  0.16939067051E+04  0.00000000000E+00 0. -1.
         25    2    1    2    0    0 -0.15936192439E+02 -0.70274723835E+02 -0.11155192043E+03  0.18237716703E+03  0.12500040424E+03 0.  0.
          2    1    1    2  501    0  0.41091397544E+02  0.48275724168E+02 -0.15287400441E+04  0.15300539765E+04  0.00000000000E+00 0. -1.
          1    1    1    2  502    0 -0.25155205105E+02  0.21998999667E+02 -0.16327727957E+01  0.33457529455E+02  0.00000000000E+00 0. -1.
         22    1    3    3    0    0  0.13004647879E+02  0.13287315370E+02 -0.89264316007E+02  0.91179996317E+02  0.00000000000E+00 0. -1.
         22    1    3    3    0    0 -0.28940840318E+02 -0.83562039205E+02 -0.22287604425E+02  0.91197170709E+02  0.00000000000E+00 0. -1.
</event>
<event>
 7    1  0.6520971E-006  0.7861001E+02  0.7818608E-02  0.1460015E+00
          2   -1    0    0  502    0  0.00000000000E+00  0.00000000000E+00  0.33799646782E+03  0.33799646782E+03  0.00000000000E+00 0. -1.
          1   -1    0    0  501    0 -0.00000000000E+00 -0.00000000000E+00 -0.43295596024E+03  0.43295596024E+03  0.00000000000E+00 0. -1.
         25    2    1    2    0    0 -0.15295315103E+02 -0.55755986595E+02 -0.10488573021E+03  0.17310814928E+03  0.12499095263E+03 0.  0.
          2    1    1    2  501    0  0.45306493719E+01  0.82204925790E+02 -0.28749718530E+03  0.29905318618E+03  0.00000000000E+00 0. -1.
          1    1    1    2  502    0  0.10764665731E+02 -0.26448939196E+02  0.29742342310E+03  0.29879109261E+03  0.00000000000E+00 0. -1.
         22    1    3    3    0    0  0.19195673027E+02  0.26035799626E+02  0.40346130922E+01  0.32597773358E+02  0.00000000000E+00 0.  1.
         22    1    3    3    0    0 -0.34490988130E+02 -0.81791786221E+02 -0.10892034330E+03  0.14051037592E+03  0.00000000000E+00 0.  1.
</event>
<event>
 7    1  0.6520971E-006  0.1156945E+03  0.7818608E-02  0.1350653E+00
          2   -1    0    0  502    0  0.00000000000E+00  0.00000000000E+00  0.11511652929E+04  0.11511652929E+04  0.00000000000E+00 0. -1.
          1   -1    0    0  501    0 -0.00000000000E+00 -0.00000000000E+00 -0.23100048504E+03  0.23100048504E+03  0.00000000000E+00 0. -1.
         25    2    1    2    0    0  0.10733674115E+03  0.37361942154E+02 -0.19363780085E+02  0.17004356097E+03  0.12499106338E+03 0.  0.
          2    1    1    2  501    0 -0.21366109926E+02  0.40595480009E+02 -0.12920430174E+03  0.13710672937E+03  0.00000000000E+00 0. -1.
          1    1    1    2  502    0 -0.85970631224E+02 -0.77957422163E+02  0.10687328897E+04  0.10750154876E+04  0.00000000000E+00 0. -1.
         22    1    3    3    0    0  0.10889977536E+03  0.41184060710E+02 -0.58771555033E+02  0.13042002765E+03  0.00000000000E+00 0. -1.
         22    1    3    3    0    0 -0.15630342136E+01 -0.38221185560E+01  0.39407774948E+02  0.39623533317E+02  0.00000000000E+00 0. -1.
</event>
<event>
 7    1  0.6520971E-006  0.1199468E+03  0.7818608E-02  0.1309876E+00
          2   -1    0    0  502    0  0.00000000000E+00  0.00000000000E+00  0.70846365787E+03  0.70846365787E+03  0.00000000000E+00 0. -1.
          1   -1    0    0  501    0 -0.00000000000E+00 -0.00000000000E+00 -0.14221366151E+03  0.14221366151E+03  0.00000000000E+00 0. -1.
         25    2    1    2    0    0 -0.98843385774E+02 -0.11231993719E+03  0.16070035346E+03  0.25265568752E+03  0.12499803850E+03 0.  0.
          2    1    1    2  501    0  0.10560154632E+03  0.49344661847E+02 -0.57979527265E+02  0.13018528266E+03  0.00000000000E+00 0. -1.
          1    1    1    2  502    0 -0.67581605494E+01  0.62975275346E+02  0.46352917017E+03  0.46783634920E+03  0.00000000000E+00 0. -1.
         22    1    3    3    0    0 -0.68614074871E+02 -0.10624234768E+03  0.17718455835E+03  0.21769174405E+03  0.00000000000E+00 0. -1.
         22    1    3    3    0    0 -0.30229310903E+02 -0.60775895078E+01 -0.16484204884E+02  0.34963943464E+02  0.00000000000E+00 0. -1.
</event>
<event>
 7    1  0.6520971E-006  0.1807228E+03  0.7818608E-02  0.1289668E+00
          2   -1    0    0  502    0  0.00000000000E+00  0.00000000000E+00  0.19119995605E+04  0.19119995605E+04  0.00000000000E+00 0. -1.
          1   -1    0    0  501    0 -0.00000000000E+00 -0.00000000000E+00 -0.55412564115E+03  0.55412564115E+03  0.00000000000E+00 0. -1.
         25    2    1    2    0    0  0.59274780578E+02 -0.18509137996E+03  0.60155641210E+03  0.64441233648E+03  0.12499929567E+03 0.  0.
          2    1    1    2  501    0 -0.50147516423E+02  0.71034280916E+01 -0.52531354003E+03  0.52774951202E+03  0.00000000000E+00 0. -1.
          1    1    1    2  502    0 -0.91272641552E+01  0.17798795187E+03  0.12816310473E+04  0.12939633532E+04  0.00000000000E+00 0. -1.
         22    1    3    3    0    0  0.26945825019E+02 -0.10359374317E+02  0.23808397633E+03  0.23982780053E+03  0.00000000000E+00 0. -1.
         22    1    3    3    0    0  0.32328955559E+02 -0.17473200564E+03  0.36347243577E+03  0.40458453595E+03  0.00000000000E+00 0. -1.
</event>
<event>
 7    1  0.6520971E-006  0.1300824E+03  0.7818608E-02  0.1403046E+00
          2   -1    0    0  502    0  0.00000000000E+00  0.00000000000E+00  0.13194353421E+03  0.13194353421E+03  0.00000000000E+00 0. -1.
          1   -1    0    0  501    0 -0.00000000000E+00 -0.00000000000E+00 -0.10670542196E+04  0.10670542196E+04  0.00000000000E+00 0. -1.
         25    2    1    2    0    0 -0.11784178054E+03 -0.40522708810E+02 -0.54203949002E+02  0.18464497938E+03  0.12500770037E+03 0.  0.
          2    1    1    2  501    0  0.12955674266E+03  0.16690289706E+02 -0.94028047689E+03  0.94931074499E+03  0.00000000000E+00 0. -1.
          1    1    1    2  502    0 -0.11714962112E+02  0.23832419104E+02  0.59373740479E+02  0.65042029459E+02  0.00000000000E+00 0. -1.
         22    1    3    3    0    0 -0.69506161967E+02 -0.43927125576E+02 -0.91855578060E+02  0.12328076141E+03  0.00000000000E+00 0. -1.
         22    1    3    3    0    0 -0.48335618577E+02  0.34044167663E+01  0.37651629058E+02  0.61364217973E+02  0.00000000000E+00 0. -1.
</event>
<event>
 7    1  0.6520971E-006  0.7681901E+02  0.7818608E-02  0.1370596E+00
          2   -1    0    0  502    0  0.00000000000E+00  0.00000000000E+00  0.62508362228E+03  0.62508362228E+03  0.00000000000E+00 0. -1.
          1   -1    0    0  501    0 -0.00000000000E+00 -0.00000000000E+00 -0.15070720420E+03  0.15070720420E+03  0.00000000000E+00 0. -1.
         25    2    1    2    0    0 -0.28906310547E+02  0.11793447793E+02  0.74439527771E+02  0.14879536366E+03  0.12499662696E+03 0.  0.
          2    1    1    2  501    0  0.52483336904E+02 -0.65265281618E+02 -0.96131722466E+02  0.12749653212E+03  0.00000000000E+00 0. -1.
          1    1    1    2  502    0 -0.23577026356E+02  0.53471833825E+02  0.49606861278E+03  0.49949893070E+03  0.00000000000E+00 0. -1.
         22    1    3    3    0    0  0.26983050871E+02 -0.70738505890E+01  0.84473383245E+02  0.88959973434E+02  0.00000000000E+00 0. -1.
         22    1    3    3    0    0 -0.55889361418E+02  0.18867298382E+02 -0.10033855474E+02  0.59835390227E+02  0.00000000000E+00 0. -1.
</event>
<event>
 7    1  0.6520971E-006  0.1667375E+03  0.7818608E-02  0.1377234E+00
          2   -1    0    0  502    0  0.00000000000E+00  0.00000000000E+00  0.40295120485E+03  0.40295120485E+03  0.00000000000E+00 0. -1.
          1   -1    0    0  501    0 -0.00000000000E+00 -0.00000000000E+00 -0.17952612970E+03  0.17952612970E+03  0.00000000000E+00 0. -1.
         25    2    1    2    0    0 -0.11267382765E+03  0.92666456861E+02 -0.39468353369E+02  0.19612652207E+03  0.12500159231E+03 0.  0.
          2    1    1    2  501    0 -0.15376540845E+02  0.20333110805E+02 -0.34806655677E+02  0.43143674887E+02  0.00000000000E+00 0. -1.
          1    1    1    2  502    0  0.12805036849E+03 -0.11299956767E+03  0.29770008419E+03  0.34320713759E+03  0.00000000000E+00 0. -1.
         22    1    3    3    0    0 -0.58451435727E+00  0.66011794866E+02 -0.46421018881E+02  0.80701980846E+02  0.00000000000E+00 0.  1.
         22    1    3    3    0    0 -0.11208931329E+03  0.26654661994E+02  0.69526655121E+01  0.11542454123E+03  0.00000000000E+00 0.  1.
</event>
<event>
 7    1  0.6520971E-006  0.4076353E+03  0.7818608E-02  0.1131434E+00
          2   -1    0    0  502    0  0.00000000000E+00  0.00000000000E+00  0.32502172016E+04  0.32502172016E+04  0.00000000000E+00 0. -1.
          1   -1    0    0  501    0 -0.00000000000E+00 -0.00000000000E+00 -0.58115403387E+03  0.58115403387E+03  0.00000000000E+00 0. -1.
         25    2    1    2    0    0 -0.19705001643E+03 -0.31577186616E+03  0.28464083318E+03  0.48496064709E+03  0.12500337945E+03 0.  0.
          2    1    1    2  501    0  0.11208448377E+03  0.40379601743E+03 -0.38811180027E+03  0.57117854013E+03  0.00000000000E+00 0. -1.
          1    1    1    2  502    0  0.84965532663E+02 -0.88024151266E+02  0.27725341348E+04  0.27752320482E+04  0.00000000000E+00 0. -1.
         22    1    3    3    0    0 -0.28586831080E+01 -0.55002149591E+02  0.35913594628E+01  0.55193354595E+02  0.00000000000E+00 0.  1.
         22    1    3    3    0    0 -0.19419133332E+03 -0.26076971657E+03  0.28104947372E+03  0.42976729249E+03  0.00000000000E+00 0.  1.
</event>
<event>
 7    1  0.6520971E-006  0.5629317E+02  0.7818608E-02  0.1507144E+00
          2   -1    0    0  502    0  0.00000000000E+00  0.00000000000E+00  0.16983620175E+04  0.16983620175E+04  0.00000000000E+00 0. -1.
          1   -1    0    0  501    0 -0.00000000000E+00 -0.00000000000E+00 -0.10549578789E+03  0.10549578789E+03  0.00000000000E+00 0. -1.
         25    2    1    2    0    0 -0.31044120725E+02  0.55078380514E+02  0.13175241242E+04  0.13249509788E+04  0.12501165040E+03 0.  0.
          2    1    1    2  501    0  0.46850153091E+02 -0.31207431056E+02 -0.93401451258E+02  0.10905352674E+03  0.00000000000E+00 0. -1.
          1    1    1    2  502    0 -0.15806032366E+02 -0.23870949458E+02  0.36874355658E+03  0.36985329985E+03  0.00000000000E+00 0. -1.
         22    1    3    3    0    0 -0.25911255150E+02  0.80196721348E+02  0.12481345621E+04  0.12509767354E+04  0.00000000000E+00 0.  1.
         22    1    3    3    0    0 -0.51328655753E+01 -0.25118340834E+02  0.69389562107E+02  0.73974243387E+02  0.00000000000E+00 0.  1.
</event>
<event>
 7    1  0.6520971E-006  0.1844699E+03  0.7818608E-02  0.1182000E+00
          2   -1    0    0  502    0  0.00000000000E+00  0.00000000000E+00  0.51300539113E+03  0.51300539113E+03  0.00000000000E+00 0. -1.
          1   -1    0    0  501    0 -0.00000000000E+00 -0.00000000000E+00 -0.10768455257E+04  0.10768455257E+04  0.00000000000E+00 0. -1.
         25    2    1    2    0    0  0.14752827165E+03 -0.29248222238E+03 -0.38653481210E+03  0.52186643293E+03  0.12499988604E+03 0.  0.
          2    1    1    2  501    0 -0.57924670164E+02  0.13784589142E+03 -0.59508530620E+03  0.61358233257E+03  0.00000000000E+00 0. -1.
          1    1    1    2  502    0 -0.89603601484E+02  0.15463633097E+03  0.41777998377E+03  0.45440215129E+03  0.00000000000E+00 0. -1.
         22    1    3    3    0    0  0.16658239123E+03 -0.26395899287E+03 -0.32004063241E+03  0.44704591417E+03  0.00000000000E+00 0.  1.
         22    1    3    3    0    0 -0.19054119582E+02 -0.28523229514E+02 -0.66494179686E+02  0.74820518757E+02  0.00000000000E+00 0.  1.
</event>
<event>
 7    1  0.6520971E-006  0.9105750E+02  0.7818608E-02  0.1334327E+00
          2   -1    0    0  502    0  0.00000000000E+00  0.00000000000E+00  0.18987954793E+04  0.18987954793E+04  0.00000000000E+00 0. -1.
          1   -1    0    0  501    0 -0.00000000000E+00 -0.00000000000E+00 -0.16764935633E+03  0.16764935633E+03  0.00000000000E+00 0. -1.
         25    2    1    2    0    0  0.89924158595E+02  0.51110081232E+02 -0.44850733643E+02  0.16833285222E+03  0.12500306446E+03 0.  0.
          2    1    1    2  501    0 -0.16019171695E+00 -0.67105851467E+02 -0.41124326907E+02  0.78704709046E+02  0.00000000000E+00 0. -1.
          1    1    1    2  502    0 -0.89763966878E+02  0.15995770235E+02  0.18171211835E+04  0.18194072744E+04  0.00000000000E+00 0. -1.
         22    1    3    3    0    0  0.70030285069E+02  0.89817581940E+02 -0.13486017206E+02  0.11468788738E+03  0.00000000000E+00 0.  1.
         22    1    3    3    0    0  0.19893873526E+02 -0.38707500708E+02 -0.31364716436E+02  0.53644964834E+02  0.00000000000E+00 0.  1.
</event>
<event>
 7    1  0.6520971E-006  0.7641992E+02  0.7818608E-02  0.1373004E+00
          2   -1    0    0  502    0  0.00000000000E+00  0.00000000000E+00  0.14297774999E+04  0.14297774999E+04  0.00000000000E+00 0. -1.
          1   -1    0    0  501    0 -0.00000000000E+00 -0.00000000000E+00 -0.57962361229E+03  0.57962361229E+03  0.00000000000E+00 0. -1.
         25    2    1    2    0    0  0.68304551359E+02 -0.52102334711E+02 -0.16944271376E+02  0.15262250141E+03  0.12500541822E+03 0.  0.
          2    1    1    2  501    0  0.81016494481E+01  0.57015440925E+02 -0.49208370449E+03  0.49544199403E+03  0.00000000000E+00 0. -1.
          1    1    1    2  502    0 -0.76406200807E+02 -0.49131062139E+01  0.13591818634E+04  0.13613366167E+04  0.00000000000E+00 0. -1.
         22    1    3    3    0    0 -0.27588259495E+02  0.16858590630E+02 -0.11727910780E+02  0.34392848548E+02  0.00000000000E+00 0.  1.
         22    1    3    3    0    0  0.95892810854E+02 -0.68960925341E+02 -0.52163605955E+01  0.11822965286E+03  0.00000000000E+00 0.  1.
</event>
<event>
 7    1  0.6520971E-006  0.1425639E+03  0.7818608E-02  0.1361674E+00
          2   -1    0    0  502    0  0.00000000000E+00  0.00000000000E+00  0.11648944737E+04  0.11648944737E+04  0.00000000000E+00 0. -1.
          1   -1    0    0  501    0 -0.00000000000E+00 -0.00000000000E+00 -0.33357361237E+03  0.33357361237E+03  0.00000000000E+00 0. -1.
         25    2    1    2    0    0  0.11682534684E+03 -0.11065495046E+03 -0.15265602595E+03  0.25460056116E+03  0.12499961503E+03 0.  0.
          2    1    1    2  501    0 -0.33595647382E+02 -0.46621337407E+01 -0.12310323860E+03  0.12769029081E+03  0.00000000000E+00 0. -1.
          1    1    1    2  502    0 -0.83229699462E+02  0.11531708420E+03  0.11070801259E+04  0.11161772341E+04  0.00000000000E+00 0. -1.
         22    1    3    3    0    0  0.69365513929E+02  0.11080734504E+02 -0.74289716407E+02  0.10224147477E+03  0.00000000000E+00 0. -1.
         22    1    3    3    0    0  0.47459832915E+02 -0.12173568497E+03 -0.78366309545E+02  0.15235908639E+03  0.00000000000E+00 0. -1.
</event>
<event>
 7    1  0.6520971E-006  0.1795453E+03  0.7818608E-02  0.1295381E+00
          2   -1    0    0  502    0  0.00000000000E+00  0.00000000000E+00  0.14325126740E+04  0.14325126740E+04  0.00000000000E+00 0. -1.
          1   -1    0    0  501    0 -0.00000000000E+00 -0.00000000000E+00 -0.17204432337E+04  0.17204432337E+04  0.00000000000E+00 0. -1.
         25    2    1    2    0    0 -0.20317465361E+03 -0.60104195227E+02  0.22997718663E+03  0.33675978573E+03  0.12500077104E+03 0.  0.
          2    1    1    2  501    0  0.15963688100E+03  0.81097376100E+02 -0.16617320702E+04  0.16713510079E+04  0.00000000000E+00 0. -1.
          1    1    1    2  502    0  0.43537772613E+02 -0.20993180873E+02  0.11438243240E+04  0.11448451141E+04  0.00000000000E+00 0. -1.
         22    1    3    3    0    0 -0.16349581190E+03 -0.46289256793E+02  0.23952229525E+03  0.29367414889E+03  0.00000000000E+00 0. -1.
         22    1    3    3    0    0 -0.39678841710E+02 -0.13814938434E+02 -0.95451086199E+01  0.43085636840E+02  0.00000000000E+00 0. -1.
</event>
<event>
 7    1  0.6520971E-006  0.2259805E+02  0.7818608E-02  0.1717739E+00
          2   -1    0    0  502    0  0.00000000000E+00  0.00000000000E+00  0.54978714350E+03  0.54978714350E+03  0.00000000000E+00 0. -1.
          1   -1    0    0  501    0 -0.00000000000E+00 -0.00000000000E+00 -0.54783367321E+03  0.54783367321E+03  0.00000000000E+00 0. -1.
         25    2    1    2    0    0 -0.10841991855E+01 -0.40551940961E+01 -0.10858309611E+02  0.12553994136E+03  0.12499901561E+03 0.  0.
          2    1    1    2  501    0  0.14841850148E+02 -0.13968994038E+02 -0.47915677353E+03  0.47959006134E+03  0.00000000000E+00 0. -1.
          1    1    1    2  502    0 -0.13757650963E+02  0.18024188134E+02  0.49196855343E+03  0.49249081401E+03  0.00000000000E+00 0. -1.
         22    1    3    3    0    0 -0.15764094013E+02  0.58038208632E+02 -0.13662082084E+02  0.61673274667E+02  0.00000000000E+00 0.  1.
         22    1    3    3    0    0  0.14679894828E+02 -0.62093402729E+02  0.28037724731E+01  0.63866666694E+02  0.00000000000E+00 0.  1.
</event>
<event>
 7    1  0.6520971E-006  0.7220227E+02  0.7818608E-02  0.1383931E+00
          2   -1    0    0  502    0  0.00000000000E+00  0.00000000000E+00  0.46484638395E+03  0.46484638395E+03  0.00000000000E+00 0. -1.
          1   -1    0    0  501    0 -0.00000000000E+00 -0.00000000000E+00 -0.12502391530E+04  0.12502391530E+04  0.00000000000E+00 0. -1.
         25    2    1    2    0    0  0.64426441982E+02  0.60836798419E+01 -0.15642896737E+02  0.14162175105E+03  0.12499697022E+03 0.  0.
          2    1    1    2  501    0 -0.54007270311E+02  0.48677845057E+02 -0.11685383626E+04  0.11707981135E+04  0.00000000000E+00 0. -1.
          1    1    1    2  502    0 -0.10419171671E+02 -0.54761524899E+02  0.39878849026E+03  0.40266567238E+03  0.00000000000E+00 0. -1.
         22    1    3    3    0    0  0.92998420195E+02  0.32932323654E+02  0.18841960525E+01  0.98675195945E+02  0.00000000000E+00 0. -1.
         22    1    3    3    0    0 -0.28571978213E+02 -0.26848643812E+02 -0.17527092790E+02  0.42946555103E+02  0.00000000000E+00 0. -1.
</event>
<event>
 7    1  0.6520971E-006  0.7521625E+02  0.7818608E-02  0.1356961E+00
          2   -1    0    0  502    0  0.00000000000E+00  0.00000000000E+00  0.79703291199E+03  0.79703291199E+03  0.00000000000E+00 0. -1.
          1   -1    0    0  501    0 -0.00000000000E+00 -0.00000000000E+00 -0.35913959637E+03  0.35913959637E+03  0.00000000000E+00 0. -1.
         25    2    1    2    0    0  0.13187795978E+02 -0.32184608803E+02 -0.11209283596E+03  0.17148112374E+03  0.12502481721E+03 0.  0.
          2    1    1    2  501    0 -0.79111547760E+02  0.43493249432E+02 -0.20643828872E+03  0.22531548279E+03  0.00000000000E+00 0. -1.
          1    1    1    2  502    0  0.65923751781E+02 -0.11308640629E+02  0.75642444030E+03  0.75937590183E+03  0.00000000000E+00 0. -1.
         22    1    3    3    0    0  0.61574599266E+02 -0.46123757118E+02 -0.83648114072E+02  0.11364787386E+03  0.00000000000E+00 0. -1.
         22    1    3    3    0    0 -0.48386803288E+02  0.13939148315E+02 -0.28444721892E+02  0.57833249880E+02  0.00000000000E+00 0. -1.
</event>
<event>
 7    1  0.6520971E-006  0.6784473E+02  0.7818608E-02  0.1492690E+00
          2   -1    0    0  502    0  0.00000000000E+00  0.00000000000E+00  0.41630744759E+03  0.41630744759E+03  0.00000000000E+00 0. -1.
          1   -1    0    0  501    0 -0.00000000000E+00 -0.00000000000E+00 -0.55856034875E+02  0.55856034875E+02  0.00000000000E+00 0. -1.
         25    2    1    2    0    0  0.11035871990E+02  0.78175697005E+02  0.15084930260E+03  0.21122048666E+03  0.12500140726E+03 0.  0.
          2    1    1    2  501    0  0.11576719305E+02 -0.64871985847E+02  0.19052694391E+02  0.68595919274E+02  0.00000000000E+00 0. -1.
          1    1    1    2  502    0 -0.22612591295E+02 -0.13303711158E+02  0.19054941573E+03  0.19234707654E+03  0.00000000000E+00 0. -1.
         22    1    3    3    0    0 -0.12341800649E+02  0.65311391376E+02  0.16719921727E+03  0.17992630753E+03  0.00000000000E+00 0. -1.
         22    1    3    3    0    0  0.23377672639E+02  0.12864305629E+02 -0.16349914674E+02  0.31294179126E+02  0.00000000000E+00 0. -1.
</event>
<event>
 7    1  0.6520971E-006  0.4682475E+02  0.7818608E-02  0.1525696E+00
          2   -1    0    0  502    0  0.00000000000E+00  0.00000000000E+00  0.14305602925E+04  0.14305602925E+04  0.00000000000E+00 0. -1.
          1   -1    0    0  501    0 -0.00000000000E+00 -0.00000000000E+00 -0.25081462219E+02  0.25081462219E+02  0.00000000000E+00 0. -1.
         25    2    1    2    0    0  0.26163835504E+02 -0.27563479626E+02  0.28035072694E+03  0.30929929016E+03  0.12500091639E+03 0.  0.
          2    1    1    2  501    0 -0.23075221187E+02 -0.19768277376E+02  0.12746946465E+02  0.32950497226E+02  0.00000000000E+00 0. -1.
          1    1    1    2  502    0 -0.30886143163E+01  0.47331757002E+02  0.11123811569E+04  0.11133919673E+04  0.00000000000E+00 0. -1.
         22    1    3    3    0    0  0.10949508549E+02  0.44752308737E+02  0.17259256940E+03  0.17863609905E+03  0.00000000000E+00 0.  1.
         22    1    3    3    0    0  0.15214326954E+02 -0.72315788363E+02  0.10775815755E+03  0.13066319110E+03  0.00000000000E+00 0.  1.
</event>
<event>
 7    1  0.6520971E-006  0.3925155E+03  0.7818608E-02  0.1226468E+00
          2   -1    0    0  502    0  0.00000000000E+00  0.00000000000E+00  0.20906432148E+04  0.20906432148E+04  0.00000000000E+00 0. -1.
          1   -1    0    0  501    0 -0.00000000000E+00 -0.00000000000E+00 -0.20017700050E+04  0.20017700050E+04  0.00000000000E+00 0. -1.
         25    2    1    2    0    0 -0.23419132960E+03 -0.35335943642E+03  0.20759444776E+03  0.48829246500E+03  0.12500242584E+03 0.  0.
          2    1    1    2  501    0  0.39643555484E+02  0.17904439200E+02 -0.18395880111E+04  0.18401022338E+04  0.00000000000E+00 0. -1.
          1    1    1    2  502    0  0.19454777412E+03  0.33545499722E+03  0.17208667731E+04  0.17640185210E+04  0.00000000000E+00 0. -1.
         22    1    3    3    0    0 -0.10414335112E+03 -0.26476615942E+03  0.12874723875E+03  0.31228642020E+03  0.00000000000E+00 0. -1.
         22    1    3    3    0    0 -0.13004797848E+03 -0.88593277001E+02  0.78847209015E+02  0.17600604480E+03  0.00000000000E+00 0. -1.
</event>
<event>
 7    1  0.6520971E-006  0.9196621E+02  0.7818608E-02  0.1420416E+00
          2   -1    0    0  502    0  0.00000000000E+00  0.00000000000E+00  0.27847189738E+02  0.27847189738E+02  0.00000000000E+00 0. -1.
          1   -1    0    0  501    0 -0.00000000000E+00 -0.00000000000E+00 -0.19819387627E+04  0.19819387627E+04  0.00000000000E+00 0. -1.
         25    2    1    2    0    0 -0.79658346968E+02 -0.68884006976E+01 -0.33943852914E+03  0.37045483506E+03  0.12500146978E+03 0.  0.
          2    1    1    2  501    0  0.90230441057E+02 -0.24174199357E+02 -0.16011116701E+04  0.16038343133E+04  0.00000000000E+00 0. -1.
          1    1    1    2  502    0 -0.10572094088E+02  0.31062600054E+02 -0.13541373687E+02  0.35496804038E+02  0.00000000000E+00 0. -1.
         22    1    3    3    0    0 -0.86837045315E+02 -0.45739327024E+02 -0.29546564766E+03  0.31134017959E+03  0.00000000000E+00 0. -1.
         22    1    3    3    0    0  0.71786983465E+01  0.38850926326E+02 -0.43972881478E+02  0.59114655474E+02  0.00000000000E+00 0. -1.
</event>
<event>
 7    1  0.6520971E-006  0.6698673E+02  0.7818608E-02  0.1505325E+00
          2   -1    0    0  502    0  0.00000000000E+00  0.00000000000E+00  0.77276672799E+02  0.77276672799E+02  0.00000000000E+00 0. -1.
          1   -1    0    0  501    0 -0.00000000000E+00 -0.00000000000E+00 -0.56617721822E+03  0.56617721822E+03  0.00000000000E+00 0. -1.
         25    2    1    2    0    0  0.84859205472E+02  0.25981204885E+02 -0.16166219853E+03  0.22279083367E+03  0.12499992548E+03 0.  0.
          2    1    1    2  501    0 -0.22817793434E+02 -0.85281501589E+01 -0.35109557491E+03  0.35193960244E+03  0.00000000000E+00 0. -1.
          1    1    1    2  502    0 -0.62041412038E+02 -0.17453054726E+02  0.23857228022E+02  0.68723454918E+02  0.00000000000E+00 0. -1.
         22    1    3    3    0    0  0.85614895079E+02 -0.34866510246E+02 -0.96529372474E+02  0.13365441836E+03  0.00000000000E+00 0. -1.
         22    1    3    3    0    0 -0.75568960787E+00  0.60847715131E+02 -0.65132826061E+02  0.89136415309E+02  0.00000000000E+00 0. -1.
</event>
<event>
 7    1  0.6520971E-006  0.1347841E+03  0.7818608E-02  0.1312175E+00
          2   -1    0    0  502    0  0.00000000000E+00  0.00000000000E+00  0.39994238444E+03  0.39994238444E+03  0.00000000000E+00 0. -1.
          1   -1    0    0  501    0 -0.00000000000E+00 -0.00000000000E+00 -0.15791289591E+04  0.15791289591E+04  0.00000000000E+00 0. -1.
         25    2    1    2    0    0  0.12440476157E+03 -0.12287529464E+03 -0.68704676522E+02  0.22565558454E+03  0.12500091010E+03 0.  0.
          2    1    1    2  501    0 -0.53906219099E+02  0.11893837157E+02 -0.14179454678E+04  0.14190196241E+04  0.00000000000E+00 0. -1.
          1    1    1    2  502    0 -0.70498542471E+02  0.11098145749E+03  0.30746356965E+03  0.33439613493E+03  0.00000000000E+00 0. -1.
         22    1    3    3    0    0  0.19070736609E+02 -0.18985620194E+02  0.35607668242E+02  0.44632418785E+02  0.00000000000E+00 0.  1.
         22    1    3    3    0    0  0.10533402496E+03 -0.10388967445E+03 -0.10431234476E+03  0.18102316576E+03  0.00000000000E+00 0.  1.
</event>
<event>
 7    1  0.6520971E-006  0.7335809E+02  0.7818608E-02  0.1381982E+00
          2   -1    0    0  502    0  0.00000000000E+00  0.00000000000E+00  0.19008096574E+02  0.19008096574E+02  0.00000000000E+00 0. -1.
          1   -1    0    0  501    0 -0.00000000000E+00 -0.00000000000E+00 -0.20757790659E+04  0.20757790659E+04  0.00000000000E+00 0. -1.
         25    2    1    2    0    0  0.49141086186E+01  0.10384797372E+02 -0.43301558856E+03  0.45084073941E+03  0.12499151931E+03 0.  0.
          2    1    1    2  501    0 -0.67249032188E+02  0.29308303467E+02 -0.14843775482E+04  0.14861891248E+04  0.00000000000E+00 0. -1.
          1    1    1    2  502    0  0.62334923569E+02 -0.39693100839E+02 -0.13937783249E+03  0.15775729822E+03  0.00000000000E+00 0. -1.
         22    1    3    3    0    0 -0.51687658059E+02 -0.22748515427E+02 -0.25364265010E+03  0.25985323339E+03  0.00000000000E+00 0.  1.
         22    1    3    3    0    0  0.56601766678E+02  0.33133312799E+02 -0.17937293845E+03  0.19098750602E+03  0.00000000000E+00 0.  1.
</event>
<event>
 7    1  0.6520971E-006  0.7820455E+02  0.7818608E-02  0.1360807E+00
          2   -1    0    0  502    0  0.00000000000E+00  0.00000000000E+00  0.10801760566E+04  0.10801760566E+04  0.00000000000E+00 0. -1.
          1   -1    0    0  501    0 -0.00000000000E+00 -0.00000000000E+00 -0.87458515040E+02  0.87458515040E+02  0.00000000000E+00 0. -1.
         25    2    1    2    0    0  0.69514176570E+02  0.11005102065E+03  0.42484064779E+03  0.46158413563E+03  0.12500756121E+03 0.  0.
          2    1    1    2  501    0 -0.46786698243E+02 -0.41110098917E+02 -0.52490104202E+02  0.81450883388E+02  0.00000000000E+00 0. -1.
          1    1    1    2  502    0 -0.22727478327E+02 -0.68940921737E+02  0.62036699797E+03  0.62459955261E+03  0.00000000000E+00 0. -1.
         22    1    3    3    0    0  0.28758241369E+02 -0.24513414830E+02  0.12154255807E+03  0.12728133161E+03  0.00000000000E+00 0. -1.
         22    1    3    3    0    0  0.40755935202E+02  0.13456443548E+03  0.30329808972E+03  0.33430280402E+03  0.00000000000E+00 0. -1.
</event>
<event>
 7    1  0.6520971E-006  0.7194932E+02  0.7818608E-02  0.1354739E+00
          2   -1    0    0  502    0  0.00000000000E+00  0.00000000000E+00  0.21044609323E+04  0.21044609323E+04  0.00000000000E+00 0. -1.
          1   -1    0    0  501    0 -0.00000000000E+00 -0.00000000000E+00 -0.35413633175E+03  0.35413633175E+03  0.00000000000E+00 0. -1.
         25    2    1    2    0    0 -0.34464360932E+02  0.58852438801E+02  0.81424314301E+02  0.16403115023E+03  0.12499959024E+03 0.  0.
          2    1    1    2  501    0  0.73253148970E+02  0.91364995504E+00 -0.30789336822E+03  0.31648883833E+03  0.00000000000E+00 0. -1.
          1    1    1    2  502    0 -0.38788788037E+02 -0.59766088756E+02  0.19767936544E+04  0.19780772755E+04  0.00000000000E+00 0. -1.
         22    1    3    3    0    0 -0.17848768480E+02  0.31988199656E+02 -0.30542825585E+02  0.47693685622E+02  0.00000000000E+00 0. -1.
         22    1    3    3    0    0 -0.16615592452E+02  0.26864239145E+02  0.11196713989E+03  0.11633746461E+03  0.00000000000E+00 0. -1.
</event>
<event>
 7    1  0.6520971E-006  0.7629743E+02  0.7818608E-02  0.1351570E+00
          2   -1    0    0  502    0  0.00000000000E+00  0.00000000000E+00  0.94052749876E+03  0.94052749876E+03  0.00000000000E+00 0. -1.
          1   -1    0    0  501    0 -0.00000000000E+00 -0.00000000000E+00 -0.19888480787E+03  0.19888480787E+03  0.00000000000E+00 0. -1.
         25    2    1    2    0    0 -0.90964057211E+02  0.11086512580E+03  0.37219032177E+03  0.41799076525E+03  0.12500043359E+03 0.  0.
          2    1    1    2  501    0  0.52220576479E+02 -0.53742763160E+02 -0.16568949310E+03  0.18184686228E+03  0.00000000000E+00 0. -1.
          1    1    1    2  502    0  0.38743480732E+02 -0.57122362639E+02  0.53514186223E+03  0.53957467909E+03  0.00000000000E+00 0. -1.
         22    1    3    3    0    0 -0.26498435536E+02 -0.25802627860E+02  0.10074786102E+03  0.10732229121E+03  0.00000000000E+00 0.  1.
         22    1    3    3    0    0 -0.64465621675E+02  0.13666775366E+03  0.27144246075E+03  0.31066847404E+03  0.00000000000E+00 0.  1.
</event>
<event>
 7    1  0.6520971E-006  0.1214573E+03  0.7818608E-02  0.1341998E+00
          2   -1    0    0  502    0  0.00000000000E+00  0.00000000000E+00  0.10084419485E+03  0.10084419485E+03  0.00000000000E+00 0. -1.
          1   -1    0    0  501    0 -0.00000000000E+00 -0.00000000000E+00 -0.16963640107E+04  0.16963640107E+04  0.00000000000E+00 0. -1.
         25    2    1    2    0    0  0.86597099839E+02  0.15243616137E+02 -0.23052092216E+02  0.15455098661E+03  0.12499273169E+03 0.  0.
          2    1    1    2  501    0 -0.10895781165E+03 -0.56659285054E+02 -0.15882683745E+04  0.15930092620E+04  0.00000000000E+00 0. -1.
          1    1    1    2  502    0  0.22360711806E+02  0.41415668917E+02  0.15800650847E+02  0.49647956972E+02  0.00000000000E+00 0. -1.
         22    1    3    3    0    0  0.73474610599E+02  0.65649191483E+02 -0.27440939349E+02  0.10228069171E+03  0.00000000000E+00 0. -1.
         22    1    3    3    0    0  0.13122489240E+02 -0.50405575346E+02  0.43888471332E+01  0.52270294901E+02  0.00000000000E+00 0. -1.
</event>
<event>
 7    1  0.6520971E-006  0.1168374E+03  0.7818608E-02  0.1291515E+00
          2   -1    0    0  502    0  0.00000000000E+00  0.00000000000E+00  0.13980119222E+04  0.13980119222E+04  0.00000000000E+00 0. -1.
          1   -1    0    0  501    0 -0.00000000000E+00 -0.00000000000E+00 -0.94986673568E+03  0.94986673568E+03  0.00000000000E+00 0. -1.
         25    2    1    2    0    0 -0.47850825878E+02  0.10253715969E+02  0.13850133498E+03  0.19284850993E+03  0.12495234195E+03 0.  0.
          2    1    1    2  501    0  0.11549511670E+03  0.26532596982E+02 -0.91767672203E+03  0.92529652915E+03  0.00000000000E+00 0. -1.
          1    1    1    2  502    0 -0.67644290823E+02 -0.36786312951E+02  0.12273205736E+04  0.12297336188E+04  0.00000000000E+00 0. -1.
         22    1    3    3    0    0  0.17707454756E+02 -0.23830130429E+02  0.10953050391E+03  0.11348286372E+03  0.00000000000E+00 0.  1.
         22    1    3    3    0    0 -0.65558280634E+02  0.34083846399E+02  0.28970831072E+02  0.79365646208E+02  0.00000000000E+00 0.  1.
</event>
<event>
 7    1  0.6520971E-006  0.1089084E+03  0.7818608E-02  0.1317709E+00
          2   -1    0    0  502    0  0.00000000000E+00  0.00000000000E+00  0.10838980994E+04  0.10838980994E+04  0.00000000000E+00 0. -1.
          1   -1    0    0  501    0 -0.00000000000E+00 -0.00000000000E+00 -0.56979236532E+03  0.56979236532E+03  0.00000000000E+00 0. -1.
         25    2    1    2    0    0  0.20302735225E+02  0.88363927542E+02 -0.99179496287E+02  0.18352609499E+03  0.12499948124E+03 0.  0.
          2    1    1    2  501    0  0.62781054624E+02 -0.16828727175E+02 -0.42306609526E+03  0.42802989129E+03  0.00000000000E+00 0. -1.
          1    1    1    2  502    0 -0.83083789849E+02 -0.71535200367E+02  0.10363513256E+04  0.10421344784E+04  0.00000000000E+00 0. -1.
         22    1    3    3    0    0  0.53315998101E+02  0.10430945574E+03 -0.68372786908E+02  0.13563884473E+03  0.00000000000E+00 0. -1.
         22    1    3    3    0    0 -0.33013262876E+02 -0.15945528196E+02 -0.30806709379E+02  0.47887250265E+02  0.00000000000E+00 0. -1.
</event>
<event>
 7    1  0.6520971E-006  0.1163210E+03  0.7818608E-02  0.1412015E+00
          2   -1    0    0  502    0  0.00000000000E+00  0.00000000000E+00  0.59755298827E+03  0.59755298827E+03  0.00000000000E+00 0. -1.
          1   -1    0    0  501    0 -0.00000000000E+00 -0.00000000000E+00 -0.13866589802E+04  0.13866589802E+04  0.00000000000E+00 0. -1.
         25    2    1    2    0    0  0.10137905456E+03 -0.90188864581E+02 -0.72592014940E+03  0.74899740935E+03  0.12500124765E+03 0.  0.
          2    1    1    2  501    0 -0.35928838731E+01  0.27449305603E+02 -0.64314095205E+03  0.64373648133E+03  0.00000000000E+00 0. -1.
          1    1    1    2  502    0 -0.97786170687E+02  0.62739558979E+02  0.57995510952E+03  0.59147807778E+03  0.00000000000E+00 0. -1.
         22    1    3    3    0    0  0.21704499182E+02 -0.82121235965E+02 -0.20412436255E+03  0.22109214836E+03  0.00000000000E+00 0. -1.
         22    1    3    3    0    0  0.79674555378E+02 -0.80676286168E+01 -0.52179578685E+03  0.52790526099E+03  0.00000000000E+00 0. -1.
</event>
<event>
 7    1  0.6520971E-006  0.4153078E+02  0.7818608E-02  0.1531824E+00
          2   -1    0    0  502    0  0.00000000000E+00  0.00000000000E+00  0.83663511882E+02  0.83663511882E+02  0.00000000000E+00 0. -1.
          1   -1    0    0  501    0 -0.00000000000E+00 -0.00000000000E+00 -0.41367696697E+03  0.41367696697E+03  0.00000000000E+00 0. -1.
         25    2    1    2    0    0  0.82751851372E+01  0.70941344163E+02 -0.18654695917E+03  0.23563809150E+03  0.12499755675E+03 0.  0.
          2    1    1    2  501    0 -0.93974916550E+01 -0.38061826022E+02 -0.19590988373E+03  0.19979413903E+03  0.00000000000E+00 0. -1.
          1    1    1    2  502    0  0.11223065178E+01 -0.32879518141E+02  0.52443387805E+02  0.61908248316E+02  0.00000000000E+00 0. -1.
         22    1    3    3    0    0  0.65367077726E+02  0.30139045807E+02 -0.11305004832E+03  0.13402063408E+03  0.00000000000E+00 0.  1.
         22    1    3    3    0    0 -0.57091892589E+02  0.40802298356E+02 -0.73496910846E+02  0.10161745743E+03  0.00000000000E+00 0.  1.
</event>
<event>
 7    1  0.6520971E-006  0.8132529E+02  0.7818608E-02  0.1447554E+00
          2   -1    0    0  502    0  0.00000000000E+00  0.00000000000E+00  0.17175099860E+04  0.17175099860E+04  0.00000000000E+00 0. -1.
          1   -1    0    0  501    0 -0.00000000000E+00 -0.00000000000E+00 -0.27243373380E+02  0.27243373380E+02  0.00000000000E+00 0. -1.
         25    2    1    2    0    0  0.20182776382E+02 -0.53991316535E+02  0.83853617863E+03  0.84975959145E+03  0.12500413454E+03 0.  0.
          2    1    1    2  501    0 -0.45731979848E+02  0.70170683155E+02  0.60832260772E+02  0.10351764442E+03  0.00000000000E+00 0. -1.
          1    1    1    2  502    0  0.25549203466E+02 -0.16179366620E+02  0.79089817325E+03  0.79147612355E+03  0.00000000000E+00 0. -1.
         22    1    3    3    0    0 -0.56952471277E+01  0.87094397875E+01  0.63756686724E+03  0.63765178616E+03  0.00000000000E+00 0. -1.
         22    1    3    3    0    0  0.25878023509E+02 -0.62700756322E+02  0.20096931139E+03  0.21210780529E+03  0.00000000000E+00 0. -1.
</event>
<event>
 7    1  0.6520971E-006  0.1038457E+03  0.7818608E-02  0.1452659E+00
          2   -1    0    0  502    0  0.00000000000E+00  0.00000000000E+00  0.20897575328E+03  0.20897575328E+03  0.00000000000E+00 0. -1.
          1   -1    0    0  501    0 -0.00000000000E+00 -0.00000000000E+00 -0.87139135451E+03  0.87139135451E+03  0.00000000000E+00 0. -1.
         25    2    1    2    0    0  0.95978536669E+01  0.84239199150E+02  0.12360862794E+02  0.15154611115E+03  0.12500028563E+03 0.  0.
          2    1    1    2  501    0 -0.24085315325E+02 -0.10185634625E+03 -0.79732627234E+03  0.80416665079E+03  0.00000000000E+00 0. -1.
          1    1    1    2  502    0  0.14487461658E+02  0.17617147100E+02  0.12254980832E+03  0.12465434584E+03  0.00000000000E+00 0. -1.
         22    1    3    3    0    0 -0.45225944450E+02  0.84858951801E+02  0.58952198386E+01  0.96338888145E+02  0.00000000000E+00 0.  1.
         22    1    3    3    0    0  0.54823798116E+02 -0.61975265098E+00  0.64656429555E+01  0.55207223007E+02  0.00000000000E+00 0.  1.
</event>
<event>
 7    1  0.6520971E-006  0.6688012E+02  0.7818608E-02  0.1437843E+00
          2   -1    0    0  502    0  0.00000000000E+00  0.00000000000E+00  0.10341437241E+04  0.10341437241E+04  0.00000000000E+00 0. -1.
          1   -1    0    0  501    0 -0.00000000000E+00 -0.00000000000E+00 -0.13067592085E+04  0.13067592085E+04  0.00000000000E+00 0. -1.
         25    2    1    2    0    0 -0.88445053410E+02  0.14013853223E+02 -0.40979360707E+03  0.43769270955E+03  0.12500076814E+03 0.  0.
          2    1    1    2  501    0  0.55150716899E+02 -0.35322886972E+02 -0.88141776062E+03  0.88384759809E+03  0.00000000000E+00 0. -1.
          1    1    1    2  502    0  0.33294336511E+02  0.21309033750E+02  0.10185958832E+04  0.10193626249E+04  0.00000000000E+00 0. -1.
         22    1    3    3    0    0 -0.10238967818E+03  0.14378968468E+02 -0.18081332461E+03  0.20828792401E+03  0.00000000000E+00 0. -1.
         22    1    3    3    0    0  0.13944624771E+02 -0.36511524521E+00 -0.22898028247E+03  0.22940478554E+03  0.00000000000E+00 0. -1.
</event>
<event>
 7    1  0.6520971E-006  0.1420561E+03  0.7818608E-02  0.1422830E+00
          2   -1    0    0  502    0  0.00000000000E+00  0.00000000000E+00  0.62361204995E+02  0.62361204995E+02  0.00000000000E+00 0. -1.
          1   -1    0    0  501    0 -0.00000000000E+00 -0.00000000000E+00 -0.87123165060E+03  0.87123165060E+03  0.00000000000E+00 0. -1.
         25    2    1    2    0    0  0.70883431271E+02 -0.13708044525E+03 -0.29787518264E+03  0.35800889611E+03  0.12500094385E+03 0.  0.
          2    1    1    2  501    0 -0.51881676329E+02  0.12849132607E+03 -0.52972822665E+03  0.54755248454E+03  0.00000000000E+00 0. -1.
          1    1    1    2  502    0 -0.19001754942E+02  0.85891191835E+01  0.18732963685E+02  0.28031474947E+02  0.00000000000E+00 0. -1.
         22    1    3    3    0    0  0.13038406999E+02 -0.13740786486E+03 -0.23528315624E+03  0.27278028703E+03  0.00000000000E+00 0. -1.
         22    1    3    3    0    0  0.57845024272E+02  0.32741961334E+00 -0.62592026403E+02  0.85228609081E+02  0.00000000000E+00 0. -1.
</event>
<event>
 7    1  0.1841871E-005  0.1022943E+03  0.7818608E-02  0.1344071E+00
          2   -1    0    0  502    0  0.00000000000E+00  0.00000000000E+00  0.17157646287E+04  0.17157646287E+04  0.00000000000E+00 0. -1.
          1   -1    0    0  501    0 -0.00000000000E+00 -0.00000000000E+00 -0.83358919010E+03  0.83358919010E+03  0.00000000000E+00 0. -1.
         25    2    1    2    0    0  0.47585574723E+02 -0.33224194586E+01 -0.27238174053E+03  0.30346540112E+03  0.12499604676E+03 0.  0.
          2    1    1    2  501    0  0.54655350271E+02 -0.51091516631E+01 -0.54273237392E+03  0.54550136613E+03  0.00000000000E+00 0. -1.
          1    1    1    2  502    0 -0.10224092499E+03  0.84315711217E+01  0.16972895531E+04  0.17003870516E+04  0.00000000000E+00 0. -1.
         22    1    3    3    0    0  0.56792041222E+02  0.30162244331E+02 -0.58980714568E+02  0.87257215290E+02  0.00000000000E+00 0.  1.
         22    1    3    3    0    0 -0.92064664986E+01 -0.33484663790E+02 -0.21340102597E+03  0.21620818583E+03  0.00000000000E+00 0.  1.
</event>
<event>
 7    1  0.6520971E-006  0.5636170E+02  0.7818608E-02  0.1456974E+00
          2   -1    0    0  502    0  0.00000000000E+00  0.00000000000E+00  0.25069966565E+04  0.25069966565E+04  0.00000000000E+00 0. -1.
          1   -1    0    0  501    0 -0.00000000000E+00 -0.00000000000E+00 -0.55620008845E+02  0.55620008845E+02  0.00000000000E+00 0. -1.
         25    2    1    2    0    0  0.70960921057E+02  0.53529316559E+02  0.96702612378E+03  0.97911457444E+03  0.12499994299E+03 0.  0.
          2    1    1    2  501    0 -0.30827854198E+02 -0.46646555429E+02 -0.33450379632E+02  0.65155089022E+02  0.00000000000E+00 0. -1.
          1    1    1    2  502    0 -0.40133066859E+02 -0.68827611296E+01  0.15178009035E+04  0.15183470019E+04  0.00000000000E+00 0. -1.
         22    1    3    3    0    0 -0.24015647597E+02  0.10935353006E+02  0.49702797310E+03  0.49772797723E+03  0.00000000000E+00 0. -1.
         22    1    3    3    0    0  0.94976568653E+02  0.42593963553E+02  0.46999815069E+03  0.48138659721E+03  0.00000000000E+00 0. -1.
</event>
<event>
 7    1  0.6520971E-006  0.7598757E+02  0.7818608E-02  0.1454612E+00
          2   -1    0    0  502    0  0.00000000000E+00  0.00000000000E+00  0.14246732692E+04  0.14246732692E+04  0.00000000000E+00 0. -1.
          1   -1    0    0  501    0 -0.00000000000E+00 -0.00000000000E+00 -0.47038714182E+03  0.47038714182E+03  0.00000000000E+00 0. -1.
         25    2    1    2    0    0 -0.86544988184E+02  0.13065162456E+02  0.22412851646E+03  0.27114344383E+03  0.12499776713E+03 0.  0.
          2    1    1    2  501    0  0.74378174270E+02  0.15151496807E+02 -0.44345384364E+03  0.44990331417E+03  0.00000000000E+00 0. -1.
          1    1    1    2  502    0  0.12166813914E+02 -0.28216659263E+02  0.11736114546E+04  0.11740136530E+04  0.00000000000E+00 0. -1.
         22    1    3    3    0    0  0.59649796234E+01  0.45867497758E+02  0.34794945033E+02  0.57880018421E+02  0.00000000000E+00 0. -1.
         22    1    3    3    0    0 -0.92509967807E+02 -0.32802335302E+02  0.18933357143E+03  0.21326342541E+03  0.00000000000E+00 0. -1.
</event>
<event>
 7    1  0.6520971E-006  0.1578909E+03  0.7818608E-02  0.1329300E+00
          2   -1    0    0  502    0  0.00000000000E+00  0.00000000000E+00  0.35898409851E+03  0.35898409851E+03  0.00000000000E+00 0. -1.
          1   -1    0    0  501    0 -0.00000000000E+00 -0.00000000000E+00 -0.13740766942E+04  0.13740766942E+04  0.00000000000E+00 0. -1.
         25    2    1    2    0    0 -0.67687239143E+02 -0.13735347772E+03 -0.71733894841E+03  0.74407350753E+03  0.12499070972E+03 0.  0.
          2    1    1    2  501    0  0.10609835939E+03  0.12468656264E+03 -0.63171523764E+03  0.65258542907E+03  0.00000000000E+00 0. -1.
          1    1    1    2  502    0 -0.38411120251E+02  0.12666915074E+02  0.33396159040E+03  0.33640185606E+03  0.00000000000E+00 0. -1.
         22    1    3    3    0    0 -0.60268659610E+02 -0.87338369146E+02 -0.22089153429E+03  0.24505789516E+03  0.00000000000E+00 0. -1.
         22    1    3    3    0    0 -0.74185795334E+01 -0.50015108572E+02 -0.49644741412E+03  0.49901561238E+03  0.00000000000E+00 0. -1.
</event>
<event>
 7    1  0.6520971E-006  0.6295136E+02  0.7818608E-02  0.1412409E+00
          2   -1    0    0  502    0  0.00000000000E+00  0.00000000000E+00  0.25544462903E+04  0.25544462903E+04  0.00000000000E+00 0. -1.
          1   -1    0    0  501    0 -0.00000000000E+00 -0.00000000000E+00 -0.20891185280E+03  0.20891185280E+03  0.00000000000E+00 0. -1.
         25    2    1    2    0    0 -0.17505519251E+02 -0.85268780353E+02  0.26753794897E+02  0.15466102161E+03  0.12500823156E+03 0.  0.
          2    1    1    2  501    0 -0.24957013556E+02  0.57026415313E+02 -0.13799867586E+03  0.15138856994E+03  0.00000000000E+00 0. -1.
          1    1    1    2  502    0  0.42462532807E+02  0.28242365039E+02  0.24567793184E+04  0.24573085515E+04  0.00000000000E+00 0. -1.
         22    1    3    3    0    0 -0.60646353768E+02 -0.50231665733E+01  0.54586968099E+01  0.61098361669E+02  0.00000000000E+00 0. -1.
         22    1    3    3    0    0  0.43140834517E+02 -0.80245613779E+02  0.21295098087E+02  0.93562659946E+02  0.00000000000E+00 0. -1.
</event>
<event>
 7    1  0.6520971E-006  0.4728332E+02  0.7818608E-02  0.1506562E+00
          2   -1    0    0  502    0  0.00000000000E+00  0.00000000000E+00  0.34291163451E+03  0.34291163451E+03  0.00000000000E+00 0. -1.
          1   -1    0    0  501    0 -0.00000000000E+00 -0.00000000000E+00 -0.25942267348E+03  0.25942267348E+03  0.00000000000E+00 0. -1.
         25    2    1    2    0    0 -0.16533910904E+02 -0.12404721266E+02 -0.25528046526E+02  0.12924302777E+03  0.12499932699E+03 0.  0.
          2    1    1    2  501    0 -0.31539746843E+02  0.13276816914E+02 -0.17841416873E+03  0.18166630150E+03  0.00000000000E+00 0. -1.
          1    1    1    2  502    0  0.48073657747E+02 -0.87209564867E+00  0.28743117629E+03  0.29142497872E+03  0.00000000000E+00 0. -1.
         22    1    3    3    0    0 -0.42713777174E+02 -0.58397497844E+02 -0.51540112619E+01  0.72534807831E+02  0.00000000000E+00 0.  1.
         22    1    3    3    0    0  0.26179866271E+02  0.45992776579E+02 -0.20374035264E+02  0.56708219936E+02  0.00000000000E+00 0.  1.
</event>
<event>
 7    1  0.6520971E-006  0.6546977E+02  0.7818608E-02  0.1457550E+00
          2   -1    0    0  502    0  0.00000000000E+00  0.00000000000E+00  0.11733190607E+04  0.11733190607E+04  0.00000000000E+00 0. -1.
          1   -1    0    0  501    0 -0.00000000000E+00 -0.00000000000E+00 -0.44749893821E+02  0.44749893821E+02  0.00000000000E+00 0. -1.
         25    2    1    2    0    0 -0.12308682889E+02 -0.62807852048E+02  0.99215789957E+03  0.10020472014E+04  0.12499986522E+03 0.  0.
          2    1    1    2  501    0 -0.34305391033E+02  0.64549818397E+01 -0.22195340074E+02  0.41366166917E+02  0.00000000000E+00 0. -1.
          1    1    1    2  502    0  0.46614073922E+02  0.56352870208E+02  0.15860660737E+03  0.17465558614E+03  0.00000000000E+00 0. -1.
         22    1    3    3    0    0  0.11291564958E+02 -0.96393755979E+02  0.60726252644E+03  0.61496913064E+03  0.00000000000E+00 0. -1.
         22    1    3    3    0    0 -0.23600247847E+02  0.33585903931E+02  0.38489537313E+03  0.38707807080E+03  0.00000000000E+00 0. -1.
</event>
<event>
 7    1  0.6520971E-006  0.3909681E+02  0.7818608E-02  0.1554636E+00
          2   -1    0    0  502    0  0.00000000000E+00  0.00000000000E+00  0.49639013890E+03  0.49639013890E+03  0.00000000000E+00 0. -1.
          1   -1    0    0  501    0 -0.00000000000E+00 -0.00000000000E+00 -0.14304799548E+04  0.14304799548E+04  0.00000000000E+00 0. -1.
         25    2    1    2    0    0  0.56159152458E+02  0.31092425762E+02 -0.22987944437E+03  0.26942698851E+03  0.12500301537E+03 0.  0.
          2    1    1    2  501    0 -0.17710948946E+02 -0.24391842082E+02 -0.11798349661E+04  0.11802199739E+04  0.00000000000E+00 0. -1.
          1    1    1    2  502    0 -0.38448203512E+02 -0.67005836797E+01  0.47562459450E+03  0.47722313132E+03  0.00000000000E+00 0. -1.
         22    1    3    3    0    0  0.60264277944E+02  0.51752092515E+01 -0.23502788875E+03  0.24268637060E+03  0.00000000000E+00 0.  1.
         22    1    3    3    0    0 -0.41051254865E+01  0.25917216510E+02  0.51484443746E+01  0.26740617913E+02  0.00000000000E+00 0.  1.
</event>
<event>
 7    1  0.6520971E-006  0.1524435E+03  0.7818608E-02  0.1294649E+00
          2   -1    0    0  502    0  0.00000000000E+00  0.00000000000E+00  0.30529380384E+04  0.30529380384E+04  0.00000000000E+00 0. -1.
          1   -1    0    0  501    0 -0.00000000000E+00 -0.00000000000E+00 -0.20943731955E+04  0.20943731955E+04  0.00000000000E+00 0. -1.
         25    2    1    2    0    0 -0.38692181961E+02  0.87569385868E+02 -0.14750551325E+03  0.21575137830E+03  0.12500119405E+03 0.  0.
          2    1    1    2  501    0 -0.23895637868E+02  0.52097532975E+02 -0.19103748197E+04  0.19112344457E+04  0.00000000000E+00 0. -1.
          1    1    1    2  502    0  0.62587819829E+02 -0.13966691884E+03  0.30164451758E+04  0.30203254099E+04  0.00000000000E+00 0. -1.
         22    1    3    3    0    0 -0.52062904237E+02  0.80308548840E+02 -0.34515379929E+02  0.10174143928E+03  0.00000000000E+00 0.  1.
         22    1    3    3    0    0  0.13370722276E+02  0.72608370281E+01 -0.11299013332E+03  0.11400993903E+03  0.00000000000E+00 0.  1.
</event>
<event>
 7    1  0.6520971E-006  0.1066908E+03  0.7818608E-02  0.1329916E+00
          2   -1    0    0  502    0  0.00000000000E+00  0.00000000000E+00  0.22579375353E+04  0.22579375353E+04  0.00000000000E+00 0. -1.
          1   -1    0    0  501    0 -0.00000000000E+00 -0.00000000000E+00 -0.27674977244E+04  0.27674977244E+04  0.00000000000E+00 0. -1.
         25    2    1    2    0    0  0.35660697487E+02 -0.80053482153E+02  0.96123417940E+03  0.97328069568E+03  0.12499567831E+03 0.  0.
          2    1    1    2  501    0  0.18326062654E+02  0.10514180426E+03 -0.27597559916E+04  0.27618189254E+04  0.00000000000E+00 0. -1.
          1    1    1    2  502    0 -0.53986760141E+02 -0.25088322105E+02  0.12889616232E+04  0.12903356386E+04  0.00000000000E+00 0. -1.
         22    1    3    3    0    0 -0.12073832836E+01 -0.73697111737E+02  0.23968061486E+03  0.25075788959E+03  0.00000000000E+00 0.  1.
         22    1    3    3    0    0  0.36868080771E+02 -0.63563704162E+01  0.72155356454E+03  0.72252280609E+03  0.00000000000E+00 0.  1.
</event>
<event>
 7    1  0.6520971E-006  0.8241736E+02  0.7818608E-02  0.1492180E+00
          2   -1    0    0  502    0  0.00000000000E+00  0.00000000000E+00  0.48040237059E+03  0.48040237059E+03  0.00000000000E+00 0. -1.
          1   -1    0    0  501    0 -0.00000000000E+00 -0.00000000000E+00 -0.86240648044E+03  0.86240648044E+03  0.00000000000E+00 0. -1.
         25    2    1    2    0    0 -0.86427869822E+02 -0.80200442781E+01 -0.50922212274E+02  0.16047336939E+03  0.12499813114E+03 0.  0.
          2    1    1    2  501    0  0.81306303956E+02 -0.13039696073E+02 -0.75419028410E+03  0.75867234915E+03  0.00000000000E+00 0. -1.
          1    1    1    2  502    0  0.51215658665E+01  0.21059740351E+02  0.42310838652E+03  0.42366313250E+03  0.00000000000E+00 0. -1.
         22    1    3    3    0    0 -0.66578083431E+02 -0.17721486047E+02 -0.91340572814E+02  0.11441063108E+03  0.00000000000E+00 0. -1.
         22    1    3    3    0    0 -0.19849786391E+02  0.97014417692E+01  0.40418360540E+02  0.46062738313E+02  0.00000000000E+00 0. -1.
</event>
<event>
 7    1  0.6520971E-006  0.1603527E+03  0.7818608E-02  0.1201903E+00
          2   -1    0    0  502    0  0.00000000000E+00  0.00000000000E+00  0.12689789097E+04  0.12689789097E+04  0.00000000000E+00 0. -1.
          1   -1    0    0  501    0 -0.00000000000E+00 -0.00000000000E+00 -0.35563679426E+03  0.35563679426E+03  0.00000000000E+00 0. -1.
         25    2    1    2    0    0 -0.29850861385E+02  0.10800424925E+03  0.78798326039E+02  0.18544522123E+03  0.12499904843E+03 0.  0.
          2    1    1    2  501    0  0.13546031602E+03  0.27166813136E+02 -0.27961471772E+03  0.31188447111E+03  0.00000000000E+00 0. -1.
          1    1    1    2  502    0 -0.10560945464E+03 -0.13517106239E+03  0.11141585071E+04  0.11272860116E+04  0.00000000000E+00 0. -1.
         22    1    3    3    0    0 -0.23398062335E+02 -0.24257512031E+02  0.27270011537E+02  0.43353774232E+02  0.00000000000E+00 0. -1.
         22    1    3    3    0    0 -0.64527990499E+01  0.13226176128E+03  0.51528314502E+02  0.14209144699E+03  0.00000000000E+00 0. -1.
</event>
<event>
 7    1  0.6520971E-006  0.1566031E+03  0.7818608E-02  0.1305015E+00
          2   -1    0    0  502    0  0.00000000000E+00  0.00000000000E+00  0.13856976172E+04  0.13856976172E+04  0.00000000000E+00 0. -1.
          1   -1    0    0  501    0 -0.00000000000E+00 -0.00000000000E+00 -0.18821146316E+04  0.18821146316E+04  0.00000000000E+00 0. -1.
         25    2    1    2    0    0 -0.84194824306E+02  0.16341559211E+03 -0.39958359972E+03  0.45725058096E+03  0.12497046227E+03 0.  0.
          2    1    1    2  501    0  0.35502314057E+02 -0.14926155811E+03 -0.14491728432E+04  0.14572718884E+04  0.00000000000E+00 0. -1.
          1    1    1    2  502    0  0.48692510249E+02 -0.14154033997E+02  0.13523394285E+04  0.13532897794E+04  0.00000000000E+00 0. -1.
         22    1    3    3    0    0 -0.19901220219E+02 -0.12713123950E+02 -0.10825579331E+03  0.11080161945E+03  0.00000000000E+00 0. -1.
         22    1    3    3    0    0 -0.64293604087E+02  0.17612871606E+03 -0.29132780641E+03  0.34644896151E+03  0.00000000000E+00 0. -1.
</event>
<event>
 7    1  0.6520971E-006  0.5462799E+02  0.7818608E-02  0.1435301E+00
          2   -1    0    0  502    0  0.00000000000E+00  0.00000000000E+00  0.19484143020E+04  0.19484143020E+04  0.00000000000E+00 0. -1.
          1   -1    0    0  501    0 -0.00000000000E+00 -0.00000000000E+00 -0.26803165795E+04  0.26803165795E+04  0.00000000000E+00 0. -1.
         25    2    1    2    0    0  0.39626744349E+02 -0.95601267198E+02  0.42677734272E+03  0.45658986272E+03  0.12500208528E+03 0.  0.
          2    1    1    2  501    0 -0.25217559946E+02  0.48424581677E+02 -0.26647268819E+04  0.26652861424E+04  0.00000000000E+00 0. -1.
          1    1    1    2  502    0 -0.14409184404E+02  0.47176685521E+02  0.15060472617E+04  0.15068548764E+04  0.00000000000E+00 0. -1.
         22    1    3    3    0    0 -0.22101656073E+02 -0.28020937494E+02  0.22745542998E+02  0.42320395384E+02  0.00000000000E+00 0.  1.
         22    1    3    3    0    0  0.61728400422E+02 -0.67580329704E+02  0.40403179972E+03  0.41426946734E+03  0.00000000000E+00 0.  1.
</event>
<event>
 7    1  0.6520971E-006  0.8494280E+02  0.7818608E-02  0.1468149E+00
          2   -1    0    0  502    0  0.00000000000E+00  0.00000000000E+00  0.16296547891E+04  0.16296547891E+04  0.00000000000E+00 0. -1.
          1   -1    0    0  501    0 -0.00000000000E+00 -0.00000000000E+00 -0.98271282252E+03  0.98271282252E+03  0.00000000000E+00 0. -1.
         25    2    1    2    0    0 -0.51052756092E+01 -0.74559554819E+02  0.67531756450E+02  0.16053503591E+03  0.12500307425E+03 0.  0.
          2    1    1    2  501    0 -0.24306635264E+02 -0.54897756336E+01 -0.93484535826E+03  0.93517741312E+03  0.00000000000E+00 0. -1.
          1    1    1    2  502    0  0.29411910873E+02  0.80049330453E+02  0.15142555683E+04  0.15166551625E+04  0.00000000000E+00 0. -1.
         22    1    3    3    0    0  0.38290733954E+02  0.17845989079E+02  0.29795643265E+02  0.51695647694E+02  0.00000000000E+00 0. -1.
         22    1    3    3    0    0 -0.43396009564E+02 -0.92405543898E+02  0.37736113185E+02  0.10883938822E+03  0.00000000000E+00 0. -1.
</event>
<event>
 7    1  0.6520971E-006  0.1650011E+03  0.7818608E-02  0.1330722E+00
          2   -1    0    0  502    0  0.00000000000E+00  0.00000000000E+00  0.21833998491E+04  0.21833998491E+04  0.00000000000E+00 0. -1.
          1   -1    0    0  501    0 -0.00000000000E+00 -0.00000000000E+00 -0.22234797430E+03  0.22234797430E+03  0.00000000000E+00 0. -1.
         25    2    1    2    0    0  0.96369188496E+02  0.16625419242E+03  0.14334518338E+03  0.27036962881E+03  0.12499767035E+03 0.  0.
          2    1    1    2  501    0 -0.63482907579E+02 -0.14677649950E+03 -0.11834791012E+03  0.19894634500E+03  0.00000000000E+00 0. -1.
          1    1    1    2  502    0 -0.32886280917E+02 -0.19477692923E+02  0.19360546016E+04  0.19364318496E+04  0.00000000000E+00 0. -1.
         22    1    3    3    0    0  0.16093617468E+01  0.87373243359E+02  0.11398197596E+03  0.14362647577E+03  0.00000000000E+00 0.  1.
         22    1    3    3    0    0  0.94759826749E+02  0.78880949061E+02  0.29363207424E+02  0.12674315303E+03  0.00000000000E+00 0.  1.
</event>
<event>
 7    1  0.6520971E-006  0.1893518E+03  0.7818608E-02  0.1219473E+00
          2   -1    0    0  502    0  0.00000000000E+00  0.00000000000E+00  0.82263147572E+03  0.82263147572E+03  0.00000000000E+00 0. -1.
          1   -1    0    0  501    0 -0.00000000000E+00 -0.00000000000E+00 -0.16285723349E+04  0.16285723349E+04  0.00000000000E+00 0. -1.
         25    2    1    2    0    0  0.12197497993E+03  0.54779127026E+02  0.34433489277E+03  0.38996121753E+03  0.12499833724E+03 0.  0.
          2    1    1    2  501    0 -0.18990827087E+03  0.14469520445E+02 -0.15948630820E+04  0.16061951217E+04  0.00000000000E+00 0. -1.
          1    1    1    2  502    0  0.67933290939E+02 -0.69248647471E+02  0.44458733009E+03  0.45504747144E+03  0.00000000000E+00 0. -1.
         22    1    3    3    0    0  0.11825023063E+02 -0.23615461219E+02  0.81980314418E+01  0.27653732090E+02  0.00000000000E+00 0.  1.
         22    1    3    3    0    0  0.11014995687E+03  0.78394588245E+02  0.33613686132E+03  0.36230748544E+03  0.00000000000E+00 0.  1.
</event>
<event>
 7    1  0.6520971E-006  0.1185978E+03  0.7818608E-02  0.1342071E+00
          2   -1    0    0  502    0  0.00000000000E+00  0.00000000000E+00  0.22392015473E+04  0.22392015473E+04  0.00000000000E+00 0. -1.
          1   -1    0    0  501    0 -0.00000000000E+00 -0.00000000000E+00 -0.36378047589E+03  0.36378047589E+03  0.00000000000E+00 0. -1.
         25    2    1    2    0    0 -0.68938769289E+02  0.84039603824E+02  0.12508445167E+03  0.20757558693E+03  0.12500518117E+03 0.  0.
          2    1    1    2  501    0  0.32363909501E+02 -0.11538816039E+03 -0.31111180419E+03  0.33339526827E+03  0.00000000000E+00 0. -1.
          1    1    1    2  502    0  0.36574859787E+02  0.31348556561E+02  0.20614484239E+04  0.20620111680E+04  0.00000000000E+00 0. -1.
         22    1    3    3    0    0 -0.75178495810E+02 -0.59817968973E+01  0.57353421453E+02  0.94747047863E+02  0.00000000000E+00 0. -1.
         22    1    3    3    0    0  0.62397265217E+01  0.90021400722E+02  0.67731030213E+02  0.11282853907E+03  0.00000000000E+00 0. -1.
</event>
<event>
 7    1  0.6520971E-006  0.8491508E+02  0.7818608E-02  0.1418744E+00
          2   -1    0    0  502    0  0.00000000000E+00  0.00000000000E+00  0.89072619758E+03  0.89072619758E+03  0.00000000000E+00 0. -1.
          1   -1    0    0  501    0 -0.00000000000E+00 -0.00000000000E+00 -0.12687517213E+03  0.12687517213E+03  0.00000000000E+00 0. -1.
         25    2    1    2    0    0 -0.62475139161E+02 -0.23897403604E+00  0.46935588113E+01  0.13981481562E+03  0.12499181194E+03 0.  0.
          2    1    1    2  501    0 -0.17201667611E+02 -0.31621395506E+02 -0.51371248563E+02  0.62728105354E+02  0.00000000000E+00 0. -1.
          1    1    1    2  502    0  0.79676806772E+02  0.31860369542E+02  0.81052871520E+03  0.81505844873E+03  0.00000000000E+00 0. -1.
         22    1    3    3    0    0 -0.30548669686E+00 -0.43841306885E+02 -0.33156982711E+02  0.54968527486E+02  0.00000000000E+00 0. -1.
         22    1    3    3    0    0 -0.62169652464E+02  0.43602332849E+02  0.37850541522E+02  0.84846288139E+02  0.00000000000E+00 0. -1.
</event>
<event>
 7    1  0.6520971E-006  0.1168501E+03  0.7818608E-02  0.1257915E+00
          2   -1    0    0  502    0  0.00000000000E+00  0.00000000000E+00  0.36160364888E+03  0.36160364888E+03  0.00000000000E+00 0. -1.
          1   -1    0    0  501    0 -0.00000000000E+00 -0.00000000000E+00 -0.10978730297E+04  0.10978730297E+04  0.00000000000E+00 0. -1.
         25    2    1    2    0    0 -0.91104825632E+02 -0.60394952984E+02 -0.53685324491E+01  0.16613574548E+03  0.12499850073E+03 0.  0.
          2    1    1    2  501    0  0.25369978514E+01  0.11916342700E+03 -0.99840426478E+03  0.10054936273E+04  0.00000000000E+00 0. -1.
          1    1    1    2  502    0  0.88567827781E+02 -0.58768474016E+02  0.26750341640E+03  0.28784730577E+03  0.00000000000E+00 0. -1.
         22    1    3    3    0    0 -0.18157308380E+00  0.72306284187E+00  0.45387604293E+02  0.45393726573E+02  0.00000000000E+00 0. -1.
         22    1    3    3    0    0 -0.90923252548E+02 -0.61118015826E+02 -0.50756136742E+02  0.12074201891E+03  0.00000000000E+00 0. -1.
</event>
<event>
 7    1  0.6520971E-006  0.5494838E+02  0.7818608E-02  0.1455545E+00
          2   -1    0    0  502    0  0.00000000000E+00  0.00000000000E+00  0.33304280228E+03  0.33304280228E+03  0.00000000000E+00 0. -1.
          1   -1    0    0  501    0 -0.00000000000E+00 -0.00000000000E+00 -0.27499744362E+03  0.27499744362E+03  0.00000000000E+00 0. -1.
         25    2    1    2    0    0  0.51079407459E+02 -0.46881610852E+02 -0.80491806866E+02  0.16404361105E+03  0.12499753618E+03 0.  0.
          2    1    1    2  501    0  0.36472914941E+01  0.42046748872E+02 -0.14714583870E+03  0.15307883483E+03  0.00000000000E+00 0. -1.
          1    1    1    2  502    0 -0.54726698953E+02  0.48348619801E+01  0.28568300423E+03  0.29091780003E+03  0.00000000000E+00 0. -1.
         22    1    3    3    0    0 -0.12475168171E+02  0.32445391492E+02 -0.43935165602E+02  0.56023495307E+02  0.00000000000E+00 0. -1.
         22    1    3    3    0    0  0.63554575630E+02 -0.79327002343E+02 -0.36556641264E+02  0.10802011574E+03  0.00000000000E+00 0. -1.
</event>
<event>
 7    1  0.6520971E-006  0.2114958E+03  0.7818608E-02  0.1269708E+00
          2   -1    0    0  502    0  0.00000000000E+00  0.00000000000E+00  0.11905316462E+04  0.11905316462E+04  0.00000000000E+00 0. -1.
          1   -1    0    0  501    0 -0.00000000000E+00 -0.00000000000E+00 -0.65219070979E+03  0.65219070979E+03  0.00000000000E+00 0. -1.
         25    2    1    2    0    0 -0.83004498202E+02 -0.16722271637E+03  0.57295161012E+03  0.61543261167E+03  0.12502227153E+03 0.  0.
          2    1    1    2  501    0  0.13522723396E+03  0.16377379847E+03 -0.61185961488E+03  0.64767310442E+03  0.00000000000E+00 0. -1.
          1    1    1    2  502    0 -0.52222735760E+02  0.34489179000E+01  0.57724894118E+03  0.57961663991E+03  0.00000000000E+00 0. -1.
         22    1    3    3    0    0 -0.54087144783E+02 -0.28430777027E+02  0.70174530870E+02  0.93049412120E+02  0.00000000000E+00 0. -1.
         22    1    3    3    0    0 -0.28917353420E+02 -0.13879193934E+03  0.50277707925E+03  0.52238319955E+03  0.00000000000E+00 0. -1.
</event>
<event>
 7    1  0.6520971E-006  0.7273921E+02  0.7818608E-02  0.1462728E+00
          2   -1    0    0  502    0  0.00000000000E+00  0.00000000000E+00  0.47349689690E+03  0.47349689690E+03  0.00000000000E+00 0. -1.
          1   -1    0    0  501    0 -0.00000000000E+00 -0.00000000000E+00 -0.17382632073E+03  0.17382632073E+03  0.00000000000E+00 0. -1.
         25    2    1    2    0    0  0.15570434317E+02  0.95778331114E+02  0.51894943822E+02  0.16652052162E+03  0.12498028560E+03 0.  0.
          2    1    1    2  501    0  0.91447139920E+01 -0.28844201796E+02 -0.11097450305E+03  0.11502588447E+03  0.00000000000E+00 0. -1.
          1    1    1    2  502    0 -0.24715148309E+02 -0.66934129319E+02  0.35875013539E+03  0.36577681155E+03  0.00000000000E+00 0. -1.
         22    1    3    3    0    0 -0.21580839545E+02  0.41533041676E+02  0.81836634351E+02  0.94275982670E+02  0.00000000000E+00 0.  1.
         22    1    3    3    0    0  0.37151273862E+02  0.54245289438E+02 -0.29941690529E+02  0.72244538946E+02  0.00000000000E+00 0.  1.
</event>
<event>
 7    1  0.6520971E-006  0.5010422E+02  0.7818608E-02  0.1567347E+00
          2   -1    0    0  502    0  0.00000000000E+00  0.00000000000E+00  0.25091178566E+03  0.25091178566E+03  0.00000000000E+00 0. -1.
          1   -1    0    0  501    0 -0.00000000000E+00 -0.00000000000E+00 -0.10287120109E+03  0.10287120109E+03  0.00000000000E+00 0. -1.
         25    2    1    2    0    0  0.13772543490E+02 -0.58769534068E+02  0.17034644739E+03  0.21974310925E+03  0.12500232332E+03 0.  0.
          2    1    1    2  501    0 -0.27212378240E+02  0.41728886765E+02 -0.67506836786E+02  0.83898668243E+02  0.00000000000E+00 0. -1.
          1    1    1    2  502    0  0.13439834750E+02  0.17040647303E+02  0.45200973971E+02  0.50141209265E+02  0.00000000000E+00 0. -1.
         22    1    3    3    0    0  0.24943147355E+02 -0.92881564294E+02  0.89881982470E+02  0.13163554367E+03  0.00000000000E+00 0. -1.
         22    1    3    3    0    0 -0.11170603865E+02  0.34112030226E+02  0.80464464917E+02  0.88107565573E+02  0.00000000000E+00 0. -1.
</event>
<event>
 7    1  0.6520971E-006  0.1004240E+03  0.7818608E-02  0.1345811E+00
          2   -1    0    0  502    0  0.00000000000E+00  0.00000000000E+00  0.47556104899E+03  0.47556104899E+03  0.00000000000E+00 0. -1.
          1   -1    0    0  501    0 -0.00000000000E+00 -0.00000000000E+00 -0.17420666271E+04  0.17420666271E+04  0.00000000000E+00 0. -1.
         25    2    1    2    0    0 -0.97206281116E+02 -0.12019235482E+03 -0.30550095754E+03  0.36448295157E+03  0.12498689404E+03 0.  0.
          2    1    1    2  501    0  0.33481652958E+02  0.43742839807E+02 -0.14009751890E+04  0.14020577510E+04  0.00000000000E+00 0. -1.
          1    1    1    2  502    0  0.63724628157E+02  0.76449515009E+02  0.43997056841E+03  0.45108697348E+03  0.00000000000E+00 0. -1.
         22    1    3    3    0    0 -0.11699729358E+03 -0.53007707353E+02 -0.20720024223E+03  0.24378294470E+03  0.00000000000E+00 0.  1.
         22    1    3    3    0    0  0.19791012460E+02 -0.67184647463E+02 -0.98300715308E+02  0.12070000687E+03  0.00000000000E+00 0.  1.
</event>
<event>
 7    1  0.6520971E-006  0.9357803E+02  0.7818608E-02  0.1334820E+00
          2   -1    0    0  502    0  0.00000000000E+00  0.00000000000E+00  0.22066674901E+04  0.22066674901E+04  0.00000000000E+00 0. -1.
          1   -1    0    0  501    0 -0.00000000000E+00 -0.00000000000E+00 -0.73868938896E+02  0.73868938896E+02  0.00000000000E+00 0. -1.
         25    2    1    2    0    0  0.88886475213E+02 -0.49546248234E+02  0.87087821059E+03  0.88567045971E+03  0.12501067691E+03 0.  0.
          2    1    1    2  501    0  0.57493566598E+01  0.64763132709E+02 -0.48393539704E+02  0.81050929330E+02  0.00000000000E+00 0. -1.
          1    1    1    2  502    0 -0.94635831873E+02 -0.15216884475E+02  0.13103138803E+04  0.13138150399E+04  0.00000000000E+00 0. -1.
         22    1    3    3    0    0  0.10918256134E+03 -0.28232769060E+02  0.45557028221E+03  0.46932100207E+03  0.00000000000E+00 0.  1.
         22    1    3    3    0    0 -0.20296086130E+02 -0.21313479174E+02  0.41530792838E+03  0.41634945765E+03  0.00000000000E+00 0.  1.
</event>
<event>
 7    1  0.6520971E-006  0.1400658E+03  0.7818608E-02  0.1277329E+00
          2   -1    0    0  502    0  0.00000000000E+00  0.00000000000E+00  0.13373987814E+04  0.13373987814E+04  0.00000000000E+00 0. -1.
          1   -1    0    0  501    0 -0.00000000000E+00 -0.00000000000E+00 -0.68015460268E+03  0.68015460268E+03  0.00000000000E+00 0. -1.
         25    2    1    2    0    0 -0.17734863899E+03 -0.11086773094E+03  0.15781360260E+03  0.29030745510E+03  0.12501636617E+03 0.  0.
          2    1    1    2  501    0  0.61276179619E+02  0.40486867210E+02 -0.60755031993E+03  0.61197332283E+03  0.00000000000E+00 0. -1.
          1    1    1    2  502    0  0.11607245937E+03  0.70380863725E+02  0.11069808961E+04  0.11152726062E+04  0.00000000000E+00 0. -1.
         22    1    3    3    0    0 -0.86663126290E+02 -0.39557821017E+01  0.11434506574E+03  0.14353027461E+03  0.00000000000E+00 0.  1.
         22    1    3    3    0    0 -0.90685512698E+02 -0.10691194883E+03  0.43468536857E+02  0.14677718049E+03  0.00000000000E+00 0.  1.
</event>
<event>
 7    1  0.6520971E-006  0.3982553E+02  0.7818608E-02  0.1536442E+00
          2   -1    0    0  502    0  0.00000000000E+00  0.00000000000E+00  0.10231920649E+04  0.10231920649E+04  0.00000000000E+00 0. -1.
          1   -1    0    0  501    0 -0.00000000000E+00 -0.00000000000E+00 -0.14059594813E+03  0.14059594813E+03  0.00000000000E+00 0. -1.
         25    2    1    2    0    0 -0.44317695271E+01  0.13589060519E+02  0.10242283121E+02  0.12623404051E+03  0.12500330184E+03 0.  0.
          2    1    1    2  501    0 -0.18148961971E+02 -0.38041168520E+02 -0.76912497942E+02  0.87704319521E+02  0.00000000000E+00 0. -1.
          1    1    1    2  502    0  0.22580731498E+02  0.24452108001E+02  0.94926633158E+03  0.94984965300E+03  0.00000000000E+00 0. -1.
         22    1    3    3    0    0  0.99399860973E+01  0.94896848873E+01 -0.56341677480E+02  0.57993465702E+02  0.00000000000E+00 0.  1.
         22    1    3    3    0    0 -0.14371755624E+02  0.40993756321E+01  0.66583960601E+02  0.68240574804E+02  0.00000000000E+00 0.  1.
</event>
<event>
 7    1  0.6520971E-006  0.1399819E+03  0.7818608E-02  0.1278981E+00
          2   -1    0    0  502    0  0.00000000000E+00  0.00000000000E+00  0.67712110651E+03  0.67712110651E+03  0.00000000000E+00 0. -1.
          1   -1    0    0  501    0 -0.00000000000E+00 -0.00000000000E+00 -0.13614090390E+04  0.13614090390E+04  0.00000000000E+00 0. -1.
         25    2    1    2    0    0 -0.67169563945E+02  0.14626893384E+03 -0.31514334010E+03  0.37529520094E+03  0.12499924685E+03 0.  0.
          2    1    1    2  501    0  0.72048587687E+02 -0.64655727965E+01 -0.10073167275E+04  0.10099107842E+04  0.00000000000E+00 0. -1.
          1    1    1    2  502    0 -0.48790237421E+01 -0.13980336104E+03  0.63817213503E+03  0.65332416040E+03  0.00000000000E+00 0. -1.
         22    1    3    3    0    0 -0.90250410439E+02  0.10816603872E+03 -0.29394977629E+03  0.32596242037E+03  0.00000000000E+00 0.  1.
         22    1    3    3    0    0  0.23080846494E+02  0.38102895124E+02 -0.21193563817E+02  0.49332780572E+02  0.00000000000E+00 0.  1.
</event>
<event>
 7    1  0.6520971E-006  0.1162575E+03  0.7818608E-02  0.1261862E+00
          2   -1    0    0  502    0  0.00000000000E+00  0.00000000000E+00  0.14019603743E+04  0.14019603743E+04  0.00000000000E+00 0. -1.
          1   -1    0    0  501    0 -0.00000000000E+00 -0.00000000000E+00 -0.11142617537E+04  0.11142617537E+04  0.00000000000E+00 0. -1.
         25    2    1    2    0    0 -0.18372021687E+02  0.10079662791E+03  0.15273228371E+03  0.22237336208E+03  0.12500108119E+03 0.  0.
          2    1    1    2  501    0 -0.90624222498E+02 -0.48463345296E+02 -0.10739727438E+04  0.10788785381E+04  0.00000000000E+00 0. -1.
          1    1    1    2  502    0  0.10899624418E+03 -0.52333282619E+02  0.12089390807E+04  0.12149702278E+04  0.00000000000E+00 0. -1.
         22    1    3    3    0    0 -0.36422847376E+02  0.94113820697E+02  0.16922164912E+03  0.19702792083E+03  0.00000000000E+00 0. -1.
         22    1    3    3    0    0  0.18050825688E+02  0.66828072176E+01 -0.16489365413E+02  0.25345441249E+02  0.00000000000E+00 0. -1.
</event>
<event>
 7    1  0.6520971E-006  0.1733596E+03  0.7818608E-02  0.1239922E+00
          2   -1    0    0  502    0  0.00000000000E+00  0.00000000000E+00  0.12039647267E+04  0.12039647267E+04  0.00000000000E+00 0. -1.
          1   -1    0    0  501    0 -0.00000000000E+00 -0.00000000000E+00 -0.41635889344E+03  0.41635889344E+03  0.00000000000E+00 0. -1.
         25    2    1    2    0    0 -0.47864024306E+02 -0.77165907440E+02 -0.16084884868E+03  0.22302615071E+03  0.12499107841E+03 0.  0.
          2    1    1    2  501    0 -0.35690433958E+02 -0.78001323988E+02 -0.20930561872E+03  0.22620091876E+03  0.00000000000E+00 0. -1.
          1    1    1    2  502    0  0.83554458264E+02  0.15516723143E+03  0.11577603006E+04  0.11710965506E+04  0.00000000000E+00 0. -1.
         22    1    3    3    0    0 -0.50248349308E+02 -0.78199894304E+02 -0.18059353395E+03  0.20311116311E+03  0.00000000000E+00 0.  1.
         22    1    3    3    0    0  0.23843250020E+01  0.10339868643E+01  0.19744685267E+02  0.19914987593E+02  0.00000000000E+00 0.  1.
</event>
<event>
 7    1  0.6520971E-006  0.3202902E+02  0.7818608E-02  0.1584756E+00
          2   -1    0    0  502    0  0.00000000000E+00  0.00000000000E+00  0.34252603380E+04  0.34252603380E+04  0.00000000000E+00 0. -1.
          1   -1    0    0  501    0 -0.00000000000E+00 -0.00000000000E+00 -0.21250281988E+02  0.21250281988E+02  0.00000000000E+00 0. -1.
         25    2    1    2    0    0 -0.89456040125E+01 -0.31487583387E+02  0.14646494866E+04  0.14703385877E+04  0.12500380876E+03 0.  0.
          2    1    1    2  501    0 -0.20735435095E+02  0.24582970576E+02 -0.41461695177E+01  0.32426400241E+02  0.00000000000E+00 0. -1.
          1    1    1    2  502    0  0.29681039107E+02  0.69046128116E+01  0.19435067390E+04  0.19437456321E+04  0.00000000000E+00 0. -1.
         22    1    3    3    0    0  0.67230614408E+01 -0.13038495276E+02  0.14152675187E+04  0.14153435454E+04  0.00000000000E+00 0.  1.
         22    1    3    3    0    0 -0.15668665453E+02 -0.18449088111E+02  0.49381967809E+02  0.54995042266E+02  0.00000000000E+00 0.  1.
</event>
<event>
 7    1  0.6520971E-006  0.6039606E+02  0.7818608E-02  0.1433230E+00
          2   -1    0    0  502    0  0.00000000000E+00  0.00000000000E+00  0.30724701163E+04  0.30724701163E+04  0.00000000000E+00 0. -1.
          1   -1    0    0  501    0 -0.00000000000E+00 -0.00000000000E+00 -0.70316696574E+01  0.70316696574E+01  0.00000000000E+00 0. -1.
         25    2    1    2    0    0 -0.36616187318E+02 -0.41900521182E+01  0.11751109316E+04  0.11823151109E+04  0.12500007290E+03 0.  0.
          2    1    1    2  501    0 -0.78633412231E+01 -0.44631523313E+02  0.18112185075E+03  0.18670546277E+03  0.00000000000E+00 0. -1.
          1    1    1    2  502    0  0.44479528542E+02  0.48821575432E+02  0.17092056643E+04  0.17104812123E+04  0.00000000000E+00 0. -1.
         22    1    3    3    0    0 -0.56476860217E+01  0.40170613437E+02  0.94730458495E+03  0.94817274334E+03  0.00000000000E+00 0.  1.
         22    1    3    3    0    0 -0.30968501297E+02 -0.44360665556E+02  0.22780634662E+03  0.23414236755E+03  0.00000000000E+00 0.  1.
</event>
<event>
 7    1  0.6520971E-006  0.2062386E+03  0.7818608E-02  0.1193521E+00
          2   -1    0    0  502    0  0.00000000000E+00  0.00000000000E+00  0.22290644000E+04  0.22290644000E+04  0.00000000000E+00 0. -1.
          1   -1    0    0  501    0 -0.00000000000E+00 -0.00000000000E+00 -0.21962857018E+04  0.21962857018E+04  0.00000000000E+00 0. -1.
         25    2    1    2    0    0 -0.57837812341E+01 -0.12495554288E+03  0.12227054264E+03  0.21499367594E+03  0.12499942109E+03 0.  0.
          2    1    1    2  501    0 -0.96654727105E+02 -0.67161206177E+02 -0.21425529326E+04  0.21457832679E+04  0.00000000000E+00 0. -1.
          1    1    1    2  502    0  0.10243850834E+03  0.19211674906E+03  0.20530610881E+04  0.20645731580E+04  0.00000000000E+00 0. -1.
         22    1    3    3    0    0  0.58788777957E+00 -0.10776866673E+03  0.14819843299E+03  0.18324084338E+03  0.00000000000E+00 0.  1.
         22    1    3    3    0    0 -0.63716690137E+01 -0.17186876150E+02 -0.25927890345E+02  0.31752832560E+02  0.00000000000E+00 0.  1.
</event>
<event>
 7    1  0.6520971E-006  0.8502091E+02  0.7818608E-02  0.1430671E+00
          2   -1    0    0  502    0  0.00000000000E+00  0.00000000000E+00  0.28564578678E+03  0.28564578678E+03  0.00000000000E+00 0. -1.
          1   -1    0    0  501    0 -0.00000000000E+00 -0.00000000000E+00 -0.13225228785E+04  0.13225228785E+04  0.00000000000E+00 0. -1.
         25    2    1    2    0    0 -0.85223664751E+00  0.85521208527E+02 -0.30851571428E+03  0.34368861752E+03  0.12500126577E+03 0.  0.
          2    1    1    2  501    0  0.33007965638E+02 -0.78943068838E+02 -0.99357026082E+03  0.99724791155E+03  0.00000000000E+00 0. -1.
          1    1    1    2  502    0 -0.32155728990E+02 -0.65781396891E+01  0.26520888335E+03  0.26723213623E+03  0.00000000000E+00 0. -1.
         22    1    3    3    0    0 -0.79263402075E+01  0.90448315009E+02 -0.10028866692E+03  0.13528318916E+03  0.00000000000E+00 0. -1.
         22    1    3    3    0    0  0.70741035600E+01 -0.49271064820E+01 -0.20822704736E+03  0.20840542836E+03  0.00000000000E+00 0. -1.
</event>
<event>
 7    1  0.6520971E-006  0.4818164E+02  0.7818608E-02  0.1519346E+00
          2   -1    0    0  502    0  0.00000000000E+00  0.00000000000E+00  0.54352588689E+03  0.54352588689E+03  0.00000000000E+00 0. -1.
          1   -1    0    0  501    0 -0.00000000000E+00 -0.00000000000E+00 -0.75398255368E+03  0.75398255368E+03  0.00000000000E+00 0. -1.
         25    2    1    2    0    0 -0.45343104234E+02  0.78765392907E+01 -0.29574203545E+03  0.32435473791E+03  0.12499842998E+03 0.  0.
          2    1    1    2  501    0  0.13025672729E+02  0.27916337361E+02 -0.44229873256E+03  0.44337022776E+03  0.00000000000E+00 0. -1.
          1    1    1    2  502    0  0.32317431505E+02 -0.35792876651E+02  0.52758410123E+03  0.52978347489E+03  0.00000000000E+00 0. -1.
         22    1    3    3    0    0  0.19429073511E+02  0.50615123941E+02 -0.99225754138E+02  0.11307134895E+03  0.00000000000E+00 0.  1.
         22    1    3    3    0    0 -0.64772177745E+02 -0.42738584651E+02 -0.19651628132E+03  0.21128338896E+03  0.00000000000E+00 0.  1.
</event>
<event>
 7    1  0.6520971E-006  0.3768148E+02  0.7818608E-02  0.1533334E+00
          2   -1    0    0  502    0  0.00000000000E+00  0.00000000000E+00  0.44029049458E+03  0.44029049458E+03  0.00000000000E+00 0. -1.
          1   -1    0    0  501    0 -0.00000000000E+00 -0.00000000000E+00 -0.36235360271E+03  0.36235360271E+03  0.00000000000E+00 0. -1.
         25    2    1    2    0    0 -0.50849217204E+02 -0.10310049622E+02  0.96137328506E+02  0.16601091834E+03  0.12500119625E+03 0.  0.
          2    1    1    2  501    0  0.31843569666E+02 -0.20147765533E+02 -0.32528338811E+03  0.32745874238E+03  0.00000000000E+00 0. -1.
          1    1    1    2  502    0  0.19005647538E+02  0.30457815154E+02  0.30708295147E+03  0.30917443657E+03  0.00000000000E+00 0. -1.
         22    1    3    3    0    0 -0.76485566315E+02  0.32268978760E+02  0.43899201383E+02  0.93906702246E+02  0.00000000000E+00 0. -1.
         22    1    3    3    0    0  0.25636349110E+02 -0.42579028382E+02  0.52238127123E+02  0.72104216097E+02  0.00000000000E+00 0. -1.
</event>
<event>
 7    1  0.6520971E-006  0.1360486E+03  0.7818608E-02  0.1227475E+00
          2   -1    0    0  502    0  0.00000000000E+00  0.00000000000E+00  0.11059528099E+04  0.11059528099E+04  0.00000000000E+00 0. -1.
          1   -1    0    0  501    0 -0.00000000000E+00 -0.00000000000E+00 -0.87334292266E+02  0.87334292266E+02  0.00000000000E+00 0. -1.
         25    2    1    2    0    0 -0.52352362000E+02 -0.62430336596E+02  0.49324907903E+03  0.51532304933E+03  0.12499949787E+03 0.  0.
          2    1    1    2  501    0  0.14959289002E+03 -0.14828511402E+02  0.13146774733E+02  0.15089981836E+03  0.00000000000E+00 0. -1.
          1    1    1    2  502    0 -0.97240528023E+02  0.77258847999E+02  0.51222266391E+03  0.52706423451E+03  0.00000000000E+00 0. -1.
         22    1    3    3    0    0 -0.16398213461E+01  0.26046145926E+01  0.35012766379E+03  0.35014119150E+03  0.00000000000E+00 0.  1.
         22    1    3    3    0    0 -0.50712540654E+02 -0.65034951189E+02  0.14312141524E+03  0.16518185783E+03  0.00000000000E+00 0.  1.
</event>
<event>
 7    1  0.6520971E-006  0.1326770E+03  0.7818608E-02  0.1365877E+00
          2   -1    0    0  502    0  0.00000000000E+00  0.00000000000E+00  0.26854523150E+03  0.26854523150E+03  0.00000000000E+00 0. -1.
          1   -1    0    0  501    0 -0.00000000000E+00 -0.00000000000E+00 -0.26650849226E+03  0.26650849226E+03  0.00000000000E+00 0. -1.
         25    2    1    2    0    0  0.93916319784E+02 -0.72980514233E+02  0.78419146675E+02  0.18952901062E+03  0.12500101088E+03 0.  0.
          2    1    1    2  501    0 -0.32743156543E-01 -0.35187411462E+02 -0.17053101586E+03  0.17412346875E+03  0.00000000000E+00 0. -1.
          1    1    1    2  502    0 -0.93883576628E+02  0.10816792570E+03  0.94148608426E+02  0.17140124439E+03  0.00000000000E+00 0. -1.
         22    1    3    3    0    0  0.49986394806E+02 -0.45223020230E+01 -0.26512137529E+02  0.56762525645E+02  0.00000000000E+00 0.  1.
         22    1    3    3    0    0  0.43929924978E+02 -0.68458212210E+02  0.10493128420E+03  0.13276648497E+03  0.00000000000E+00 0.  1.
</event>
<event>
 7    1  0.6520971E-006  0.1051808E+03  0.7818608E-02  0.1406260E+00
          2   -1    0    0  502    0  0.00000000000E+00  0.00000000000E+00  0.95173322891E+03  0.95173322891E+03  0.00000000000E+00 0. -1.
          1   -1    0    0  501    0 -0.00000000000E+00 -0.00000000000E+00 -0.49926973482E+02  0.49926973482E+02  0.00000000000E+00 0. -1.
         25    2    1    2    0    0 -0.11425560862E+03 -0.41437924320E+02  0.34540986522E+03  0.38691804434E+03  0.12500460942E+03 0.  0.
          2    1    1    2  501    0  0.10099633606E+03  0.12288331766E+02  0.61653468029E+02  0.11896391518E+03  0.00000000000E+00 0. -1.
          1    1    1    2  502    0  0.13259272568E+02  0.29149592554E+02  0.49474292218E+03  0.49577824287E+03  0.00000000000E+00 0. -1.
         22    1    3    3    0    0 -0.12265375514E+03 -0.67506767859E+02  0.32111039473E+03  0.35030414351E+03  0.00000000000E+00 0.  1.
         22    1    3    3    0    0  0.83981465133E+01  0.26068843540E+02  0.24299470488E+02  0.36613900835E+02  0.00000000000E+00 0.  1.
</event>
<event>
 7    1  0.6520971E-006  0.2196722E+03  0.7818608E-02  0.1242346E+00
          2   -1    0    0  502    0  0.00000000000E+00  0.00000000000E+00  0.57065939256E+03  0.57065939256E+03  0.00000000000E+00 0. -1.
          1   -1    0    0  501    0 -0.00000000000E+00 -0.00000000000E+00 -0.15546753257E+04  0.15546753257E+04  0.00000000000E+00 0. -1.
         25    2    1    2    0    0  0.98609824677E+02  0.21920305661E+03 -0.52513160829E+03  0.59089856069E+03  0.12499610179E+03 0.  0.
          2    1    1    2  501    0 -0.66006131694E+02 -0.24558539550E+01 -0.97316033257E+03  0.97539934054E+03  0.00000000000E+00 0. -1.
          1    1    1    2  502    0 -0.32603692983E+02 -0.21674720265E+03  0.51427600773E+03  0.55903681701E+03  0.00000000000E+00 0. -1.
         22    1    3    3    0    0 -0.59178319173E+01  0.12484004679E+03 -0.19043561988E+03  0.22778451074E+03  0.00000000000E+00 0. -1.
         22    1    3    3    0    0  0.10452765659E+03  0.94363009817E+02 -0.33469598841E+03  0.36311404995E+03  0.00000000000E+00 0. -1.
</event>
<event>
 7    1  0.6520971E-006  0.2553495E+02  0.7818608E-02  0.1689246E+00
          2   -1    0    0  502    0  0.00000000000E+00  0.00000000000E+00  0.18402362796E+04  0.18402362796E+04  0.00000000000E+00 0. -1.
          1   -1    0    0  501    0 -0.00000000000E+00 -0.00000000000E+00 -0.12414478351E+04  0.12414478351E+04  0.00000000000E+00 0. -1.
         25    2    1    2    0    0 -0.18398361149E+02  0.31809617373E+02  0.48852062949E+03  0.50559580568E+03  0.12499744733E+03 0.  0.
          2    1    1    2  501    0 -0.15949340542E+01 -0.25483736330E+02 -0.12326961813E+04  0.12329605995E+04  0.00000000000E+00 0. -1.
          1    1    1    2  502    0  0.19993295203E+02 -0.63258810431E+01  0.13429639963E+04  0.13431277095E+04  0.00000000000E+00 0. -1.
         22    1    3    3    0    0 -0.57497429946E+01  0.57606893038E+02  0.46464847589E+03  0.46824119833E+03  0.00000000000E+00 0.  1.
         22    1    3    3    0    0 -0.12648618154E+02 -0.25797275665E+02  0.23872153601E+02  0.37354607353E+02  0.00000000000E+00 0.  1.
</event>
<event>
 7    1  0.6520971E-006  0.1266071E+03  0.7818608E-02  0.1254611E+00
          2   -1    0    0  502    0  0.00000000000E+00  0.00000000000E+00  0.13917691675E+04  0.13917691675E+04  0.00000000000E+00 0. -1.
          1   -1    0    0  501    0 -0.00000000000E+00 -0.00000000000E+00 -0.86014906481E+03  0.86014906481E+03  0.00000000000E+00 0. -1.
         25    2    1    2    0    0 -0.21459230478E+03  0.18295072147E+02 -0.23935927882E+03  0.34539228246E+03  0.12497358717E+03 0.  0.
          2    1    1    2  501    0  0.11651716351E+03  0.72920820497E+01 -0.55982444390E+03  0.57186784474E+03  0.00000000000E+00 0. -1.
          1    1    1    2  502    0  0.98075141276E+02 -0.25587154197E+02  0.13308038254E+04  0.13346581051E+04  0.00000000000E+00 0. -1.
         22    1    3    3    0    0 -0.18583468180E+02 -0.24813909325E+02 -0.90087705673E+02  0.95272609385E+02  0.00000000000E+00 0. -1.
         22    1    3    3    0    0 -0.19600883660E+03  0.43108981472E+02 -0.14927157315E+03  0.25011967308E+03  0.00000000000E+00 0. -1.
</event>
<event>
 7    1  0.6520971E-006  0.1635298E+03  0.7818608E-02  0.1296764E+00
          2   -1    0    0  502    0  0.00000000000E+00  0.00000000000E+00  0.30709957069E+04  0.30709957069E+04  0.00000000000E+00 0. -1.
          1   -1    0    0  501    0 -0.00000000000E+00 -0.00000000000E+00 -0.24136414608E+03  0.24136414608E+03  0.00000000000E+00 0. -1.
         25    2    1    2    0    0 -0.69435397481E+02 -0.12219055868E+03  0.82820510043E+02  0.20551802789E+03  0.12500646323E+03 0.  0.
          2    1    1    2  501    0  0.12179593519E+03  0.12037507994E+03 -0.13899888352E+03  0.22055634047E+03  0.00000000000E+00 0. -1.
          1    1    1    2  502    0 -0.52360537710E+02  0.18154787320E+01  0.28858099343E+04  0.28862854847E+04  0.00000000000E+00 0. -1.
         22    1    3    3    0    0 -0.14165307939E+02 -0.10419180335E+03  0.10037697899E+01  0.10515510158E+03  0.00000000000E+00 0. -1.
         22    1    3    3    0    0 -0.55270089542E+02 -0.17998755327E+02  0.81816740253E+02  0.10036292631E+03  0.00000000000E+00 0. -1.
</event>
<event>
 7    1  0.6520971E-006  0.7461402E+02  0.7818608E-02  0.1376620E+00
          2   -1    0    0  502    0  0.00000000000E+00  0.00000000000E+00  0.55982972594E+03  0.55982972594E+03  0.00000000000E+00 0. -1.
          1   -1    0    0  501    0 -0.00000000000E+00 -0.00000000000E+00 -0.51224796196E+03  0.51224796196E+03  0.00000000000E+00 0. -1.
         25    2    1    2    0    0  0.62795431482E+02  0.44815127564E+02 -0.33861756495E+03  0.36910579141E+03  0.12500227233E+03 0.  0.
          2    1    1    2  501    0 -0.17351257282E+02 -0.79642230492E+02 -0.14626203086E+03  0.16744113198E+03  0.00000000000E+00 0. -1.
          1    1    1    2  502    0 -0.45444174200E+02  0.34827102928E+02  0.53246135979E+03  0.53553076451E+03  0.00000000000E+00 0. -1.
         22    1    3    3    0    0  0.34655317133E+01  0.48488075596E+02 -0.35448257431E+02  0.60163795924E+02  0.00000000000E+00 0. -1.
         22    1    3    3    0    0  0.59329899769E+02 -0.36729480321E+01 -0.30316930752E+03  0.30894199549E+03  0.00000000000E+00 0. -1.
</event>
<event>
 7    1  0.6520971E-006  0.6143223E+02  0.7818608E-02  0.1439515E+00
          2   -1    0    0  502    0  0.00000000000E+00  0.00000000000E+00  0.18585187188E+04  0.18585187188E+04  0.00000000000E+00 0. -1.
          1   -1    0    0  501    0 -0.00000000000E+00 -0.00000000000E+00 -0.53483611715E+03  0.53483611715E+03  0.00000000000E+00 0. -1.
         25    2    1    2    0    0 -0.74537887071E+02 -0.70915516529E+02  0.33262263903E+02  0.16526036701E+03  0.12497881264E+03 0.  0.
          2    1    1    2  501    0  0.41493670431E+02  0.44188918326E+02 -0.46661972139E+03  0.47054048665E+03  0.00000000000E+00 0. -1.
          1    1    1    2  502    0  0.33044216640E+02  0.26726598203E+02  0.17570400592E+04  0.17575539823E+04  0.00000000000E+00 0. -1.
         22    1    3    3    0    0 -0.78616393664E+02 -0.53907552462E+02 -0.29756161050E+02  0.99859855225E+02  0.00000000000E+00 0. -1.
         22    1    3    3    0    0  0.40785065925E+01 -0.17007964067E+02  0.63018424953E+02  0.65400511782E+02  0.00000000000E+00 0. -1.
</event>
<event>
 7    1  0.6520971E-006  0.2841886E+03  0.7818608E-02  0.1292776E+00
          2   -1    0    0  502    0  0.00000000000E+00  0.00000000000E+00  0.10395598083E+04  0.10395598083E+04  0.00000000000E+00 0. -1.
          1   -1    0    0  501    0 -0.00000000000E+00 -0.00000000000E+00 -0.25523787690E+03  0.25523787690E+03  0.00000000000E+00 0. -1.
         25    2    1    2    0    0  0.11677666636E+03 -0.28849258870E+03 -0.65375796430E+02  0.34170802491E+03  0.12500246392E+03 0.  0.
          2    1    1    2  501    0 -0.33837968381E+01  0.31102799589E+02 -0.21271686083E+02  0.37832774841E+02  0.00000000000E+00 0. -1.
          1    1    1    2  502    0 -0.11339286953E+03  0.25738978911E+03  0.87096941387E+03  0.91525688542E+03  0.00000000000E+00 0. -1.
         22    1    3    3    0    0  0.26655238831E+02 -0.14993353858E+03  0.23424376911E+02  0.15407553077E+03  0.00000000000E+00 0.  1.
         22    1    3    3    0    0  0.90121427533E+02 -0.13855905012E+03 -0.88800173341E+02  0.18763249414E+03  0.00000000000E+00 0.  1.
</event>
<event>
 7    1  0.6520971E-006  0.1207499E+03  0.7818608E-02  0.1272111E+00
          2   -1    0    0  502    0  0.00000000000E+00  0.00000000000E+00  0.33137835775E+04  0.33137835775E+04  0.00000000000E+00 0. -1.
          1   -1    0    0  501    0 -0.00000000000E+00 -0.00000000000E+00 -0.88327306226E+03  0.88327306226E+03  0.00000000000E+00 0. -1.
         25    2    1    2    0    0  0.19741388029E+03  0.70236625957E+02  0.62998468623E+03  0.67557895533E+03  0.12498318383E+03 0.  0.
          2    1    1    2  501    0 -0.11469564577E+03 -0.35889367918E+02 -0.85552112016E+03  0.86392101776E+03  0.00000000000E+00 0. -1.
          1    1    1    2  502    0 -0.82718234521E+02 -0.34347258039E+02  0.26560469491E+04  0.26575566667E+04  0.00000000000E+00 0. -1.
         22    1    3    3    0    0  0.12475875171E+02 -0.28759224735E+02  0.52148509620E+02  0.60845768334E+02  0.00000000000E+00 0. -1.
         22    1    3    3    0    0  0.18493800512E+03  0.98995850692E+02  0.57783617661E+03  0.61473318699E+03  0.00000000000E+00 0. -1.
</event>
<event>
 7    1  0.6520971E-006  0.2092296E+03  0.7818608E-02  0.1366094E+00
          2   -1    0    0  502    0  0.00000000000E+00  0.00000000000E+00  0.18105841703E+04  0.18105841703E+04  0.00000000000E+00 0. -1.
          1   -1    0    0  501    0 -0.00000000000E+00 -0.00000000000E+00 -0.31312192921E+03  0.31312192921E+03  0.00000000000E+00 0. -1.
         25    2    1    2    0    0 -0.86725815991E+02 -0.19039587773E+03  0.37340057337E+03  0.44589875823E+03  0.12500302791E+03 0.  0.
          2    1    1    2  501    0  0.20648288493E+02 -0.83502061977E+01 -0.26858126083E+03  0.26950319373E+03  0.00000000000E+00 0. -1.
          1    1    1    2  502    0  0.66077527498E+02  0.19874608393E+03  0.13926429286E+04  0.14083041476E+04  0.00000000000E+00 0. -1.
         22    1    3    3    0    0 -0.45708910595E+02 -0.37168900066E+02  0.21025266111E+03  0.21835066554E+03  0.00000000000E+00 0. -1.
         22    1    3    3    0    0 -0.41016905396E+02 -0.15322697767E+03  0.16314791226E+03  0.22754809269E+03  0.00000000000E+00 0. -1.
</event>
<event>
 7    1  0.6520971E-006  0.9397849E+02  0.7818608E-02  0.1420032E+00
          2   -1    0    0  502    0  0.00000000000E+00  0.00000000000E+00  0.12726635166E+03  0.12726635166E+03  0.00000000000E+00 0. -1.
          1   -1    0    0  501    0 -0.00000000000E+00 -0.00000000000E+00 -0.95532751961E+03  0.95532751961E+03  0.00000000000E+00 0. -1.
         25    2    1    2    0    0  0.42738654959E+02 -0.77131234375E+02 -0.40494479475E+03  0.43287459780E+03  0.12499724270E+03 0.  0.
          2    1    1    2  501    0 -0.72401721087E+02  0.64591260012E+02 -0.52962971740E+03  0.53844375531E+03  0.00000000000E+00 0. -1.
          1    1    1    2  502    0  0.29663066128E+02  0.12539974363E+02  0.10651334420E+03  0.11127551816E+03  0.00000000000E+00 0. -1.
         22    1    3    3    0    0  0.46924148914E+02 -0.10580103218E+03 -0.25334387330E+03  0.27852980505E+03  0.00000000000E+00 0. -1.
         22    1    3    3    0    0 -0.41854939547E+01  0.28669797805E+02 -0.15160092145E+03  0.15434479275E+03  0.00000000000E+00 0. -1.
</event>
<event>
 7    1  0.6520971E-006  0.3343691E+02  0.7818608E-02  0.1604103E+00
          2   -1    0    0  502    0  0.00000000000E+00  0.00000000000E+00  0.69459144553E+03  0.69459144553E+03  0.00000000000E+00 0. -1.
          1   -1    0    0  501    0 -0.00000000000E+00 -0.00000000000E+00 -0.88631015352E+02  0.88631015352E+02  0.00000000000E+00 0. -1.
         25    2    1    2    0    0 -0.39155601649E+02  0.36706846817E+01  0.11902710895E+03  0.17702929166E+03  0.12500112949E+03 0.  0.
          2    1    1    2  501    0  0.27334663809E+02  0.19443085650E+02 -0.54576709789E+02  0.64061179169E+02  0.00000000000E+00 0. -1.
          1    1    1    2  502    0  0.11820937840E+02 -0.23113770332E+02  0.54151003102E+03  0.54213199006E+03  0.00000000000E+00 0. -1.
         22    1    3    3    0    0  0.24800311735E+02  0.14477963550E+02 -0.11767741112E+02  0.31034603616E+02  0.00000000000E+00 0. -1.
         22    1    3    3    0    0 -0.63955913384E+02 -0.10807278869E+02  0.13079485006E+03  0.14599468804E+03  0.00000000000E+00 0. -1.
</event>
<event>
 7    1  0.6520971E-006  0.8812680E+02  0.7818608E-02  0.1361866E+00
          2   -1    0    0  502    0  0.00000000000E+00  0.00000000000E+00  0.94975775172E+02  0.94975775172E+02  0.00000000000E+00 0. -1.
          1   -1    0    0  501    0 -0.00000000000E+00 -0.00000000000E+00 -0.10571597442E+04  0.10571597442E+04  0.00000000000E+00 0. -1.
         25    2    1    2    0    0 -0.76546622059E+02  0.11692461715E+03 -0.44995083993E+03  0.48745434203E+03  0.12500090305E+03 0.  0.
          2    1    1    2  501    0  0.34598251470E+02 -0.42472202105E+02 -0.56274993559E+03  0.56540995478E+03  0.00000000000E+00 0. -1.
          1    1    1    2  502    0  0.41948370589E+02 -0.74452415048E+02  0.50516806457E+02  0.99271222599E+02  0.00000000000E+00 0. -1.
         22    1    3    3    0    0  0.12005944099E+02  0.92498425635E+02 -0.26524142923E+03  0.28116386187E+03  0.00000000000E+00 0. -1.
         22    1    3    3    0    0 -0.88552566158E+02  0.24426191518E+02 -0.18470941069E+03  0.20629048016E+03  0.00000000000E+00 0. -1.
</event>
<event>
 7    1  0.6520971E-006  0.1132727E+03  0.7818608E-02  0.1441543E+00
          2   -1    0    0  502    0  0.00000000000E+00  0.00000000000E+00  0.17502452322E+04  0.17502452322E+04  0.00000000000E+00 0. -1.
          1   -1    0    0  501    0 -0.00000000000E+00 -0.00000000000E+00 -0.24201517311E+02  0.24201517311E+02  0.00000000000E+00 0. -1.
         25    2    1    2    0    0  0.10699874534E+03  0.74189550673E+01  0.83591351448E+03  0.85198554865E+03  0.12499679601E+03 0.  0.
          2    1    1    2  501    0 -0.11124352360E+03 -0.29721538488E+02  0.19142744773E+03  0.22338970239E+03  0.00000000000E+00 0. -1.
          1    1    1    2  502    0  0.42447782570E+01  0.22302583421E+02  0.69870275269E+03  0.69907149848E+03  0.00000000000E+00 0. -1.
         22    1    3    3    0    0  0.13068772483E+03  0.18351405865E+02  0.76755330738E+03  0.77881585448E+03  0.00000000000E+00 0. -1.
         22    1    3    3    0    0 -0.23688979490E+02 -0.10932450797E+02  0.68360207104E+02  0.73169694171E+02  0.00000000000E+00 0. -1.
</event>
<event>
 7    1  0.6520971E-006  0.8323465E+02  0.7818608E-02  0.1383238E+00
          2   -1    0    0  502    0  0.00000000000E+00  0.00000000000E+00  0.14799854121E+04  0.14799854121E+04  0.00000000000E+00 0. -1.
          1   -1    0    0  501    0 -0.00000000000E+00 -0.00000000000E+00 -0.34759488716E+03  0.34759488716E+03  0.00000000000E+00 0. -1.
         25    2    1    2    0    0 -0.96400210558E+02  0.24145540369E+02 -0.62429154785E+02  0.17146167219E+03  0.12500279176E+03 0.  0.
          2    1    1    2  501    0  0.60124203699E+02 -0.56530024893E+02 -0.22283727913E+03  0.23762789515E+03  0.00000000000E+00 0. -1.
          1    1    1    2  502    0  0.36276006860E+02  0.32384484524E+02  0.14176569589E+04  0.14184907320E+04  0.00000000000E+00 0. -1.
         22    1    3    3    0    0 -0.33852988380E+02 -0.27823270197E+02  0.26298843563E+02  0.51105658781E+02  0.00000000000E+00 0.  1.
         22    1    3    3    0    0 -0.62547222179E+02  0.51968810566E+02 -0.88727998348E+02  0.12035601341E+03  0.00000000000E+00 0.  1.
</event>
<event>
 7    1  0.6520971E-006  0.1368935E+03  0.7818608E-02  0.1301345E+00
          2   -1    0    0  502    0  0.00000000000E+00  0.00000000000E+00  0.33066597996E+04  0.33066597996E+04  0.00000000000E+00 0. -1.
          1   -1    0    0  501    0 -0.00000000000E+00 -0.00000000000E+00 -0.54339091424E+03  0.54339091424E+03  0.00000000000E+00 0. -1.
         25    2    1    2    0    0  0.12950457748E+03 -0.78066820629E+01  0.17056892649E+04  0.17151773472E+04  0.12500033615E+03 0.  0.
          2    1    1    2  501    0  0.89726290647E+00 -0.59987980303E+02 -0.53357908170E+03  0.53694133691E+03  0.00000000000E+00 0. -1.
          1    1    1    2  502    0 -0.13040184038E+03  0.67794662366E+02  0.15911587021E+04  0.15979320297E+04  0.00000000000E+00 0. -1.
         22    1    3    3    0    0  0.74095759341E+02 -0.44989679508E+02  0.13801440073E+04  0.13828635991E+04  0.00000000000E+00 0.  1.
         22    1    3    3    0    0  0.55408818135E+02  0.37182997445E+02  0.32554525762E+03  0.33231374811E+03  0.00000000000E+00 0.  1.
</event>
<event>
 7    1  0.6520971E-006  0.1344632E+03  0.7818608E-02  0.1381690E+00
          2   -1    0    0  502    0  0.00000000000E+00  0.00000000000E+00  0.62111346881E+03  0.62111346881E+03  0.00000000000E+00 0. -1.
          1   -1    0    0  501    0 -0.00000000000E+00 -0.00000000000E+00 -0.34692505545E+03  0.34692505545E+03  0.00000000000E+00 0. -1.
         25    2    1    2    0    0  0.42393837250E+02 -0.14698787984E+03 -0.96397399562E+02  0.21981237897E+03  0.12498939574E+03 0.  0.
          2    1    1    2  501    0  0.15210693886E+02  0.26416051128E+02 -0.17953732179E+03  0.18210662503E+03  0.00000000000E+00 0. -1.
          1    1    1    2  502    0 -0.57604531136E+02  0.12057182872E+03  0.55012313471E+03  0.56611952027E+03  0.00000000000E+00 0. -1.
         22    1    3    3    0    0  0.57484026684E+02 -0.38018618212E+02  0.64432133629E+01  0.69219532309E+02  0.00000000000E+00 0. -1.
         22    1    3    3    0    0 -0.15090189434E+02 -0.10896926163E+03 -0.10284061293E+03  0.15059284666E+03  0.00000000000E+00 0. -1.
</event>
<event>
 7    1  0.6520971E-006  0.9637700E+02  0.7818608E-02  0.1313803E+00
          2   -1    0    0  502    0  0.00000000000E+00  0.00000000000E+00  0.47020444467E+03  0.47020444467E+03  0.00000000000E+00 0. -1.
          1   -1    0    0  501    0 -0.00000000000E+00 -0.00000000000E+00 -0.71841556954E+03  0.71841556954E+03  0.00000000000E+00 0. -1.
         25    2    1    2    0    0 -0.75490267058E+02 -0.62677796443E+02  0.45748414334E+02  0.16536898569E+03  0.12500678952E+03 0.  0.
          2    1    1    2  501    0  0.76030348339E+01  0.97009325562E+02 -0.65098156945E+03  0.65821396153E+03  0.00000000000E+00 0. -1.
          1    1    1    2  502    0  0.67887232224E+02 -0.34331529119E+02  0.35702203026E+03  0.36503706699E+03  0.00000000000E+00 0. -1.
         22    1    3    3    0    0 -0.53568809230E+02  0.31212374912E+02  0.24341085503E+02  0.66605691300E+02  0.00000000000E+00 0.  1.
         22    1    3    3    0    0 -0.21921457827E+02 -0.93890171355E+02  0.21407328831E+02  0.98763294386E+02  0.00000000000E+00 0.  1.
</event>
<event>
 7    1  0.7937280E-006  0.9867887E+02  0.7818608E-02  0.1317773E+00
          2   -1    0    0  502    0  0.00000000000E+00  0.00000000000E+00  0.22159246688E+04  0.22159246688E+04  0.00000000000E+00 0. -1.
          1   -1    0    0  501    0 -0.00000000000E+00 -0.00000000000E+00 -0.69126046070E+03  0.69126046070E+03  0.00000000000E+00 0. -1.
         25    2    1    2    0    0  0.10390652755E+03 -0.70039182878E+02 -0.86400389190E+02  0.19695561032E+03  0.12499772630E+03 0.  0.
          2    1    1    2  501    0 -0.98183268903E+02 -0.14265667200E+01 -0.54459569454E+03  0.55337732146E+03  0.00000000000E+00 0. -1.
          1    1    1    2  502    0 -0.57232586466E+01  0.71465749598E+02  0.21556602918E+04  0.21568521977E+04  0.00000000000E+00 0. -1.
         22    1    3    3    0    0  0.77923586612E+01  0.18857548582E+02  0.19757906179E+02  0.28402514829E+02  0.00000000000E+00 0.  1.
         22    1    3    3    0    0  0.96114168888E+02 -0.88896731460E+02 -0.10615829537E+03  0.16855309550E+03  0.00000000000E+00 0.  1.
</event>
<event>
 7    1  0.6520971E-006  0.8449298E+02  0.7818608E-02  0.1407358E+00
          2   -1    0    0  502    0  0.00000000000E+00  0.00000000000E+00  0.21789735893E+04  0.21789735893E+04  0.00000000000E+00 0. -1.
          1   -1    0    0  501    0 -0.00000000000E+00 -0.00000000000E+00 -0.10592165470E+03  0.10592165470E+03  0.00000000000E+00 0. -1.
         25    2    1    2    0    0 -0.11323102839E+02 -0.64274103151E+02  0.42317014990E+03  0.44604611649E+03  0.12499915710E+03 0.  0.
          2    1    1    2  501    0 -0.38974723137E+02 -0.65597032512E+01 -0.89218278054E+02  0.97580530278E+02  0.00000000000E+00 0. -1.
          1    1    1    2  502    0  0.50297825976E+02  0.70833806402E+02  0.17391000628E+04  0.17412685973E+04  0.00000000000E+00 0. -1.
         22    1    3    3    0    0  0.33139262340E+02 -0.46434410096E+02  0.37042333800E+03  0.37479036072E+03  0.00000000000E+00 0. -1.
         22    1    3    3    0    0 -0.44462365179E+02 -0.17839693055E+02  0.52746811899E+02  0.71255755776E+02  0.00000000000E+00 0. -1.
</event>
<event>
 7    1  0.6520971E-006  0.1656066E+03  0.7818608E-02  0.1327503E+00
          2   -1    0    0  502    0  0.00000000000E+00  0.00000000000E+00  0.12507281692E+04  0.12507281692E+04  0.00000000000E+00 0. -1.
          1   -1    0    0  501    0 -0.00000000000E+00 -0.00000000000E+00 -0.23326084689E+03  0.23326084689E+03  0.00000000000E+00 0. -1.
         25    2    1    2    0    0 -0.44727683797E+02 -0.16064362205E+03  0.15422324282E+03  0.25925648823E+03  0.12498871574E+03 0.  0.
          2    1    1    2  501    0  0.80725131610E+02  0.14518284556E+03 -0.14211393147E+03  0.21861147051E+03  0.00000000000E+00 0. -1.
          1    1    1    2  502    0 -0.35997447813E+02  0.15460776484E+02  0.10053580110E+04  0.10061210574E+04  0.00000000000E+00 0. -1.
         22    1    3    3    0    0 -0.14203494200E+01  0.21305016959E+02  0.14945583500E+02  0.26063223251E+02  0.00000000000E+00 0. -1.
         22    1    3    3    0    0 -0.43307334377E+02 -0.18194863901E+03  0.13927765932E+03  0.23319326498E+03  0.00000000000E+00 0. -1.
</event>
<event>
 7    1  0.6520971E-006  0.4815053E+02  0.7818608E-02  0.1554957E+00
          2   -1    0    0  502    0  0.00000000000E+00  0.00000000000E+00  0.23863317343E+04  0.23863317343E+04  0.00000000000E+00 0. -1.
          1   -1    0    0  501    0 -0.00000000000E+00 -0.00000000000E+00 -0.24884396672E+03  0.24884396672E+03  0.00000000000E+00 0. -1.
         25    2    1    2    0    0  0.68458843938E+02  0.10691504953E+02 -0.77150846718E+02  0.16239203964E+03  0.12497199606E+03 0.  0.
          2    1    1    2  501    0 -0.20424800721E+02 -0.13395560405E+02 -0.12766771491E+03  0.12998330260E+03  0.00000000000E+00 0. -1.
          1    1    1    2  502    0 -0.48034043217E+02  0.27040554519E+01  0.23423063292E+04  0.23428003588E+04  0.00000000000E+00 0. -1.
         22    1    3    3    0    0  0.29104014757E+02  0.58706674689E+02 -0.75934581008E+02  0.10029744723E+03  0.00000000000E+00 0. -1.
         22    1    3    3    0    0  0.39354829181E+02 -0.48015169736E+02 -0.12162657102E+01  0.62094592413E+02  0.00000000000E+00 0. -1.
</event>
<event>
 7    1  0.6520971E-006  0.1398862E+03  0.7818608E-02  0.1311871E+00
          2   -1    0    0  502    0  0.00000000000E+00  0.00000000000E+00  0.68561156168E+03  0.68561156168E+03  0.00000000000E+00 0. -1.
          1   -1    0    0  501    0 -0.00000000000E+00 -0.00000000000E+00 -0.72575837715E+03  0.72575837715E+03  0.00000000000E+00 0. -1.
         25    2    1    2    0    0  0.72346470965E+02 -0.83954144393E+02 -0.18607867327E+02  0.16808622820E+03  0.12499766862E+03 0.  0.
          2    1    1    2  501    0 -0.52868885061E+02  0.13360643625E+03 -0.62305453217E+03  0.63940812388E+03  0.00000000000E+00 0. -1.
          1    1    1    2  502    0 -0.19477585904E+02 -0.49652291856E+02  0.60151558403E+03  0.60387558675E+03  0.00000000000E+00 0. -1.
         22    1    3    3    0    0  0.16069507973E+02  0.30038559296E+02  0.14019094487E+02  0.36838555093E+02  0.00000000000E+00 0.  1.
         22    1    3    3    0    0  0.56276962992E+02 -0.11399270369E+03 -0.32626961814E+02  0.13124767310E+03  0.00000000000E+00 0.  1.
</event>
<event>
 7    1  0.6520971E-006  0.1109138E+03  0.7818608E-02  0.1295398E+00
          2   -1    0    0  502    0  0.00000000000E+00  0.00000000000E+00  0.14145961423E+03  0.14145961423E+03  0.00000000000E+00 0. -1.
          1   -1    0    0  501    0 -0.00000000000E+00 -0.00000000000E+00 -0.45880995565E+03  0.45880995565E+03  0.00000000000E+00 0. -1.
         25    2    1    2    0    0 -0.47886081530E+02 -0.40838800575E+02 -0.19286926418E+03  0.23829441309E+03  0.12499915923E+03 0.  0.
          2    1    1    2  501    0 -0.71516219344E+02  0.31710464387E+02 -0.20382585628E+03  0.21832339057E+03  0.00000000000E+00 0. -1.
          1    1    1    2  502    0  0.11940230087E+03  0.91283361879E+01  0.79344779042E+02  0.14365176621E+03  0.00000000000E+00 0. -1.
         22    1    3    3    0    0 -0.49513306826E+02 -0.78216001555E+02 -0.91153616804E+02  0.12991648205E+03  0.00000000000E+00 0.  1.
         22    1    3    3    0    0  0.16272252958E+01  0.37377200981E+02 -0.10171564738E+03  0.10837793104E+03  0.00000000000E+00 0.  1.
</event>
<event>
 7    1  0.6520971E-006  0.2787347E+02  0.7818608E-02  0.1644290E+00
          2   -1    0    0  502    0  0.00000000000E+00  0.00000000000E+00  0.10603060399E+04  0.10603060399E+04  0.00000000000E+00 0. -1.
          1   -1    0    0  501    0 -0.00000000000E+00 -0.00000000000E+00 -0.45072695980E+02  0.45072695980E+02  0.00000000000E+00 0. -1.
         25    2    1    2    0    0  0.23709307472E+02 -0.21681293293E+02  0.51730327777E+03  0.53315964319E+03  0.12499725673E+03 0.  0.
          2    1    1    2  501    0 -0.27813810276E+02 -0.26084611155E+01 -0.31564801874E+02  0.42151498536E+02  0.00000000000E+00 0. -1.
          1    1    1    2  502    0  0.41045028041E+01  0.24289754408E+02  0.52949486798E+03  0.53006759411E+03  0.00000000000E+00 0. -1.
         22    1    3    3    0    0  0.72705833542E+02  0.55105138934E+01  0.28155855311E+03  0.29084656234E+03  0.00000000000E+00 0. -1.
         22    1    3    3    0    0 -0.48996526070E+02 -0.27191807186E+02  0.23574472466E+03  0.24231308085E+03  0.00000000000E+00 0. -1.
</event>
<event>
 7    1  0.6520971E-006  0.4402413E+02  0.7818608E-02  0.1588800E+00
          2   -1    0    0  502    0  0.00000000000E+00  0.00000000000E+00  0.10443729932E+03  0.10443729932E+03  0.00000000000E+00 0. -1.
          1   -1    0    0  501    0 -0.00000000000E+00 -0.00000000000E+00 -0.12459880739E+04  0.12459880739E+04  0.00000000000E+00 0. -1.
         25    2    1    2    0    0  0.16898011955E+02 -0.14994536792E+02 -0.30720165419E+02  0.13068373156E+03  0.12499652071E+03 0.  0.
          2    1    1    2  501    0 -0.32284776013E+02  0.30194585782E+02 -0.11627018415E+04  0.11635418308E+04  0.00000000000E+00 0. -1.
          1    1    1    2  502    0  0.15386764058E+02 -0.15200048990E+02  0.51871232343E+02  0.56199810873E+02  0.00000000000E+00 0. -1.
         22    1    3    3    0    0 -0.16017125569E+02  0.13936873233E+02 -0.69188023779E+02  0.72372421415E+02  0.00000000000E+00 0.  1.
         22    1    3    3    0    0  0.32915137523E+02 -0.28931410024E+02  0.38467858360E+02  0.58311310147E+02  0.00000000000E+00 0.  1.
</event>
<event>
 7    1  0.6520971E-006  0.1447099E+03  0.7818608E-02  0.1359887E+00
          2   -1    0    0  502    0  0.00000000000E+00  0.00000000000E+00  0.50602023364E+03  0.50602023364E+03  0.00000000000E+00 0. -1.
          1   -1    0    0  501    0 -0.00000000000E+00 -0.00000000000E+00 -0.76125357257E+02  0.76125357257E+02  0.00000000000E+00 0. -1.
         25    2    1    2    0    0  0.91593013100E+02 -0.98822794206E+02  0.19726007674E+03  0.26961381554E+03  0.12499938780E+03 0.  0.
          2    1    1    2  501    0  0.32231573885E+02  0.10567053242E+02 -0.81269917195E+00  0.33929300749E+02  0.00000000000E+00 0. -1.
          1    1    1    2  502    0 -0.12382458699E+03  0.88255740964E+02  0.23344749882E+03  0.27860247461E+03  0.00000000000E+00 0. -1.
         22    1    3    3    0    0 -0.24961910747E+02 -0.22487065530E+01  0.61224578223E+01  0.25799964323E+02  0.00000000000E+00 0. -1.
         22    1    3    3    0    0  0.11655492385E+03 -0.96574087653E+02  0.19113761892E+03  0.24381385121E+03  0.00000000000E+00 0. -1.
</event>
<event>
 7    1  0.6520971E-006  0.1369426E+03  0.7818608E-02  0.1383473E+00
          2   -1    0    0  502    0  0.00000000000E+00  0.00000000000E+00  0.89484082058E+03  0.89484082058E+03  0.00000000000E+00 0. -1.
          1   -1    0    0  501    0 -0.00000000000E+00 -0.00000000000E+00 -0.26860071828E+03  0.26860071828E+03  0.00000000000E+00 0. -1.
         25    2    1    2    0    0  0.10958470359E+03 -0.79657034281E-01  0.23199632251E+03  0.28540680013E+03  0.12500373713E+03 0.  0.
          2    1    1    2  501    0 -0.13905365423E+03 -0.12759868858E+01 -0.22152770859E+03  0.26155701591E+03  0.00000000000E+00 0. -1.
          1    1    1    2  502    0  0.29468950637E+02  0.13556439201E+01  0.61577148839E+03  0.61647772283E+03  0.00000000000E+00 0. -1.
         22    1    3    3    0    0  0.39294583787E+02  0.61330774544E+02  0.10550980520E+03  0.12821016814E+03  0.00000000000E+00 0.  1.
         22    1    3    3    0    0  0.70290119801E+02 -0.61410431578E+02  0.12648651730E+03  0.15719663199E+03  0.00000000000E+00 0.  1.
</event>
<event>
 7    1  0.6520971E-006  0.1458688E+03  0.7818608E-02  0.1312980E+00
          2   -1    0    0  502    0  0.00000000000E+00  0.00000000000E+00  0.60140593618E+03  0.60140593618E+03  0.00000000000E+00 0. -1.
          1   -1    0    0  501    0 -0.00000000000E+00 -0.00000000000E+00 -0.29085456056E+04  0.29085456056E+04  0.00000000000E+00 0. -1.
         25    2    1    2    0    0 -0.12233253493E+03  0.12149520156E+03  0.29138671203E+03  0.36091164367E+03  0.12499866194E+03 0.  0.
          2    1    1    2  501    0  0.83945604654E+01 -0.49937364697E+02 -0.28571040104E+04  0.28575527178E+04  0.00000000000E+00 0. -1.
          1    1    1    2  502    0  0.11393797446E+03 -0.71557836866E+02  0.25857762897E+03  0.29148718024E+03  0.00000000000E+00 0. -1.
         22    1    3    3    0    0 -0.32151444970E+02  0.11834850317E+03  0.16285077271E+03  0.20386382167E+03  0.00000000000E+00 0. -1.
         22    1    3    3    0    0 -0.90181089956E+02  0.31466983922E+01  0.12853593933E+03  0.15704782200E+03  0.00000000000E+00 0. -1.
</event>
<event>
 7    1  0.6520971E-006  0.6984573E+02  0.7818608E-02  0.1376607E+00
          2   -1    0    0  502    0  0.00000000000E+00  0.00000000000E+00  0.47706039728E+03  0.47706039728E+03  0.00000000000E+00 0. -1.
          1   -1    0    0  501    0 -0.00000000000E+00 -0.00000000000E+00 -0.20029026660E+03  0.20029026660E+03  0.00000000000E+00 0. -1.
         25    2    1    2    0    0  0.58751386885E+02 -0.31893875888E+02  0.33388079332E+02  0.14560925172E+03  0.12497337943E+03 0.  0.
          2    1    1    2  501    0  0.66562726431E+01  0.60806690559E+02 -0.13418059814E+03  0.14746590283E+03  0.00000000000E+00 0. -1.
          1    1    1    2  502    0 -0.65407659528E+02 -0.28912814671E+02  0.37756264948E+03  0.38427550932E+03  0.00000000000E+00 0. -1.
         22    1    3    3    0    0  0.78651824643E+02 -0.12783389023E+00  0.60598955646E+02  0.99289270753E+02  0.00000000000E+00 0.  1.
         22    1    3    3    0    0 -0.19900437759E+02 -0.31766041998E+02 -0.27210876314E+02  0.46319980969E+02  0.00000000000E+00 0.  1.
</event>
<event>
 7    1  0.6520971E-006  0.8097521E+02  0.7818608E-02  0.1394523E+00
          2   -1    0    0  502    0  0.00000000000E+00  0.00000000000E+00  0.10929124568E+04  0.10929124568E+04  0.00000000000E+00 0. -1.
          1   -1    0    0  501    0 -0.00000000000E+00 -0.00000000000E+00 -0.11664721810E+03  0.11664721810E+03  0.00000000000E+00 0. -1.
         25    2    1    2    0    0 -0.39782804626E+02 -0.10412479754E+03  0.25790346521E+03  0.30751261978E+03  0.12500067578E+03 0.  0.
          2    1    1    2  501    0  0.38129087105E+02  0.25092379338E+02 -0.84106805291E+02  0.95694354486E+02  0.00000000000E+00 0. -1.
          1    1    1    2  502    0  0.16537175210E+01  0.79032418202E+02  0.80246857879E+03  0.80635270065E+03  0.00000000000E+00 0. -1.
         22    1    3    3    0    0 -0.40824669973E+02 -0.99021532980E+00  0.14801923099E+02  0.43436518417E+02  0.00000000000E+00 0. -1.
         22    1    3    3    0    0  0.10418653472E+01 -0.10313458221E+03  0.24310154211E+03  0.26407610136E+03  0.00000000000E+00 0. -1.
</event>
<event>
 7    1  0.6520971E-006  0.5941590E+02  0.7818608E-02  0.1480955E+00
          2   -1    0    0  502    0  0.00000000000E+00  0.00000000000E+00  0.17468900046E+04  0.17468900046E+04  0.00000000000E+00 0. -1.
          1   -1    0    0  501    0 -0.00000000000E+00 -0.00000000000E+00 -0.20325834544E+03  0.20325834544E+03  0.00000000000E+00 0. -1.
         25    2    1    2    0    0  0.24191904506E+02 -0.71961105996E+02  0.13220305776E+03  0.19714736357E+03  0.12500314180E+03 0.  0.
          2    1    1    2  501    0 -0.39976404236E+02  0.43527070004E+02 -0.16550080516E+03  0.17573626612E+03  0.00000000000E+00 0. -1.
          1    1    1    2  502    0  0.15784499730E+02  0.28434035992E+02  0.15769294065E+04  0.15772647203E+04  0.00000000000E+00 0. -1.
         22    1    3    3    0    0 -0.15625222627E+02 -0.75529683849E+02  0.22434040466E+02  0.80325381394E+02  0.00000000000E+00 0.  1.
         22    1    3    3    0    0  0.39817127133E+02  0.35685778522E+01  0.10976901730E+03  0.11682198218E+03  0.00000000000E+00 0.  1.
</event>
<event>
 7    1  0.6520971E-006  0.1254282E+03  0.7818608E-02  0.1313512E+00
          2   -1    0    0  502    0  0.00000000000E+00  0.00000000000E+00  0.17319817533E+04  0.17319817533E+04  0.00000000000E+00 0. -1.
          1   -1    0    0  501    0 -0.00000000000E+00 -0.00000000000E+00 -0.11760003857E+04  0.11760003857E+04  0.00000000000E+00 0. -1.
         25    2    1    2    0    0  0.12768910882E+03  0.71830585265E+02  0.13526322356E+03  0.23534139134E+03  0.12500115734E+03 0.  0.
          2    1    1    2  501    0 -0.12454220328E+03 -0.13307074489E+02 -0.11219199095E+04  0.11288897740E+04  0.00000000000E+00 0. -1.
          1    1    1    2  502    0 -0.31469055442E+01 -0.58523510775E+02  0.15426380536E+04  0.15437509737E+04  0.00000000000E+00 0. -1.
         22    1    3    3    0    0  0.12429577926E+01  0.81466496509E+01  0.84556401064E+02  0.84957035056E+02  0.00000000000E+00 0. -1.
         22    1    3    3    0    0  0.12644615103E+03  0.63683935614E+02  0.50706822496E+02  0.15038435628E+03  0.00000000000E+00 0. -1.
</event>
<event>
 7    1  0.6520971E-006  0.5983775E+02  0.7818608E-02  0.1428789E+00
          2   -1    0    0  502    0  0.00000000000E+00  0.00000000000E+00  0.30680257541E+04  0.30680257541E+04  0.00000000000E+00 0. -1.
          1   -1    0    0  501    0 -0.00000000000E+00 -0.00000000000E+00 -0.10902821930E+03  0.10902821930E+03  0.00000000000E+00 0. -1.
         25    2    1    2    0    0 -0.11328244150E+02  0.69561237056E+01  0.22377314913E+04  0.22412598462E+04  0.12500701765E+03 0.  0.
          2    1    1    2  501    0  0.57549810495E+02 -0.17024316452E+02 -0.98133397935E+02  0.11503030831E+03  0.00000000000E+00 0. -1.
          1    1    1    2  502    0 -0.46221566345E+02  0.10068192747E+02  0.81939944147E+03  0.82076381888E+03  0.00000000000E+00 0. -1.
         22    1    3    3    0    0 -0.35690379154E+02  0.55363863631E+02  0.88742816572E+03  0.88986949036E+03  0.00000000000E+00 0. -1.
         22    1    3    3    0    0  0.24362135004E+02 -0.48407739926E+02  0.13503033256E+04  0.13513903559E+04  0.00000000000E+00 0. -1.
</event>
<event>
 7    1  0.6520971E-006  0.9043375E+02  0.7818608E-02  0.1318519E+00
          2   -1    0    0  502    0  0.00000000000E+00  0.00000000000E+00  0.30725196499E+03  0.30725196499E+03  0.00000000000E+00 0. -1.
          1   -1    0    0  501    0 -0.00000000000E+00 -0.00000000000E+00 -0.92773357536E+03  0.92773357536E+03  0.00000000000E+00 0. -1.
         25    2    1    2    0    0 -0.26320332199E+02  0.26706347710E+02 -0.17566363398E+02  0.13167523293E+03  0.12499520370E+03 0.  0.
          2    1    1    2  501    0  0.28928395926E+02  0.72124789481E+02 -0.84148541761E+03  0.84506600062E+03  0.00000000000E+00 0. -1.
          1    1    1    2  502    0 -0.26080637276E+01 -0.98831137191E+02  0.23857017064E+03  0.25824430680E+03  0.00000000000E+00 0. -1.
         22    1    3    3    0    0 -0.63615824424E+02 -0.21029944156E+02 -0.23034847799E+02  0.70850800147E+02  0.00000000000E+00 0.  1.
         22    1    3    3    0    0  0.37295492225E+02  0.47736291867E+02  0.54684844012E+01  0.60824432781E+02  0.00000000000E+00 0.  1.
</event>
<event>
 7    1  0.6520971E-006  0.1411088E+03  0.7818608E-02  0.1284163E+00
          2   -1    0    0  502    0  0.00000000000E+00  0.00000000000E+00  0.20474261513E+04  0.20474261513E+04  0.00000000000E+00 0. -1.
          1   -1    0    0  501    0 -0.00000000000E+00 -0.00000000000E+00 -0.40899592006E+03  0.40899592006E+03  0.00000000000E+00 0. -1.
         25    2    1    2    0    0  0.94190534407E+02  0.51665956523E+02  0.32045589242E+03  0.36035784935E+03  0.12499829105E+03 0.  0.
          2    1    1    2  501    0 -0.79847316843E+02 -0.11845917153E+03 -0.37521859480E+03  0.40149366522E+03  0.00000000000E+00 0. -1.
          1    1    1    2  502    0 -0.14343217564E+02  0.66793215003E+02  0.16931929336E+04  0.16945705568E+04  0.00000000000E+00 0. -1.
         22    1    3    3    0    0  0.11841721763E+03  0.65113025346E+02  0.28449804704E+03  0.31496266806E+03  0.00000000000E+00 0.  1.
         22    1    3    3    0    0 -0.24226683225E+02 -0.13447068822E+02  0.35957845380E+02  0.45395181290E+02  0.00000000000E+00 0.  1.
</event>
<event>
 7    1  0.6520971E-006  0.1014738E+03  0.7818608E-02  0.1279381E+00
          2   -1    0    0  502    0  0.00000000000E+00  0.00000000000E+00  0.78605417374E+03  0.78605417374E+03  0.00000000000E+00 0. -1.
          1   -1    0    0  501    0 -0.00000000000E+00 -0.00000000000E+00 -0.16089087058E+04  0.16089087058E+04  0.00000000000E+00 0. -1.
         25    2    1    2    0    0  0.46517435040E+02  0.15529425611E+02  0.26985772181E+03  0.30141889190E+03  0.12500049422E+03 0.  0.
          2    1    1    2  501    0  0.37619467028E+02  0.92016424940E+02 -0.15822242663E+04  0.15853440875E+04  0.00000000000E+00 0. -1.
          1    1    1    2  502    0 -0.84136902067E+02 -0.10754585055E+03  0.48951201242E+03  0.50819990020E+03  0.00000000000E+00 0. -1.
         22    1    3    3    0    0 -0.35861643564E+02  0.24845986397E+02  0.14597420402E+03  0.15235435261E+03  0.00000000000E+00 0. -1.
         22    1    3    3    0    0  0.82379078604E+02 -0.93165607859E+01  0.12388351779E+03  0.14906453930E+03  0.00000000000E+00 0. -1.
</event>
<event>
 7    1  0.6520971E-006  0.6314922E+02  0.7818608E-02  0.1442747E+00
          2   -1    0    0  502    0  0.00000000000E+00  0.00000000000E+00  0.10299692129E+03  0.10299692129E+03  0.00000000000E+00 0. -1.
          1   -1    0    0  501    0 -0.00000000000E+00 -0.00000000000E+00 -0.46612173847E+03  0.46612173847E+03  0.00000000000E+00 0. -1.
         25    2    1    2    0    0  0.46580847051E+02 -0.69409611966E+02 -0.33377740498E+02  0.15403612339E+03  0.12500233679E+03 0.  0.
          2    1    1    2  501    0 -0.39132471997E+02  0.98751675064E+01 -0.34957153666E+03  0.35189363243E+03  0.00000000000E+00 0. -1.
          1    1    1    2  502    0 -0.74483750535E+01  0.59534444460E+02  0.19824459979E+02  0.63188903943E+02  0.00000000000E+00 0. -1.
         22    1    3    3    0    0  0.68863228454E+02 -0.34505111614E+02 -0.65910190411E+02  0.10137504703E+03  0.00000000000E+00 0. -1.
         22    1    3    3    0    0 -0.22282381403E+02 -0.34904500352E+02  0.32532449913E+02  0.52661076358E+02  0.00000000000E+00 0. -1.
</event>
<event>
 7    1  0.6520971E-006  0.1158815E+03  0.7818608E-02  0.1289113E+00
          2   -1    0    0  502    0  0.00000000000E+00  0.00000000000E+00  0.22289929924E+04  0.22289929924E+04  0.00000000000E+00 0. -1.
          1   -1    0    0  501    0 -0.00000000000E+00 -0.00000000000E+00 -0.19005499019E+03  0.19005499019E+03  0.00000000000E+00 0. -1.
         25    2    1    2    0    0  0.12015232868E+03 -0.94839017462E+02  0.89035685940E+02  0.21675647185E+03  0.12499997359E+03 0.  0.
          2    1    1    2  501    0 -0.57573572476E+01  0.79191455386E+02 -0.11192802030E+03  0.13723088391E+03  0.00000000000E+00 0. -1.
          1    1    1    2  502    0 -0.11439497143E+03  0.15647562076E+02  0.20618303366E+04  0.20650606268E+04  0.00000000000E+00 0. -1.
         22    1    3    3    0    0  0.95368466945E+02 -0.51273677936E+02 -0.69200970907E+01  0.10849895060E+03  0.00000000000E+00 0. -1.
         22    1    3    3    0    0  0.24783861734E+02 -0.43565339526E+02  0.95955783031E+02  0.10825752125E+03  0.00000000000E+00 0. -1.
</event>
<event>
 7    1  0.6520971E-006  0.1624746E+03  0.7818608E-02  0.1237338E+00
          2   -1    0    0  502    0  0.00000000000E+00  0.00000000000E+00  0.23094656849E+03  0.23094656849E+03  0.00000000000E+00 0. -1.
          1   -1    0    0  501    0 -0.00000000000E+00 -0.00000000000E+00 -0.13960394198E+04  0.13960394198E+04  0.00000000000E+00 0. -1.
         25    2    1    2    0    0  0.15645637762E+03 -0.10296720449E+03 -0.95778201198E+03  0.98389745903E+03  0.12500793620E+03 0.  0.
          2    1    1    2  501    0 -0.67187434332E+02  0.13230202813E+03 -0.40112861996E+03  0.42769398842E+03  0.00000000000E+00 0. -1.
          1    1    1    2  502    0 -0.89268943288E+02 -0.29334823638E+02  0.19381778066E+03  0.21539454082E+03  0.00000000000E+00 0. -1.
         22    1    3    3    0    0 -0.40515367085E+01  0.15664018093E+02 -0.18681079432E+03  0.18751013116E+03  0.00000000000E+00 0.  1.
         22    1    3    3    0    0  0.16050791433E+03 -0.11863122259E+03 -0.77097121766E+03  0.79638732787E+03  0.00000000000E+00 0.  1.
</event>
<event>
 7    1  0.6520971E-006  0.9977989E+02  0.7818608E-02  0.1331525E+00
          2   -1    0    0  502    0  0.00000000000E+00  0.00000000000E+00  0.43934623490E+03  0.43934623490E+03  0.00000000000E+00 0. -1.
          1   -1    0    0  501    0 -0.00000000000E+00 -0.00000000000E+00 -0.12102106053E+04  0.12102106053E+04  0.00000000000E+00 0. -1.
         25    2    1    2    0    0 -0.33010479676E+02 -0.84694921451E+02  0.33699322366E+03  0.37074502260E+03  0.12499807000E+03 0.  0.
          2    1    1    2  501    0 -0.61444755501E+02 -0.12786363402E+02 -0.11380324854E+04  0.11397617676E+04  0.00000000000E+00 0. -1.
          1    1    1    2  502    0  0.94455235177E+02  0.97481284852E+02  0.30174891309E+02  0.13905005003E+03  0.00000000000E+00 0. -1.
         22    1    3    3    0    0 -0.26822358634E+02 -0.11710578492E+03  0.28333840775E+03  0.30775616499E+03  0.00000000000E+00 0.  1.
         22    1    3    3    0    0 -0.61881210425E+01  0.32410863467E+02  0.53654815908E+02  0.62988857608E+02  0.00000000000E+00 0.  1.
</event>
<event>
 7    1  0.6520971E-006  0.1214528E+03  0.7818608E-02  0.1439639E+00
          2   -1    0    0  502    0  0.00000000000E+00  0.00000000000E+00  0.14760290558E+04  0.14760290558E+04  0.00000000000E+00 0. -1.
          1   -1    0    0  501    0 -0.00000000000E+00 -0.00000000000E+00 -0.10860836736E+04  0.10860836736E+04  0.00000000000E+00 0. -1.
         25    2    1    2    0    0  0.12005330741E+03 -0.11645095762E+02 -0.43028689472E+03  0.46402638956E+03  0.12500109428E+03 0.  0.
          2    1    1    2  501    0  0.10182421271E+01  0.21452907879E+02 -0.63621760321E+03  0.63658000496E+03  0.00000000000E+00 0. -1.
          1    1    1    2  502    0 -0.12107154954E+03 -0.98078121170E+01  0.14564498802E+04  0.14615063349E+04  0.00000000000E+00 0. -1.
         22    1    3    3    0    0  0.13530670306E+03 -0.43195763872E+01 -0.42538898812E+03  0.44641052166E+03  0.00000000000E+00 0.  1.
         22    1    3    3    0    0 -0.15253395652E+02 -0.73255193746E+01 -0.48979065966E+01  0.17615867905E+02  0.00000000000E+00 0.  1.
</event>
<event>
 7    1  0.6520971E-006  0.4161473E+02  0.7818608E-02  0.1512942E+00
          2   -1    0    0  502    0  0.00000000000E+00  0.00000000000E+00  0.89901375579E+02  0.89901375579E+02  0.00000000000E+00 0. -1.
          1   -1    0    0  501    0 -0.00000000000E+00 -0.00000000000E+00 -0.46428753331E+03  0.46428753331E+03  0.00000000000E+00 0. -1.
         25    2    1    2    0    0 -0.43515495159E+01  0.73253813078E+02 -0.22236746554E+03  0.26543791746E+03  0.12499976473E+03 0.  0.
          2    1    1    2  501    0  0.12874422369E+02 -0.37006764510E+02 -0.21339524498E+03  0.21696262800E+03  0.00000000000E+00 0. -1.
          1    1    1    2  502    0 -0.85228728533E+01 -0.36247048568E+02  0.61376552784E+02  0.71788363425E+02  0.00000000000E+00 0. -1.
         22    1    3    3    0    0  0.64965796494E+01  0.17731544854E+02  0.13285643176E+02  0.23089424953E+02  0.00000000000E+00 0. -1.
         22    1    3    3    0    0 -0.10848129165E+02  0.55522268223E+02 -0.23565310871E+03  0.24234849251E+03  0.00000000000E+00 0. -1.
</event>
<event>
 7    1  0.6520971E-006  0.6064475E+02  0.7818608E-02  0.1469392E+00
          2   -1    0    0  502    0  0.00000000000E+00  0.00000000000E+00  0.15043389540E+04  0.15043389540E+04  0.00000000000E+00 0. -1.
          1   -1    0    0  501    0 -0.00000000000E+00 -0.00000000000E+00 -0.12573768024E+03  0.12573768024E+03  0.00000000000E+00 0. -1.
         25    2    1    2    0    0 -0.25845166288E+01  0.36145313128E+02  0.12777576776E+03  0.18239456501E+03  0.12501186796E+03 0.  0.
          2    1    1    2  501    0 -0.31081973977E+02  0.15185427838E+02 -0.94667225933E+02  0.10078973157E+03  0.00000000000E+00 0. -1.
          1    1    1    2  502    0  0.33666490606E+02 -0.51330740966E+02  0.13454927320E+04  0.13468923377E+04  0.00000000000E+00 0. -1.
         22    1    3    3    0    0 -0.16209724837E+02  0.33330655823E+02 -0.14235710797E+02  0.39703189529E+02  0.00000000000E+00 0. -1.
         22    1    3    3    0    0  0.13625208208E+02  0.28146573043E+01  0.14201147856E+03  0.14269137548E+03  0.00000000000E+00 0. -1.
</event>
<event>
 7    1  0.6520971E-006  0.6800950E+02  0.7818608E-02  0.1525658E+00
          2   -1    0    0  502    0  0.00000000000E+00  0.00000000000E+00  0.13333948883E+04  0.13333948883E+04  0.00000000000E+00 0. -1.
          1   -1    0    0  501    0 -0.00000000000E+00 -0.00000000000E+00 -0.15850647141E+04  0.15850647141E+04  0.00000000000E+00 0. -1.
         25    2    1    2    0    0 -0.62295123044E+02 -0.57785019818E+02 -0.26716297236E+03  0.30695468845E+03  0.12500134437E+03 0.  0.
          2    1    1    2  501    0  0.57208717935E+01  0.20128177653E+02 -0.12970423544E+04  0.12972111397E+04  0.00000000000E+00 0. -1.
          1    1    1    2  502    0  0.56574251250E+02  0.37656842165E+02  0.13125355010E+04  0.13142937743E+04  0.00000000000E+00 0. -1.
         22    1    3    3    0    0 -0.49883953365E+02  0.22141776509E+02 -0.45702458398E+02  0.71185544698E+02  0.00000000000E+00 0.  1.
         22    1    3    3    0    0 -0.12411169679E+02 -0.79926796327E+02 -0.22146051396E+03  0.23576914376E+03  0.00000000000E+00 0.  1.
</event>
<event>
 7    1  0.6520971E-006  0.1079030E+03  0.7818608E-02  0.1301748E+00
          2   -1    0    0  502    0  0.00000000000E+00  0.00000000000E+00  0.27199810241E+04  0.27199810241E+04  0.00000000000E+00 0. -1.
          1   -1    0    0  501    0 -0.00000000000E+00 -0.00000000000E+00 -0.14201656064E+03  0.14201656064E+03  0.00000000000E+00 0. -1.
         25    2    1    2    0    0 -0.14660768649E+03  0.92247573500E+02  0.14341794603E+03  0.25728783853E+03  0.12499958422E+03 0.  0.
          2    1    1    2  501    0  0.77522998713E+02 -0.60976752220E+02 -0.55724955128E+02  0.11328393648E+03  0.00000000000E+00 0. -1.
          1    1    1    2  502    0  0.69084687778E+02 -0.31270821279E+02  0.24902714726E+04  0.24914258098E+04  0.00000000000E+00 0. -1.
         22    1    3    3    0    0 -0.49113120452E+02  0.83787558560E+02  0.12402027127E+03  0.15752295469E+03  0.00000000000E+00 0. -1.
         22    1    3    3    0    0 -0.97494566038E+02  0.84600149394E+01  0.19397674765E+02  0.99764883832E+02  0.00000000000E+00 0. -1.
</event>
<event>
 7    1  0.6520971E-006  0.4627507E+02  0.7818608E-02  0.1466553E+00
          2   -1    0    0  502    0  0.00000000000E+00  0.00000000000E+00  0.51866635021E+03  0.51866635021E+03  0.00000000000E+00 0. -1.
          1   -1    0    0  501    0 -0.00000000000E+00 -0.00000000000E+00 -0.29612078194E+03  0.29612078194E+03  0.00000000000E+00 0. -1.
         25    2    1    2    0    0  0.36922397345E+01 -0.93734452297E+01  0.31365448284E+03  0.33779384650E+03  0.12499621601E+03 0.  0.
          2    1    1    2  501    0  0.40600572568E+02  0.22751111816E+02 -0.27932387688E+03  0.28317458887E+03  0.00000000000E+00 0. -1.
          1    1    1    2  502    0 -0.44292812303E+02 -0.13377666586E+02  0.18821496231E+03  0.19381869679E+03  0.00000000000E+00 0. -1.
         22    1    3    3    0    0 -0.53844050971E+02  0.88410611860E+01  0.82658377237E+02  0.99044199806E+02  0.00000000000E+00 0. -1.
         22    1    3    3    0    0  0.57536290705E+02 -0.18214506416E+02  0.23099610560E+03  0.23874964669E+03  0.00000000000E+00 0. -1.
</event>
<event>
 7    1  0.6520971E-006  0.1747738E+03  0.7818608E-02  0.1303367E+00
          2   -1    0    0  502    0  0.00000000000E+00  0.00000000000E+00  0.29060352947E+04  0.29060352947E+04  0.00000000000E+00 0. -1.
          1   -1    0    0  501    0 -0.00000000000E+00 -0.00000000000E+00 -0.10247369385E+04  0.10247369385E+04  0.00000000000E+00 0. -1.
         25    2    1    2    0    0  0.16371070534E+03  0.12245074927E+03 -0.18832277020E+03  0.30477812767E+03  0.12501544020E+03 0.  0.
          2    1    1    2  501    0 -0.45721757144E+02  0.61000793044E+01 -0.77482712815E+03  0.77619892332E+03  0.00000000000E+00 0. -1.
          1    1    1    2  502    0 -0.11798894819E+03 -0.12855082858E+03  0.28444482546E+04  0.28497951822E+04  0.00000000000E+00 0. -1.
         22    1    3    3    0    0  0.16217553748E+03  0.81749042346E+02 -0.99553266077E+02  0.20711026934E+03  0.00000000000E+00 0. -1.
         22    1    3    3    0    0  0.15351678558E+01  0.40701706928E+02 -0.88769504122E+02  0.97667858322E+02  0.00000000000E+00 0. -1.
</event>
<event>
 7    1  0.6520971E-006  0.9435812E+02  0.7818608E-02  0.1401405E+00
          2   -1    0    0  502    0  0.00000000000E+00  0.00000000000E+00  0.29730339033E+03  0.29730339033E+03  0.00000000000E+00 0. -1.
          1   -1    0    0  501    0 -0.00000000000E+00 -0.00000000000E+00 -0.27007211098E+04  0.27007211098E+04  0.00000000000E+00 0. -1.
         25    2    1    2    0    0 -0.66010473147E+01 -0.11218164214E+03 -0.24284241823E+03  0.29533831243E+03  0.12499593609E+03 0.  0.
          2    1    1    2  501    0 -0.23749195475E+02  0.90865992594E+02 -0.24294504960E+04  0.24312651779E+04  0.00000000000E+00 0. -1.
          1    1    1    2  502    0  0.30350242790E+02  0.21315649548E+02  0.26887519479E+03  0.27142100974E+03  0.00000000000E+00 0. -1.
         22    1    3    3    0    0  0.13100136324E+02  0.21263424621E+02 -0.11396511092E+02  0.27452272464E+02  0.00000000000E+00 0. -1.
         22    1    3    3    0    0 -0.19701183638E+02 -0.13344506676E+03 -0.23144590714E+03  0.26788603997E+03  0.00000000000E+00 0. -1.
</event>
<event>
 7    1  0.6520971E-006  0.9866944E+02  0.7818608E-02  0.1352062E+00
          2   -1    0    0  502    0  0.00000000000E+00  0.00000000000E+00  0.12482420954E+04  0.12482420954E+04  0.00000000000E+00 0. -1.
          1   -1    0    0  501    0 -0.00000000000E+00 -0.00000000000E+00 -0.11968035513E+03  0.11968035513E+03  0.00000000000E+00 0. -1.
         25    2    1    2    0    0 -0.68950446951E+02  0.11566312307E+03  0.11120013253E+03  0.21475977829E+03  0.12499668284E+03 0.  0.
          2    1    1    2  501    0  0.68183461954E+02 -0.62519550298E+02 -0.35407825941E+02  0.99052474938E+02  0.00000000000E+00 0. -1.
          1    1    1    2  502    0  0.76698499765E+00 -0.53143572769E+02  0.10527694337E+04  0.10541101973E+04  0.00000000000E+00 0. -1.
         22    1    3    3    0    0  0.15427988000E+02  0.93415353433E+02  0.72746669233E+02  0.11940070752E+03  0.00000000000E+00 0. -1.
         22    1    3    3    0    0 -0.84378434951E+02  0.22247769634E+02  0.38453463297E+02  0.95359070770E+02  0.00000000000E+00 0. -1.
</event>
<event>
 7    1  0.6520971E-006  0.2052855E+03  0.7818608E-02  0.1286118E+00
          2   -1    0    0  502    0  0.00000000000E+00  0.00000000000E+00  0.38689194646E+03  0.38689194646E+03  0.00000000000E+00 0. -1.
          1   -1    0    0  501    0 -0.00000000000E+00 -0.00000000000E+00 -0.38805944495E+03  0.38805944495E+03  0.00000000000E+00 0. -1.
         25    2    1    2    0    0 -0.10038544533E+03 -0.22530521626E+03 -0.21449748683E+03  0.34996240313E+03  0.12499933456E+03 0.  0.
          2    1    1    2  501    0  0.18310469063E+02  0.42307920672E+02 -0.66372645466E+02  0.80811889565E+02  0.00000000000E+00 0. -1.
          1    1    1    2  502    0  0.82074976269E+02  0.18299729559E+03  0.27970263380E+03  0.34417709871E+03  0.00000000000E+00 0. -1.
         22    1    3    3    0    0 -0.40368698644E+02 -0.19520394341E+03 -0.19770573308E+03  0.28075214736E+03  0.00000000000E+00 0. -1.
         22    1    3    3    0    0 -0.60016746689E+02 -0.30101272852E+02 -0.16791753746E+02  0.69210255774E+02  0.00000000000E+00 0. -1.
</event>
<event>
 7    1  0.6520971E-006  0.7363861E+02  0.7818608E-02  0.1494519E+00
          2   -1    0    0  502    0  0.00000000000E+00  0.00000000000E+00  0.14073261587E+04  0.14073261587E+04  0.00000000000E+00 0. -1.
          1   -1    0    0  501    0 -0.00000000000E+00 -0.00000000000E+00 -0.83049385591E+03  0.83049385591E+03  0.00000000000E+00 0. -1.
         25    2    1    2    0    0  0.51247150912E+02 -0.56011399354E+02 -0.16871794987E+03  0.22328031516E+03  0.12499922077E+03 0.  0.
          2    1    1    2  501    0 -0.64326754117E+02  0.36047469122E+02 -0.63224862837E+03  0.63653411488E+03  0.00000000000E+00 0. -1.
          1    1    1    2  502    0  0.13079603205E+02  0.19963930232E+02  0.13777988811E+04  0.13780055846E+04  0.00000000000E+00 0. -1.
         22    1    3    3    0    0  0.85704203254E+02 -0.47997868871E+02 -0.15847743321E+03  0.18645134139E+03  0.00000000000E+00 0.  1.
         22    1    3    3    0    0 -0.34457052343E+02 -0.80135304830E+01 -0.10240516664E+02  0.36828973764E+02  0.00000000000E+00 0.  1.
</event>
<event>
 7    1  0.6520971E-006  0.7999020E+02  0.7818608E-02  0.1416220E+00
          2   -1    0    0  502    0  0.00000000000E+00  0.00000000000E+00  0.15690319449E+04  0.15690319449E+04  0.00000000000E+00 0. -1.
          1   -1    0    0  501    0 -0.00000000000E+00 -0.00000000000E+00 -0.94808369088E+02  0.94808369088E+02  0.00000000000E+00 0. -1.
         25    2    1    2    0    0  0.11499177338E+03 -0.20728759002E+02  0.16578608207E+03  0.23824957745E+03  0.12500018700E+03 0.  0.
          2    1    1    2  501    0 -0.38964967842E+02 -0.15294198277E+00 -0.50825470405E+02  0.64043114791E+02  0.00000000000E+00 0. -1.
          1    1    1    2  502    0 -0.76026805541E+02  0.20881700985E+02  0.13592629641E+04  0.13615476217E+04  0.00000000000E+00 0. -1.
         22    1    3    3    0    0  0.64147990575E+02 -0.65151260412E+02  0.49982169903E+02  0.10420109758E+03  0.00000000000E+00 0.  1.
         22    1    3    3    0    0  0.50843782808E+02  0.44422501410E+02  0.11580391217E+03  0.13404847987E+03  0.00000000000E+00 0.  1.
</event>
<event>
 7    1  0.6520971E-006  0.8005093E+02  0.7818608E-02  0.1497553E+00
          2   -1    0    0  502    0  0.00000000000E+00  0.00000000000E+00  0.21157125247E+04  0.21157125247E+04  0.00000000000E+00 0. -1.
          1   -1    0    0  501    0 -0.00000000000E+00 -0.00000000000E+00 -0.11936714927E+03  0.11936714927E+03  0.00000000000E+00 0. -1.
         25    2    1    2    0    0  0.18336473521E+02 -0.99361459113E+02  0.65983364301E+03  0.67912779435E+03  0.12500079513E+03 0.  0.
          2    1    1    2  501    0 -0.15831660425E+02  0.78008045499E+02 -0.95192232433E+02  0.12408649302E+03  0.00000000000E+00 0. -1.
          1    1    1    2  502    0 -0.25048130956E+01  0.21353413615E+02  0.14317039648E+04  0.14318653866E+04  0.00000000000E+00 0. -1.
         22    1    3    3    0    0  0.52747730375E+02 -0.60074659016E+02  0.56702871014E+03  0.57263674859E+03  0.00000000000E+00 0.  1.
         22    1    3    3    0    0 -0.34411256854E+02 -0.39286800098E+02  0.92804932878E+02  0.10649104576E+03  0.00000000000E+00 0.  1.
</event>
<event>
 7    1  0.6520971E-006  0.9211706E+02  0.7818608E-02  0.1370133E+00
          2   -1    0    0  502    0  0.00000000000E+00  0.00000000000E+00  0.13306040663E+04  0.13306040663E+04  0.00000000000E+00 0. -1.
          1   -1    0    0  501    0 -0.00000000000E+00 -0.00000000000E+00 -0.36937641972E+02  0.36937641972E+02  0.00000000000E+00 0. -1.
         25    2    1    2    0    0  0.34209226606E+02  0.10012664683E+03  0.83941239622E+03  0.85523967734E+03  0.12500447260E+03 0.  0.
          2    1    1    2  501    0  0.13818395094E+02 -0.90818793203E+02  0.49018136621E+02  0.10412386355E+03  0.00000000000E+00 0. -1.
          1    1    1    2  502    0 -0.48027621700E+02 -0.93078536284E+01  0.40523589144E+03  0.40817816735E+03  0.00000000000E+00 0. -1.
         22    1    3    3    0    0 -0.12007926234E+02 -0.19508190879E+02  0.29653783775E+03  0.29742133249E+03  0.00000000000E+00 0.  1.
         22    1    3    3    0    0  0.46217152840E+02  0.11963483771E+03  0.54287455847E+03  0.55781834484E+03  0.00000000000E+00 0.  1.
</event>
<event>
 7    1  0.6520971E-006  0.6841307E+02  0.7818608E-02  0.1386991E+00
          2   -1    0    0  502    0  0.00000000000E+00  0.00000000000E+00  0.50520527407E+02  0.50520527407E+02  0.00000000000E+00 0. -1.
          1   -1    0    0  501    0 -0.00000000000E+00 -0.00000000000E+00 -0.26594654707E+04  0.26594654707E+04  0.00000000000E+00 0. -1.
         25    2    1    2    0    0  0.72185302565E+02 -0.80135507104E+02 -0.63044900038E+03  0.65170781866E+03  0.12499888563E+03 0.  0.
          2    1    1    2  501    0 -0.55368377690E+02  0.15110381894E+02 -0.19894056505E+04  0.19902333589E+04  0.00000000000E+00 0. -1.
          1    1    1    2  502    0 -0.16816924875E+02  0.65025125210E+02  0.10909707620E+02  0.68044820458E+02  0.00000000000E+00 0. -1.
         22    1    3    3    0    0  0.40534787254E+02 -0.21331364720E+02 -0.52431511850E+03  0.52631211233E+03  0.00000000000E+00 0. -1.
         22    1    3    3    0    0  0.31650515311E+02 -0.58804142384E+02 -0.10613388188E+03  0.12539570632E+03  0.00000000000E+00 0. -1.
</event>
<event>
 7    1  0.6520971E-006  0.1343685E+03  0.7818608E-02  0.1328552E+00
          2   -1    0    0  502    0  0.00000000000E+00  0.00000000000E+00  0.53657651787E+02  0.53657651787E+02  0.00000000000E+00 0. -1.
          1   -1    0    0  501    0 -0.00000000000E+00 -0.00000000000E+00 -0.15658552833E+04  0.15658552833E+04  0.00000000000E+00 0. -1.
         25    2    1    2    0    0 -0.51346338788E+02 -0.83016954211E+02 -0.63908968716E+03  0.65847383635E+03  0.12499561486E+03 0.  0.
          2    1    1    2  501    0 -0.15226097193E+01 -0.47815905874E+02 -0.80126537732E+03  0.80269227235E+03  0.00000000000E+00 0. -1.
          1    1    1    2  502    0  0.52868948507E+02  0.13083286009E+03 -0.71842567066E+02  0.15834682642E+03  0.00000000000E+00 0. -1.
         22    1    3    3    0    0 -0.82145149106E+01 -0.17187737403E+02 -0.48569103217E+03  0.48606447649E+03  0.00000000000E+00 0. -1.
         22    1    3    3    0    0 -0.43131823877E+02 -0.65829216808E+02 -0.15339865498E+03  0.17240935986E+03  0.00000000000E+00 0. -1.
</event>
<event>
 7    1  0.6520971E-006  0.9835880E+02  0.7818608E-02  0.1360358E+00
          2   -1    0    0  502    0  0.00000000000E+00  0.00000000000E+00  0.30622890990E+03  0.30622890990E+03  0.00000000000E+00 0. -1.
          1   -1    0    0  501    0 -0.00000000000E+00 -0.00000000000E+00 -0.90009388469E+03  0.90009388469E+03  0.00000000000E+00 0. -1.
         25    2    1    2    0    0  0.88943881990E+02 -0.52243023223E+01 -0.53809672248E+03  0.55956422711E+03  0.12500293613E+03 0.  0.
          2    1    1    2  501    0 -0.96096894770E+02  0.54413581204E+02 -0.34037614217E+03  0.35784265978E+03  0.00000000000E+00 0. -1.
          1    1    1    2  502    0  0.71530127798E+01 -0.49189278881E+02  0.28460788986E+03  0.28891590769E+03  0.00000000000E+00 0. -1.
         22    1    3    3    0    0  0.10120920177E+03  0.11151940754E+02 -0.52606538585E+03  0.53582875855E+03  0.00000000000E+00 0. -1.
         22    1    3    3    0    0 -0.12265319778E+02 -0.16376243077E+02 -0.12031336634E+02  0.23735468560E+02  0.00000000000E+00 0. -1.
</event>
<event>
 7    1  0.6520971E-006  0.1377159E+03  0.7818608E-02  0.1222500E+00
          2   -1    0    0  502    0  0.00000000000E+00  0.00000000000E+00  0.63256565333E+03  0.63256565333E+03  0.00000000000E+00 0. -1.
          1   -1    0    0  501    0 -0.00000000000E+00 -0.00000000000E+00 -0.64412326318E+03  0.64412326318E+03  0.00000000000E+00 0. -1.
         25    2    1    2    0    0  0.33610600215E+02 -0.11776099570E+03  0.11305919024E+03  0.20833743445E+03  0.12499912616E+03 0.  0.
          2    1    1    2  501    0  0.11088731786E+03  0.66335345006E+02 -0.57667950349E+03  0.59097853176E+03  0.00000000000E+00 0. -1.
          1    1    1    2  502    0 -0.14449791808E+03  0.51425650690E+02  0.45206270340E+03  0.47737295030E+03  0.00000000000E+00 0. -1.
         22    1    3    3    0    0  0.32582267835E+02 -0.81799254428E+02  0.13860952079E+03  0.16421120989E+03  0.00000000000E+00 0.  1.
         22    1    3    3    0    0  0.10283323792E+01 -0.35961741267E+02 -0.25550330546E+02  0.44126224555E+02  0.00000000000E+00 0.  1.
</event>
<event>
 7    1  0.6520971E-006  0.6304214E+02  0.7818608E-02  0.1462211E+00
          2   -1    0    0  502    0  0.00000000000E+00  0.00000000000E+00  0.36651839490E+04  0.36651839490E+04  0.00000000000E+00 0. -1.
          1   -1    0    0  501    0 -0.00000000000E+00 -0.00000000000E+00 -0.73667914052E+03  0.73667914052E+03  0.00000000000E+00 0. -1.
         25    2    1    2    0    0  0.64406408336E+01 -0.41958019340E+02  0.12999964115E+04  0.13066815882E+04  0.12499658267E+03 0.  0.
          2    1    1    2  501    0  0.24699885147E+02  0.58032443742E+02 -0.73185016226E+03  0.73456280117E+03  0.00000000000E+00 0. -1.
          1    1    1    2  502    0 -0.31140525981E+02 -0.16074424402E+02  0.23603585592E+04  0.23606187001E+04  0.00000000000E+00 0. -1.
         22    1    3    3    0    0  0.21751821921E+02 -0.58266023380E+01  0.11842481626E+04  0.11844622415E+04  0.00000000000E+00 0. -1.
         22    1    3    3    0    0 -0.15311181088E+02 -0.36131417002E+02  0.11574824893E+03  0.12221934663E+03  0.00000000000E+00 0. -1.
</event>
<event>
 7    1  0.6520971E-006  0.7788213E+02  0.7818608E-02  0.1365348E+00
          2   -1    0    0  502    0  0.00000000000E+00  0.00000000000E+00  0.17244133213E+03  0.17244133213E+03  0.00000000000E+00 0. -1.
          1   -1    0    0  501    0 -0.00000000000E+00 -0.00000000000E+00 -0.11629150668E+04  0.11629150668E+04  0.00000000000E+00 0. -1.
         25    2    1    2    0    0 -0.10322508939E+03 -0.20784521858E+02  0.10299325595E+03  0.19318330035E+03  0.12499904534E+03 0.  0.
          2    1    1    2  501    0  0.71590765328E+02 -0.30443932158E+02 -0.10769278936E+04  0.10797341148E+04  0.00000000000E+00 0. -1.
          1    1    1    2  502    0  0.31634324065E+02  0.51228454016E+02 -0.16539096981E+02  0.62438983727E+02  0.00000000000E+00 0. -1.
         22    1    3    3    0    0 -0.76845306458E+02  0.19185824055E+02 -0.43523723810E+00  0.79205343259E+02  0.00000000000E+00 0. -1.
         22    1    3    3    0    0 -0.26379782935E+02 -0.39970345914E+02  0.10342849319E+03  0.11397795710E+03  0.00000000000E+00 0. -1.
</event>
<event>
 7    1  0.6520971E-006  0.1881464E+03  0.7818608E-02  0.1265820E+00
          2   -1    0    0  502    0  0.00000000000E+00  0.00000000000E+00  0.21594783507E+04  0.21594783507E+04  0.00000000000E+00 0. -1.
          1   -1    0    0  501    0 -0.00000000000E+00 -0.00000000000E+00 -0.11228148393E+03  0.11228148393E+03  0.00000000000E+00 0. -1.
         25    2    1    2    0    0  0.11531596958E+03 -0.10411597563E+03  0.70253977715E+03  0.73029184168E+03  0.12500450523E+03 0.  0.
          2    1    1    2  501    0 -0.17342006580E+03  0.85237289174E+02 -0.21782991123E+01  0.19324766409E+03  0.00000000000E+00 0. -1.
          1    1    1    2  502    0  0.58104096216E+02  0.18878686459E+02  0.13468353887E+04  0.13482203288E+04  0.00000000000E+00 0. -1.
         22    1    3    3    0    0  0.76261810321E+02 -0.80813167756E+02  0.22859211625E+03  0.25416724299E+03  0.00000000000E+00 0. -1.
         22    1    3    3    0    0  0.39054159263E+02 -0.23302807876E+02  0.47394766090E+03  0.47612459869E+03  0.00000000000E+00 0. -1.
</event>
<event>
 7    1  0.6520971E-006  0.4443461E+02  0.7818608E-02  0.1540107E+00
          2   -1    0    0  502    0  0.00000000000E+00  0.00000000000E+00  0.66923652509E+03  0.66923652509E+03  0.00000000000E+00 0. -1.
          1   -1    0    0  501    0 -0.00000000000E+00 -0.00000000000E+00 -0.56977817798E+03  0.56977817798E+03  0.00000000000E+00 0. -1.
         25    2    1    2    0    0 -0.21769429234E+02 -0.25936818026E+02  0.17536053189E+03  0.21798296535E+03  0.12497451924E+03 0.  0.
          2    1    1    2  501    0  0.21699487914E+02 -0.19428601924E+02 -0.54698985842E+03  0.54776477028E+03  0.00000000000E+00 0. -1.
          1    1    1    2  502    0  0.69941320747E-01  0.45365419950E+02  0.47108767363E+03  0.47326696743E+03  0.00000000000E+00 0. -1.
         22    1    3    3    0    0  0.37953643882E+02 -0.31440002746E+02  0.13985607058E+03  0.14828578264E+03  0.00000000000E+00 0. -1.
         22    1    3    3    0    0 -0.59723073117E+02  0.55031847200E+01  0.35504461319E+02  0.69697182713E+02  0.00000000000E+00 0. -1.
</event>
<event>
 7    1  0.6520971E-006  0.3233766E+02  0.7818608E-02  0.1650104E+00
          2   -1    0    0  502    0  0.00000000000E+00  0.00000000000E+00  0.97965715254E+02  0.97965715254E+02  0.00000000000E+00 0. -1.
          1   -1    0    0  501    0 -0.00000000000E+00 -0.00000000000E+00 -0.54151152526E+03  0.54151152526E+03  0.00000000000E+00 0. -1.
         25    2    1    2    0    0 -0.43059826473E+02  0.12932473072E+02 -0.27261569530E+03  0.30326161413E+03  0.12500756683E+03 0.  0.
          2    1    1    2  501    0  0.11111655624E+02 -0.17281173200E+02 -0.24999048695E+03  0.25083331398E+03  0.00000000000E+00 0. -1.
          1    1    1    2  502    0  0.31948170849E+02  0.43487001286E+01  0.79060372239E+02  0.85382312407E+02  0.00000000000E+00 0. -1.
         22    1    3    3    0    0 -0.19827100727E+02 -0.67721201902E+01 -0.27198571819E+03  0.27279150726E+03  0.00000000000E+00 0. -1.
         22    1    3    3    0    0 -0.23232725746E+02  0.19704593262E+02 -0.62997710860E+00  0.30470106865E+02  0.00000000000E+00 0. -1.
</event>
<event>
 7    1  0.6520971E-006  0.1096202E+03  0.7818608E-02  0.1354063E+00
          2   -1    0    0  502    0  0.00000000000E+00  0.00000000000E+00  0.52351347924E+03  0.52351347924E+03  0.00000000000E+00 0. -1.
          1   -1    0    0  501    0 -0.00000000000E+00 -0.00000000000E+00 -0.10401311369E+04  0.10401311369E+04  0.00000000000E+00 0. -1.
         25    2    1    2    0    0  0.67876325890E+02  0.13991778856E+03 -0.34935042598E+03  0.40231303347E+03  0.12500349434E+03 0.  0.
          2    1    1    2  501    0 -0.25091560317E+02 -0.39781697773E+02 -0.65748494592E+03  0.65916509616E+03  0.00000000000E+00 0. -1.
          1    1    1    2  502    0 -0.42784765574E+02 -0.10013609079E+03  0.49021771423E+03  0.50216648653E+03  0.00000000000E+00 0. -1.
         22    1    3    3    0    0  0.22854122210E+02  0.35505790854E+02 -0.24294029739E+03  0.24658256261E+03  0.00000000000E+00 0.  1.
         22    1    3    3    0    0  0.45022203681E+02  0.10441199771E+03 -0.10641012859E+03  0.15573047087E+03  0.00000000000E+00 0.  1.
</event>
<event>
 7    1  0.6520971E-006  0.1589605E+03  0.7818608E-02  0.1207495E+00
          2   -1    0    0  502    0  0.00000000000E+00  0.00000000000E+00  0.10745892776E+04  0.10745892776E+04  0.00000000000E+00 0. -1.
          1   -1    0    0  501    0 -0.00000000000E+00 -0.00000000000E+00 -0.30730724662E+03  0.30730724662E+03  0.00000000000E+00 0. -1.
         25    2    1    2    0    0  0.18515984135E+03 -0.99055031901E+02  0.59700253818E+03  0.64508397186E+03  0.12500093585E+03 0.  0.
          2    1    1    2  501    0 -0.62566929259E+02  0.14584672532E+03 -0.25022609533E+03  0.29630893794E+03  0.00000000000E+00 0. -1.
          1    1    1    2  502    0 -0.12259291209E+03 -0.46791693415E+02  0.42050558815E+03  0.44050361444E+03  0.00000000000E+00 0. -1.
         22    1    3    3    0    0  0.16505783718E+03 -0.28590382901E+02  0.36111482291E+03  0.39807714696E+03  0.00000000000E+00 0. -1.
         22    1    3    3    0    0  0.20102004169E+02 -0.70464648999E+02  0.23588771527E+03  0.24700682490E+03  0.00000000000E+00 0. -1.
</event>
<event>
 7    1  0.6520971E-006  0.6257437E+02  0.7818608E-02  0.1413442E+00
          2   -1    0    0  502    0  0.00000000000E+00  0.00000000000E+00  0.22017714463E+04  0.22017714463E+04  0.00000000000E+00 0. -1.
          1   -1    0    0  501    0 -0.00000000000E+00 -0.00000000000E+00 -0.40168968290E+03  0.40168968290E+03  0.00000000000E+00 0. -1.
         25    2    1    2    0    0 -0.97809414606E+02  0.24507449922E+02  0.20236031990E+03  0.25834509907E+03  0.12500077782E+03 0.  0.
          2    1    1    2  501    0  0.61275122455E+02  0.10924955943E+02 -0.37077444057E+03  0.37596233997E+03  0.00000000000E+00 0. -1.
          1    1    1    2  502    0  0.36534292151E+02 -0.35432405866E+02  0.19684958840E+04  0.19691536901E+04  0.00000000000E+00 0. -1.
         22    1    3    3    0    0 -0.90861233785E+02  0.69417369042E+02  0.15608850307E+03  0.19348942018E+03  0.00000000000E+00 0.  1.
         22    1    3    3    0    0 -0.69481808209E+01 -0.44909919119E+02  0.46271816823E+02  0.64855678889E+02  0.00000000000E+00 0.  1.
</event>
<event>
 7    1  0.6520971E-006  0.2555238E+02  0.7818608E-02  0.1684404E+00
          2   -1    0    0  502    0  0.00000000000E+00  0.00000000000E+00  0.83564567754E+03  0.83564567754E+03  0.00000000000E+00 0. -1.
          1   -1    0    0  501    0 -0.00000000000E+00 -0.00000000000E+00 -0.12668017384E+03  0.12668017384E+03  0.00000000000E+00 0. -1.
         25    2    1    2    0    0  0.80210533282E+01  0.44276494637E+02  0.35610418943E+01  0.13288166516E+03  0.12498044104E+03 0.  0.
          2    1    1    2  501    0 -0.10299130309E+02 -0.18884662473E+02 -0.59936075186E+02  0.63679161980E+02  0.00000000000E+00 0. -1.
          1    1    1    2  502    0  0.22780769811E+01 -0.25391832164E+02  0.76534053700E+03  0.76576502424E+03  0.00000000000E+00 0. -1.
         22    1    3    3    0    0 -0.33443447521E+01 -0.57370333447E+00 -0.56759082366E+02  0.56860418644E+02  0.00000000000E+00 0.  1.
         22    1    3    3    0    0  0.11365398080E+02  0.44850197972E+02  0.60320124260E+02  0.76021246519E+02  0.00000000000E+00 0.  1.
</event>
<event>
 7    1  0.6520971E-006  0.6797144E+02  0.7818608E-02  0.1373741E+00
          2   -1    0    0  502    0  0.00000000000E+00  0.00000000000E+00  0.17761602835E+04  0.17761602835E+04  0.00000000000E+00 0. -1.
          1   -1    0    0  501    0 -0.00000000000E+00 -0.00000000000E+00 -0.31477251918E+02  0.31477251918E+02  0.00000000000E+00 0. -1.
         25    2    1    2    0    0  0.38699681699E+02  0.54455067756E+02  0.34381478587E+03  0.37188194737E+03  0.12499822410E+03 0.  0.
          2    1    1    2  501    0  0.31130462689E+02 -0.56323709819E+02  0.46039392348E+02  0.79127060117E+02  0.00000000000E+00 0. -1.
          1    1    1    2  502    0 -0.69830144388E+02  0.18686420636E+01  0.13548288534E+04  0.13566285279E+04  0.00000000000E+00 0. -1.
         22    1    3    3    0    0  0.20606158583E+02 -0.36856997447E+02  0.61378365708E+02  0.74500710127E+02  0.00000000000E+00 0.  1.
         22    1    3    3    0    0  0.18093523115E+02  0.91312065203E+02  0.28243642016E+03  0.29738123724E+03  0.00000000000E+00 0.  1.
</event>
<event>
 7    1  0.6520971E-006  0.9784923E+02  0.7818608E-02  0.1380057E+00
          2   -1    0    0  502    0  0.00000000000E+00  0.00000000000E+00  0.18483064743E+04  0.18483064743E+04  0.00000000000E+00 0. -1.
          1   -1    0    0  501    0 -0.00000000000E+00 -0.00000000000E+00 -0.13317569132E+03  0.13317569132E+03  0.00000000000E+00 0. -1.
         25    2    1    2    0    0 -0.27497620766E+02  0.73458821150E+02  0.14510869974E+03  0.20696442153E+03  0.12500167793E+03 0.  0.
          2    1    1    2  501    0  0.69947148204E+02 -0.73472428137E+02 -0.76745410327E+02  0.12720322026E+03  0.00000000000E+00 0. -1.
          1    1    1    2  502    0 -0.42449527438E+02  0.13606987023E-01  0.16467674936E+04  0.16473145238E+04  0.00000000000E+00 0. -1.
         22    1    3    3    0    0  0.48694772581E+02  0.15070284346E+02  0.59442256169E+02  0.78305020052E+02  0.00000000000E+00 0. -1.
         22    1    3    3    0    0 -0.76192393347E+02  0.58388536804E+02  0.85666443572E+02  0.12865940148E+03  0.00000000000E+00 0. -1.
</event>
<event>
 7    1  0.6520971E-006  0.6136835E+02  0.7818608E-02  0.1445755E+00
          2   -1    0    0  502    0  0.00000000000E+00  0.00000000000E+00  0.23534781645E+03  0.23534781645E+03  0.00000000000E+00 0. -1.
          1   -1    0    0  501    0 -0.00000000000E+00 -0.00000000000E+00 -0.32839459477E+03  0.32839459477E+03  0.00000000000E+00 0. -1.
         25    2    1    2    0    0 -0.81807133131E+02  0.21555201167E+02  0.83053019911E+02  0.17227906449E+03  0.12500095287E+03 0.  0.
          2    1    1    2  501    0  0.37256508635E+02  0.16166370712E+02 -0.27426338639E+03  0.27725404251E+03  0.00000000000E+00 0. -1.
          1    1    1    2  502    0  0.44550624496E+02 -0.37721571879E+02  0.98163588160E+02  0.11420930421E+03  0.00000000000E+00 0. -1.
         22    1    3    3    0    0 -0.47584251059E+02  0.21289697589E+02  0.11449546212E+03  0.12580430445E+03  0.00000000000E+00 0.  1.
         22    1    3    3    0    0 -0.34222882072E+02  0.26550357796E+00 -0.31442442206E+02  0.46474760046E+02  0.00000000000E+00 0.  1.
</event>
<event>
 7    1  0.6520971E-006  0.8192017E+02  0.7818608E-02  0.1384640E+00
          2   -1    0    0  502    0  0.00000000000E+00  0.00000000000E+00  0.45487998373E+02  0.45487998373E+02  0.00000000000E+00 0. -1.
          1   -1    0    0  501    0 -0.00000000000E+00 -0.00000000000E+00 -0.13308847475E+04  0.13308847475E+04  0.00000000000E+00 0. -1.
         25    2    1    2    0    0  0.36968488390E+02  0.11874257166E+03 -0.39739551238E+03  0.43475844797E+03  0.12500098945E+03 0.  0.
          2    1    1    2  501    0 -0.79034511417E+01 -0.48206103722E+02 -0.85839042367E+03  0.85977928123E+03  0.00000000000E+00 0. -1.
          1    1    1    2  502    0 -0.29065037249E+02 -0.70536467941E+02 -0.29610813046E+02  0.81835016644E+02  0.00000000000E+00 0. -1.
         22    1    3    3    0    0  0.49583294757E+02  0.12881991524E+03 -0.24257264861E+03  0.27909597549E+03  0.00000000000E+00 0. -1.
         22    1    3    3    0    0 -0.12614806366E+02 -0.10077343577E+02 -0.15482286377E+03  0.15566247248E+03  0.00000000000E+00 0. -1.
</event>
<event>
 7    1  0.6520971E-006  0.8954881E+02  0.7818608E-02  0.1486266E+00
          2   -1    0    0  502    0  0.00000000000E+00  0.00000000000E+00  0.64228275994E+03  0.64228275994E+03  0.00000000000E+00 0. -1.
          1   -1    0    0  501    0 -0.00000000000E+00 -0.00000000000E+00 -0.12933616033E+04  0.12933616033E+04  0.00000000000E+00 0. -1.
         25    2    1    2    0    0 -0.50876847530E+02  0.61720856959E+02 -0.65908191246E+03  0.67558039801E+03  0.12498795560E+03 0.  0.
          2    1    1    2  501    0  0.10196033732E+02  0.18115182044E+02 -0.62269040909E+03  0.62303728982E+03  0.00000000000E+00 0. -1.
          1    1    1    2  502    0  0.40680813798E+02 -0.79836039003E+02  0.63069347820E+03  0.63702667540E+03  0.00000000000E+00 0. -1.
         22    1    3    3    0    0 -0.37201149563E+02 -0.10163024397E+00 -0.53486339655E+03  0.53615556402E+03  0.00000000000E+00 0.  1.
         22    1    3    3    0    0 -0.13675697968E+02  0.61822487203E+02 -0.12421851590E+03  0.13942483399E+03  0.00000000000E+00 0.  1.
</event>
<event>
 7    1  0.6520971E-006  0.1049391E+03  0.7818608E-02  0.1363254E+00
          2   -1    0    0  502    0  0.00000000000E+00  0.00000000000E+00  0.12113726497E+04  0.12113726497E+04  0.00000000000E+00 0. -1.
          1   -1    0    0  501    0 -0.00000000000E+00 -0.00000000000E+00 -0.73581410069E+03  0.73581410069E+03  0.00000000000E+00 0. -1.
         25    2    1    2    0    0  0.13973772812E+03  0.26017441190E+02 -0.34945733330E+03  0.39742202022E+03  0.12498117639E+03 0.  0.
          2    1    1    2  501    0 -0.43128264145E+02  0.14413271858E+02 -0.35862663953E+03  0.36149807213E+03  0.00000000000E+00 0. -1.
          1    1    1    2  502    0 -0.96609463971E+02 -0.40430713049E+02  0.11836425219E+04  0.11882666580E+04  0.00000000000E+00 0. -1.
         22    1    3    3    0    0  0.10765517185E+02 -0.35213718146E+02 -0.13390976391E+03  0.13888026201E+03  0.00000000000E+00 0.  1.
         22    1    3    3    0    0  0.12897221093E+03  0.61231159336E+02 -0.21554756939E+03  0.25854175821E+03  0.00000000000E+00 0.  1.
</event>
<event>
 7    1  0.6520971E-006  0.1192778E+03  0.7818608E-02  0.1346551E+00
          2   -1    0    0  502    0  0.00000000000E+00  0.00000000000E+00  0.86590436443E+03  0.86590436443E+03  0.00000000000E+00 0. -1.
          1   -1    0    0  501    0 -0.00000000000E+00 -0.00000000000E+00 -0.64728290137E+03  0.64728290137E+03  0.00000000000E+00 0. -1.
         25    2    1    2    0    0  0.96082369841E+02 -0.12627094945E+03  0.27248477471E+03  0.33918945588E+03  0.12500144023E+03 0.  0.
          2    1    1    2  501    0 -0.27900275149E+02  0.36679985573E+02 -0.60739086112E+03  0.60913668816E+03  0.00000000000E+00 0. -1.
          1    1    1    2  502    0 -0.68182094692E+02  0.89590963877E+02  0.55352754947E+03  0.56486112176E+03  0.00000000000E+00 0. -1.
         22    1    3    3    0    0 -0.25475766930E+02 -0.14185043879E+02  0.14003123324E+02  0.32346833436E+02  0.00000000000E+00 0.  1.
         22    1    3    3    0    0  0.12155813677E+03 -0.11208590557E+03  0.25848165139E+03  0.30684262244E+03  0.00000000000E+00 0.  1.
</event>
<event>
 7    1  0.6520971E-006  0.7179387E+02  0.7818608E-02  0.1365277E+00
          2   -1    0    0  502    0  0.00000000000E+00  0.00000000000E+00  0.57304655155E+03  0.57304655155E+03  0.00000000000E+00 0. -1.
          1   -1    0    0  501    0 -0.00000000000E+00 -0.00000000000E+00 -0.71139546810E+03  0.71139546810E+03  0.00000000000E+00 0. -1.
         25    2    1    2    0    0 -0.13573538296E+03  0.12842975075E+02 -0.33979758856E+03  0.38687953867E+03  0.12499736017E+03 0.  0.
          2    1    1    2  501    0  0.65345699719E+02 -0.98203491308E+00 -0.34263718207E+03  0.34881408142E+03  0.00000000000E+00 0. -1.
          1    1    1    2  502    0  0.70389683246E+02 -0.11860940162E+02  0.54408585408E+03  0.54874839956E+03  0.00000000000E+00 0. -1.
         22    1    3    3    0    0 -0.37685759172E+02  0.53751211233E+02 -0.65537489364E+02  0.92760830449E+02  0.00000000000E+00 0. -1.
         22    1    3    3    0    0 -0.98049623792E+02 -0.40908236157E+02 -0.27426009920E+03  0.29411870822E+03  0.00000000000E+00 0. -1.
</event>
<event>
 7    1  0.6520971E-006  0.1908405E+03  0.7818608E-02  0.1331068E+00
          2   -1    0    0  502    0  0.00000000000E+00  0.00000000000E+00  0.96813506452E+03  0.96813506452E+03  0.00000000000E+00 0. -1.
          1   -1    0    0  501    0 -0.00000000000E+00 -0.00000000000E+00 -0.40672559466E+03  0.40672559466E+03  0.00000000000E+00 0. -1.
         25    2    1    2    0    0  0.68040949283E+02  0.20737984237E+03  0.25427146583E+03  0.35765341129E+03  0.12500405781E+03 0.  0.
          2    1    1    2  501    0 -0.45927322304E+02 -0.18295748865E+03 -0.32952273795E+03  0.37969460940E+03  0.00000000000E+00 0. -1.
          1    1    1    2  502    0 -0.22113626980E+02 -0.24422353724E+02  0.63666074198E+03  0.63751263849E+03  0.00000000000E+00 0. -1.
         22    1    3    3    0    0  0.86323677786E+02  0.65846818285E+02  0.11762996456E+03  0.16007619869E+03  0.00000000000E+00 0.  1.
         22    1    3    3    0    0 -0.18282728502E+02  0.14153302409E+03  0.13664150127E+03  0.19757721260E+03  0.00000000000E+00 0.  1.
</event>
<event>
 7    1  0.6520971E-006  0.7312671E+02  0.7818608E-02  0.1463235E+00
          2   -1    0    0  502    0  0.00000000000E+00  0.00000000000E+00  0.30836736238E+04  0.30836736238E+04  0.00000000000E+00 0. -1.
          1   -1    0    0  501    0 -0.00000000000E+00 -0.00000000000E+00 -0.62098420552E+02  0.62098420552E+02  0.00000000000E+00 0. -1.
         25    2    1    2    0    0 -0.53582597360E+02  0.32002376572E+02  0.19509933041E+04  0.19559899037E+04  0.12500553460E+03 0.  0.
          2    1    1    2  501    0  0.42380937217E+02 -0.59820433071E+02 -0.36775541326E+02  0.82018708183E+02  0.00000000000E+00 0. -1.
          1    1    1    2  502    0  0.11201660143E+02  0.27818056499E+02  0.11073574405E+04  0.11077634325E+04  0.00000000000E+00 0. -1.
         22    1    3    3    0    0 -0.60878650209E+02  0.73678064063E+02  0.14885513586E+04  0.14916165105E+04  0.00000000000E+00 0.  1.
         22    1    3    3    0    0  0.72960528489E+01 -0.41675687490E+02  0.46244194550E+03  0.46437339316E+03  0.00000000000E+00 0.  1.
</event>
<event>
 7    1  0.6520971E-006  0.6654201E+02  0.7818608E-02  0.1453343E+00
          2   -1    0    0  502    0  0.00000000000E+00  0.00000000000E+00  0.25085660734E+04  0.25085660734E+04  0.00000000000E+00 0. -1.
          1   -1    0    0  501    0 -0.00000000000E+00 -0.00000000000E+00 -0.10438732519E+04  0.10438732519E+04  0.00000000000E+00 0. -1.
         25    2    1    2    0    0  0.29771692723E+02 -0.27033796855E+02  0.11062880708E+03  0.17169929540E+03  0.12499894090E+03 0.  0.
          2    1    1    2  501    0  0.34492916932E+02  0.80406231143E+01 -0.10125541050E+04  0.10131733458E+04  0.00000000000E+00 0. -1.
          1    1    1    2  502    0 -0.64264609655E+02  0.18993173741E+02  0.23666181194E+04  0.23675666841E+04  0.00000000000E+00 0. -1.
         22    1    3    3    0    0 -0.32734273207E+02 -0.27167135616E+02 -0.23264598775E+01  0.42602797039E+02  0.00000000000E+00 0.  1.
         22    1    3    3    0    0  0.62505965930E+02  0.13333876077E+00  0.11295526696E+03  0.12909649837E+03  0.00000000000E+00 0.  1.
</event>
<event>
 7    1  0.8099182E-006  0.7630361E+02  0.7818608E-02  0.1376357E+00
          2   -1    0    0  502    0  0.00000000000E+00  0.00000000000E+00  0.11383377430E+04  0.11383377430E+04  0.00000000000E+00 0. -1.
          1   -1    0    0  501    0 -0.00000000000E+00 -0.00000000000E+00 -0.62013388211E+03  0.62013388211E+03  0.00000000000E+00 0. -1.
         25    2    1    2    0    0  0.57401249477E+02  0.19290162869E+01 -0.26059695644E+03  0.29467725403E+03  0.12500114317E+03 0.  0.
          2    1    1    2  501    0 -0.70780901397E+01  0.55659577029E+02 -0.33888335226E+03  0.34349674571E+03  0.00000000000E+00 0. -1.
          1    1    1    2  502    0 -0.50323159338E+02 -0.57588593316E+02  0.11176841696E+04  0.11202976254E+04  0.00000000000E+00 0. -1.
         22    1    3    3    0    0  0.20720423864E+02  0.62929953224E+02 -0.13205490230E+03  0.14774306143E+03  0.00000000000E+00 0.  1.
         22    1    3    3    0    0  0.36680825613E+02 -0.61000936937E+02 -0.12854205414E+03  0.14693419261E+03  0.00000000000E+00 0.  1.
</event>
<event>
 7    1  0.8451635E-006  0.7348628E+02  0.7818608E-02  0.1406321E+00
          2   -1    0    0  502    0  0.00000000000E+00  0.00000000000E+00  0.19760636610E+04  0.19760636610E+04  0.00000000000E+00 0. -1.
          1   -1    0    0  501    0 -0.00000000000E+00 -0.00000000000E+00 -0.11527150208E+04  0.11527150208E+04  0.00000000000E+00 0. -1.
         25    2    1    2    0    0 -0.40390458626E+02 -0.73890940317E+02 -0.76845131219E+02  0.16917975583E+03  0.12500142152E+03 0.  0.
          2    1    1    2  501    0  0.64670915947E+02  0.35040829389E+02 -0.10281166242E+04  0.10307443815E+04  0.00000000000E+00 0. -1.
          1    1    1    2  502    0 -0.24280457321E+02  0.38850110929E+02  0.19283103956E+04  0.19288545444E+04  0.00000000000E+00 0. -1.
         22    1    3    3    0    0 -0.97443675648E+01 -0.27112102534E+01  0.33131662456E+02  0.34641166513E+02  0.00000000000E+00 0. -1.
         22    1    3    3    0    0 -0.30646091061E+02 -0.71179730064E+02 -0.10997679367E+03  0.13453858932E+03  0.00000000000E+00 0. -1.
</event>
<event>
 7    1  0.6520971E-006  0.7088889E+02  0.7818608E-02  0.1402607E+00
          2   -1    0    0  502    0  0.00000000000E+00  0.00000000000E+00  0.16766951070E+04  0.16766951070E+04  0.00000000000E+00 0. -1.
          1   -1    0    0  501    0 -0.00000000000E+00 -0.00000000000E+00 -0.26764886911E+04  0.26764886911E+04  0.00000000000E+00 0. -1.
         25    2    1    2    0    0  0.23112074154E+02 -0.11721239432E+03 -0.10788575796E+03  0.20380077168E+03  0.12499001726E+03 0.  0.
          2    1    1    2  501    0 -0.73272983038E+01  0.48347995713E+02 -0.25196419238E+04  0.25201163946E+04  0.00000000000E+00 0. -1.
          1    1    1    2  502    0 -0.15784775850E+02  0.68864398607E+02  0.16277340977E+04  0.16292666317E+04  0.00000000000E+00 0. -1.
         22    1    3    3    0    0 -0.13822183853E+02 -0.92635933227E+01  0.24132724067E+02  0.29313056794E+02  0.00000000000E+00 0. -1.
         22    1    3    3    0    0  0.36934258007E+02 -0.10794880100E+03 -0.13201848202E+03  0.17448771489E+03  0.00000000000E+00 0. -1.
</event>
<event>
 7    1  0.6520971E-006  0.2848978E+02  0.7818608E-02  0.1616126E+00
          2   -1    0    0  502    0  0.00000000000E+00  0.00000000000E+00  0.18055651649E+04  0.18055651649E+04  0.00000000000E+00 0. -1.
          1   -1    0    0  501    0 -0.00000000000E+00 -0.00000000000E+00 -0.13946496216E+02  0.13946496216E+02  0.00000000000E+00 0. -1.
         25    2    1    2    0    0 -0.46366063477E+01  0.33904400432E+02  0.42903747087E+03  0.44818446375E+03  0.12500062260E+03 0.  0.
          2    1    1    2  501    0 -0.20252769786E+02 -0.20037285297E+02  0.43875463311E+02  0.52313705345E+02  0.00000000000E+00 0. -1.
          1    1    1    2  502    0  0.24889376134E+02 -0.13867115135E+02  0.13187057345E+04  0.13190134921E+04  0.00000000000E+00 0. -1.
         22    1    3    3    0    0  0.36876981679E+02 -0.19870874860E+02  0.61435509800E+02  0.74357819427E+02  0.00000000000E+00 0. -1.
         22    1    3    3    0    0 -0.41513588027E+02  0.53775275292E+02  0.36760196107E+03  0.37382664433E+03  0.00000000000E+00 0. -1.
</event>
<event>
 7    1  0.6520971E-006  0.1318235E+03  0.7818608E-02  0.1406323E+00
          2   -1    0    0  502    0  0.00000000000E+00  0.00000000000E+00  0.77774534430E+03  0.77774534430E+03  0.00000000000E+00 0. -1.
          1   -1    0    0  501    0 -0.00000000000E+00 -0.00000000000E+00 -0.10656231077E+04  0.10656231077E+04  0.00000000000E+00 0. -1.
         25    2    1    2    0    0 -0.14385437686E+02  0.13823064646E+03 -0.41712003805E+03  0.45708716305E+03  0.12499958419E+03 0.  0.
          2    1    1    2  501    0  0.24598065390E+02 -0.68678578864E+01 -0.62252815683E+03  0.62305179427E+03  0.00000000000E+00 0. -1.
          1    1    1    2  502    0 -0.10212627704E+02 -0.13136278858E+03  0.75177043146E+03  0.76322949471E+03  0.00000000000E+00 0. -1.
         22    1    3    3    0    0 -0.14589575807E+02  0.12916768962E+03 -0.19246736097E+03  0.23225165834E+03  0.00000000000E+00 0.  1.
         22    1    3    3    0    0  0.20413812075E+00  0.90629568399E+01 -0.22465267708E+03  0.22483550471E+03  0.00000000000E+00 0.  1.
</event>
<event>
 7    1  0.6520971E-006  0.5013269E+02  0.7818608E-02  0.1452209E+00
          2   -1    0    0  502    0  0.00000000000E+00  0.00000000000E+00  0.90996172528E+03  0.90996172528E+03  0.00000000000E+00 0. -1.
          1   -1    0    0  501    0 -0.00000000000E+00 -0.00000000000E+00 -0.16569906863E+03  0.16569906863E+03  0.00000000000E+00 0. -1.
         25    2    1    2    0    0  0.33093861633E+02  0.26530357393E+02  0.19190523543E+03  0.23292467182E+03  0.12500887895E+03 0.  0.
          2    1    1    2  501    0 -0.47151481758E+02  0.18740361211E+02 -0.13992100167E+03  0.14883665570E+03  0.00000000000E+00 0. -1.
          1    1    1    2  502    0  0.14057620126E+02 -0.45270718604E+02  0.69227842289E+03  0.69389946638E+03  0.00000000000E+00 0. -1.
         22    1    3    3    0    0  0.38799879357E+02  0.63164812513E+02  0.58410688889E+02  0.94377077484E+02  0.00000000000E+00 0.  1.
         22    1    3    3    0    0 -0.57060177246E+01 -0.36634455120E+02  0.13349454655E+03  0.13854759434E+03  0.00000000000E+00 0.  1.
</event>
<event>
 7    1  0.6520971E-006  0.8542271E+02  0.7818608E-02  0.1378870E+00
          2   -1    0    0  502    0  0.00000000000E+00  0.00000000000E+00  0.18599089711E+03  0.18599089711E+03  0.00000000000E+00 0. -1.
          1   -1    0    0  501    0 -0.00000000000E+00 -0.00000000000E+00 -0.77318129208E+03  0.77318129208E+03  0.00000000000E+00 0. -1.
         25    2    1    2    0    0 -0.12108007938E+03 -0.44894259762E+02  0.56729515460E+01  0.17981520071E+03  0.12500177537E+03 0.  0.
          2    1    1    2  501    0  0.71994843996E+02  0.43768424729E+02 -0.67684890977E+03  0.68207285477E+03  0.00000000000E+00 0. -1.
          1    1    1    2  502    0  0.49085235383E+02  0.11258350333E+01  0.83985563250E+02  0.97284133709E+02  0.00000000000E+00 0. -1.
         22    1    3    3    0    0 -0.14735067026E+03 -0.42422663805E+02  0.52183351312E+01  0.15342468332E+03  0.00000000000E+00 0. -1.
         22    1    3    3    0    0  0.26270590883E+02 -0.24715959577E+01  0.45461641485E+00  0.26390517388E+02  0.00000000000E+00 0. -1.
</event>
<event>
 7    1  0.6520971E-006  0.3440628E+02  0.7818608E-02  0.1626220E+00
          2   -1    0    0  502    0  0.00000000000E+00  0.00000000000E+00  0.10584188212E+04  0.10584188212E+04  0.00000000000E+00 0. -1.
          1   -1    0    0  501    0 -0.00000000000E+00 -0.00000000000E+00 -0.62480435708E+03  0.62480435708E+03  0.00000000000E+00 0. -1.
         25    2    1    2    0    0  0.97380507418E+01  0.27850159181E+02  0.19688316821E+03  0.23506901837E+03  0.12499600182E+03 0.  0.
          2    1    1    2  501    0  0.11954997017E+02 -0.32290692258E+02 -0.60507638192E+03  0.60605530995E+03  0.00000000000E+00 0. -1.
          1    1    1    2  502    0 -0.21693047759E+02  0.44405330770E+01  0.84180767785E+03  0.84209884998E+03  0.00000000000E+00 0. -1.
         22    1    3    3    0    0  0.49525391745E+02  0.53394610102E+02  0.75963403728E+02  0.10523396563E+03  0.00000000000E+00 0. -1.
         22    1    3    3    0    0 -0.39787341004E+02 -0.25544450921E+02  0.12091976449E+03  0.12983505274E+03  0.00000000000E+00 0. -1.
</event>
<event>
 7    1  0.6520971E-006  0.1173686E+03  0.7818608E-02  0.1447725E+00
          2   -1    0    0  502    0  0.00000000000E+00  0.00000000000E+00  0.12385079671E+04  0.12385079671E+04  0.00000000000E+00 0. -1.
          1   -1    0    0  501    0 -0.00000000000E+00 -0.00000000000E+00 -0.13357675433E+03  0.13357675433E+03  0.00000000000E+00 0. -1.
         25    2    1    2    0    0  0.10043411128E+03 -0.13181889312E+01  0.33772208716E+03  0.37384317033E+03  0.12495502997E+03 0.  0.
          2    1    1    2  501    0  0.20844629480E+02  0.18639731806E+01 -0.11036246105E+03  0.11232918492E+03  0.00000000000E+00 0. -1.
          1    1    1    2  502    0 -0.12127874076E+03 -0.54578424934E+00  0.87757158664E+03  0.88591236617E+03  0.00000000000E+00 0. -1.
         22    1    3    3    0    0  0.25887378967E+02 -0.30345525931E+02  0.25742424119E+03  0.26049615599E+03  0.00000000000E+00 0.  1.
         22    1    3    3    0    0  0.74546732315E+02  0.29027337000E+02  0.80297845972E+02  0.11334701434E+03  0.00000000000E+00 0.  1.
</event>
<event>
 7    1  0.6520971E-006  0.1273071E+03  0.7818608E-02  0.1271168E+00
          2   -1    0    0  502    0  0.00000000000E+00  0.00000000000E+00  0.10024143460E+04  0.10024143460E+04  0.00000000000E+00 0. -1.
          1   -1    0    0  501    0 -0.00000000000E+00 -0.00000000000E+00 -0.93987022392E+03  0.93987022392E+03  0.00000000000E+00 0. -1.
         25    2    1    2    0    0  0.92619943362E+02  0.10878321142E+02 -0.94724279571E+02  0.18246908224E+03  0.12500194021E+03 0.  0.
          2    1    1    2  501    0  0.13299221100E+02 -0.84691501402E+02 -0.79461041548E+03  0.79922164140E+03  0.00000000000E+00 0. -1.
          1    1    1    2  502    0 -0.10591916446E+03  0.73813180260E+02  0.95187881709E+03  0.96059384623E+03  0.00000000000E+00 0. -1.
         22    1    3    3    0    0 -0.90659500871E+01 -0.34955834845E+02 -0.51387835903E+02  0.62807734552E+02  0.00000000000E+00 0.  1.
         22    1    3    3    0    0  0.10168589345E+03  0.45834155988E+02 -0.43336443668E+02  0.11966134769E+03  0.00000000000E+00 0.  1.
</event>
<event>
 7    1  0.6520971E-006  0.6601751E+02  0.7818608E-02  0.1445003E+00
          2   -1    0    0  502    0  0.00000000000E+00  0.00000000000E+00  0.44829322537E+03  0.44829322537E+03  0.00000000000E+00 0. -1.
          1   -1    0    0  501    0 -0.00000000000E+00 -0.00000000000E+00 -0.67060252639E+03  0.67060252639E+03  0.00000000000E+00 0. -1.
         25    2    1    2    0    0 -0.21913679560E+02  0.73739561237E+01  0.34311560293E+03  0.36590798336E+03  0.12500300289E+03 0.  0.
          2    1    1    2  501    0  0.22845619191E+02  0.61938592739E+02 -0.64447627390E+03  0.64784873173E+03  0.00000000000E+00 0. -1.
          1    1    1    2  502    0 -0.93193963103E+00 -0.69312548863E+02  0.79051369942E+02  0.10513903667E+03  0.00000000000E+00 0. -1.
         22    1    3    3    0    0 -0.32806577683E+02 -0.28083541949E+01  0.12911789763E+02  0.35367678852E+02  0.00000000000E+00 0. -1.
         22    1    3    3    0    0  0.10892898122E+02  0.10182310319E+02  0.33020381317E+03  0.33054030451E+03  0.00000000000E+00 0. -1.
</event>
<event>
 7    1  0.6520971E-006  0.6577167E+02  0.7818608E-02  0.1452116E+00
          2   -1    0    0  502    0  0.00000000000E+00  0.00000000000E+00  0.81371992401E+03  0.81371992401E+03  0.00000000000E+00 0. -1.
          1   -1    0    0  501    0 -0.00000000000E+00 -0.00000000000E+00 -0.55335260476E+03  0.55335260476E+03  0.00000000000E+00 0. -1.
         25    2    1    2    0    0  0.58404179806E+02 -0.67989233246E+02  0.12950467728E+03  0.20107144317E+03  0.12499871905E+03 0.  0.
          2    1    1    2  501    0 -0.57280984318E+02  0.31850219096E+02 -0.51498668724E+03  0.51914047777E+03  0.00000000000E+00 0. -1.
          1    1    1    2  502    0 -0.11231954882E+01  0.36139014150E+02  0.64584932922E+03  0.64686060783E+03  0.00000000000E+00 0. -1.
         22    1    3    3    0    0  0.59509800067E+02 -0.80304578221E+02  0.14814086553E+03  0.17870634467E+03  0.00000000000E+00 0. -1.
         22    1    3    3    0    0 -0.11056202609E+01  0.12315344975E+02 -0.18636188250E+02  0.22365098491E+02  0.00000000000E+00 0. -1.
</event>
<event>
 7    1  0.6520971E-006  0.7627972E+02  0.7818608E-02  0.1434812E+00
          2   -1    0    0  502    0  0.00000000000E+00  0.00000000000E+00  0.12688985779E+03  0.12688985779E+03  0.00000000000E+00 0. -1.
          1   -1    0    0  501    0 -0.00000000000E+00 -0.00000000000E+00 -0.82800444952E+03  0.82800444952E+03  0.00000000000E+00 0. -1.
         25    2    1    2    0    0 -0.21847109823E+02 -0.43179634884E+02 -0.26834922026E+03  0.29996452670E+03  0.12500254474E+03 0.  0.
          2    1    1    2  501    0  0.49765817296E+02  0.65036563984E+02 -0.53783754102E+03  0.54403640664E+03  0.00000000000E+00 0. -1.
          1    1    1    2  502    0 -0.27918707472E+02 -0.21856929100E+02  0.10507216954E+03  0.11089337396E+03  0.00000000000E+00 0. -1.
         22    1    3    3    0    0 -0.72063567958E+01  0.40677191780E+02 -0.13987553700E+03  0.14584831628E+03  0.00000000000E+00 0. -1.
         22    1    3    3    0    0 -0.14640753028E+02 -0.83856826664E+02 -0.12847368326E+03  0.15411621043E+03  0.00000000000E+00 0. -1.
</event>
<event>
 7    1  0.6520971E-006  0.1114906E+03  0.7818608E-02  0.1358920E+00
          2   -1    0    0  502    0  0.00000000000E+00  0.00000000000E+00  0.10514234562E+04  0.10514234562E+04  0.00000000000E+00 0. -1.
          1   -1    0    0  501    0 -0.00000000000E+00 -0.00000000000E+00 -0.13525437281E+04  0.13525437281E+04  0.00000000000E+00 0. -1.
         25    2    1    2    0    0  0.71765862868E+02  0.73478442855E+02  0.24901485637E+03  0.29695601666E+03  0.12500022600E+03 0.  0.
          2    1    1    2  501    0 -0.29885935478E+02  0.32816590709E+02 -0.13240073454E+04  0.13247511270E+04  0.00000000000E+00 0. -1.
          1    1    1    2  502    0 -0.41879927390E+02 -0.10629503356E+03  0.77387221725E+03  0.78226004059E+03  0.00000000000E+00 0. -1.
         22    1    3    3    0    0  0.26318131584E+01  0.89921902912E+02  0.15327932334E+03  0.17772851777E+03  0.00000000000E+00 0. -1.
         22    1    3    3    0    0  0.69134049710E+02 -0.16443460057E+02  0.95735533032E+02  0.11922749889E+03  0.00000000000E+00 0. -1.
</event>
<event>
 7    1  0.6520971E-006  0.5233554E+02  0.7818608E-02  0.1486725E+00
          2   -1    0    0  502    0  0.00000000000E+00  0.00000000000E+00  0.33417414142E+02  0.33417414142E+02  0.00000000000E+00 0. -1.
          1   -1    0    0  501    0 -0.00000000000E+00 -0.00000000000E+00 -0.42045834880E+03  0.42045834880E+03  0.00000000000E+00 0. -1.
         25    2    1    2    0    0 -0.24733731353E+01 -0.66634450628E+02 -0.26115327115E+03  0.29710664497E+03  0.12500023947E+03 0.  0.
          2    1    1    2  501    0  0.24267527702E+02  0.38669842941E+02 -0.30236815758E+02  0.54758877646E+02  0.00000000000E+00 0. -1.
          1    1    1    2  502    0 -0.21794154567E+02  0.27964607687E+02 -0.95650847743E+02  0.10201024032E+03  0.00000000000E+00 0. -1.
         22    1    3    3    0    0  0.97623948339E+01  0.22665630551E+02 -0.44991525912E+01  0.25085404825E+02  0.00000000000E+00 0.  1.
         22    1    3    3    0    0 -0.12235767969E+02 -0.89300081179E+02 -0.25665411856E+03  0.27202124015E+03  0.00000000000E+00 0.  1.
</event>
<event>
 7    1  0.6520971E-006  0.8933960E+02  0.7818608E-02  0.1473781E+00
          2   -1    0    0  502    0  0.00000000000E+00  0.00000000000E+00  0.15240209522E+03  0.15240209522E+03  0.00000000000E+00 0. -1.
          1   -1    0    0  501    0 -0.00000000000E+00 -0.00000000000E+00 -0.19242347440E+03  0.19242347440E+03  0.00000000000E+00 0. -1.
         25    2    1    2    0    0 -0.10742996890E+02 -0.91161147173E+02  0.66714954986E+01  0.15521866570E+03  0.12499023399E+03 0.  0.
          2    1    1    2  501    0  0.32115865314E+02  0.83345507616E+02 -0.98533307236E+02  0.13299140980E+03  0.00000000000E+00 0. -1.
          1    1    1    2  502    0 -0.21372868424E+02  0.78156395571E+01  0.51840432559E+02  0.56615494118E+02  0.00000000000E+00 0. -1.
         22    1    3    3    0    0 -0.16983240670E+02 -0.11420417647E+03 -0.22387896464E+02  0.11761055350E+03  0.00000000000E+00 0.  1.
         22    1    3    3    0    0  0.62402437800E+01  0.23043029298E+02  0.29059391963E+02  0.37608112195E+02  0.00000000000E+00 0.  1.
</event>
<event>
 7    1  0.6520971E-006  0.7035450E+02  0.7818608E-02  0.1371462E+00
          2   -1    0    0  502    0  0.00000000000E+00  0.00000000000E+00  0.48890431380E+03  0.48890431380E+03  0.00000000000E+00 0. -1.
          1   -1    0    0  501    0 -0.00000000000E+00 -0.00000000000E+00 -0.20442428887E+04  0.20442428887E+04  0.00000000000E+00 0. -1.
         25    2    1    2    0    0 -0.12928321686E+03  0.33110914214E+02 -0.13896461869E+04  0.14016243691E+04  0.12499545781E+03 0.  0.
          2    1    1    2  501    0  0.62051400389E+02 -0.12779106262E+02 -0.64449217697E+03  0.64759852380E+03  0.00000000000E+00 0. -1.
          1    1    1    2  502    0  0.67231816469E+02 -0.20331807952E+02  0.47879978894E+03  0.48392430963E+03  0.00000000000E+00 0. -1.
         22    1    3    3    0    0 -0.14225369285E+02 -0.52518551071E+01 -0.13988800624E+02  0.20630793883E+02  0.00000000000E+00 0.  1.
         22    1    3    3    0    0 -0.11505784757E+03  0.38362769321E+02 -0.13756573863E+04  0.13809935752E+04  0.00000000000E+00 0.  1.
</event>
<event>
 7    1  0.6520971E-006  0.3066790E+02  0.7818608E-02  0.1653127E+00
          2   -1    0    0  502    0  0.00000000000E+00  0.00000000000E+00  0.14309056401E+04  0.14309056401E+04  0.00000000000E+00 0. -1.
          1   -1    0    0  501    0 -0.00000000000E+00 -0.00000000000E+00 -0.13100798056E+03  0.13100798056E+03  0.00000000000E+00 0. -1.
         25    2    1    2    0    0  0.45867564937E+02 -0.13928451103E+02  0.43919266427E+03  0.45914512077E+03  0.12500484118E+03 0.  0.
          2    1    1    2  501    0 -0.15557914428E+02  0.14544955244E+02 -0.11985871987E+03  0.12173626064E+03  0.00000000000E+00 0. -1.
          1    1    1    2  502    0 -0.30309650508E+02 -0.61650414021E+00  0.98056371513E+03  0.98103223924E+03  0.00000000000E+00 0. -1.
         22    1    3    3    0    0  0.61807541162E+02 -0.21016758204E+02  0.99499539917E+02  0.11900434746E+03  0.00000000000E+00 0. -1.
         22    1    3    3    0    0 -0.15939976225E+02  0.70883071004E+01  0.33969312435E+03  0.34014077332E+03  0.00000000000E+00 0. -1.
</event>
<event>
 7    1  0.6520971E-006  0.2625216E+03  0.7818608E-02  0.1221982E+00
          2   -1    0    0  502    0  0.00000000000E+00  0.00000000000E+00  0.28811964700E+04  0.28811964700E+04  0.00000000000E+00 0. -1.
          1   -1    0    0  501    0 -0.00000000000E+00 -0.00000000000E+00 -0.10956409543E+04  0.10956409543E+04  0.00000000000E+00 0. -1.
         25    2    1    2    0    0 -0.65918896609E+02 -0.31755707258E+03  0.25293830346E+02  0.34849986433E+03  0.12499832921E+03 0.  0.
          2    1    1    2  501    0  0.59498635133E+02  0.24970758071E+03 -0.91595906508E+03  0.95124916418E+03  0.00000000000E+00 0. -1.
          1    1    1    2  502    0  0.64202614761E+01  0.67849491875E+02  0.26762207505E+04  0.26770883957E+04  0.00000000000E+00 0. -1.
         22    1    3    3    0    0 -0.14098380480E+02 -0.11332172266E+03  0.68840346862E+02  0.13334005593E+03  0.00000000000E+00 0. -1.
         22    1    3    3    0    0 -0.51820516129E+02 -0.20423534993E+03 -0.43546516516E+02  0.21515980840E+03  0.00000000000E+00 0. -1.
</event>
<event>
 7    1  0.6520971E-006  0.7716725E+02  0.7818608E-02  0.1364101E+00
          2   -1    0    0  502    0  0.00000000000E+00  0.00000000000E+00  0.38646440507E+02  0.38646440507E+02  0.00000000000E+00 0. -1.
          1   -1    0    0  501    0 -0.00000000000E+00 -0.00000000000E+00 -0.63498795860E+03  0.63498795860E+03  0.00000000000E+00 0. -1.
         25    2    1    2    0    0  0.43636360684E+02 -0.21469057171E+01 -0.19322832669E+03  0.23424402199E+03  0.12499733768E+03 0.  0.
          2    1    1    2  501    0 -0.59846085906E+00  0.77164927422E+02 -0.26866068350E+03  0.27952342843E+03  0.00000000000E+00 0. -1.
          1    1    1    2  502    0 -0.43037899825E+02 -0.75018021705E+02 -0.13445250790E+03  0.15986694869E+03  0.00000000000E+00 0. -1.
         22    1    3    3    0    0  0.21900884869E+02  0.52308763567E+02 -0.37873211262E+02  0.68192636224E+02  0.00000000000E+00 0.  1.
         22    1    3    3    0    0  0.21735475816E+02 -0.54455669284E+02 -0.15535511543E+03  0.16605138577E+03  0.00000000000E+00 0.  1.
</event>
<event>
 7    1  0.6520971E-006  0.1809320E+03  0.7818608E-02  0.1323526E+00
          2   -1    0    0  502    0  0.00000000000E+00  0.00000000000E+00  0.44207001497E+03  0.44207001497E+03  0.00000000000E+00 0. -1.
          1   -1    0    0  501    0 -0.00000000000E+00 -0.00000000000E+00 -0.38610605856E+03  0.38610605856E+03  0.00000000000E+00 0. -1.
         25    2    1    2    0    0  0.17186898767E+03 -0.47338559107E+02 -0.26125525276E+03  0.34008480487E+03  0.12499391709E+03 0.  0.
          2    1    1    2  501    0 -0.10587599733E+02 -0.35603570241E+02 -0.59413002591E+02  0.70068654611E+02  0.00000000000E+00 0. -1.
          1    1    1    2  502    0 -0.16128138793E+03  0.82942129347E+02  0.37663221176E+03  0.41802261404E+03  0.00000000000E+00 0. -1.
         22    1    3    3    0    0 -0.13505556845E+02  0.15915562304E+02 -0.16518624963E+02  0.26618981194E+02  0.00000000000E+00 0. -1.
         22    1    3    3    0    0  0.18537454451E+03 -0.63254121410E+02 -0.24473662780E+03  0.31346582368E+03  0.00000000000E+00 0. -1.
</event>
<event>
 7    1  0.6520971E-006  0.7753280E+02  0.7818608E-02  0.1496458E+00
          2   -1    0    0  502    0  0.00000000000E+00  0.00000000000E+00  0.10868100730E+04  0.10868100730E+04  0.00000000000E+00 0. -1.
          1   -1    0    0  501    0 -0.00000000000E+00 -0.00000000000E+00 -0.11400763269E+04  0.11400763269E+04  0.00000000000E+00 0. -1.
         25    2    1    2    0    0 -0.56506427904E+02 -0.82150457775E+01 -0.10139389635E+03  0.17078100695E+03  0.12499986699E+03 0.  0.
          2    1    1    2  501    0  0.78369569456E+02  0.34967576251E+01 -0.10023372587E+04  0.10054024055E+04  0.00000000000E+00 0. -1.
          1    1    1    2  502    0 -0.21863141552E+02  0.47182881523E+01  0.10504649012E+04  0.10507029874E+04  0.00000000000E+00 0. -1.
         22    1    3    3    0    0 -0.36748575835E+01  0.48956834495E+02 -0.72889889881E+02  0.87881808520E+02  0.00000000000E+00 0. -1.
         22    1    3    3    0    0 -0.52831570321E+02 -0.57171880272E+02 -0.28504006466E+02  0.82899198434E+02  0.00000000000E+00 0. -1.
</event>
<event>
 7    1  0.6520971E-006  0.1165026E+03  0.7818608E-02  0.1259149E+00
          2   -1    0    0  502    0  0.00000000000E+00  0.00000000000E+00  0.75154545151E+03  0.75154545151E+03  0.00000000000E+00 0. -1.
          1   -1    0    0  501    0 -0.00000000000E+00 -0.00000000000E+00 -0.70545475166E+03  0.70545475166E+03  0.00000000000E+00 0. -1.
         25    2    1    2    0    0 -0.85008523381E+02 -0.34395444086E+02  0.11053755663E+03  0.19040859405E+03  0.12500954220E+03 0.  0.
          2    1    1    2  501    0  0.56367049285E+02 -0.88967325298E+02 -0.65459199284E+03  0.66301063815E+03  0.00000000000E+00 0. -1.
          1    1    1    2  502    0  0.28641474096E+02  0.12336276938E+03  0.59014513605E+03  0.60358097097E+03  0.00000000000E+00 0. -1.
         22    1    3    3    0    0 -0.95940238663E+02 -0.29272640882E+02  0.13199790466E+03  0.16578559567E+03  0.00000000000E+00 0. -1.
         22    1    3    3    0    0  0.10931715282E+02 -0.51228032035E+01 -0.21460348026E+02  0.24622998377E+02  0.00000000000E+00 0. -1.
</event>
<event>
 7    1  0.6520971E-006  0.1605108E+03  0.7818608E-02  0.1298338E+00
          2   -1    0    0  502    0  0.00000000000E+00  0.00000000000E+00  0.69401381723E+03  0.69401381723E+03  0.00000000000E+00 0. -1.
          1   -1    0    0  501    0 -0.00000000000E+00 -0.00000000000E+00 -0.11692919298E+04  0.11692919298E+04  0.00000000000E+00 0. -1.
         25    2    1    2    0    0 -0.51462907957E+02 -0.20235349487E+03  0.11441823985E+02  0.24362254986E+03  0.12500265470E+03 0.  0.
          2    1    1    2  501    0  0.51285252769E+02  0.14974795997E+03 -0.10460130627E+04  0.10579215264E+04  0.00000000000E+00 0. -1.
          1    1    1    2  502    0  0.17765518764E+00  0.52605534908E+02  0.55929312611E+03  0.56176167080E+03  0.00000000000E+00 0. -1.
         22    1    3    3    0    0  0.25478923622E+02 -0.11791683727E+03 -0.26000256359E+02  0.12340814151E+03  0.00000000000E+00 0.  1.
         22    1    3    3    0    0 -0.76941831579E+02 -0.84436657604E+02  0.37442080345E+02  0.12021440835E+03  0.00000000000E+00 0.  1.
</event>
<event>
 7    1  0.6520971E-006  0.7164647E+02  0.7818608E-02  0.1428281E+00
          2   -1    0    0  502    0  0.00000000000E+00  0.00000000000E+00  0.27814737562E+02  0.27814737562E+02  0.00000000000E+00 0. -1.
          1   -1    0    0  501    0 -0.00000000000E+00 -0.00000000000E+00 -0.18374378378E+04  0.18374378378E+04  0.00000000000E+00 0. -1.
         25    2    1    2    0    0  0.85264703658E+02  0.25750097842E+02 -0.44635227880E+03  0.47200486145E+03  0.12500038085E+03 0.  0.
          2    1    1    2  501    0 -0.16273404231E+02 -0.36168942012E+02 -0.12950752497E+04  0.12956824141E+04  0.00000000000E+00 0. -1.
          1    1    1    2  502    0 -0.68991299426E+02  0.10418844170E+02 -0.68195571814E+02  0.97565299802E+02  0.00000000000E+00 0. -1.
         22    1    3    3    0    0  0.95144168931E+02 -0.18620870448E+02 -0.20970314923E+03  0.23102934985E+03  0.00000000000E+00 0.  1.
         22    1    3    3    0    0 -0.98794652733E+01  0.44370968290E+02 -0.23664912958E+03  0.24097551160E+03  0.00000000000E+00 0.  1.
</event>
<event>
 7    1  0.6520971E-006  0.3054122E+03  0.7818608E-02  0.1136884E+00
          2   -1    0    0  502    0  0.00000000000E+00  0.00000000000E+00  0.72905365521E+03  0.72905365521E+03  0.00000000000E+00 0. -1.
          1   -1    0    0  501    0 -0.00000000000E+00 -0.00000000000E+00 -0.23149102528E+04  0.23149102528E+04  0.00000000000E+00 0. -1.
         25    2    1    2    0    0 -0.14488500381E+03 -0.14310429070E+03  0.25118063394E+02  0.24026376387E+03  0.12500102710E+03 0.  0.
          2    1    1    2  501    0  0.11641835484E+03  0.29322425561E+03 -0.21860367535E+04  0.22086852164E+04  0.00000000000E+00 0. -1.
          1    1    1    2  502    0  0.28466648968E+02 -0.15011996491E+03  0.57506209253E+03  0.59501492774E+03  0.00000000000E+00 0. -1.
         22    1    3    3    0    0 -0.88576457087E+01 -0.11856197947E+02  0.47657160014E+02  0.49902226582E+02  0.00000000000E+00 0. -1.
         22    1    3    3    0    0 -0.13602735810E+03 -0.13124809275E+03 -0.22539096620E+02  0.19036153729E+03  0.00000000000E+00 0. -1.
</event>
<event>
 7    1  0.6520971E-006  0.1180325E+03  0.7818608E-02  0.1390061E+00
          2   -1    0    0  502    0  0.00000000000E+00  0.00000000000E+00  0.47085273238E+03  0.47085273238E+03  0.00000000000E+00 0. -1.
          1   -1    0    0  501    0 -0.00000000000E+00 -0.00000000000E+00 -0.66678333277E+03  0.66678333277E+03  0.00000000000E+00 0. -1.
         25    2    1    2    0    0  0.96644885564E+02 -0.34044758674E+02  0.26046713968E+03  0.30654041498E+03  0.12499846263E+03 0.  0.
          2    1    1    2  501    0  0.27878092155E+02 -0.16614290415E+02 -0.61915104782E+03  0.62000100216E+03  0.00000000000E+00 0. -1.
          1    1    1    2  502    0 -0.12452297772E+03  0.50659049089E+02  0.16275330775E+03  0.21109464801E+03  0.00000000000E+00 0. -1.
         22    1    3    3    0    0  0.99153000627E+02 -0.44872378673E+02  0.10683774769E+03  0.15250951522E+03  0.00000000000E+00 0.  1.
         22    1    3    3    0    0 -0.25081150632E+01  0.10827619999E+02  0.15362939199E+03  0.15403089975E+03  0.00000000000E+00 0.  1.
</event>
<event>
 7    1  0.6520971E-006  0.7973760E+02  0.7818608E-02  0.1366501E+00
          2   -1    0    0  502    0  0.00000000000E+00  0.00000000000E+00  0.23441795033E+04  0.23441795033E+04  0.00000000000E+00 0. -1.
          1   -1    0    0  501    0 -0.00000000000E+00 -0.00000000000E+00 -0.10443614621E+03  0.10443614621E+03  0.00000000000E+00 0. -1.
         25    2    1    2    0    0 -0.23641549193E+02  0.11702476935E+02  0.18846599110E+03  0.22768483447E+03  0.12500033293E+03 0.  0.
          2    1    1    2  501    0 -0.58037720877E+02 -0.49171246328E+01 -0.73944332514E+02  0.94129269998E+02  0.00000000000E+00 0. -1.
          1    1    1    2  502    0  0.81679270070E+02 -0.67853523019E+01  0.21252216985E+04  0.21268015450E+04  0.00000000000E+00 0. -1.
         22    1    3    3    0    0  0.10999031436E+02  0.23799067696E+02  0.18917790417E+03  0.19098600405E+03  0.00000000000E+00 0. -1.
         22    1    3    3    0    0 -0.34640580629E+02 -0.12096590762E+02 -0.71191307221E+00  0.36698830425E+02  0.00000000000E+00 0. -1.
</event>
<event>
 7    1  0.6520971E-006  0.6358316E+02  0.7818608E-02  0.1394239E+00
          2   -1    0    0  502    0  0.00000000000E+00  0.00000000000E+00  0.12407680606E+04  0.12407680606E+04  0.00000000000E+00 0. -1.
          1   -1    0    0  501    0 -0.00000000000E+00 -0.00000000000E+00 -0.15385702069E+03  0.15385702069E+03  0.00000000000E+00 0. -1.
         25    2    1    2    0    0  0.66773742541E+02 -0.26612780881E+02  0.14277983564E+03  0.20292493470E+03  0.12500189941E+03 0.  0.
          2    1    1    2  501    0 -0.56571157409E+02 -0.30749329980E+02 -0.11455590508E+03  0.13141108224E+03  0.00000000000E+00 0. -1.
          1    1    1    2  502    0 -0.10202585132E+02  0.57362110861E+02  0.10586871094E+04  0.10602890644E+04  0.00000000000E+00 0. -1.
         22    1    3    3    0    0  0.85650669430E+02  0.48538882611E+01  0.14238055646E+03  0.16622821741E+03  0.00000000000E+00 0. -1.
         22    1    3    3    0    0 -0.18876926889E+02 -0.31466669142E+02  0.39927918116E+00  0.36696717286E+02  0.00000000000E+00 0. -1.
</event>
<event>
 7    1  0.6520971E-006  0.1776491E+03  0.7818608E-02  0.1307692E+00
          2   -1    0    0  502    0  0.00000000000E+00  0.00000000000E+00  0.44044965284E+03  0.44044965284E+03  0.00000000000E+00 0. -1.
          1   -1    0    0  501    0 -0.00000000000E+00 -0.00000000000E+00 -0.39890657894E+03  0.39890657894E+03  0.00000000000E+00 0. -1.
         25    2    1    2    0    0  0.14377904998E+03  0.13921403919E+03  0.16205901925E+03  0.28625366245E+03  0.12500027850E+03 0.  0.
          2    1    1    2  501    0 -0.77029151241E+01 -0.42936491164E+02 -0.30289685202E+03  0.30602186219E+03  0.00000000000E+00 0. -1.
          1    1    1    2  502    0 -0.13607613485E+03 -0.96277548022E+02  0.18238090666E+03  0.24708070715E+03  0.00000000000E+00 0. -1.
         22    1    3    3    0    0  0.37316297974E+02  0.11444565839E+03  0.51964238310E+02  0.13111291654E+03  0.00000000000E+00 0. -1.
         22    1    3    3    0    0  0.10646275200E+03  0.24768380792E+02  0.11009478094E+03  0.15514074591E+03  0.00000000000E+00 0. -1.
</event>
<event>
 7    1  0.6520971E-006  0.7699713E+02  0.7818608E-02  0.1435795E+00
          2   -1    0    0  502    0  0.00000000000E+00  0.00000000000E+00  0.22674899503E+04  0.22674899503E+04  0.00000000000E+00 0. -1.
          1   -1    0    0  501    0 -0.00000000000E+00 -0.00000000000E+00 -0.29853150748E+03  0.29853150748E+03  0.00000000000E+00 0. -1.
         25    2    1    2    0    0 -0.10464858320E+03  0.34205803328E+02  0.11948839055E+03  0.20499980686E+03  0.12500432948E+03 0.  0.
          2    1    1    2  501    0  0.34712869776E+02 -0.32806930541E+01 -0.25388949612E+03  0.25627255514E+03  0.00000000000E+00 0. -1.
          1    1    1    2  502    0  0.69935713420E+02 -0.30925110273E+02  0.21033595484E+04  0.21047490958E+04  0.00000000000E+00 0. -1.
         22    1    3    3    0    0 -0.85950674621E+02 -0.14651447567E+02  0.12499206385E+03  0.15239816078E+03  0.00000000000E+00 0. -1.
         22    1    3    3    0    0 -0.18697908576E+02  0.48857250895E+02 -0.55036732989E+01  0.52601646076E+02  0.00000000000E+00 0. -1.
</event>
<event>
 7    1  0.6520971E-006  0.9331868E+02  0.7818608E-02  0.1431418E+00
          2   -1    0    0  502    0  0.00000000000E+00  0.00000000000E+00  0.12811708327E+04  0.12811708327E+04  0.00000000000E+00 0. -1.
          1   -1    0    0  501    0 -0.00000000000E+00 -0.00000000000E+00 -0.59383925951E+03  0.59383925951E+03  0.00000000000E+00 0. -1.
         25    2    1    2    0    0 -0.29633259702E+02 -0.57628475720E+02 -0.74132669137E+01  0.14099559776E+03  0.12500252305E+03 0.  0.
          2    1    1    2  501    0 -0.19147008978E+02 -0.22749779436E+02 -0.51738741990E+03  0.51824116268E+03  0.00000000000E+00 0. -1.
          1    1    1    2  502    0  0.48780268680E+02  0.80378255156E+02  0.12121322600E+04  0.12157733317E+04  0.00000000000E+00 0. -1.
         22    1    3    3    0    0 -0.14808616056E+01 -0.23016478412E+02 -0.64524811373E+02  0.68523007175E+02  0.00000000000E+00 0. -1.
         22    1    3    3    0    0 -0.28152398096E+02 -0.34611997307E+02  0.57111544459E+02  0.72472590589E+02  0.00000000000E+00 0. -1.
</event>
<event>
 7    1  0.6520971E-006  0.8417299E+02  0.7818608E-02  0.1371690E+00
          2   -1    0    0  502    0  0.00000000000E+00  0.00000000000E+00  0.25654489568E+04  0.25654489568E+04  0.00000000000E+00 0. -1.
          1   -1    0    0  501    0 -0.00000000000E+00 -0.00000000000E+00 -0.25007424441E+04  0.25007424441E+04  0.00000000000E+00 0. -1.
         25    2    1    2    0    0 -0.36048682572E+02 -0.96855914508E+02  0.45976007458E+03  0.48752958599E+03  0.12500078139E+03 0.  0.
          2    1    1    2  501    0  0.50868270667E+02  0.14349448142E+02 -0.24857368379E+04  0.24862986777E+04  0.00000000000E+00 0. -1.
          1    1    1    2  502    0 -0.14819588095E+02  0.82506466367E+02  0.20906832760E+04  0.20923631372E+04  0.00000000000E+00 0. -1.
         22    1    3    3    0    0  0.45323596243E+02 -0.48210905665E+02  0.16027227777E+03  0.17339470240E+03  0.00000000000E+00 0.  1.
         22    1    3    3    0    0 -0.81372278816E+02 -0.48645008843E+02  0.29948779681E+03  0.31413488358E+03  0.00000000000E+00 0.  1.
</event>
<event>
 7    1  0.6520971E-006  0.9305285E+02  0.7818608E-02  0.1380263E+00
          2   -1    0    0  502    0  0.00000000000E+00  0.00000000000E+00  0.19783442448E+03  0.19783442448E+03  0.00000000000E+00 0. -1.
          1   -1    0    0  501    0 -0.00000000000E+00 -0.00000000000E+00 -0.59261823055E+03  0.59261823055E+03  0.00000000000E+00 0. -1.
         25    2    1    2    0    0 -0.94915041530E+02  0.32102962368E+02 -0.50539345527E+02  0.16798602654E+03  0.12500245744E+03 0.  0.
          2    1    1    2  501    0  0.92417808748E+02  0.12389747384E+02 -0.47513501502E+03  0.48419814096E+03  0.00000000000E+00 0. -1.
          1    1    1    2  502    0  0.24972327819E+01 -0.44492709751E+02  0.13089055448E+03  0.13826848753E+03  0.00000000000E+00 0. -1.
         22    1    3    3    0    0 -0.62337646979E+01 -0.37789415913E+02  0.10387925968E+02  0.39683860489E+02  0.00000000000E+00 0.  1.
         22    1    3    3    0    0 -0.88681276832E+02  0.69892378281E+02 -0.60927271495E+02  0.12830216605E+03  0.00000000000E+00 0.  1.
</event>
<event>
 7    1  0.6520971E-006  0.9852216E+02  0.7818608E-02  0.1356655E+00
          2   -1    0    0  502    0  0.00000000000E+00  0.00000000000E+00  0.10341940431E+03  0.10341940431E+03  0.00000000000E+00 0. -1.
          1   -1    0    0  501    0 -0.00000000000E+00 -0.00000000000E+00 -0.93682606927E+03  0.93682606927E+03  0.00000000000E+00 0. -1.
         25    2    1    2    0    0  0.56133504025E+02 -0.93167132889E+02 -0.53791850456E+03  0.56286061039E+03  0.12499865705E+03 0.  0.
          2    1    1    2  501    0 -0.51131675622E+01  0.97408455869E+02 -0.37241609591E+03  0.38497831140E+03  0.00000000000E+00 0. -1.
          1    1    1    2  502    0 -0.51020336463E+02 -0.42413229799E+01  0.76927935503E+02  0.92406551793E+02  0.00000000000E+00 0. -1.
         22    1    3    3    0    0  0.16245902141E+02  0.80852888434E+00 -0.33793158052E+03  0.33832282832E+03  0.00000000000E+00 0.  1.
         22    1    3    3    0    0  0.39887601884E+02 -0.93975661773E+02 -0.19998692404E+03  0.22453778207E+03  0.00000000000E+00 0.  1.
</event>
<event>
 7    1  0.6520971E-006  0.9996934E+02  0.7818608E-02  0.1339894E+00
          2   -1    0    0  502    0  0.00000000000E+00  0.00000000000E+00  0.12699582370E+04  0.12699582370E+04  0.00000000000E+00 0. -1.
          1   -1    0    0  501    0 -0.00000000000E+00 -0.00000000000E+00 -0.24550770287E+03  0.24550770287E+03  0.00000000000E+00 0. -1.
         25    2    1    2    0    0  0.59394321414E+02  0.21756979230E+02  0.39428162945E+02  0.14553791818E+03  0.12500261611E+03 0.  0.
          2    1    1    2  501    0  0.40482038863E+02 -0.41861449000E+02 -0.18578426719E+03  0.19469712458E+03  0.00000000000E+00 0. -1.
          1    1    1    2  502    0 -0.99876360277E+02  0.20104469770E+02  0.11708066384E+04  0.11752308971E+04  0.00000000000E+00 0. -1.
         22    1    3    3    0    0 -0.34110036206E+02 -0.17339878038E+02  0.54830238434E+01  0.38655264723E+02  0.00000000000E+00 0. -1.
         22    1    3    3    0    0  0.93504357620E+02  0.39096857268E+02  0.33945139101E+02  0.10688265346E+03  0.00000000000E+00 0. -1.
</event>
<event>
 7    1  0.6520971E-006  0.6124133E+02  0.7818608E-02  0.1447674E+00
          2   -1    0    0  502    0  0.00000000000E+00  0.00000000000E+00  0.42482476985E+03  0.42482476985E+03  0.00000000000E+00 0. -1.
          1   -1    0    0  501    0 -0.00000000000E+00 -0.00000000000E+00 -0.88406335347E+03  0.88406335347E+03  0.00000000000E+00 0. -1.
         25    2    1    2    0    0 -0.12949227174E+02 -0.17038641234E+02 -0.31420110228E+03  0.33883191455E+03  0.12500694327E+03 0.  0.
          2    1    1    2  501    0 -0.23678628906E+02 -0.32391329680E+02 -0.55452412327E+03  0.55597381143E+03  0.00000000000E+00 0. -1.
          1    1    1    2  502    0  0.36627856080E+02  0.49429970914E+02  0.40948664193E+03  0.41408239733E+03  0.00000000000E+00 0. -1.
         22    1    3    3    0    0 -0.51700918514E+02 -0.12513667816E+02 -0.28545898065E+03  0.29037287492E+03  0.00000000000E+00 0. -1.
         22    1    3    3    0    0  0.38751691340E+02 -0.45249734179E+01 -0.28742121631E+02  0.48459039631E+02  0.00000000000E+00 0. -1.
</event>
<event>
 7    1  0.6520971E-006  0.9076650E+02  0.7818608E-02  0.1315828E+00
          2   -1    0    0  502    0  0.00000000000E+00  0.00000000000E+00  0.24501526516E+04  0.24501526516E+04  0.00000000000E+00 0. -1.
          1   -1    0    0  501    0 -0.00000000000E+00 -0.00000000000E+00 -0.23558087415E+03  0.23558087415E+03  0.00000000000E+00 0. -1.
         25    2    1    2    0    0  0.93310485486E+02 -0.46443391532E+02 -0.70470555237E+02  0.17734847007E+03  0.12499018106E+03 0.  0.
          2    1    1    2  501    0 -0.88878926114E+02 -0.32750049974E+02 -0.90804010497E+02  0.13121508146E+03  0.00000000000E+00 0. -1.
          1    1    1    2  502    0 -0.44315593721E+01  0.79193441506E+02  0.23758463432E+04  0.23771699742E+04  0.00000000000E+00 0. -1.
         22    1    3    3    0    0 -0.65016777491E+01 -0.56500509200E+02 -0.48287826318E+02  0.74607596959E+02  0.00000000000E+00 0. -1.
         22    1    3    3    0    0  0.99812163235E+02  0.10057117668E+02 -0.22182728919E+02  0.10274087311E+03  0.00000000000E+00 0. -1.
</event>
<event>
 7    1  0.6520971E-006  0.4692189E+02  0.7818608E-02  0.1478975E+00
          2   -1    0    0  502    0  0.00000000000E+00  0.00000000000E+00  0.22881342936E+03  0.22881342936E+03  0.00000000000E+00 0. -1.
          1   -1    0    0  501    0 -0.00000000000E+00 -0.00000000000E+00 -0.11497868497E+04  0.11497868497E+04  0.00000000000E+00 0. -1.
         25    2    1    2    0    0 -0.13144612069E+02 -0.49679855789E+02 -0.22871112578E+02  0.13707587635E+03  0.12500335671E+03 0.  0.
          2    1    1    2  501    0  0.42564277020E+02  0.20041219991E+02 -0.10667480998E+04  0.10677850330E+04  0.00000000000E+00 0. -1.
          1    1    1    2  502    0 -0.29419664951E+02  0.29638635798E+02  0.16864579205E+03  0.17373936973E+03  0.00000000000E+00 0. -1.
         22    1    3    3    0    0  0.51217753828E+02 -0.45255636808E+02  0.81198208541E+00  0.68351958896E+02  0.00000000000E+00 0. -1.
         22    1    3    3    0    0 -0.64362365897E+02 -0.44242189815E+01 -0.23683094663E+02  0.68723917454E+02  0.00000000000E+00 0. -1.
</event>
<event>
 7    1  0.6520971E-006  0.6453309E+02  0.7818608E-02  0.1449549E+00
          2   -1    0    0  502    0  0.00000000000E+00  0.00000000000E+00  0.16099444136E+04  0.16099444136E+04  0.00000000000E+00 0. -1.
          1   -1    0    0  501    0 -0.00000000000E+00 -0.00000000000E+00 -0.75589734859E+03  0.75589734859E+03  0.00000000000E+00 0. -1.
         25    2    1    2    0    0 -0.26696172844E+02 -0.93122956885E+02 -0.81421928409E+02  0.17787311255E+03  0.12499897199E+03 0.  0.
          2    1    1    2  501    0  0.37213082135E+01  0.63417889024E+02 -0.62441221374E+03  0.62763547498E+03  0.00000000000E+00 0. -1.
          1    1    1    2  502    0  0.22974864630E+02  0.29705067861E+02  0.15598812072E+04  0.15603331747E+04  0.00000000000E+00 0. -1.
         22    1    3    3    0    0  0.36544224027E+02  0.84835464099E+01 -0.11379733406E+02  0.39203943702E+02  0.00000000000E+00 0.  1.
         22    1    3    3    0    0 -0.63240396871E+02 -0.10160650329E+03 -0.70042195003E+02  0.13866916885E+03  0.00000000000E+00 0.  1.
</event>
<event>
 7    1  0.6520971E-006  0.1095388E+03  0.7818608E-02  0.1277733E+00
          2   -1    0    0  502    0  0.00000000000E+00  0.00000000000E+00  0.16054191362E+04  0.16054191362E+04  0.00000000000E+00 0. -1.
          1   -1    0    0  501    0 -0.00000000000E+00 -0.00000000000E+00 -0.28411561153E+04  0.28411561153E+04  0.00000000000E+00 0. -1.
         25    2    1    2    0    0  0.44533835838E+02 -0.13840340403E+03 -0.19484297097E+04  0.19578407194E+04  0.12499273639E+03 0.  0.
          2    1    1    2  501    0 -0.83650789775E+02  0.53425076598E+02 -0.88387394000E+03  0.88942949988E+03  0.00000000000E+00 0. -1.
          1    1    1    2  502    0  0.39116953937E+02  0.84978327429E+02  0.15965666707E+04  0.15993050322E+04  0.00000000000E+00 0. -1.
         22    1    3    3    0    0 -0.37359707905E+02 -0.49364091622E+02 -0.96768237842E+03  0.96966063487E+03  0.00000000000E+00 0. -1.
         22    1    3    3    0    0  0.81893543744E+02 -0.89039312406E+02 -0.98074733132E+03  0.98818008457E+03  0.00000000000E+00 0. -1.
</event>
<event>
 7    1  0.6520971E-006  0.1306956E+03  0.7818608E-02  0.1423410E+00
          2   -1    0    0  502    0  0.00000000000E+00  0.00000000000E+00  0.46339589394E+02  0.46339589394E+02  0.00000000000E+00 0. -1.
          1   -1    0    0  501    0 -0.00000000000E+00 -0.00000000000E+00 -0.10681818463E+04  0.10681818463E+04  0.00000000000E+00 0. -1.
         25    2    1    2    0    0 -0.11447524998E+03  0.18008717018E+02 -0.86347306834E+03  0.88013708028E+03  0.12500657421E+03 0.  0.
          2    1    1    2  501    0 -0.13365415320E+02  0.18180832089E+02 -0.73119879237E+02  0.76522504675E+02  0.00000000000E+00 0. -1.
          1    1    1    2  502    0  0.12784066530E+03 -0.36189549107E+02 -0.85249309282E+02  0.15786185069E+03  0.00000000000E+00 0. -1.
         22    1    3    3    0    0 -0.47124433991E+02 -0.86702209359E+01 -0.69625226117E+03  0.69789905874E+03  0.00000000000E+00 0. -1.
         22    1    3    3    0    0 -0.67350815990E+02  0.26678937954E+02 -0.16722080717E+03  0.18223802154E+03  0.00000000000E+00 0. -1.
</event>
<event>
 7    1  0.6520971E-006  0.4306975E+02  0.7818608E-02  0.1559957E+00
          2   -1    0    0  502    0  0.00000000000E+00  0.00000000000E+00  0.18048653556E+04  0.18048653556E+04  0.00000000000E+00 0. -1.
          1   -1    0    0  501    0 -0.00000000000E+00 -0.00000000000E+00 -0.42350891447E+02  0.42350891447E+02  0.00000000000E+00 0. -1.
         25    2    1    2    0    0 -0.12477235563E+02 -0.18951346250E+02  0.49107587835E+03  0.50724265792E+03  0.12499904314E+03 0.  0.
          2    1    1    2  501    0  0.86009263201E+01 -0.25015035338E+02 -0.28731733409E+02  0.39054326664E+02  0.00000000000E+00 0. -1.
          1    1    1    2  502    0  0.38763092430E+01  0.43966381588E+02  0.13001703193E+04  0.13009192625E+04  0.00000000000E+00 0. -1.
         22    1    3    3    0    0 -0.59982695371E+02 -0.26180492905E+02  0.38844110336E+03  0.39391602244E+03  0.00000000000E+00 0.  1.
         22    1    3    3    0    0  0.47505459808E+02  0.72291466547E+01  0.10263477499E+03  0.11332663548E+03  0.00000000000E+00 0.  1.
</event>
<event>
 7    1  0.6520971E-006  0.2056266E+03  0.7818608E-02  0.1202657E+00
          2   -1    0    0  502    0  0.00000000000E+00  0.00000000000E+00  0.21556669597E+04  0.21556669597E+04  0.00000000000E+00 0. -1.
          1   -1    0    0  501    0 -0.00000000000E+00 -0.00000000000E+00 -0.19484898372E+03  0.19484898372E+03  0.00000000000E+00 0. -1.
         25    2    1    2    0    0 -0.61210985795E+02  0.13700805412E+03  0.10582883250E+03  0.22213089327E+03  0.12499760110E+03 0.  0.
          2    1    1    2  501    0  0.41835843994E+02 -0.24210085506E+03 -0.23544289152E+02  0.24681449595E+03  0.00000000000E+00 0. -1.
          1    1    1    2  502    0  0.19375141801E+02  0.10509280094E+03  0.18785334326E+04  0.18815705542E+04  0.00000000000E+00 0. -1.
         22    1    3    3    0    0 -0.74214312576E+02  0.48988135663E+02  0.98729989050E+02  0.13287291810E+03  0.00000000000E+00 0.  1.
         22    1    3    3    0    0  0.13003326781E+02  0.88019918455E+02  0.70988434473E+01  0.89257975165E+02  0.00000000000E+00 0.  1.
</event>
<event>
 7    1  0.6520971E-006  0.1163733E+03  0.7818608E-02  0.1303833E+00
          2   -1    0    0  502    0  0.00000000000E+00  0.00000000000E+00  0.20490380395E+04  0.20490380395E+04  0.00000000000E+00 0. -1.
          1   -1    0    0  501    0 -0.00000000000E+00 -0.00000000000E+00 -0.77041049440E+02  0.77041049440E+02  0.00000000000E+00 0. -1.
         25    2    1    2    0    0 -0.44111452110E+02  0.59986911876E+02  0.93201816338E+03  0.94330388549E+03  0.12498045324E+03 0.  0.
          2    1    1    2  501    0  0.11106437191E+03 -0.43386742294E+02 -0.19699288877E+02  0.12085431766E+03  0.00000000000E+00 0. -1.
          1    1    1    2  502    0 -0.66952919803E+02 -0.16600169582E+02  0.10596781156E+04  0.10619208858E+04  0.00000000000E+00 0. -1.
         22    1    3    3    0    0  0.44184852940E+02  0.21877737150E+02  0.31188188018E+03  0.31575503764E+03  0.00000000000E+00 0. -1.
         22    1    3    3    0    0 -0.88296305050E+02  0.38109174726E+02  0.62013628320E+03  0.62754884784E+03  0.00000000000E+00 0. -1.
</event>
<event>
 7    1  0.6520971E-006  0.9646703E+02  0.7818608E-02  0.1349060E+00
          2   -1    0    0  502    0  0.00000000000E+00  0.00000000000E+00  0.17402953766E+04  0.17402953766E+04  0.00000000000E+00 0. -1.
          1   -1    0    0  501    0 -0.00000000000E+00 -0.00000000000E+00 -0.84459064291E+03  0.84459064291E+03  0.00000000000E+00 0. -1.
         25    2    1    2    0    0 -0.23389365309E+02 -0.45044434742E+02 -0.28727120286E+02  0.13793854784E+03  0.12500292809E+03 0.  0.
          2    1    1    2  501    0  0.19632936831E+02 -0.52202006252E+02 -0.75882895025E+03  0.76087573059E+03  0.00000000000E+00 0. -1.
          1    1    1    2  502    0  0.37564284780E+01  0.97246440993E+02  0.16832608042E+04  0.16860717411E+04  0.00000000000E+00 0. -1.
         22    1    3    3    0    0 -0.65045867424E+02 -0.58887130452E+02 -0.33204069030E+02  0.93814546857E+02  0.00000000000E+00 0.  1.
         22    1    3    3    0    0  0.41656502115E+02  0.13842695710E+02  0.44769487435E+01  0.44124000986E+02  0.00000000000E+00 0.  1.
</event>
<event>
 7    1  0.6520971E-006  0.1186948E+03  0.7818608E-02  0.1387464E+00
          2   -1    0    0  502    0  0.00000000000E+00  0.00000000000E+00  0.81797029452E+03  0.81797029452E+03  0.00000000000E+00 0. -1.
          1   -1    0    0  501    0 -0.00000000000E+00 -0.00000000000E+00 -0.63290390971E+03  0.63290390971E+03  0.00000000000E+00 0. -1.
         25    2    1    2    0    0  0.77320413993E+02 -0.58965837337E+02  0.47020329659E+01  0.15843505110E+03  0.12499655959E+03 0.  0.
          2    1    1    2  501    0 -0.78057057645E+02  0.91911744920E+02 -0.54912341059E+03  0.56220742894E+03  0.00000000000E+00 0. -1.
          1    1    1    2  502    0  0.73664365254E+00 -0.32945907584E+02  0.72948776243E+03  0.73023172419E+03  0.00000000000E+00 0. -1.
         22    1    3    3    0    0  0.39353786601E+02 -0.40632709862E+02  0.64166979287E+02  0.85540276253E+02  0.00000000000E+00 0.  1.
         22    1    3    3    0    0  0.37966627392E+02 -0.18333127475E+02 -0.59464946322E+02  0.72894774844E+02  0.00000000000E+00 0.  1.
</event>
<event>
 7    1  0.6520971E-006  0.9839986E+02  0.7818608E-02  0.1440015E+00
          2   -1    0    0  502    0  0.00000000000E+00  0.00000000000E+00  0.14965554093E+04  0.14965554093E+04  0.00000000000E+00 0. -1.
          1   -1    0    0  501    0 -0.00000000000E+00 -0.00000000000E+00 -0.39533724596E+02  0.39533724596E+02  0.00000000000E+00 0. -1.
         25    2    1    2    0    0 -0.17341943660E+02 -0.10309438121E+03  0.46102843722E+03  0.48897988706E+03  0.12499966233E+03 0.  0.
          2    1    1    2  501    0 -0.22568629182E+02  0.13762951496E+02 -0.15667392433E+02  0.30728310118E+02  0.00000000000E+00 0. -1.
          1    1    1    2  502    0  0.39910572842E+02  0.89331429712E+02  0.10116606399E+04  0.10163809367E+04  0.00000000000E+00 0. -1.
         22    1    3    3    0    0 -0.47979695009E+02 -0.75658480163E+01  0.25783382807E+03  0.26236915994E+03  0.00000000000E+00 0.  1.
         22    1    3    3    0    0  0.30637751349E+02 -0.95528533191E+02  0.20319460915E+03  0.22661072713E+03  0.00000000000E+00 0.  1.
</event>
<event>
 7    1  0.6520971E-006  0.2123374E+03  0.7818608E-02  0.1305758E+00
          2   -1    0    0  502    0  0.00000000000E+00  0.00000000000E+00  0.10580201560E+04  0.10580201560E+04  0.00000000000E+00 0. -1.
          1   -1    0    0  501    0 -0.00000000000E+00 -0.00000000000E+00 -0.76420633242E+03  0.76420633242E+03  0.00000000000E+00 0. -1.
         25    2    1    2    0    0  0.14869365676E+03 -0.12486245965E+03 -0.54887876535E+03  0.59547771527E+03  0.12500149177E+03 0.  0.
          2    1    1    2  501    0 -0.94120749231E+01 -0.35932941570E+02 -0.17916895814E+03  0.18297890317E+03  0.00000000000E+00 0. -1.
          1    1    1    2  502    0 -0.13928158184E+03  0.16079540122E+03  0.10218615471E+04  0.10437698700E+04  0.00000000000E+00 0. -1.
         22    1    3    3    0    0  0.90551701648E+02 -0.12276866944E+03 -0.48791673888E+03  0.51120886235E+03  0.00000000000E+00 0. -1.
         22    1    3    3    0    0  0.58141955110E+02 -0.20937902062E+01 -0.60962026473E+02  0.84268852924E+02  0.00000000000E+00 0. -1.
</event>
<event>
 7    1  0.6520971E-006  0.1998611E+03  0.7818608E-02  0.1220046E+00
          2   -1    0    0  502    0  0.00000000000E+00  0.00000000000E+00  0.11507765521E+04  0.11507765521E+04  0.00000000000E+00 0. -1.
          1   -1    0    0  501    0 -0.00000000000E+00 -0.00000000000E+00 -0.28182671158E+03  0.28182671158E+03  0.00000000000E+00 0. -1.
         25    2    1    2    0    0 -0.21688726152E+03 -0.55911009630E+02  0.40112657335E+03  0.47612380094E+03  0.12500088306E+03 0.  0.
          2    1    1    2  501    0  0.19647745610E+03 -0.33135123022E+02 -0.20007205020E+03  0.28236528186E+03  0.00000000000E+00 0. -1.
          1    1    1    2  502    0  0.20409805426E+02  0.89046132652E+02  0.66789531737E+03  0.67411418088E+03  0.00000000000E+00 0. -1.
         22    1    3    3    0    0 -0.73532760340E+02 -0.77181832724E+02  0.21730049993E+03  0.24204051193E+03  0.00000000000E+00 0. -1.
         22    1    3    3    0    0 -0.14335450118E+03  0.21270823094E+02  0.18382607341E+03  0.23408328900E+03  0.00000000000E+00 0. -1.
</event>
<event>
 7    1  0.6520971E-006  0.1280752E+03  0.7818608E-02  0.1413475E+00
          2   -1    0    0  502    0  0.00000000000E+00  0.00000000000E+00  0.48948859818E+02  0.48948859818E+02  0.00000000000E+00 0. -1.
          1   -1    0    0  501    0 -0.00000000000E+00 -0.00000000000E+00 -0.27845550728E+04  0.27845550728E+04  0.00000000000E+00 0. -1.
         25    2    1    2    0    0 -0.86561854562E+02 -0.64358816587E+02 -0.48603207650E+03  0.51330924634E+03  0.12499676417E+03 0.  0.
          2    1    1    2  501    0  0.11086154354E+03  0.69603005199E+02 -0.22783846158E+04  0.22821418268E+04  0.00000000000E+00 0. -1.
          1    1    1    2  502    0 -0.24299688981E+02 -0.52441886119E+01  0.28810479291E+02  0.38052859495E+02  0.00000000000E+00 0. -1.
         22    1    3    3    0    0  0.36942983633E+01  0.25248310959E+02 -0.18151427911E+03  0.18329909593E+03  0.00000000000E+00 0. -1.
         22    1    3    3    0    0 -0.90256152925E+02 -0.89607127546E+02 -0.30451779739E+03  0.33001015041E+03  0.00000000000E+00 0. -1.
</event>
<event>
 7    1  0.6520971E-006  0.4427501E+02  0.7818608E-02  0.1487885E+00
          2   -1    0    0  502    0  0.00000000000E+00  0.00000000000E+00  0.42394786267E+02  0.42394786267E+02  0.00000000000E+00 0. -1.
          1   -1    0    0  501    0 -0.00000000000E+00 -0.00000000000E+00 -0.17903115974E+04  0.17903115974E+04  0.00000000000E+00 0. -1.
         25    2    1    2    0    0  0.31810742661E+02 -0.23020210091E+01 -0.38624402393E+03  0.40721816362E+03  0.12499985645E+03 0.  0.
          2    1    1    2  501    0 -0.76960183753E+01  0.40851860520E+02 -0.13769060400E+04  0.13775334284E+04  0.00000000000E+00 0. -1.
          1    1    1    2  502    0 -0.24114724286E+02 -0.38549839511E+02  0.15233252821E+02  0.47954791681E+02  0.00000000000E+00 0. -1.
         22    1    3    3    0    0  0.26105807443E+02 -0.62060342985E+02 -0.17152732822E+03  0.18426780424E+03  0.00000000000E+00 0. -1.
         22    1    3    3    0    0  0.57049352182E+01  0.59758321976E+02 -0.21471669570E+03  0.22295035937E+03  0.00000000000E+00 0. -1.
</event>
<event>
 7    1  0.6520971E-006  0.1647598E+03  0.7818608E-02  0.1253094E+00
          2   -1    0    0  502    0  0.00000000000E+00  0.00000000000E+00  0.59029393655E+03  0.59029393655E+03  0.00000000000E+00 0. -1.
          1   -1    0    0  501    0 -0.00000000000E+00 -0.00000000000E+00 -0.15940111665E+04  0.15940111665E+04  0.00000000000E+00 0. -1.
         25    2    1    2    0    0 -0.91121003173E+02  0.11333403392E+02  0.14045270718E+03  0.20924159856E+03  0.12499440133E+03 0.  0.
          2    1    1    2  501    0  0.16610163499E+03  0.13763338851E+02 -0.15513499086E+04  0.15602774502E+04  0.00000000000E+00 0. -1.
          1    1    1    2  502    0 -0.74980631815E+02 -0.25096742244E+02  0.40717997150E+03  0.41478605427E+03  0.00000000000E+00 0. -1.
         22    1    3    3    0    0 -0.10810519960E+03  0.34244625631E+02  0.14071409322E+03  0.18072045982E+03  0.00000000000E+00 0. -1.
         22    1    3    3    0    0  0.16984196423E+02 -0.22911222239E+02 -0.26138604610E+00  0.28521138745E+02  0.00000000000E+00 0. -1.
</event>
<event>
 7    1  0.6520971E-006  0.5655959E+02  0.7818608E-02  0.1487080E+00
          2   -1    0    0  502    0  0.00000000000E+00  0.00000000000E+00  0.11300901188E+04  0.11300901188E+04  0.00000000000E+00 0. -1.
          1   -1    0    0  501    0 -0.00000000000E+00 -0.00000000000E+00 -0.60641970688E+03  0.60641970688E+03  0.00000000000E+00 0. -1.
         25    2    1    2    0    0 -0.23623060910E+02 -0.47058312966E+02 -0.21726653873E+02  0.13736690808E+03  0.12500034449E+03 0.  0.
          2    1    1    2  501    0  0.31438978812E+02 -0.90835771569E+01 -0.52561458511E+03  0.52663233175E+03  0.00000000000E+00 0. -1.
          1    1    1    2  502    0 -0.78159179012E+01  0.56141890123E+02  0.10710116509E+04  0.10725105859E+04  0.00000000000E+00 0. -1.
         22    1    3    3    0    0  0.42896383181E+02 -0.93561143106E+01 -0.39286097248E+02  0.58915481853E+02  0.00000000000E+00 0. -1.
         22    1    3    3    0    0 -0.66519444091E+02 -0.37702198656E+02  0.17559443375E+02  0.78451426229E+02  0.00000000000E+00 0. -1.
</event>
<event>
 7    1  0.6520971E-006  0.1641673E+03  0.7818608E-02  0.1244325E+00
          2   -1    0    0  502    0  0.00000000000E+00  0.00000000000E+00  0.41327732843E+03  0.41327732843E+03  0.00000000000E+00 0. -1.
          1   -1    0    0  501    0 -0.00000000000E+00 -0.00000000000E+00 -0.49130758647E+03  0.49130758647E+03  0.00000000000E+00 0. -1.
         25    2    1    2    0    0 -0.20424059305E+02 -0.19075976070E+03  0.84457945967E+02  0.24405528810E+03  0.12499364188E+03 0.  0.
          2    1    1    2  501    0 -0.65948526563E+02  0.56182064535E+02 -0.38045526139E+03  0.39019461612E+03  0.00000000000E+00 0. -1.
          1    1    1    2  502    0  0.86372585868E+02  0.13457769617E+03  0.21796705738E+03  0.27033501068E+03  0.00000000000E+00 0. -1.
         22    1    3    3    0    0 -0.19278452560E+02 -0.20846981918E+03  0.68759768245E+02  0.22036158915E+03  0.00000000000E+00 0.  1.
         22    1    3    3    0    0 -0.11456067458E+01  0.17710058481E+02  0.15698177723E+02  0.23693698952E+02  0.00000000000E+00 0.  1.
</event>
<event>
 7    1  0.6520971E-006  0.7580427E+02  0.7818608E-02  0.1354746E+00
          2   -1    0    0  502    0  0.00000000000E+00  0.00000000000E+00  0.80017469201E+03  0.80017469201E+03  0.00000000000E+00 0. -1.
          1   -1    0    0  501    0 -0.00000000000E+00 -0.00000000000E+00 -0.11359138841E+04  0.11359138841E+04  0.00000000000E+00 0. -1.
         25    2    1    2    0    0  0.43601539962E+02 -0.51027170649E+02 -0.11277189952E+03  0.18123739343E+03  0.12499850009E+03 0.  0.
          2    1    1    2  501    0 -0.77041940741E+02 -0.77484854874E+01 -0.98589573934E+03  0.98893170063E+03  0.00000000000E+00 0. -1.
          1    1    1    2  502    0  0.33440400779E+02  0.58775656136E+02  0.76292844674E+03  0.76591948207E+03  0.00000000000E+00 0. -1.
         22    1    3    3    0    0 -0.18879952365E+01 -0.78578398466E+02 -0.98796744208E+02  0.12624945900E+03  0.00000000000E+00 0.  1.
         22    1    3    3    0    0  0.45489535198E+02  0.27551227817E+02 -0.13975155309E+02  0.54987934428E+02  0.00000000000E+00 0.  1.
</event>
<event>
 7    1  0.6520971E-006  0.6734349E+02  0.7818608E-02  0.1436059E+00
          2   -1    0    0  502    0  0.00000000000E+00  0.00000000000E+00  0.12330752008E+04  0.12330752008E+04  0.00000000000E+00 0. -1.
          1   -1    0    0  501    0 -0.00000000000E+00 -0.00000000000E+00 -0.36235706889E+03  0.36235706889E+03  0.00000000000E+00 0. -1.
         25    2    1    2    0    0  0.31862925289E+02  0.85815647170E+02  0.75319689718E+02  0.17227697994E+03  0.12500692322E+03 0.  0.
          2    1    1    2  501    0  0.14190106761E+02 -0.37170409922E+02 -0.31160105315E+03  0.31413088805E+03  0.00000000000E+00 0. -1.
          1    1    1    2  502    0 -0.46053032050E+02 -0.48645237248E+02  0.11069994953E+04  0.11090244016E+04  0.00000000000E+00 0. -1.
         22    1    3    3    0    0  0.45150212816E+02  0.68900893091E+02 -0.11190339970E+02  0.83133016874E+02  0.00000000000E+00 0. -1.
         22    1    3    3    0    0 -0.13287287527E+02  0.16914754080E+02  0.86510029688E+02  0.89143963071E+02  0.00000000000E+00 0. -1.
</event>
<event>
 7    1  0.6520971E-006  0.1032515E+03  0.7818608E-02  0.1440375E+00
          2   -1    0    0  502    0  0.00000000000E+00  0.00000000000E+00  0.18560082703E+04  0.18560082703E+04  0.00000000000E+00 0. -1.
          1   -1    0    0  501    0 -0.00000000000E+00 -0.00000000000E+00 -0.43767255098E+03  0.43767255098E+03  0.00000000000E+00 0. -1.
         25    2    1    2    0    0  0.69046077777E+02 -0.66001663291E+02 -0.26352645104E+03  0.30691230593E+03  0.12500157087E+03 0.  0.
          2    1    1    2  501    0 -0.13570660095E+02 -0.21144145656E+02 -0.14995275106E+03  0.15204297176E+03  0.00000000000E+00 0. -1.
          1    1    1    2  502    0 -0.55475417682E+02  0.87145808947E+02  0.18318149214E+04  0.18347255436E+04  0.00000000000E+00 0. -1.
         22    1    3    3    0    0  0.66712065384E+02 -0.13567724848E+02 -0.43676325538E+02  0.80883893563E+02  0.00000000000E+00 0. -1.
         22    1    3    3    0    0  0.23340123934E+01 -0.52433938443E+02 -0.21985012550E+03  0.22602841237E+03  0.00000000000E+00 0. -1.
</event>
<event>
 7    1  0.6520971E-006  0.4238244E+02  0.7818608E-02  0.1552354E+00
          2   -1    0    0  502    0  0.00000000000E+00  0.00000000000E+00  0.17395105713E+03  0.17395105713E+03  0.00000000000E+00 0. -1.
          1   -1    0    0  501    0 -0.00000000000E+00 -0.00000000000E+00 -0.42860155953E+03  0.42860155953E+03  0.00000000000E+00 0. -1.
         25    2    1    2    0    0 -0.13715504380E+02 -0.10280100731E+02 -0.79409461196E+02  0.14908162789E+03  0.12500269483E+03 0.  0.
          2    1    1    2  501    0  0.23114358564E+02  0.36884157453E+02 -0.31139581130E+03  0.31442338644E+03  0.00000000000E+00 0. -1.
          1    1    1    2  502    0 -0.93988541839E+01 -0.26604056722E+02  0.13615477010E+03  0.13904760233E+03  0.00000000000E+00 0. -1.
         22    1    3    3    0    0 -0.22525261394E+02 -0.63631628798E+02 -0.63601391794E+02  0.92744318545E+02  0.00000000000E+00 0. -1.
         22    1    3    3    0    0  0.88097570140E+01  0.53351528067E+02 -0.15808069402E+02  0.56337309342E+02  0.00000000000E+00 0. -1.
</event>
<event>
 7    1  0.6520971E-006  0.8409004E+02  0.7818608E-02  0.1447909E+00
          2   -1    0    0  502    0  0.00000000000E+00  0.00000000000E+00  0.75917477812E+03  0.75917477812E+03  0.00000000000E+00 0. -1.
          1   -1    0    0  501    0 -0.00000000000E+00 -0.00000000000E+00 -0.16608348954E+03  0.16608348954E+03  0.00000000000E+00 0. -1.
         25    2    1    2    0    0 -0.30173566342E+02 -0.79400662839E+02  0.16524664692E+02  0.15202999241E+03  0.12500057874E+03 0.  0.
          2    1    1    2  501    0 -0.24717122730E+02  0.15491072649E+02 -0.93470044775E+02  0.97916080182E+02  0.00000000000E+00 0. -1.
          1    1    1    2  502    0  0.54890689072E+02  0.63909590190E+02  0.67003666866E+03  0.67531219507E+03  0.00000000000E+00 0. -1.
         22    1    3    3    0    0 -0.66403737531E+02 -0.50158969549E+01  0.19012256234E+02  0.69253746956E+02  0.00000000000E+00 0. -1.
         22    1    3    3    0    0  0.36230171188E+02 -0.74384765884E+02 -0.24875915427E+01  0.82776245455E+02  0.00000000000E+00 0. -1.
</event>
<event>
 7    1  0.6520971E-006  0.2773805E+03  0.7818608E-02  0.1168131E+00
          2   -1    0    0  502    0  0.00000000000E+00  0.00000000000E+00  0.35698180582E+04  0.35698180582E+04  0.00000000000E+00 0. -1.
          1   -1    0    0  501    0 -0.00000000000E+00 -0.00000000000E+00 -0.89520393089E+03  0.89520393089E+03  0.00000000000E+00 0. -1.
         25    2    1    2    0    0  0.21358443317E+03  0.14600720181E+03  0.12347912054E+04  0.12677820056E+04  0.12500191874E+03 0.  0.
          2    1    1    2  501    0  0.76595951533E+02 -0.87605550978E+02 -0.86535067540E+03  0.87314000239E+03  0.00000000000E+00 0. -1.
          1    1    1    2  502    0 -0.29018038471E+03 -0.58401650836E+02  0.23051735973E+04  0.23240999811E+04  0.00000000000E+00 0. -1.
         22    1    3    3    0    0  0.51040435705E+02  0.94480178286E+02  0.32903502050E+03  0.34611511796E+03  0.00000000000E+00 0.  1.
         22    1    3    3    0    0  0.16254399747E+03  0.51527023528E+02  0.90575618491E+03  0.92166688764E+03  0.00000000000E+00 0.  1.
</event>
<event>
 7    1  0.6520971E-006  0.1057814E+03  0.7818608E-02  0.1293137E+00
          2   -1    0    0  502    0  0.00000000000E+00  0.00000000000E+00  0.39719421918E+03  0.39719421918E+03  0.00000000000E+00 0. -1.
          1   -1    0    0  501    0 -0.00000000000E+00 -0.00000000000E+00 -0.36753053929E+03  0.36753053929E+03  0.00000000000E+00 0. -1.
         25    2    1    2    0    0 -0.42143895912E+02 -0.53583048416E+02  0.96373057899E+02  0.17192963344E+03  0.12499912610E+03 0.  0.
          2    1    1    2  501    0  0.10993667568E+03  0.43733935316E+01 -0.31346219237E+03  0.33221039309E+03  0.00000000000E+00 0. -1.
          1    1    1    2  502    0 -0.67792779773E+02  0.49209654885E+02  0.24675281436E+03  0.26058473194E+03  0.00000000000E+00 0. -1.
         22    1    3    3    0    0 -0.81872044865E+02 -0.41195076284E+02  0.35706135083E+02  0.98361547990E+02  0.00000000000E+00 0. -1.
         22    1    3    3    0    0  0.39728148954E+02 -0.12387972132E+02  0.60666922816E+02  0.73568085450E+02  0.00000000000E+00 0. -1.
</event>
<event>
 7    1  0.6520971E-006  0.1769182E+03  0.7818608E-02  0.1329108E+00
          2   -1    0    0  502    0  0.00000000000E+00  0.00000000000E+00  0.33812232464E+03  0.33812232464E+03  0.00000000000E+00 0. -1.
          1   -1    0    0  501    0 -0.00000000000E+00 -0.00000000000E+00 -0.91504633801E+03  0.91504633801E+03  0.00000000000E+00 0. -1.
         25    2    1    2    0    0 -0.75857450667E+02 -0.14374646957E+03  0.21534657692E+03  0.29734921825E+03  0.12500003626E+03 0.  0.
          2    1    1    2  501    0  0.11156965451E+03  0.13809235296E+03 -0.86048881340E+03  0.87861156590E+03  0.00000000000E+00 0. -1.
          1    1    1    2  502    0 -0.35712203842E+02  0.56541166137E+01  0.68218223115E+02  0.77207878502E+02  0.00000000000E+00 0. -1.
         22    1    3    3    0    0 -0.34153836223E+02 -0.14643382080E+03  0.20511363304E+03  0.25432449913E+03  0.00000000000E+00 0.  1.
         22    1    3    3    0    0 -0.41703614444E+02  0.26873512274E+01  0.10232943881E+02  0.43024719113E+02  0.00000000000E+00 0.  1.
</event>
<event>
 7    1  0.6520971E-006  0.1527231E+03  0.7818608E-02  0.1378839E+00
          2   -1    0    0  502    0  0.00000000000E+00  0.00000000000E+00  0.68335674590E+03  0.68335674590E+03  0.00000000000E+00 0. -1.
          1   -1    0    0  501    0 -0.00000000000E+00 -0.00000000000E+00 -0.10561912980E+04  0.10561912980E+04  0.00000000000E+00 0. -1.
         25    2    1    2    0    0  0.17309441079E+03 -0.69758194439E+01 -0.19764411428E+03  0.29102866107E+03  0.12499659416E+03 0.  0.
          2    1    1    2  501    0 -0.14959788056E+03 -0.72527833966E+01 -0.80464514541E+03  0.81846560023E+03  0.00000000000E+00 0. -1.
          1    1    1    2  502    0 -0.23496530239E+02  0.14228602840E+02  0.62945470758E+03  0.63005378260E+03  0.00000000000E+00 0. -1.
         22    1    3    3    0    0  0.11634297405E+03 -0.27750485281E+02 -0.19714718037E+03  0.23059225436E+03  0.00000000000E+00 0.  1.
         22    1    3    3    0    0  0.56751436745E+02  0.20774665837E+02 -0.49693391335E+00  0.60436406714E+02  0.00000000000E+00 0.  1.
</event>
<event>
 7    1  0.6520971E-006  0.1874390E+03  0.7818608E-02  0.1256194E+00
          2   -1    0    0  502    0  0.00000000000E+00  0.00000000000E+00  0.10841821763E+04  0.10841821763E+04  0.00000000000E+00 0. -1.
          1   -1    0    0  501    0 -0.00000000000E+00 -0.00000000000E+00 -0.76344148485E+03  0.76344148485E+03  0.00000000000E+00 0. -1.
         25    2    1    2    0    0  0.13520383516E+03 -0.25492834726E+02 -0.89511150174E+02  0.20631652010E+03  0.12499719516E+03 0.  0.
          2    1    1    2  501    0 -0.20141879060E+03  0.12917558717E+02 -0.59782675051E+03  0.63097798389E+03  0.00000000000E+00 0. -1.
          1    1    1    2  502    0  0.66214955441E+02  0.12575276009E+02  0.10080785922E+04  0.10103291572E+04  0.00000000000E+00 0. -1.
         22    1    3    3    0    0  0.21640730418E+02 -0.30472852489E+02 -0.84657332024E+02  0.92540692764E+02  0.00000000000E+00 0. -1.
         22    1    3    3    0    0  0.11356310474E+03  0.49800177625E+01 -0.48538181494E+01  0.11377582734E+03  0.00000000000E+00 0. -1.
</event>
<event>
 7    1  0.6520971E-006  0.1082302E+03  0.7818608E-02  0.1454663E+00
          2   -1    0    0  502    0  0.00000000000E+00  0.00000000000E+00  0.72384900319E+03  0.72384900319E+03  0.00000000000E+00 0. -1.
          1   -1    0    0  501    0 -0.00000000000E+00 -0.00000000000E+00 -0.31295791854E+03  0.31295791854E+03  0.00000000000E+00 0. -1.
         25    2    1    2    0    0 -0.16063729633E+02 -0.87854224492E+02  0.29795054837E+03  0.33522592938E+03  0.12500194512E+03 0.  0.
          2    1    1    2  501    0  0.29407662759E+02  0.10479612774E+03 -0.28395441853E+03  0.30410056038E+03  0.00000000000E+00 0. -1.
          1    1    1    2  502    0 -0.13343933126E+02 -0.16941903249E+02  0.39689495482E+03  0.39748043197E+03  0.00000000000E+00 0. -1.
         22    1    3    3    0    0  0.27981840007E+02  0.87091146021E+01  0.14786408817E+02  0.32824837137E+02  0.00000000000E+00 0.  1.
         22    1    3    3    0    0 -0.44045569641E+02 -0.96563339094E+02  0.28316413955E+03  0.30240109225E+03  0.00000000000E+00 0.  1.
</event>
<event>
 7    1  0.6520971E-006  0.3570059E+02  0.7818608E-02  0.1601699E+00
          2   -1    0    0  502    0  0.00000000000E+00  0.00000000000E+00  0.10566873102E+02  0.10566873102E+02  0.00000000000E+00 0. -1.
          1   -1    0    0  501    0 -0.00000000000E+00 -0.00000000000E+00 -0.23121209427E+04  0.23121209427E+04  0.00000000000E+00 0. -1.
         25    2    1    2    0    0 -0.23746527276E+02 -0.13642375325E+02 -0.74988201146E+03  0.76072177406E+03  0.12499829784E+03 0.  0.
          2    1    1    2  501    0  0.35400139292E+02 -0.80993030443E+01 -0.15257514954E+04  0.15261836044E+04  0.00000000000E+00 0. -1.
          1    1    1    2  502    0 -0.11653612016E+02  0.21741678369E+02 -0.25920562786E+02  0.35782437402E+02  0.00000000000E+00 0. -1.
         22    1    3    3    0    0 -0.63174977051E+02  0.28711126955E+02 -0.44822830761E+03  0.45356810104E+03  0.00000000000E+00 0. -1.
         22    1    3    3    0    0  0.39428449775E+02 -0.42353502280E+02 -0.30165370385E+03  0.30715367302E+03  0.00000000000E+00 0. -1.
</event>
<event>
 7    1  0.9548397E-006  0.4304261E+02  0.7818608E-02  0.1596809E+00
          2   -1    0    0  502    0  0.00000000000E+00  0.00000000000E+00  0.17778932394E+04  0.17778932394E+04  0.00000000000E+00 0. -1.
          1   -1    0    0  501    0 -0.00000000000E+00 -0.00000000000E+00 -0.94675781999E+03  0.94675781999E+03  0.00000000000E+00 0. -1.
         25    2    1    2    0    0  0.22693807943E+02  0.43399913087E+02 -0.38322436255E+03  0.40605953613E+03  0.12499949381E+03 0.  0.
          2    1    1    2  501    0  0.11701464024E+02 -0.17523981132E+02 -0.55165250555E+03  0.55205479896E+03  0.00000000000E+00 0. -1.
          1    1    1    2  502    0 -0.34395271967E+02 -0.25875931955E+02  0.17660122876E+04  0.17665367243E+04  0.00000000000E+00 0. -1.
         22    1    3    3    0    0 -0.28906341877E+02  0.31355771142E+02 -0.32316698393E+03  0.32596880294E+03  0.00000000000E+00 0.  1.
         22    1    3    3    0    0  0.51600149820E+02  0.12044141945E+02 -0.60057378624E+02  0.80090733196E+02  0.00000000000E+00 0.  1.
</event>
<event>
 7    1  0.6520971E-006  0.4041349E+02  0.7818608E-02  0.1567214E+00
          2   -1    0    0  502    0  0.00000000000E+00  0.00000000000E+00  0.42563954767E+03  0.42563954767E+03  0.00000000000E+00 0. -1.
          1   -1    0    0  501    0 -0.00000000000E+00 -0.00000000000E+00 -0.39157468846E+03  0.39157468846E+03  0.00000000000E+00 0. -1.
         25    2    1    2    0    0 -0.36353137294E+02 -0.51228763643E+02  0.12189739971E+03  0.18553609820E+03  0.12497492094E+03 0.  0.
          2    1    1    2  501    0  0.56991214396E+01  0.26319501968E+02 -0.35781233394E+03  0.35882427801E+03  0.00000000000E+00 0. -1.
          1    1    1    2  502    0  0.30654015855E+02  0.24909261675E+02  0.26997979344E+03  0.27285385992E+03  0.00000000000E+00 0. -1.
         22    1    3    3    0    0 -0.19892447220E+02  0.17632274431E+02 -0.15642303474E+02  0.30842960558E+02  0.00000000000E+00 0.  1.
         22    1    3    3    0    0 -0.16460690074E+02 -0.68861038074E+02  0.13753970318E+03  0.15469313764E+03  0.00000000000E+00 0.  1.
</event>
<event>
 7    1  0.8717810E-006  0.6573840E+02  0.7818608E-02  0.1432833E+00
          2   -1    0    0  502    0  0.00000000000E+00  0.00000000000E+00  0.20544420832E+04  0.20544420832E+04  0.00000000000E+00 0. -1.
          1   -1    0    0  501    0 -0.00000000000E+00 -0.00000000000E+00 -0.11496984089E+04  0.11496984089E+04  0.00000000000E+00 0. -1.
         25    2    1    2    0    0 -0.30592033514E+02  0.75047589138E+02 -0.17872909234E+03  0.23267395298E+03  0.12500026719E+03 0.  0.
          2    1    1    2  501    0 -0.21934976898E+02 -0.35536354433E+02 -0.94300193314E+03  0.94392617381E+03  0.00000000000E+00 0. -1.
          1    1    1    2  502    0  0.52527010413E+02 -0.39511234705E+02  0.20264746998E+04  0.20275403654E+04  0.00000000000E+00 0. -1.
         22    1    3    3    0    0 -0.58733819090E+02  0.62111953332E+02 -0.47408484458E+02  0.97750297443E+02  0.00000000000E+00 0.  1.
         22    1    3    3    0    0  0.28141785576E+02  0.12935635806E+02 -0.13132060788E+03  0.13492365553E+03  0.00000000000E+00 0.  1.
</event>
<event>
 7    1  0.6520971E-006  0.1213414E+03  0.7818608E-02  0.1274129E+00
          2   -1    0    0  502    0  0.00000000000E+00  0.00000000000E+00  0.36321506656E+03  0.36321506656E+03  0.00000000000E+00 0. -1.
          1   -1    0    0  501    0 -0.00000000000E+00 -0.00000000000E+00 -0.30919232942E+03  0.30919232942E+03  0.00000000000E+00 0. -1.
         25    2    1    2    0    0  0.10120244348E+02  0.35708043511E+01 -0.63266214097E+02  0.14050767446E+03  0.12499849098E+03 0.  0.
          2    1    1    2  501    0 -0.13110981992E+03 -0.12804451259E+02 -0.17289801030E+03  0.21736481044E+03  0.00000000000E+00 0. -1.
          1    1    1    2  502    0  0.12098957557E+03  0.92336469080E+01  0.29018696155E+03  0.31453491108E+03  0.00000000000E+00 0. -1.
         22    1    3    3    0    0  0.10636327356E+02 -0.28143524592E+02  0.29701960608E+02  0.42277605184E+02  0.00000000000E+00 0. -1.
         22    1    3    3    0    0 -0.51608300811E+00  0.31714328943E+02 -0.92968174706E+02  0.98230069277E+02  0.00000000000E+00 0. -1.
</event>
<event>
 7    1  0.6520971E-006  0.6451394E+02  0.7818608E-02  0.1427550E+00
          2   -1    0    0  502    0  0.00000000000E+00  0.00000000000E+00  0.22665887789E+03  0.22665887789E+03  0.00000000000E+00 0. -1.
          1   -1    0    0  501    0 -0.00000000000E+00 -0.00000000000E+00 -0.54247594150E+03  0.54247594150E+03  0.00000000000E+00 0. -1.
         25    2    1    2    0    0  0.65388473953E+02  0.71812522752E+02  0.79877893716E+02  0.17731056589E+03  0.12500347164E+03 0.  0.
          2    1    1    2  501    0 -0.14415551204E+02 -0.41880184383E+02 -0.48374717022E+03  0.48577060703E+03  0.00000000000E+00 0. -1.
          1    1    1    2  502    0 -0.50972922749E+02 -0.29932338369E+02  0.88052212895E+02  0.10605364647E+03  0.00000000000E+00 0. -1.
         22    1    3    3    0    0  0.17147449642E+02  0.92272412733E+02  0.82339988404E+02  0.12485234027E+03  0.00000000000E+00 0. -1.
         22    1    3    3    0    0  0.48241024312E+02 -0.20459889981E+02 -0.24620946882E+01  0.52458225618E+02  0.00000000000E+00 0. -1.
</event>
<event>
 7    1  0.6520971E-006  0.1443558E+03  0.7818608E-02  0.1268428E+00
          2   -1    0    0  502    0  0.00000000000E+00  0.00000000000E+00  0.30520391823E+04  0.30520391823E+04  0.00000000000E+00 0. -1.
          1   -1    0    0  501    0 -0.00000000000E+00 -0.00000000000E+00 -0.75943554563E+02  0.75943554563E+02  0.00000000000E+00 0. -1.
         25    2    1    2    0    0 -0.18180843669E+03 -0.89050116589E+02  0.13256413913E+04  0.13468240232E+04  0.12500248103E+03 0.  0.
          2    1    1    2  501    0  0.13935985566E+03  0.24048205161E+02  0.13166173895E+02  0.14203110109E+03  0.00000000000E+00 0. -1.
          1    1    1    2  502    0  0.42448581035E+02  0.65001911428E+02  0.16372880626E+04  0.16391276126E+04  0.00000000000E+00 0. -1.
         22    1    3    3    0    0 -0.57085660916E+02 -0.62321297141E+02  0.85622700658E+03  0.86038793782E+03  0.00000000000E+00 0.  1.
         22    1    3    3    0    0 -0.12472277578E+03 -0.26728819448E+02  0.46941438474E+03  0.48643608541E+03  0.00000000000E+00 0.  1.
</event>
<event>
 7    1  0.6520971E-006  0.9026709E+02  0.7818608E-02  0.1336081E+00
          2   -1    0    0  502    0  0.00000000000E+00  0.00000000000E+00  0.11974038119E+04  0.11974038119E+04  0.00000000000E+00 0. -1.
          1   -1    0    0  501    0 -0.00000000000E+00 -0.00000000000E+00 -0.27943828495E+03  0.27943828495E+03  0.00000000000E+00 0. -1.
         25    2    1    2    0    0  0.80226119693E+02  0.74004201898E+01  0.28338149944E+03  0.32003217758E+03  0.12499809584E+03 0.  0.
          2    1    1    2  501    0 -0.69919535843E+02  0.58463495084E+02 -0.25186983069E+03  0.26785282034E+03  0.00000000000E+00 0. -1.
          1    1    1    2  502    0 -0.10306583851E+02 -0.65863915274E+02  0.88645385825E+03  0.88895709897E+03  0.00000000000E+00 0. -1.
         22    1    3    3    0    0  0.81422449010E+02  0.88339216624E+01  0.29607922207E+03  0.30719791522E+03  0.00000000000E+00 0. -1.
         22    1    3    3    0    0 -0.11963293170E+01 -0.14335014726E+01 -0.12697722631E+02  0.12834262360E+02  0.00000000000E+00 0. -1.
</event>
<event>
 7    1  0.6520971E-006  0.1383260E+03  0.7818608E-02  0.1310389E+00
          2   -1    0    0  502    0  0.00000000000E+00  0.00000000000E+00  0.20709537499E+04  0.20709537499E+04  0.00000000000E+00 0. -1.
          1   -1    0    0  501    0 -0.00000000000E+00 -0.00000000000E+00 -0.12023864716E+03  0.12023864716E+03  0.00000000000E+00 0. -1.
         25    2    1    2    0    0  0.11395619185E+03  0.14056013030E+03  0.70702945573E+03  0.74044490363E+03  0.12499936062E+03 0.  0.
          2    1    1    2  501    0 -0.46369031020E+02 -0.28953811876E+02 -0.92909612191E+02  0.10779891603E+03  0.00000000000E+00 0. -1.
          1    1    1    2  502    0 -0.67587160828E+02 -0.11160631842E+03  0.13365952592E+04  0.13429485774E+04  0.00000000000E+00 0. -1.
         22    1    3    3    0    0  0.97913852402E+02  0.41379556862E+02  0.48842010124E+03  0.49985356407E+03  0.00000000000E+00 0.  1.
         22    1    3    3    0    0  0.16042339446E+02  0.99180573436E+02  0.21860935449E+03  0.24059133957E+03  0.00000000000E+00 0.  1.
</event>
<event>
 7    1  0.6520971E-006  0.1428581E+03  0.7818608E-02  0.1293046E+00
          2   -1    0    0  502    0  0.00000000000E+00  0.00000000000E+00  0.30959058103E+04  0.30959058103E+04  0.00000000000E+00 0. -1.
          1   -1    0    0  501    0 -0.00000000000E+00 -0.00000000000E+00 -0.45487651824E+03  0.45487651824E+03  0.00000000000E+00 0. -1.
         25    2    1    2    0    0  0.10215664536E+03 -0.50284775143E+02  0.27454825298E+03  0.32244361899E+03  0.12501442081E+03 0.  0.
          2    1    1    2  501    0  0.43606187975E+02  0.44188875149E+02 -0.42677931353E+03  0.43127107343E+03  0.00000000000E+00 0. -1.
          1    1    1    2  502    0 -0.14576283334E+03  0.60958999941E+01  0.27932603526E+04  0.27970676362E+04  0.00000000000E+00 0. -1.
         22    1    3    3    0    0  0.88605815673E+02  0.14340232112E+02  0.21708838911E+03  0.23491275298E+03  0.00000000000E+00 0.  1.
         22    1    3    3    0    0  0.13550829692E+02 -0.64625007255E+02  0.57459863871E+02  0.87530866008E+02  0.00000000000E+00 0.  1.
</event>
<event>
 7    1  0.6520971E-006  0.4190118E+03  0.7818608E-02  0.1226044E+00
          2   -1    0    0  502    0  0.00000000000E+00  0.00000000000E+00  0.47181589450E+03  0.47181589450E+03  0.00000000000E+00 0. -1.
          1   -1    0    0  501    0 -0.00000000000E+00 -0.00000000000E+00 -0.11266876562E+04  0.11266876562E+04  0.00000000000E+00 0. -1.
         25    2    1    2    0    0 -0.41728665595E+03  0.76817767769E+02  0.59743566065E+02  0.44634585561E+03  0.12500482574E+03 0.  0.
          2    1    1    2  501    0  0.42850942713E+01 -0.40703335025E+02 -0.73589700532E+03  0.73703427733E+03  0.00000000000E+00 0. -1.
          1    1    1    2  502    0  0.41300156167E+03 -0.36114432744E+02  0.21281677522E+02  0.41512341779E+03  0.00000000000E+00 0. -1.
         22    1    3    3    0    0 -0.11774344914E+03 -0.18704434995E+02  0.56484569596E+02  0.13192377461E+03  0.00000000000E+00 0.  1.
         22    1    3    3    0    0 -0.29954320680E+03  0.95522202763E+02  0.32589964698E+01  0.31442208100E+03  0.00000000000E+00 0.  1.
</event>
<event>
 7    1  0.6520971E-006  0.5359558E+02  0.7818608E-02  0.1468828E+00
          2   -1    0    0  502    0  0.00000000000E+00  0.00000000000E+00  0.10814608370E+04  0.10814608370E+04  0.00000000000E+00 0. -1.
          1   -1    0    0  501    0 -0.00000000000E+00 -0.00000000000E+00 -0.46364604358E+03  0.46364604358E+03  0.00000000000E+00 0. -1.
         25    2    1    2    0    0  0.13609467829E+02 -0.56687830489E+02 -0.18003851525E+03  0.22679880040E+03  0.12500040460E+03 0.  0.
          2    1    1    2  501    0 -0.38244568119E+02  0.90539462624E+01 -0.25805912109E+03  0.26103473123E+03  0.00000000000E+00 0. -1.
          1    1    1    2  502    0  0.24635100290E+02  0.47633884227E+02  0.10559124298E+04  0.10572733490E+04  0.00000000000E+00 0. -1.
         22    1    3    3    0    0 -0.40829309282E+02  0.18441223436E+02 -0.51247404606E+02  0.68069139095E+02  0.00000000000E+00 0.  1.
         22    1    3    3    0    0  0.54438777111E+02 -0.75129053925E+02 -0.12879111064E+03  0.15872966130E+03  0.00000000000E+00 0.  1.
</event>
<event>
 7    1  0.6520971E-006  0.5665244E+02  0.7818608E-02  0.1412973E+00
          2   -1    0    0  502    0  0.00000000000E+00  0.00000000000E+00  0.19486111646E+04  0.19486111646E+04  0.00000000000E+00 0. -1.
          1   -1    0    0  501    0 -0.00000000000E+00 -0.00000000000E+00 -0.87184543998E+02  0.87184543998E+02  0.00000000000E+00 0. -1.
         25    2    1    2    0    0  0.31652543695E+02  0.40456786455E+02  0.98903786163E+02  0.16746871984E+03  0.12500071245E+03 0.  0.
          2    1    1    2  501    0 -0.59842816783E+02  0.84145490205E+01 -0.35055744898E+02  0.69863242167E+02  0.00000000000E+00 0. -1.
          1    1    1    2  502    0  0.28190273088E+02 -0.48871335476E+02  0.17975785794E+04  0.17984637466E+04  0.00000000000E+00 0. -1.
         22    1    3    3    0    0  0.15810702553E+02 -0.44907334438E+02  0.26960125038E+02  0.54712844412E+02  0.00000000000E+00 0.  1.
         22    1    3    3    0    0  0.15841841142E+02  0.85364120894E+02  0.71943661125E+02  0.11275587542E+03  0.00000000000E+00 0.  1.
</event>
<event>
 7    1  0.6520971E-006  0.6862365E+02  0.7818608E-02  0.1434782E+00
          2   -1    0    0  502    0  0.00000000000E+00  0.00000000000E+00  0.64716599038E+03  0.64716599038E+03  0.00000000000E+00 0. -1.
          1   -1    0    0  501    0 -0.00000000000E+00 -0.00000000000E+00 -0.29458015519E+03  0.29458015519E+03  0.00000000000E+00 0. -1.
         25    2    1    2    0    0 -0.88958395558E+02 -0.58662508888E+02 -0.29628588338E+02  0.16690786789E+03  0.12500198809E+03 0.  0.
          2    1    1    2  501    0  0.35826716686E+02  0.16447186925E+02 -0.19231559610E+03  0.19631442150E+03  0.00000000000E+00 0. -1.
          1    1    1    2  502    0  0.53131678872E+02  0.42215321964E+02  0.57453001963E+03  0.57852385618E+03  0.00000000000E+00 0. -1.
         22    1    3    3    0    0 -0.99149528185E+02 -0.39994490996E+02  0.23688723719E+02  0.10950499478E+03  0.00000000000E+00 0. -1.
         22    1    3    3    0    0  0.10191132627E+02 -0.18668017893E+02 -0.53317312058E+02  0.57402873110E+02  0.00000000000E+00 0. -1.
</event>
<event>
 7    1  0.6520971E-006  0.1776980E+03  0.7818608E-02  0.1190388E+00
          2   -1    0    0  502    0  0.00000000000E+00  0.00000000000E+00  0.44547425602E+03  0.44547425602E+03  0.00000000000E+00 0. -1.
          1   -1    0    0  501    0 -0.00000000000E+00 -0.00000000000E+00 -0.88217635281E+03  0.88217635281E+03  0.00000000000E+00 0. -1.
         25    2    1    2    0    0  0.79322895963E+02  0.27286462616E+03  0.14791480151E+03  0.34387611618E+03  0.12499907495E+03 0.  0.
          2    1    1    2  501    0 -0.12902598648E+02 -0.14080553564E+03 -0.74927370518E+03  0.76249836800E+03  0.00000000000E+00 0. -1.
          1    1    1    2  502    0 -0.66420297315E+02 -0.13205909053E+03  0.16465680689E+03  0.22127612465E+03  0.00000000000E+00 0. -1.
         22    1    3    3    0    0  0.53272344550E+02  0.15476871406E+03  0.15291940805E+02  0.16439325107E+03  0.00000000000E+00 0. -1.
         22    1    3    3    0    0  0.26050551413E+02  0.11809591211E+03  0.13262286070E+03  0.17948286511E+03  0.00000000000E+00 0. -1.
</event>
<event>
 7    1  0.6520971E-006  0.9498445E+02  0.7818608E-02  0.1318401E+00
          2   -1    0    0  502    0  0.00000000000E+00  0.00000000000E+00  0.13933337858E+04  0.13933337858E+04  0.00000000000E+00 0. -1.
          1   -1    0    0  501    0 -0.00000000000E+00 -0.00000000000E+00 -0.15909712669E+03  0.15909712669E+03  0.00000000000E+00 0. -1.
         25    2    1    2    0    0 -0.57829292560E+02 -0.10800796076E+03  0.22221309400E+03  0.28286697680E+03  0.12500048301E+03 0.  0.
          2    1    1    2  501    0  0.72635970461E+02  0.14477674712E+02 -0.11596965773E+03  0.13760286619E+03  0.00000000000E+00 0. -1.
          1    1    1    2  502    0 -0.14806677902E+02  0.93530286044E+02  0.11279932228E+04  0.11319610695E+04  0.00000000000E+00 0. -1.
         22    1    3    3    0    0  0.34801825341E+02 -0.28996435486E+01  0.45228315542E+02  0.57141714242E+02  0.00000000000E+00 0.  1.
         22    1    3    3    0    0 -0.92631117900E+02 -0.10510831721E+03  0.17698477846E+03  0.22572526256E+03  0.00000000000E+00 0.  1.
</event>
<event>
 7    1  0.6520971E-006  0.4259395E+02  0.7818608E-02  0.1516567E+00
          2   -1    0    0  502    0  0.00000000000E+00  0.00000000000E+00  0.15912227519E+04  0.15912227519E+04  0.00000000000E+00 0. -1.
          1   -1    0    0  501    0 -0.00000000000E+00 -0.00000000000E+00 -0.17167857353E+03  0.17167857353E+03  0.00000000000E+00 0. -1.
         25    2    1    2    0    0  0.51493552816E+02  0.24708698303E+02  0.17922406186E+03  0.22585021965E+03  0.12499980645E+03 0.  0.
          2    1    1    2  501    0 -0.32820498679E+02  0.13536451808E+02 -0.14591036940E+03  0.15016742843E+03  0.00000000000E+00 0. -1.
          1    1    1    2  502    0 -0.18673054137E+02 -0.38245150112E+02  0.13862304859E+04  0.13868836774E+04  0.00000000000E+00 0. -1.
         22    1    3    3    0    0  0.28688714961E+02  0.32396648347E+02  0.19322272198E+03  0.19800910454E+03  0.00000000000E+00 0.  1.
         22    1    3    3    0    0  0.22804837855E+02 -0.76879500438E+01 -0.13998660122E+02  0.27841115112E+02  0.00000000000E+00 0.  1.
</event>
<event>
 7    1  0.6520971E-006  0.1072194E+03  0.7818608E-02  0.1384276E+00
          2   -1    0    0  502    0  0.00000000000E+00  0.00000000000E+00  0.13461705467E+04  0.13461705467E+04  0.00000000000E+00 0. -1.
          1   -1    0    0  501    0 -0.00000000000E+00 -0.00000000000E+00 -0.58872400014E+02  0.58872400014E+02  0.00000000000E+00 0. -1.
         25    2    1    2    0    0  0.24384072486E+02  0.76525089751E+02  0.50045463178E+03  0.52204408044E+03  0.12499804440E+03 0.  0.
          2    1    1    2  501    0  0.14330130699E+02  0.34582162649E+02 -0.35911169719E+02  0.51873796178E+02  0.00000000000E+00 0. -1.
          1    1    1    2  502    0 -0.38714203184E+02 -0.11110725240E+03  0.82275468466E+03  0.83112507012E+03  0.00000000000E+00 0. -1.
         22    1    3    3    0    0 -0.20857281484E+02 -0.16781284840E+02  0.29615663256E+02  0.39921488223E+02  0.00000000000E+00 0. -1.
         22    1    3    3    0    0  0.45241353970E+02  0.93306374591E+02  0.47083896852E+03  0.48212259222E+03  0.00000000000E+00 0. -1.
</event>
<event>
 7    1  0.8723975E-006  0.7287667E+02  0.7818608E-02  0.1495228E+00
          2   -1    0    0  502    0  0.00000000000E+00  0.00000000000E+00  0.11044305641E+04  0.11044305641E+04  0.00000000000E+00 0. -1.
          1   -1    0    0  501    0 -0.00000000000E+00 -0.00000000000E+00 -0.16441285384E+04  0.16441285384E+04  0.00000000000E+00 0. -1.
         25    2    1    2    0    0 -0.21270235762E+02 -0.94395592008E+02 -0.24110477620E+03  0.28830441368E+03  0.12499988448E+03 0.  0.
          2    1    1    2  501    0  0.49940363494E+01  0.23473117643E+02 -0.13780946220E+04  0.13783035641E+04  0.00000000000E+00 0. -1.
          1    1    1    2  502    0  0.16276199413E+02  0.70922474366E+02  0.10795014240E+04  0.10819511248E+04  0.00000000000E+00 0. -1.
         22    1    3    3    0    0  0.33308985113E+02  0.11273586879E+02 -0.85531307714E+02  0.92478034417E+02  0.00000000000E+00 0.  1.
         22    1    3    3    0    0 -0.54579220876E+02 -0.10566917889E+03 -0.15557346848E+03  0.19582637926E+03  0.00000000000E+00 0.  1.
</event>
<event>
 7    1  0.6520971E-006  0.2227238E+03  0.7818608E-02  0.1369185E+00
          2   -1    0    0  502    0  0.00000000000E+00  0.00000000000E+00  0.13319289743E+04  0.13319289743E+04  0.00000000000E+00 0. -1.
          1   -1    0    0  501    0 -0.00000000000E+00 -0.00000000000E+00 -0.19424734016E+04  0.19424734016E+04  0.00000000000E+00 0. -1.
         25    2    1    2    0    0 -0.11080056056E+03 -0.17137337547E+03 -0.95995227175E+02  0.25784837070E+03  0.12500040237E+03 0.  0.
          2    1    1    2  501    0  0.12005646873E+03  0.18954472483E+03 -0.17583394903E+04  0.17725965478E+04  0.00000000000E+00 0. -1.
          1    1    1    2  502    0 -0.92559081721E+01 -0.18171349363E+02  0.12437902901E+04  0.12439574573E+04  0.00000000000E+00 0. -1.
         22    1    3    3    0    0 -0.82669645238E+01 -0.68846473947E+02  0.19992557997E+02  0.72165657016E+02  0.00000000000E+00 0.  1.
         22    1    3    3    0    0 -0.10253359603E+03 -0.10252690152E+03 -0.11598778517E+03  0.18568271368E+03  0.00000000000E+00 0.  1.
</event>
<event>
 7    1  0.6520971E-006  0.2465792E+03  0.7818608E-02  0.1197980E+00
          2   -1    0    0  502    0  0.00000000000E+00  0.00000000000E+00  0.84656637042E+03  0.84656637042E+03  0.00000000000E+00 0. -1.
          1   -1    0    0  501    0 -0.00000000000E+00 -0.00000000000E+00 -0.45241658516E+03  0.45241658516E+03  0.00000000000E+00 0. -1.
         25    2    1    2    0    0 -0.22023905873E+03  0.17873313013E+03 -0.85635706743E+02  0.32157240607E+03  0.12499825309E+03 0.  0.
          2    1    1    2  501    0  0.12790571189E+03 -0.19500329444E+03 -0.19017618306E+03  0.30092048216E+03  0.00000000000E+00 0. -1.
          1    1    1    2  502    0  0.92333346846E+02  0.16270164310E+02  0.66996167506E+03  0.67649006736E+03  0.00000000000E+00 0. -1.
         22    1    3    3    0    0  0.91453947006E+01 -0.40899421585E+01 -0.17918573003E+02  0.20529031383E+02  0.00000000000E+00 0.  1.
         22    1    3    3    0    0 -0.22938445343E+03  0.18282307229E+03 -0.67717133740E+02  0.30104337468E+03  0.00000000000E+00 0.  1.
</event>
<event>
 7    1  0.8941445E-006  0.7200468E+02  0.7818608E-02  0.1436172E+00
          2   -1    0    0  502    0  0.00000000000E+00  0.00000000000E+00  0.18491270917E+04  0.18491270917E+04  0.00000000000E+00 0. -1.
          1   -1    0    0  501    0 -0.00000000000E+00 -0.00000000000E+00 -0.56862560693E+03  0.56862560693E+03  0.00000000000E+00 0. -1.
         25    2    1    2    0    0  0.72391774837E+02  0.31782125581E+02 -0.17146506440E+03  0.22644289481E+03  0.12500177492E+03 0.  0.
          2    1    1    2  501    0 -0.58157252499E+00 -0.37175054682E+02 -0.36802293239E+03  0.36989620393E+03  0.00000000000E+00 0. -1.
          1    1    1    2  502    0 -0.71810202312E+02  0.53929291003E+01  0.18199894816E+04  0.18214135999E+04  0.00000000000E+00 0. -1.
         22    1    3    3    0    0  0.60164058677E+02  0.18712579894E+02 -0.97695389604E+01  0.63759850174E+02  0.00000000000E+00 0.  1.
         22    1    3    3    0    0  0.12227716161E+02  0.13069545688E+02 -0.16169552544E+03  0.16268304464E+03  0.00000000000E+00 0.  1.
</event>
<event>
 7    1  0.6520971E-006  0.7785636E+02  0.7818608E-02  0.1406848E+00
          2   -1    0    0  502    0  0.00000000000E+00  0.00000000000E+00  0.28074998387E+04  0.28074998387E+04  0.00000000000E+00 0. -1.
          1   -1    0    0  501    0 -0.00000000000E+00 -0.00000000000E+00 -0.63101330430E+03  0.63101330430E+03  0.00000000000E+00 0. -1.
         25    2    1    2    0    0 -0.84518523446E+02 -0.78006716829E+02  0.69919612748E+03  0.71953349133E+03  0.12499916712E+03 0.  0.
          2    1    1    2  501    0  0.43695838194E+02  0.64296457412E+02 -0.61818900883E+03  0.62305779134E+03  0.00000000000E+00 0. -1.
          1    1    1    2  502    0  0.40822685252E+02  0.13710259416E+02  0.20954794158E+04  0.20959218604E+04  0.00000000000E+00 0. -1.
         22    1    3    3    0    0 -0.48226396261E+02  0.19000343068E+02  0.39049944530E+03  0.39392463126E+03  0.00000000000E+00 0. -1.
         22    1    3    3    0    0 -0.36292127185E+02 -0.97007059897E+02  0.30869668219E+03  0.32560886008E+03  0.00000000000E+00 0. -1.
</event>
<event>
 7    1  0.6520971E-006  0.1067409E+03  0.7818608E-02  0.1371675E+00
          2   -1    0    0  502    0  0.00000000000E+00  0.00000000000E+00  0.32434246681E+03  0.32434246681E+03  0.00000000000E+00 0. -1.
          1   -1    0    0  501    0 -0.00000000000E+00 -0.00000000000E+00 -0.22529429322E+04  0.22529429322E+04  0.00000000000E+00 0. -1.
         25    2    1    2    0    0  0.10684314381E+03 -0.59748186627E+02 -0.18922010466E+03  0.25771043785E+03  0.12500047434E+03 0.  0.
          2    1    1    2  501    0 -0.70311435061E+02  0.79822468112E+02 -0.20265781414E+04  0.20293679528E+04  0.00000000000E+00 0. -1.
          1    1    1    2  502    0 -0.36531708747E+02 -0.20074281485E+02  0.28719778068E+03  0.29020700844E+03  0.00000000000E+00 0. -1.
         22    1    3    3    0    0  0.10469654397E+03 -0.59137716129E+00 -0.16120376812E+03  0.19221959032E+03  0.00000000000E+00 0. -1.
         22    1    3    3    0    0  0.21465998401E+01 -0.59156809466E+02 -0.28016336539E+02  0.65490847529E+02  0.00000000000E+00 0. -1.
</event>
<event>
 7    1  0.6520971E-006  0.4480418E+02  0.7818608E-02  0.1512157E+00
          2   -1    0    0  502    0  0.00000000000E+00  0.00000000000E+00  0.15090670708E+04  0.15090670708E+04  0.00000000000E+00 0. -1.
          1   -1    0    0  501    0 -0.00000000000E+00 -0.00000000000E+00 -0.58004925607E+03  0.58004925607E+03  0.00000000000E+00 0. -1.
         25    2    1    2    0    0 -0.56422783851E+02 -0.33257424261E+01 -0.43784573225E+02  0.14399761340E+03  0.12499453073E+03 0.  0.
          2    1    1    2  501    0  0.36884496286E+02 -0.25434082376E+02 -0.48491817361E+03  0.48698356616E+03  0.00000000000E+00 0. -1.
          1    1    1    2  502    0  0.19538287565E+02  0.28759824802E+02  0.14577205616E+04  0.14581351473E+04  0.00000000000E+00 0. -1.
         22    1    3    3    0    0 -0.76980588978E+02  0.13970511292E+01 -0.74236757204E+02  0.10695353641E+03  0.00000000000E+00 0.  1.
         22    1    3    3    0    0  0.20557805127E+02 -0.47227935553E+01  0.30452183979E+02  0.37044076985E+02  0.00000000000E+00 0.  1.
</event>
<event>
 7    1  0.6520971E-006  0.7893898E+02  0.7818608E-02  0.1467304E+00
          2   -1    0    0  502    0  0.00000000000E+00  0.00000000000E+00  0.23882320689E+03  0.23882320689E+03  0.00000000000E+00 0. -1.
          1   -1    0    0  501    0 -0.00000000000E+00 -0.00000000000E+00 -0.65971849207E+03  0.65971849207E+03  0.00000000000E+00 0. -1.
         25    2    1    2    0    0 -0.30070951719E+02 -0.65052825603E+02 -0.87315373633E+02  0.16847702549E+03  0.12499760553E+03 0.  0.
          2    1    1    2  501    0  0.72463917994E+01  0.79433920968E+02 -0.52789439142E+03  0.53388645467E+03  0.00000000000E+00 0. -1.
          1    1    1    2  502    0  0.22824559919E+02 -0.14381095365E+02  0.19431447987E+03  0.19617821879E+03  0.00000000000E+00 0. -1.
         22    1    3    3    0    0 -0.23102192188E+02  0.22128152848E+02 -0.73201671012E+02  0.79886488666E+02  0.00000000000E+00 0.  1.
         22    1    3    3    0    0 -0.69687595308E+01 -0.87180978451E+02 -0.14113702620E+02  0.88590536824E+02  0.00000000000E+00 0.  1.
</event>
<event>
 7    1  0.6520971E-006  0.6603080E+02  0.7818608E-02  0.1478063E+00
          2   -1    0    0  502    0  0.00000000000E+00  0.00000000000E+00  0.33820748004E+04  0.33820748004E+04  0.00000000000E+00 0. -1.
          1   -1    0    0  501    0 -0.00000000000E+00 -0.00000000000E+00 -0.35307917920E+03  0.35307917920E+03  0.00000000000E+00 0. -1.
         25    2    1    2    0    0 -0.15003380260E+02  0.93721076526E+02  0.37831269956E+03  0.40957571523E+03  0.12499210474E+03 0.  0.
          2    1    1    2  501    0  0.82936527541E+01 -0.28693062394E+02 -0.33642843789E+03  0.33775164000E+03  0.00000000000E+00 0. -1.
          1    1    1    2  502    0  0.67097275063E+01 -0.65028014131E+02  0.29871113595E+04  0.29878266243E+04  0.00000000000E+00 0. -1.
         22    1    3    3    0    0  0.45550884366E+02  0.69290508659E+02  0.27612650087E+03  0.28830869245E+03  0.00000000000E+00 0. -1.
         22    1    3    3    0    0 -0.60554264626E+02  0.24430567866E+02  0.10218619869E+03  0.12126702278E+03  0.00000000000E+00 0. -1.
</event>
<event>
 7    1  0.6520971E-006  0.4625579E+02  0.7818608E-02  0.1562546E+00
          2   -1    0    0  502    0  0.00000000000E+00  0.00000000000E+00  0.79856712481E+03  0.79856712481E+03  0.00000000000E+00 0. -1.
          1   -1    0    0  501    0 -0.00000000000E+00 -0.00000000000E+00 -0.63413389726E+03  0.63413389726E+03  0.00000000000E+00 0. -1.
         25    2    1    2    0    0  0.37659864625E+02  0.56451357043E+02  0.42409022541E+03  0.44730454762E+03  0.12499527157E+03 0.  0.
          2    1    1    2  501    0 -0.11455536882E+02 -0.21351039634E+02 -0.62096770890E+03  0.62144025595E+03  0.00000000000E+00 0. -1.
          1    1    1    2  502    0 -0.26204327742E+02 -0.35100317409E+02  0.36131071104E+03  0.36395621850E+03  0.00000000000E+00 0. -1.
         22    1    3    3    0    0  0.80092590252E+02  0.52336840813E+02  0.24056446714E+03  0.25889231501E+03  0.00000000000E+00 0. -1.
         22    1    3    3    0    0 -0.42432725627E+02  0.41145162299E+01  0.18352575827E+03  0.18841223261E+03  0.00000000000E+00 0. -1.
</event>
<event>
 7    1  0.6520971E-006  0.4087202E+03  0.7818608E-02  0.1105157E+00
          2   -1    0    0  502    0  0.00000000000E+00  0.00000000000E+00  0.40563140472E+03  0.40563140472E+03  0.00000000000E+00 0. -1.
          1   -1    0    0  501    0 -0.00000000000E+00 -0.00000000000E+00 -0.98282049881E+03  0.98282049881E+03  0.00000000000E+00 0. -1.
         25    2    1    2    0    0 -0.17739459802E+03  0.34051534234E+03 -0.86261845878E+02  0.41289848733E+03  0.12499805200E+03 0.  0.
          2    1    1    2  501    0  0.13570673630E+03  0.10182926549E+03 -0.50324774219E+03  0.53107796754E+03  0.00000000000E+00 0. -1.
          1    1    1    2  502    0  0.41687861719E+02 -0.44234460783E+03  0.12320493973E+02  0.44447544866E+03  0.00000000000E+00 0. -1.
         22    1    3    3    0    0 -0.14481241405E+03  0.23922388799E+03 -0.11549626897E+03  0.30255262682E+03  0.00000000000E+00 0.  1.
         22    1    3    3    0    0 -0.32582183969E+02  0.10129145435E+03  0.29234423094E+02  0.11034586051E+03  0.00000000000E+00 0.  1.
</event>
<event>
 7    1  0.6520971E-006  0.9093849E+02  0.7818608E-02  0.1442514E+00
          2   -1    0    0  502    0  0.00000000000E+00  0.00000000000E+00  0.17299455993E+04  0.17299455993E+04  0.00000000000E+00 0. -1.
          1   -1    0    0  501    0 -0.00000000000E+00 -0.00000000000E+00 -0.10007622056E+04  0.10007622056E+04  0.00000000000E+00 0. -1.
         25    2    1    2    0    0 -0.51445578713E+02  0.45612347060E+02  0.82709592957E+03  0.83931019956E+03  0.12500720220E+03 0.  0.
          2    1    1    2  501    0  0.53496342624E+02 -0.73612269251E+02 -0.99235307774E+03  0.99651656070E+03  0.00000000000E+00 0. -1.
          1    1    1    2  502    0 -0.20507639116E+01  0.27999922191E+02  0.89444054183E+03  0.89488104469E+03  0.00000000000E+00 0. -1.
         22    1    3    3    0    0 -0.90913368831E+01 -0.10957586934E+02  0.62594110348E+03  0.62610301560E+03  0.00000000000E+00 0. -1.
         22    1    3    3    0    0 -0.42354241830E+02  0.56569933995E+02  0.20115482610E+03  0.21320718397E+03  0.00000000000E+00 0. -1.
</event>
<event>
 7    1  0.6520971E-006  0.6305590E+02  0.7818608E-02  0.1440172E+00
          2   -1    0    0  502    0  0.00000000000E+00  0.00000000000E+00  0.26494336132E+04  0.26494336132E+04  0.00000000000E+00 0. -1.
          1   -1    0    0  501    0 -0.00000000000E+00 -0.00000000000E+00 -0.73392701918E+03  0.73392701918E+03  0.00000000000E+00 0. -1.
         25    2    1    2    0    0  0.32592924256E+02 -0.22868939934E+01 -0.22164638509E+02  0.13108875765E+03  0.12500185033E+03 0.  0.
          2    1    1    2  501    0 -0.50573323076E+02  0.39359482157E+02 -0.65557427297E+03  0.65869906424E+03  0.00000000000E+00 0. -1.
          1    1    1    2  502    0  0.17980398820E+02 -0.37072588163E+02  0.25932455055E+04  0.25935728105E+04  0.00000000000E+00 0. -1.
         22    1    3    3    0    0  0.22715027508E+02 -0.19166470322E+02 -0.71816778125E+02  0.77723713753E+02  0.00000000000E+00 0. -1.
         22    1    3    3    0    0  0.98778967484E+01  0.16879576329E+02  0.49652139616E+02  0.53365043893E+02  0.00000000000E+00 0. -1.
</event>
<event>
 7    1  0.6520971E-006  0.2016631E+03  0.7818608E-02  0.1149318E+00
          2   -1    0    0  502    0  0.00000000000E+00  0.00000000000E+00  0.14187861442E+03  0.14187861442E+03  0.00000000000E+00 0. -1.
          1   -1    0    0  501    0 -0.00000000000E+00 -0.00000000000E+00 -0.11880243213E+04  0.11880243213E+04  0.00000000000E+00 0. -1.
         25    2    1    2    0    0  0.16176251446E+03  0.16233367906E+03 -0.16434163248E+03  0.30846817209E+03  0.12500042633E+03 0.  0.
          2    1    1    2  501    0  0.53827102014E+02 -0.19434674430E+03 -0.72608251097E+03  0.75356740021E+03  0.00000000000E+00 0. -1.
          1    1    1    2  502    0 -0.21558961647E+03  0.32013065236E+02 -0.15572156347E+03  0.26786736346E+03  0.00000000000E+00 0. -1.
         22    1    3    3    0    0  0.47292810711E+02  0.62075894532E+02 -0.13132164279E+03  0.15275928938E+03  0.00000000000E+00 0. -1.
         22    1    3    3    0    0  0.11446970375E+03  0.10025778453E+03 -0.33019989687E+02  0.15570888271E+03  0.00000000000E+00 0. -1.
</event>
<event>
 7    1  0.6520971E-006  0.9392771E+02  0.7818608E-02  0.1327039E+00
          2   -1    0    0  502    0  0.00000000000E+00  0.00000000000E+00  0.18656616510E+03  0.18656616510E+03  0.00000000000E+00 0. -1.
          1   -1    0    0  501    0 -0.00000000000E+00 -0.00000000000E+00 -0.67710842268E+03  0.67710842268E+03  0.00000000000E+00 0. -1.
         25    2    1    2    0    0 -0.69520899023E+02  0.59937410268E+01 -0.45683300469E+03  0.47874190936E+03  0.12501336437E+03 0.  0.
          2    1    1    2  501    0 -0.15882291170E+01 -0.69339803253E+02 -0.18980478522E+03  0.20208015064E+03  0.00000000000E+00 0. -1.
          1    1    1    2  502    0  0.71109128140E+02  0.63346062226E+02  0.15609553233E+03  0.18285252779E+03  0.00000000000E+00 0. -1.
         22    1    3    3    0    0 -0.71615822876E+02 -0.41811838095E+02 -0.37397350205E+03  0.38305774515E+03  0.00000000000E+00 0. -1.
         22    1    3    3    0    0  0.20949238529E+01  0.47805579122E+02 -0.82859502647E+02  0.95684164208E+02  0.00000000000E+00 0. -1.
</event>
<event>
 7    1  0.6520971E-006  0.6401741E+02  0.7818608E-02  0.1476440E+00
          2   -1    0    0  502    0  0.00000000000E+00  0.00000000000E+00  0.96140037517E+03  0.96140037517E+03  0.00000000000E+00 0. -1.
          1   -1    0    0  501    0 -0.00000000000E+00 -0.00000000000E+00 -0.12075453122E+03  0.12075453122E+03  0.00000000000E+00 0. -1.
         25    2    1    2    0    0  0.33436352281E+02 -0.53110610499E+02  0.17666799342E+03  0.22533362275E+03  0.12499974015E+03 0.  0.
          2    1    1    2  501    0  0.22695131668E+02  0.21356634272E+02 -0.92495328711E+02  0.97604101667E+02  0.00000000000E+00 0. -1.
          1    1    1    2  502    0 -0.56131483949E+02  0.31753976227E+02  0.75647317924E+03  0.75921718198E+03  0.00000000000E+00 0. -1.
         22    1    3    3    0    0  0.26931031180E+02 -0.52770490372E+02  0.19609195367E+03  0.20484642879E+03  0.00000000000E+00 0. -1.
         22    1    3    3    0    0  0.65053211011E+01 -0.34012012695E+00 -0.19423960249E+02  0.20487193953E+02  0.00000000000E+00 0. -1.
</event>
<event>
 7    1  0.6520971E-006  0.1446757E+03  0.7818608E-02  0.1311580E+00
          2   -1    0    0  502    0  0.00000000000E+00  0.00000000000E+00  0.78591007467E+03  0.78591007467E+03  0.00000000000E+00 0. -1.
          1   -1    0    0  501    0 -0.00000000000E+00 -0.00000000000E+00 -0.25048200197E+03  0.25048200197E+03  0.00000000000E+00 0. -1.
         25    2    1    2    0    0 -0.10332138317E+03  0.14825472656E+03 -0.20020640267E+02  0.22063785355E+03  0.12500185685E+03 0.  0.
          2    1    1    2  501    0  0.61745955645E+02 -0.11751379713E+03 -0.95009090290E+02  0.16324454904E+03  0.00000000000E+00 0. -1.
          1    1    1    2  502    0  0.41575427522E+02 -0.30740929429E+02  0.65045780326E+03  0.65250967405E+03  0.00000000000E+00 0. -1.
         22    1    3    3    0    0  0.27102028476E+02  0.45515383019E+02 -0.12556520654E+02  0.54441126456E+02  0.00000000000E+00 0.  1.
         22    1    3    3    0    0 -0.13042341164E+03  0.10273934354E+03 -0.74641196128E+01  0.16619672709E+03  0.00000000000E+00 0.  1.
</event>
<event>
 7    1  0.6520971E-006  0.1489431E+03  0.7818608E-02  0.1268892E+00
          2   -1    0    0  502    0  0.00000000000E+00  0.00000000000E+00  0.94827610021E+03  0.94827610021E+03  0.00000000000E+00 0. -1.
          1   -1    0    0  501    0 -0.00000000000E+00 -0.00000000000E+00 -0.18773435988E+03  0.18773435988E+03  0.00000000000E+00 0. -1.
         25    2    1    2    0    0 -0.62289592834E+02  0.63882821554E+02  0.22403874488E+03  0.27162402329E+03  0.12500097022E+03 0.  0.
          2    1    1    2  501    0  0.81081877428E+02 -0.13639370366E+03 -0.12292423373E+03  0.20071841092E+03  0.00000000000E+00 0. -1.
          1    1    1    2  502    0 -0.18792284593E+02  0.72510882111E+02  0.65942722918E+03  0.66366802588E+03  0.00000000000E+00 0. -1.
         22    1    3    3    0    0 -0.73124487951E+02  0.95346672049E+02  0.18014741105E+03  0.21654391775E+03  0.00000000000E+00 0. -1.
         22    1    3    3    0    0  0.10834895117E+02 -0.31463850495E+02  0.43891333830E+02  0.55080105533E+02  0.00000000000E+00 0. -1.
</event>
<event>
 7    1  0.6520971E-006  0.4588148E+02  0.7818608E-02  0.1493970E+00
          2   -1    0    0  502    0  0.00000000000E+00  0.00000000000E+00  0.26560997996E+04  0.26560997996E+04  0.00000000000E+00 0. -1.
          1   -1    0    0  501    0 -0.00000000000E+00 -0.00000000000E+00 -0.69023563757E+03  0.69023563757E+03  0.00000000000E+00 0. -1.
         25    2    1    2    0    0  0.24303268081E+02  0.52888590784E+02  0.79175104119E+02  0.15899869545E+03  0.12499614461E+03 0.  0.
          2    1    1    2  501    0 -0.37406164951E+02 -0.89067409423E+01 -0.64954768724E+03  0.65068483094E+03  0.00000000000E+00 0. -1.
          1    1    1    2  502    0  0.13102896869E+02 -0.43981849841E+02  0.25362367451E+04  0.25366519108E+04  0.00000000000E+00 0. -1.
         22    1    3    3    0    0  0.58868051769E+02 -0.15345899589E+02  0.42213499261E+02  0.74046766797E+02  0.00000000000E+00 0.  1.
         22    1    3    3    0    0 -0.34564783688E+02  0.68234490373E+02  0.36961604858E+02  0.84951928651E+02  0.00000000000E+00 0.  1.
</event>
<event>
 7    1  0.6520971E-006  0.5770426E+02  0.7818608E-02  0.1529044E+00
          2   -1    0    0  502    0  0.00000000000E+00  0.00000000000E+00  0.14726520050E+04  0.14726520050E+04  0.00000000000E+00 0. -1.
          1   -1    0    0  501    0 -0.00000000000E+00 -0.00000000000E+00 -0.19019323645E+03  0.19019323645E+03  0.00000000000E+00 0. -1.
         25    2    1    2    0    0 -0.44893301680E+02  0.14449500326E+01  0.17427270553E+03  0.21911940462E+03  0.12499936469E+03 0.  0.
          2    1    1    2  501    0  0.52834779305E+02 -0.24215550826E+02 -0.16261851173E+03  0.17269246412E+03  0.00000000000E+00 0. -1.
          1    1    1    2  502    0 -0.79414776247E+01  0.22770600794E+02  0.12708045747E+04  0.12710333727E+04  0.00000000000E+00 0. -1.
         22    1    3    3    0    0 -0.56747527973E+02  0.27286470176E+02  0.25963547148E+02  0.68109758230E+02  0.00000000000E+00 0.  1.
         22    1    3    3    0    0  0.11854226293E+02 -0.25841520143E+02  0.14830915838E+03  0.15100964639E+03  0.00000000000E+00 0.  1.
</event>
<event>
 7    1  0.6520971E-006  0.1018852E+03  0.7818608E-02  0.1332095E+00
          2   -1    0    0  502    0  0.00000000000E+00  0.00000000000E+00  0.14749953662E+04  0.14749953662E+04  0.00000000000E+00 0. -1.
          1   -1    0    0  501    0 -0.00000000000E+00 -0.00000000000E+00 -0.86324843402E+02  0.86324843402E+02  0.00000000000E+00 0. -1.
         25    2    1    2    0    0  0.72408566585E+02 -0.85669719144E+00  0.18046631561E+03  0.23116661818E+03  0.12500471931E+03 0.  0.
          2    1    1    2  501    0  0.15530905784E+02  0.59152914008E+02 -0.42839180079E+02  0.74669080750E+02  0.00000000000E+00 0. -1.
          1    1    1    2  502    0 -0.87939472369E+02 -0.58296216816E+02  0.12510433873E+04  0.12554845107E+04  0.00000000000E+00 0. -1.
         22    1    3    3    0    0  0.38331286873E+02 -0.57215895768E+02  0.50284104116E+02  0.85272723708E+02  0.00000000000E+00 0.  1.
         22    1    3    3    0    0  0.34077279712E+02  0.56359198576E+02  0.13018221149E+03  0.14589389448E+03  0.00000000000E+00 0.  1.
</event>
<event>
 7    1  0.6520971E-006  0.9244075E+02  0.7818608E-02  0.1305190E+00
          2   -1    0    0  502    0  0.00000000000E+00  0.00000000000E+00  0.14152198514E+04  0.14152198514E+04  0.00000000000E+00 0. -1.
          1   -1    0    0  501    0 -0.00000000000E+00 -0.00000000000E+00 -0.18524168923E+03  0.18524168923E+03  0.00000000000E+00 0. -1.
         25    2    1    2    0    0 -0.17175811643E+02 -0.27019022021E+02  0.90072560689E+02  0.15736193281E+03  0.12499870260E+03 0.  0.
          2    1    1    2  501    0  0.10176879710E+03  0.12878153314E+02 -0.13263354923E+03  0.16767347219E+03  0.00000000000E+00 0. -1.
          1    1    1    2  502    0 -0.84592985453E+02  0.14140868707E+02  0.12725391508E+04  0.12754261357E+04  0.00000000000E+00 0. -1.
         22    1    3    3    0    0  0.51557343730E+02  0.34996739589E+01  0.22885621402E+02  0.56516891964E+02  0.00000000000E+00 0.  1.
         22    1    3    3    0    0 -0.68733155373E+02 -0.30518695980E+02  0.67186939287E+02  0.10084504084E+03  0.00000000000E+00 0.  1.
</event>
<event>
 7    1  0.6520971E-006  0.6628632E+02  0.7818608E-02  0.1414359E+00
          2   -1    0    0  502    0  0.00000000000E+00  0.00000000000E+00  0.48916215650E+02  0.48916215650E+02  0.00000000000E+00 0. -1.
          1   -1    0    0  501    0 -0.00000000000E+00 -0.00000000000E+00 -0.14830576594E+04  0.14830576594E+04  0.00000000000E+00 0. -1.
         25    2    1    2    0    0 -0.24121326118E+02 -0.85965187751E+02 -0.53176149747E+03  0.55350512486E+03  0.12500312470E+03 0.  0.
          2    1    1    2  501    0  0.47554316820E+02  0.44413679456E+02 -0.92386250588E+03  0.92615113116E+03  0.00000000000E+00 0. -1.
          1    1    1    2  502    0 -0.23432990702E+02  0.41551508296E+02  0.21482559591E+02  0.52317619035E+02  0.00000000000E+00 0. -1.
         22    1    3    3    0    0  0.62346239566E+01 -0.59258046216E+02 -0.49588106569E+03  0.49944811331E+03  0.00000000000E+00 0.  1.
         22    1    3    3    0    0 -0.30355950074E+02 -0.26707141536E+02 -0.35880431778E+02  0.54057011557E+02  0.00000000000E+00 0.  1.
</event>
<event>
 7    1  0.6520971E-006  0.6260334E+02  0.7818608E-02  0.1422131E+00
          2   -1    0    0  502    0  0.00000000000E+00  0.00000000000E+00  0.21343521304E+03  0.21343521304E+03  0.00000000000E+00 0. -1.
          1   -1    0    0  501    0 -0.00000000000E+00 -0.00000000000E+00 -0.36436880325E+03  0.36436880325E+03  0.00000000000E+00 0. -1.
         25    2    1    2    0    0 -0.34412368911E+02 -0.68208464865E+02 -0.95175946926E+02  0.17469815275E+03  0.12499751153E+03 0.  0.
          2    1    1    2  501    0 -0.12672187444E+02  0.61416584274E+02 -0.22174197249E+03  0.23043889325E+03  0.00000000000E+00 0. -1.
          1    1    1    2  502    0  0.47084556355E+02  0.67918805912E+01  0.16598432920E+03  0.17266697029E+03  0.00000000000E+00 0. -1.
         22    1    3    3    0    0  0.74231008529E+01  0.20337275042E+01  0.26785360063E+02  0.27869230121E+02  0.00000000000E+00 0.  1.
         22    1    3    3    0    0 -0.41835469764E+02 -0.70242192369E+02 -0.12196130699E+03  0.14682892263E+03  0.00000000000E+00 0.  1.
</event>
<event>
 7    1  0.6520971E-006  0.1331105E+03  0.7818608E-02  0.1264365E+00
          2   -1    0    0  502    0  0.00000000000E+00  0.00000000000E+00  0.18610046700E+03  0.18610046700E+03  0.00000000000E+00 0. -1.
          1   -1    0    0  501    0 -0.00000000000E+00 -0.00000000000E+00 -0.90606618398E+03  0.90606618398E+03  0.00000000000E+00 0. -1.
         25    2    1    2    0    0 -0.55821323643E+02 -0.85596211544E+02 -0.29006715475E+02  0.16404034164E+03  0.12500045015E+03 0.  0.
          2    1    1    2  501    0  0.51974457149E+02 -0.70499708330E+02 -0.75448722268E+03  0.75955416019E+03  0.00000000000E+00 0. -1.
          1    1    1    2  502    0  0.38468664944E+01  0.15609591987E+03  0.63528221172E+02  0.16857214915E+03  0.00000000000E+00 0. -1.
         22    1    3    3    0    0  0.20913888795E+02 -0.12305314433E+02 -0.50268498051E+02  0.55818754950E+02  0.00000000000E+00 0. -1.
         22    1    3    3    0    0 -0.76735212438E+02 -0.73290897111E+02  0.21261782576E+02  0.10822158669E+03  0.00000000000E+00 0. -1.
</event>
<event>
 7    1  0.6520971E-006  0.3274952E+02  0.7818608E-02  0.1637629E+00
          2   -1    0    0  502    0  0.00000000000E+00  0.00000000000E+00  0.13191841579E+04  0.13191841579E+04  0.00000000000E+00 0. -1.
          1   -1    0    0  501    0 -0.00000000000E+00 -0.00000000000E+00 -0.24204658480E+03  0.24204658480E+03  0.00000000000E+00 0. -1.
         25    2    1    2    0    0 -0.14401310551E+02 -0.50136774400E+02 -0.10298896364E+03  0.17015573009E+03  0.12500060783E+03 0.  0.
          2    1    1    2  501    0  0.35841856645E+01  0.31233626748E+02 -0.10303705572E+03  0.10772660154E+03  0.00000000000E+00 0. -1.
          1    1    1    2  502    0  0.10817124886E+02  0.18903147653E+02  0.12831635924E+04  0.12833484110E+04  0.00000000000E+00 0. -1.
         22    1    3    3    0    0  0.29172665314E+02  0.12248111902E+02  0.10656868732E+02  0.33386067421E+02  0.00000000000E+00 0.  1.
         22    1    3    3    0    0 -0.43573975865E+02 -0.62384886302E+02 -0.11364583237E+03  0.13676966267E+03  0.00000000000E+00 0.  1.
</event>
<event>
 7    1  0.6520971E-006  0.7839633E+02  0.7818608E-02  0.1341718E+00
          2   -1    0    0  502    0  0.00000000000E+00  0.00000000000E+00  0.36752619611E+04  0.36752619611E+04  0.00000000000E+00 0. -1.
          1   -1    0    0  501    0 -0.00000000000E+00 -0.00000000000E+00 -0.13420498662E+03  0.13420498662E+03  0.00000000000E+00 0. -1.
         25    2    1    2    0    0 -0.13871308165E+02  0.30449301193E+02  0.24992596682E+03  0.28143832680E+03  0.12499987909E+03 0.  0.
          2    1    1    2  501    0  0.66573503386E+02  0.30182507823E+02 -0.10665158395E+03  0.12929646356E+03  0.00000000000E+00 0. -1.
          1    1    1    2  502    0 -0.52702195221E+02 -0.60631809015E+02  0.33977825917E+04  0.33987321574E+04  0.00000000000E+00 0. -1.
         22    1    3    3    0    0 -0.62659927784E+02 -0.78393384318E+01  0.90320004123E+02  0.11020628349E+03  0.00000000000E+00 0. -1.
         22    1    3    3    0    0  0.48788619618E+02  0.38288639624E+02  0.15960596269E+03  0.17123204331E+03  0.00000000000E+00 0. -1.
</event>
<event>
 7    1  0.6520971E-006  0.5682624E+02  0.7818608E-02  0.1456412E+00
          2   -1    0    0  502    0  0.00000000000E+00  0.00000000000E+00  0.18281733685E+03  0.18281733685E+03  0.00000000000E+00 0. -1.
          1   -1    0    0  501    0 -0.00000000000E+00 -0.00000000000E+00 -0.61613925780E+03  0.61613925780E+03  0.00000000000E+00 0. -1.
         25    2    1    2    0    0  0.13991979861E+02  0.32650596298E+02 -0.13683835084E+03  0.18870867098E+03  0.12499756518E+03 0.  0.
          2    1    1    2  501    0 -0.53729867330E+02 -0.24564469977E+02 -0.44877643310E+03  0.45264842730E+03  0.00000000000E+00 0. -1.
          1    1    1    2  502    0  0.39737887469E+02 -0.80861263211E+01  0.15229286299E+03  0.15759949637E+03  0.00000000000E+00 0. -1.
         22    1    3    3    0    0 -0.37877494968E+02 -0.27776317328E+02 -0.72237215816E+02  0.86165212111E+02  0.00000000000E+00 0. -1.
         22    1    3    3    0    0  0.51869474829E+02  0.60426913627E+02 -0.64601135029E+02  0.10254345887E+03  0.00000000000E+00 0. -1.
</event>
<event>
 7    1  0.6520971E-006  0.1056628E+03  0.7818608E-02  0.1347676E+00
          2   -1    0    0  502    0  0.00000000000E+00  0.00000000000E+00  0.30843106214E+04  0.30843106214E+04  0.00000000000E+00 0. -1.
          1   -1    0    0  501    0 -0.00000000000E+00 -0.00000000000E+00 -0.44919693183E+02  0.44919693183E+02  0.00000000000E+00 0. -1.
         25    2    1    2    0    0 -0.50564823790E+02 -0.60838556307E+02  0.13602528587E+04  0.13682734805E+04  0.12500538547E+03 0.  0.
          2    1    1    2  501    0  0.23741339090E+02  0.10482972489E+03  0.30795438391E+02  0.11180912945E+03  0.00000000000E+00 0. -1.
          1    1    1    2  502    0  0.26823484700E+02 -0.43991168582E+02  0.16483426311E+04  0.16491477047E+04  0.00000000000E+00 0. -1.
         22    1    3    3    0    0 -0.74162160507E+02 -0.53033629427E+02  0.12986365907E+04  0.13018331639E+04  0.00000000000E+00 0.  1.
         22    1    3    3    0    0  0.23597336717E+02 -0.78049268800E+01  0.61616267986E+02  0.66440316558E+02  0.00000000000E+00 0.  1.
</event>
<event>
 7    1  0.6520971E-006  0.6515038E+02  0.7818608E-02  0.1418853E+00
          2   -1    0    0  502    0  0.00000000000E+00  0.00000000000E+00  0.18573603423E+04  0.18573603423E+04  0.00000000000E+00 0. -1.
          1   -1    0    0  501    0 -0.00000000000E+00 -0.00000000000E+00 -0.18670452105E+03  0.18670452105E+03  0.00000000000E+00 0. -1.
         25    2    1    2    0    0 -0.53776588424E+02 -0.36593324822E+02  0.11918592620E+01  0.14091656572E+03  0.12500026033E+03 0.  0.
          2    1    1    2  501    0 -0.10894250843E+02  0.45594943030E+02 -0.11151768068E+03  0.12097014770E+03  0.00000000000E+00 0. -1.
          1    1    1    2  502    0  0.64670839267E+02 -0.90016182086E+01  0.17809816426E+04  0.17821781499E+04  0.00000000000E+00 0. -1.
         22    1    3    3    0    0  0.21202880313E+02 -0.39901821213E+02 -0.35417108093E+02  0.57411575622E+02  0.00000000000E+00 0.  1.
         22    1    3    3    0    0 -0.74979468737E+02  0.33084963913E+01  0.36608967355E+02  0.83504990098E+02  0.00000000000E+00 0.  1.
</event>
<event>
 7    1  0.6520971E-006  0.5478814E+02  0.7818608E-02  0.1508578E+00
          2   -1    0    0  502    0  0.00000000000E+00  0.00000000000E+00  0.13923887370E+04  0.13923887370E+04  0.00000000000E+00 0. -1.
          1   -1    0    0  501    0 -0.00000000000E+00 -0.00000000000E+00 -0.85315753163E+03  0.85315753163E+03  0.00000000000E+00 0. -1.
         25    2    1    2    0    0 -0.23870229698E+02 -0.40254629135E+02  0.13025619049E+03  0.18649067153E+03  0.12498748887E+03 0.  0.
          2    1    1    2  501    0  0.48775588349E+02  0.25144016258E+02 -0.82395558918E+03  0.82578089861E+03  0.00000000000E+00 0. -1.
          1    1    1    2  502    0 -0.24905358651E+02  0.15110612877E+02  0.12329306041E+04  0.12332746985E+04  0.00000000000E+00 0. -1.
         22    1    3    3    0    0  0.44393983156E+02  0.64076187625E+01  0.73819997541E+02  0.86378674195E+02  0.00000000000E+00 0. -1.
         22    1    3    3    0    0 -0.68264212854E+02 -0.46662247898E+02  0.56436192953E+02  0.10011199734E+03  0.00000000000E+00 0. -1.
</event>
<event>
 7    1  0.6520971E-006  0.8765126E+02  0.7818608E-02  0.1372864E+00
          2   -1    0    0  502    0  0.00000000000E+00  0.00000000000E+00  0.19011244383E+03  0.19011244383E+03  0.00000000000E+00 0. -1.
          1   -1    0    0  501    0 -0.00000000000E+00 -0.00000000000E+00 -0.11334685280E+04  0.11334685280E+04  0.00000000000E+00 0. -1.
         25    2    1    2    0    0  0.11483475519E+03 -0.69363083093E+02 -0.12145063642E+03  0.21994203026E+03  0.12500392511E+03 0.  0.
          2    1    1    2  501    0 -0.45197205301E+02  0.21999079380E+02 -0.94945998589E+03  0.95078967793E+03  0.00000000000E+00 0. -1.
          1    1    1    2  502    0 -0.69637549891E+02  0.47364003713E+02  0.12755453812E+03  0.15284926365E+03  0.00000000000E+00 0. -1.
         22    1    3    3    0    0  0.13206644379E+03 -0.63973405140E+02 -0.64675825290E+02  0.16036553407E+03  0.00000000000E+00 0.  1.
         22    1    3    3    0    0 -0.17231688594E+02 -0.53896779535E+01 -0.56774811128E+02  0.59576496195E+02  0.00000000000E+00 0.  1.
</event>
<event>
 7    1  0.6520971E-006  0.6126985E+02  0.7818608E-02  0.1419271E+00
          2   -1    0    0  502    0  0.00000000000E+00  0.00000000000E+00  0.33577685480E+02  0.33577685480E+02  0.00000000000E+00 0. -1.
          1   -1    0    0  501    0 -0.00000000000E+00 -0.00000000000E+00 -0.16104996804E+04  0.16104996804E+04  0.00000000000E+00 0. -1.
         25    2    1    2    0    0  0.77422911006E+02  0.13261222393E+02 -0.32347972586E+03  0.35556266762E+03  0.12496203582E+03 0.  0.
          2    1    1    2  501    0 -0.53297375898E+02  0.30175989010E+02 -0.12334282855E+04  0.12349479892E+04  0.00000000000E+00 0. -1.
          1    1    1    2  502    0 -0.24125535107E+02 -0.43437211403E+02 -0.20013983541E+02  0.53566709026E+02  0.00000000000E+00 0. -1.
         22    1    3    3    0    0  0.92709720672E+02 -0.27647141170E+02 -0.26819144664E+03  0.28510718821E+03  0.00000000000E+00 0.  1.
         22    1    3    3    0    0 -0.15286809666E+02  0.40908363562E+02 -0.55288279221E+02  0.70455479406E+02  0.00000000000E+00 0.  1.
</event>
<event>
 7    1  0.6520971E-006  0.3947770E+02  0.7818608E-02  0.1588835E+00
          2   -1    0    0  502    0  0.00000000000E+00  0.00000000000E+00  0.65829936255E+02  0.65829936255E+02  0.00000000000E+00 0. -1.
          1   -1    0    0  501    0 -0.00000000000E+00 -0.00000000000E+00 -0.55809468434E+03  0.55809468434E+03  0.00000000000E+00 0. -1.
         25    2    1    2    0    0 -0.61414707809E+01 -0.27150001695E+02 -0.21991081160E+03  0.25448088522E+03  0.12499966251E+03 0.  0.
          2    1    1    2  501    0 -0.24099074714E+02  0.85629143795E+00 -0.31208378594E+03  0.31301403816E+03  0.00000000000E+00 0. -1.
          1    1    1    2  502    0  0.30240545495E+02  0.26293710257E+02  0.39729849453E+02  0.56429697221E+02  0.00000000000E+00 0. -1.
         22    1    3    3    0    0  0.58220636766E+02 -0.12929234334E+02 -0.12970195096E+03  0.14275644899E+03  0.00000000000E+00 0.  1.
         22    1    3    3    0    0 -0.64362107547E+02 -0.14220767361E+02 -0.90208860640E+02  0.11172443623E+03  0.00000000000E+00 0.  1.
</event>
<event>
 7    1  0.6520971E-006  0.1566938E+03  0.7818608E-02  0.1355018E+00
          2   -1    0    0  502    0  0.00000000000E+00  0.00000000000E+00  0.23467715504E+03  0.23467715504E+03  0.00000000000E+00 0. -1.
          1   -1    0    0  501    0 -0.00000000000E+00 -0.00000000000E+00 -0.21495667672E+03  0.21495667672E+03  0.00000000000E+00 0. -1.
         25    2    1    2    0    0  0.85270636105E+02  0.14285149906E+03 -0.36855837486E+02  0.21132751980E+03  0.12499334263E+03 0.  0.
          2    1    1    2  501    0 -0.99210727166E+02 -0.11333944837E+03 -0.22928743548E+02  0.15236248299E+03  0.00000000000E+00 0. -1.
          1    1    1    2  502    0  0.13940091061E+02 -0.29512050695E+02  0.79505059353E+02  0.85943828968E+02  0.00000000000E+00 0. -1.
         22    1    3    3    0    0  0.21003170473E+02  0.10805304465E+03 -0.70661517359E+02  0.13080383658E+03  0.00000000000E+00 0.  1.
         22    1    3    3    0    0  0.64267465631E+02  0.34798454410E+02  0.33805679873E+02  0.80523683222E+02  0.00000000000E+00 0.  1.
</event>
<event>
 7    1  0.6520971E-006  0.1473760E+03  0.7818608E-02  0.1369237E+00
          2   -1    0    0  502    0  0.00000000000E+00  0.00000000000E+00  0.12309620425E+04  0.12309620425E+04  0.00000000000E+00 0. -1.
          1   -1    0    0  501    0 -0.00000000000E+00 -0.00000000000E+00 -0.74648167731E+03  0.74648167731E+03  0.00000000000E+00 0. -1.
         25    2    1    2    0    0  0.61133444478E+02  0.13539631478E+03 -0.19879825678E+03  0.27787521443E+03  0.12499771119E+03 0.  0.
          2    1    1    2  501    0  0.26013920052E+02 -0.16500736973E+02 -0.50311217123E+03  0.50405441690E+03  0.00000000000E+00 0. -1.
          1    1    1    2  502    0 -0.87147364529E+02 -0.11889557781E+03  0.11863907932E+04  0.11955140885E+04  0.00000000000E+00 0. -1.
         22    1    3    3    0    0  0.82319436453E+02  0.50855905156E+02 -0.14851486325E+03  0.17725540136E+03  0.00000000000E+00 0.  1.
         22    1    3    3    0    0 -0.21185991975E+02  0.84540409622E+02 -0.50283393538E+02  0.10061981306E+03  0.00000000000E+00 0.  1.
</event>
<event>
 7    1  0.6520971E-006  0.5583629E+02  0.7818608E-02  0.1512657E+00
          2   -1    0    0  502    0  0.00000000000E+00  0.00000000000E+00  0.19547654520E+04  0.19547654520E+04  0.00000000000E+00 0. -1.
          1   -1    0    0  501    0 -0.00000000000E+00 -0.00000000000E+00 -0.14331038820E+03  0.14331038820E+03  0.00000000000E+00 0. -1.
         25    2    1    2    0    0  0.85602525331E+01 -0.74903833279E+02  0.26561258302E+03  0.30308689772E+03  0.12501104410E+03 0.  0.
          2    1    1    2  501    0  0.10340736222E+02  0.54510644982E+02 -0.11827355255E+03  0.13064063102E+03  0.00000000000E+00 0. -1.
          1    1    1    2  502    0 -0.18900988755E+02  0.20393188296E+02  0.16641160334E+04  0.16643483115E+04  0.00000000000E+00 0. -1.
         22    1    3    3    0    0  0.55079710874E+02 -0.34100353777E+02  0.59761383410E+02  0.88136437554E+02  0.00000000000E+00 0.  1.
         22    1    3    3    0    0 -0.46519458341E+02 -0.40803479502E+02  0.20585119961E+03  0.21495046016E+03  0.00000000000E+00 0.  1.
</event>
<event>
 7    1  0.6520971E-006  0.1411462E+03  0.7818608E-02  0.1395816E+00
          2   -1    0    0  502    0  0.00000000000E+00  0.00000000000E+00  0.42743907663E+03  0.42743907663E+03  0.00000000000E+00 0. -1.
          1   -1    0    0  501    0 -0.00000000000E+00 -0.00000000000E+00 -0.43904362926E+03  0.43904362926E+03  0.00000000000E+00 0. -1.
         25    2    1    2    0    0  0.85018371952E+02  0.90207726440E+02  0.73303967603E+02  0.19068944162E+03  0.12499373585E+03 0.  0.
          2    1    1    2  501    0  0.25051456688E+02  0.66446858993E+01 -0.36166910016E+03  0.36259656002E+03  0.00000000000E+00 0. -1.
          1    1    1    2  502    0 -0.11006982864E+03 -0.96852412339E+02  0.27676057992E+03  0.31319670424E+03  0.00000000000E+00 0. -1.
         22    1    3    3    0    0 -0.10439803366E+02 -0.24602581510E+02  0.11255931794E+02  0.28999526063E+02  0.00000000000E+00 0.  1.
         22    1    3    3    0    0  0.95458175318E+02  0.11481030795E+03  0.62048035809E+02  0.16168991556E+03  0.00000000000E+00 0.  1.
</event>
<event>
 7    1  0.6520971E-006  0.1505253E+03  0.7818608E-02  0.1371544E+00
          2   -1    0    0  502    0  0.00000000000E+00  0.00000000000E+00  0.28473995749E+04  0.28473995749E+04  0.00000000000E+00 0. -1.
          1   -1    0    0  501    0 -0.00000000000E+00 -0.00000000000E+00 -0.98886312379E+02  0.98886312379E+02  0.00000000000E+00 0. -1.
         25    2    1    2    0    0 -0.17660441048E+03 -0.40876238590E+01  0.59874365880E+03  0.63665171812E+03  0.12500245901E+03 0.  0.
          2    1    1    2  501    0  0.14763617642E+03 -0.19517726657E+01 -0.11561004776E+02  0.14810100214E+03  0.00000000000E+00 0. -1.
          1    1    1    2  502    0  0.28968234061E+02  0.60393965247E+01  0.21613306085E+04  0.21615331670E+04  0.00000000000E+00 0. -1.
         22    1    3    3    0    0 -0.15852426888E+03  0.20595269992E+02  0.57797025830E+03  0.59966968278E+03  0.00000000000E+00 0.  1.
         22    1    3    3    0    0 -0.18080141604E+02 -0.24682893851E+02  0.20773400500E+02  0.36982035336E+02  0.00000000000E+00 0.  1.
</event>
<event>
 7    1  0.6520971E-006  0.9697148E+02  0.7818608E-02  0.1305554E+00
          2   -1    0    0  502    0  0.00000000000E+00  0.00000000000E+00  0.12943992391E+04  0.12943992391E+04  0.00000000000E+00 0. -1.
          1   -1    0    0  501    0 -0.00000000000E+00 -0.00000000000E+00 -0.28365166234E+03  0.28365166234E+03  0.00000000000E+00 0. -1.
         25    2    1    2    0    0 -0.69582801112E+02  0.10179473779E+03  0.48360960160E+03  0.51449788606E+03  0.12500357254E+03 0.  0.
          2    1    1    2  501    0 -0.24145368640E+02 -0.77828429201E+02 -0.25898359432E+03  0.27150094907E+03  0.00000000000E+00 0. -1.
          1    1    1    2  502    0  0.93728169753E+02 -0.23966308588E+02  0.78612156952E+03  0.79205206635E+03  0.00000000000E+00 0. -1.
         22    1    3    3    0    0 -0.15637528193E+02  0.31512223732E+02  0.16136982755E+02  0.38703420326E+02  0.00000000000E+00 0.  1.
         22    1    3    3    0    0 -0.53945272920E+02  0.70282514057E+02  0.46747261885E+03  0.47579446573E+03  0.00000000000E+00 0.  1.
</event>
<event>
 7    1  0.6520971E-006  0.7068325E+02  0.7818608E-02  0.1525491E+00
          2   -1    0    0  502    0  0.00000000000E+00  0.00000000000E+00  0.16364989750E+04  0.16364989750E+04  0.00000000000E+00 0. -1.
          1   -1    0    0  501    0 -0.00000000000E+00 -0.00000000000E+00 -0.35499076391E+03  0.35499076391E+03  0.00000000000E+00 0. -1.
         25    2    1    2    0    0  0.15886569841E+02 -0.77233953280E+02  0.16619339585E+03  0.22240325536E+03  0.12500198611E+03 0.  0.
          2    1    1    2  501    0 -0.30684702791E+02  0.63548702425E+02 -0.32300573880E+03  0.33062470546E+03  0.00000000000E+00 0. -1.
          1    1    1    2  502    0  0.14798132950E+02  0.13685250856E+02  0.14383205541E+04  0.14384617781E+04  0.00000000000E+00 0. -1.
         22    1    3    3    0    0  0.15385157968E+02 -0.10247451920E+03  0.75363887228E+02  0.12813058054E+03  0.00000000000E+00 0. -1.
         22    1    3    3    0    0  0.50141187331E+00  0.25240565923E+02  0.90829508618E+02  0.94272674821E+02  0.00000000000E+00 0. -1.
</event>
<event>
 7    1  0.6520971E-006  0.7666465E+02  0.7818608E-02  0.1358131E+00
          2   -1    0    0  502    0  0.00000000000E+00  0.00000000000E+00  0.18544758637E+04  0.18544758637E+04  0.00000000000E+00 0. -1.
          1   -1    0    0  501    0 -0.00000000000E+00 -0.00000000000E+00 -0.13791757176E+04  0.13791757176E+04  0.00000000000E+00 0. -1.
         25    2    1    2    0    0 -0.71605705948E+02 -0.50674572991E+02 -0.74497589578E+02  0.16991275059E+03  0.12500064995E+03 0.  0.
          2    1    1    2  501    0  0.11817652456E+02  0.76123594611E+02 -0.12552050777E+04  0.12575667957E+04  0.00000000000E+00 0. -1.
          1    1    1    2  502    0  0.59788053492E+02 -0.25449021620E+02  0.18050028133E+04  0.18061720350E+04  0.00000000000E+00 0. -1.
         22    1    3    3    0    0 -0.56185316268E+02 -0.11615092528E+02  0.24493472010E+02  0.62382932839E+02  0.00000000000E+00 0.  1.
         22    1    3    3    0    0 -0.15420389680E+02 -0.39059480463E+02 -0.98991061588E+02  0.10752981775E+03  0.00000000000E+00 0.  1.
</event>
<event>
 7    1  0.6520971E-006  0.5511981E+02  0.7818608E-02  0.1528980E+00
          2   -1    0    0  502    0  0.00000000000E+00  0.00000000000E+00  0.79146279680E+02  0.79146279680E+02  0.00000000000E+00 0. -1.
          1   -1    0    0  501    0 -0.00000000000E+00 -0.00000000000E+00 -0.13589282956E+04  0.13589282956E+04  0.00000000000E+00 0. -1.
         25    2    1    2    0    0  0.20846905896E+02 -0.74950348602E+02 -0.25933408490E+03  0.29821497024E+03  0.12500341053E+03 0.  0.
          2    1    1    2  501    0 -0.21951274199E+02  0.49717273939E+02 -0.10767662875E+04  0.10781369596E+04  0.00000000000E+00 0. -1.
          1    1    1    2  502    0  0.11043683034E+01  0.25233074663E+02  0.56318356465E+02  0.61722645450E+02  0.00000000000E+00 0. -1.
         22    1    3    3    0    0 -0.14615165046E+02  0.29164824584E+02 -0.32127718103E+02  0.45786245891E+02  0.00000000000E+00 0.  1.
         22    1    3    3    0    0  0.35462070942E+02 -0.10411517319E+03 -0.22720636679E+03  0.25242872435E+03  0.00000000000E+00 0.  1.
</event>
<event>
 7    1  0.6520971E-006  0.9743180E+02  0.7818608E-02  0.1380401E+00
          2   -1    0    0  502    0  0.00000000000E+00  0.00000000000E+00  0.13830302046E+04  0.13830302046E+04  0.00000000000E+00 0. -1.
          1   -1    0    0  501    0 -0.00000000000E+00 -0.00000000000E+00 -0.28782185016E+03  0.28782185016E+03  0.00000000000E+00 0. -1.
         25    2    1    2    0    0  0.21920796807E+02  0.95913284224E+02  0.87824410437E+02  0.18171423620E+03  0.12500822831E+03 0.  0.
          2    1    1    2  501    0 -0.42510554900E+02 -0.35030001668E+00 -0.23706936140E+03  0.24085089184E+03  0.00000000000E+00 0. -1.
          1    1    1    2  502    0  0.20589758093E+02 -0.95562984208E+02  0.12444533054E+04  0.12482869267E+04  0.00000000000E+00 0. -1.
         22    1    3    3    0    0 -0.31141393023E+02 -0.75545213248E+01  0.50092004201E+02  0.59464830251E+02  0.00000000000E+00 0. -1.
         22    1    3    3    0    0  0.53062189830E+02  0.10346780555E+03  0.37732406236E+02  0.12224940595E+03  0.00000000000E+00 0. -1.
</event>
<event>
 7    1  0.6520971E-006  0.9791124E+02  0.7818608E-02  0.1335769E+00
          2   -1    0    0  502    0  0.00000000000E+00  0.00000000000E+00  0.57837425804E+02  0.57837425804E+02  0.00000000000E+00 0. -1.
          1   -1    0    0  501    0 -0.00000000000E+00 -0.00000000000E+00 -0.10719167786E+04  0.10719167786E+04  0.00000000000E+00 0. -1.
         25    2    1    2    0    0  0.12681738248E+03 -0.54487054782E+02 -0.44311254798E+03  0.48065076231E+03  0.12499974996E+03 0.  0.
          2    1    1    2  501    0 -0.91480661772E+02  0.39959694567E+01 -0.57967534496E+03  0.58686300344E+03  0.00000000000E+00 0. -1.
          1    1    1    2  502    0 -0.35336720706E+02  0.50491085325E+02  0.87085401849E+01  0.62240438621E+02  0.00000000000E+00 0. -1.
         22    1    3    3    0    0  0.46106207832E+02 -0.85141667102E+02 -0.27711761819E+03  0.29354566968E+03  0.00000000000E+00 0. -1.
         22    1    3    3    0    0  0.80711174646E+02  0.30654612320E+02 -0.16599492979E+03  0.18710509262E+03  0.00000000000E+00 0. -1.
</event>
<event>
 7    1  0.6520971E-006  0.5108090E+02  0.7818608E-02  0.1464485E+00
          2   -1    0    0  502    0  0.00000000000E+00  0.00000000000E+00  0.21471874960E+04  0.21471874960E+04  0.00000000000E+00 0. -1.
          1   -1    0    0  501    0 -0.00000000000E+00 -0.00000000000E+00 -0.60910922770E+03  0.60910922770E+03  0.00000000000E+00 0. -1.
         25    2    1    2    0    0 -0.34624482127E+02  0.56301845918E+02 -0.98816619022E+02  0.17250812763E+03  0.12500230912E+03 0.  0.
          2    1    1    2  501    0 -0.75259461923E+01 -0.50518020305E+02 -0.47185414669E+03  0.47461041496E+03  0.00000000000E+00 0. -1.
          1    1    1    2  502    0  0.42150428319E+02 -0.57838256129E+01  0.21087490340E+04  0.21091781811E+04  0.00000000000E+00 0. -1.
         22    1    3    3    0    0  0.11640652711E+01  0.72581000438E+02 -0.73649871334E+01  0.72963002323E+02  0.00000000000E+00 0. -1.
         22    1    3    3    0    0 -0.35788547398E+02 -0.16279154520E+02 -0.91451631889E+02  0.99545125304E+02  0.00000000000E+00 0. -1.
</event>
<event>
 7    1  0.6520971E-006  0.8321647E+02  0.7818608E-02  0.1392137E+00
          2   -1    0    0  502    0  0.00000000000E+00  0.00000000000E+00  0.43386708468E+03  0.43386708468E+03  0.00000000000E+00 0. -1.
          1   -1    0    0  501    0 -0.00000000000E+00 -0.00000000000E+00 -0.94373898175E+03  0.94373898175E+03  0.00000000000E+00 0. -1.
         25    2    1    2    0    0 -0.76906177519E+02  0.14590181005E+02 -0.39583780135E+03  0.42241433374E+03  0.12497548099E+03 0.  0.
          2    1    1    2  501    0 -0.63448562953E+00 -0.45266678731E+02 -0.52950417072E+03  0.53143592425E+03  0.00000000000E+00 0. -1.
          1    1    1    2  502    0  0.77540663148E+02  0.30676497726E+02  0.41547007501E+03  0.42375580843E+03  0.00000000000E+00 0. -1.
         22    1    3    3    0    0  0.33605258632E+02  0.14985253946E+02 -0.90591460552E+02  0.97778750086E+02  0.00000000000E+00 0. -1.
         22    1    3    3    0    0 -0.11051143615E+03 -0.39507294083E+00 -0.30524634080E+03  0.32463558365E+03  0.00000000000E+00 0. -1.
</event>
<event>
 7    1  0.6520971E-006  0.1261148E+03  0.7818608E-02  0.1320505E+00
          2   -1    0    0  502    0  0.00000000000E+00  0.00000000000E+00  0.24671721964E+03  0.24671721964E+03  0.00000000000E+00 0. -1.
          1   -1    0    0  501    0 -0.00000000000E+00 -0.00000000000E+00 -0.34909443781E+03  0.34909443781E+03  0.00000000000E+00 0. -1.
         25    2    1    2    0    0  0.12247253154E+03 -0.93597498117E+02 -0.18088410510E+03  0.26850386755E+03  0.12496101303E+03 0.  0.
          2    1    1    2  501    0 -0.53812577634E+02 -0.10049379142E+02 -0.97501383842E+02  0.11181817108E+03  0.00000000000E+00 0. -1.
          1    1    1    2  502    0 -0.68659953904E+02  0.10364687726E+03  0.17600827077E+03  0.21548961881E+03  0.00000000000E+00 0. -1.
         22    1    3    3    0    0 -0.24460589103E+02 -0.27438944473E+02 -0.26244719163E+02  0.45166374406E+02  0.00000000000E+00 0.  1.
         22    1    3    3    0    0  0.14693312064E+03 -0.66158553644E+02 -0.15463938594E+03  0.22333749315E+03  0.00000000000E+00 0.  1.
</event>
<event>
 7    1  0.6520971E-006  0.7183847E+02  0.7818608E-02  0.1430304E+00
          2   -1    0    0  502    0  0.00000000000E+00  0.00000000000E+00  0.63366232050E+03  0.63366232050E+03  0.00000000000E+00 0. -1.
          1   -1    0    0  501    0 -0.00000000000E+00 -0.00000000000E+00 -0.67792940915E+03  0.67792940915E+03  0.00000000000E+00 0. -1.
         25    2    1    2    0    0  0.11644161165E+02  0.61805160509E+02 -0.33874081235E+03  0.36650265275E+03  0.12499356852E+03 0.  0.
          2    1    1    2  501    0  0.37774008493E+02 -0.95107036338E+01 -0.32204191254E+03  0.32438915307E+03  0.00000000000E+00 0. -1.
          1    1    1    2  502    0 -0.49418169658E+02 -0.52294456875E+02  0.61651563624E+03  0.62069992383E+03  0.00000000000E+00 0. -1.
         22    1    3    3    0    0  0.16227456406E+02  0.29484866697E+02 -0.33132152312E+03  0.33302648451E+03  0.00000000000E+00 0.  1.
         22    1    3    3    0    0 -0.45832952411E+01  0.32320293811E+02 -0.74192892266E+01  0.33476168239E+02  0.00000000000E+00 0.  1.
</event>
<event>
 7    1  0.6520971E-006  0.3872276E+02  0.7818608E-02  0.1555668E+00
          2   -1    0    0  502    0  0.00000000000E+00  0.00000000000E+00  0.46147876615E+03  0.46147876615E+03  0.00000000000E+00 0. -1.
          1   -1    0    0  501    0 -0.00000000000E+00 -0.00000000000E+00 -0.29636883718E+03  0.29636883718E+03  0.00000000000E+00 0. -1.
         25    2    1    2    0    0  0.66404299814E+02  0.79713699461E+01 -0.87691865973E+02  0.16669594560E+03  0.12499840458E+03 0.  0.
          2    1    1    2  501    0 -0.36185348575E+02 -0.89608879858E+01 -0.16657044038E+03  0.17069091532E+03  0.00000000000E+00 0. -1.
          1    1    1    2  502    0 -0.30218951239E+02  0.98951803966E+00  0.41937223531E+03  0.42046074241E+03  0.00000000000E+00 0. -1.
         22    1    3    3    0    0  0.29473192626E+02  0.31302995594E+01 -0.11611800760E+03  0.11984097608E+03  0.00000000000E+00 0. -1.
         22    1    3    3    0    0  0.36931107188E+02  0.48410703867E+01  0.28426141628E+02  0.46854969517E+02  0.00000000000E+00 0. -1.
</event>
<event>
 7    1  0.6520971E-006  0.1414027E+03  0.7818608E-02  0.1387209E+00
          2   -1    0    0  502    0  0.00000000000E+00  0.00000000000E+00  0.19998749154E+04  0.19998749154E+04  0.00000000000E+00 0. -1.
          1   -1    0    0  501    0 -0.00000000000E+00 -0.00000000000E+00 -0.13062684268E+03  0.13062684268E+03  0.00000000000E+00 0. -1.
         25    2    1    2    0    0  0.32678177913E+02  0.11108714734E+03  0.62192176623E+03  0.64484124484E+03  0.12500132050E+03 0.  0.
          2    1    1    2  501    0 -0.35589305347E+02 -0.13865277411E+03 -0.75981189203E+02  0.16206273951E+03  0.00000000000E+00 0. -1.
          1    1    1    2  502    0  0.29111274341E+01  0.27565626777E+02  0.13233074957E+04  0.13235977738E+04  0.00000000000E+00 0. -1.
         22    1    3    3    0    0  0.72506616500E+02  0.10814165208E+03  0.49042211714E+03  0.50741075997E+03  0.00000000000E+00 0.  1.
         22    1    3    3    0    0 -0.39828438587E+02  0.29454952543E+01  0.13149964909E+03  0.13743048488E+03  0.00000000000E+00 0.  1.
</event>
<event>
 7    1  0.6520971E-006  0.7789828E+02  0.7818608E-02  0.1379144E+00
          2   -1    0    0  502    0  0.00000000000E+00  0.00000000000E+00  0.51052659829E+03  0.51052659829E+03  0.00000000000E+00 0. -1.
          1   -1    0    0  501    0 -0.00000000000E+00 -0.00000000000E+00 -0.24647557299E+03  0.24647557299E+03  0.00000000000E+00 0. -1.
         25    2    1    2    0    0  0.17122012518E+02 -0.26984855066E+02 -0.23639912118E+02  0.13117074791E+03  0.12500229576E+03 0.  0.
          2    1    1    2  501    0 -0.97082593829E+01 -0.52835591871E+02 -0.16116026459E+03  0.16987784126E+03  0.00000000000E+00 0. -1.
          1    1    1    2  502    0 -0.74137531346E+01  0.79820446938E+02  0.44885120201E+03  0.45595358211E+03  0.00000000000E+00 0. -1.
         22    1    3    3    0    0  0.47304289927E+02  0.14164681599E+02 -0.52883857488E+02  0.72353551628E+02  0.00000000000E+00 0.  1.
         22    1    3    3    0    0 -0.30182277410E+02 -0.41149536665E+02  0.29243945370E+02  0.58817196280E+02  0.00000000000E+00 0.  1.
</event>
<event>
 7    1  0.6520971E-006  0.1050402E+03  0.7818608E-02  0.1289631E+00
          2   -1    0    0  502    0  0.00000000000E+00  0.00000000000E+00  0.19491535106E+04  0.19491535106E+04  0.00000000000E+00 0. -1.
          1   -1    0    0  501    0 -0.00000000000E+00 -0.00000000000E+00 -0.32447465898E+03  0.32447465898E+03  0.00000000000E+00 0. -1.
         25    2    1    2    0    0  0.97785155314E+02 -0.11541218484E+03  0.59376658798E+03  0.62535033236E+03  0.12498947225E+03 0.  0.
          2    1    1    2  501    0 -0.11349087741E+02  0.10411924897E+03 -0.29832967747E+03  0.31618067028E+03  0.00000000000E+00 0. -1.
          1    1    1    2  502    0 -0.86436067572E+02  0.11292935877E+02  0.13292419411E+04  0.13320971669E+04  0.00000000000E+00 0. -1.
         22    1    3    3    0    0  0.11482631234E+03 -0.45063264034E+02  0.39511528167E+03  0.41392253573E+03  0.00000000000E+00 0. -1.
         22    1    3    3    0    0 -0.17041157028E+02 -0.70348920809E+02  0.19865130630E+03  0.21142779663E+03  0.00000000000E+00 0. -1.
</event>
<event>
 7    1  0.6520971E-006  0.6952096E+02  0.7818608E-02  0.1426057E+00
          2   -1    0    0  502    0  0.00000000000E+00  0.00000000000E+00  0.22414403749E+04  0.22414403749E+04  0.00000000000E+00 0. -1.
          1   -1    0    0  501    0 -0.00000000000E+00 -0.00000000000E+00 -0.16211159139E+03  0.16211159139E+03  0.00000000000E+00 0. -1.
         25    2    1    2    0    0 -0.27599842226E+02  0.10140155845E+03  0.22166870700E+02  0.16480069163E+03  0.12499548175E+03 0.  0.
          2    1    1    2  501    0 -0.64315424890E+01 -0.41071257670E+02 -0.85446920772E+02  0.95023098322E+02  0.00000000000E+00 0. -1.
          1    1    1    2  502    0  0.34031384715E+02 -0.60330300778E+02  0.21426088336E+04  0.21437281764E+04  0.00000000000E+00 0. -1.
         22    1    3    3    0    0 -0.25236376162E+02 -0.25459286293E+02  0.10650356006E+02  0.37396256810E+02  0.00000000000E+00 0. -1.
         22    1    3    3    0    0 -0.23634660634E+01  0.12686084474E+03  0.11516514694E+02  0.12740443482E+03  0.00000000000E+00 0. -1.
</event>
<event>
 7    1  0.6520971E-006  0.9570626E+02  0.7818608E-02  0.1444736E+00
          2   -1    0    0  502    0  0.00000000000E+00  0.00000000000E+00  0.10536425054E+03  0.10536425054E+03  0.00000000000E+00 0. -1.
          1   -1    0    0  501    0 -0.00000000000E+00 -0.00000000000E+00 -0.12614546377E+04  0.12614546377E+04  0.00000000000E+00 0. -1.
         25    2    1    2    0    0 -0.15868878620E+02  0.11649055524E+03 -0.36710531186E+03  0.40523203540E+03  0.12499928698E+03 0.  0.
          2    1    1    2  501    0  0.20419327209E+02 -0.90648956861E+02 -0.87076079030E+03  0.87570459415E+03  0.00000000000E+00 0. -1.
          1    1    1    2  502    0 -0.45504485886E+01 -0.25841598383E+02  0.81775715014E+02  0.85882258677E+02  0.00000000000E+00 0. -1.
         22    1    3    3    0    0  0.47338689315E+02  0.68413577394E+02 -0.25209561530E+03  0.26546858257E+03  0.00000000000E+00 0.  1.
         22    1    3    3    0    0 -0.63207567935E+02  0.48076977850E+02 -0.11500969657E+03  0.13976345283E+03  0.00000000000E+00 0.  1.
</event>
<event>
 7    1  0.6520971E-006  0.1591331E+03  0.7818608E-02  0.1224922E+00
          2   -1    0    0  502    0  0.00000000000E+00  0.00000000000E+00  0.21223536433E+04  0.21223536433E+04  0.00000000000E+00 0. -1.
          1   -1    0    0  501    0 -0.00000000000E+00 -0.00000000000E+00 -0.29445792615E+03  0.29445792615E+03  0.00000000000E+00 0. -1.
         25    2    1    2    0    0  0.28405471501E+02  0.98979947755E+02 -0.17989043476E+02  0.16295840183E+03  0.12501173614E+03 0.  0.
          2    1    1    2  501    0 -0.11634200306E+03 -0.16344354971E+03 -0.15280742777E+03  0.25218914648E+03  0.00000000000E+00 0. -1.
          1    1    1    2  502    0  0.87936531558E+02  0.64463601957E+02  0.19986921884E+04  0.20016640211E+04  0.00000000000E+00 0. -1.
         22    1    3    3    0    0 -0.27574105431E+02  0.51488859110E+02 -0.55454889698E+02  0.80539919879E+02  0.00000000000E+00 0. -1.
         22    1    3    3    0    0  0.55979576932E+02  0.47491088646E+02  0.37465846223E+02  0.82418481953E+02  0.00000000000E+00 0. -1.
</event>
<event>
 7    1  0.6520971E-006  0.5939255E+02  0.7818608E-02  0.1401204E+00
          2   -1    0    0  502    0  0.00000000000E+00  0.00000000000E+00  0.23489401291E+03  0.23489401291E+03  0.00000000000E+00 0. -1.
          1   -1    0    0  501    0 -0.00000000000E+00 -0.00000000000E+00 -0.39205141218E+03  0.39205141218E+03  0.00000000000E+00 0. -1.
         25    2    1    2    0    0 -0.90212481965E+01  0.83556256225E+02 -0.81664232597E+02  0.17132713938E+03  0.12498364265E+03 0.  0.
          2    1    1    2  501    0 -0.36807600976E+02 -0.46373862090E+02 -0.25753317740E+03  0.26425115333E+03  0.00000000000E+00 0. -1.
          1    1    1    2  502    0  0.45828849172E+02 -0.37182394135E+02  0.18204001073E+03  0.19136713238E+03  0.00000000000E+00 0. -1.
         22    1    3    3    0    0  0.43621868635E+02  0.84569062282E+02 -0.36361393513E+02  0.10186728943E+03  0.00000000000E+00 0. -1.
         22    1    3    3    0    0 -0.52643116831E+02 -0.10128060574E+01 -0.45302839085E+02  0.69459849949E+02  0.00000000000E+00 0. -1.
</event>
<event>
 7    1  0.6520971E-006  0.2156804E+03  0.7818608E-02  0.1216564E+00
          2   -1    0    0  502    0  0.00000000000E+00  0.00000000000E+00  0.88333996661E+03  0.88333996661E+03  0.00000000000E+00 0. -1.
          1   -1    0    0  501    0 -0.00000000000E+00 -0.00000000000E+00 -0.74138468495E+03  0.74138468495E+03  0.00000000000E+00 0. -1.
         25    2    1    2    0    0 -0.20189658874E+03 -0.21227321545E+03  0.76467130088E+02  0.32755731831E+03  0.12499769699E+03 0.  0.
          2    1    1    2  501    0  0.67875880054E+02  0.55717648294E+02 -0.59696959907E+03  0.60339397879E+03  0.00000000000E+00 0. -1.
          1    1    1    2  502    0  0.13402070869E+03  0.15655556715E+03  0.66245775064E+03  0.69377335445E+03  0.00000000000E+00 0. -1.
         22    1    3    3    0    0  0.55960975570E+01 -0.34627428584E+02  0.37995057217E+02  0.51710728975E+02  0.00000000000E+00 0. -1.
         22    1    3    3    0    0 -0.20749268630E+03 -0.17764578686E+03  0.38472072871E+02  0.27584658934E+03  0.00000000000E+00 0. -1.
</event>
<event>
 7    1  0.6520971E-006  0.1089648E+03  0.7818608E-02  0.1384352E+00
          2   -1    0    0  502    0  0.00000000000E+00  0.00000000000E+00  0.13702855537E+04  0.13702855537E+04  0.00000000000E+00 0. -1.
          1   -1    0    0  501    0 -0.00000000000E+00 -0.00000000000E+00 -0.25948740842E+02  0.25948740842E+02  0.00000000000E+00 0. -1.
         25    2    1    2    0    0 -0.21795349656E+02  0.93121095410E+02  0.37096246154E+03  0.40296937703E+03  0.12499838107E+03 0.  0.
          2    1    1    2  501    0  0.31455933433E+02  0.19120377156E+02  0.45266774214E+02  0.58345054790E+02  0.00000000000E+00 0. -1.
          1    1    1    2  502    0 -0.96605837777E+01 -0.11224147257E+03  0.92810757714E+03  0.93491986276E+03  0.00000000000E+00 0. -1.
         22    1    3    3    0    0 -0.54233291106E+02 -0.41286889124E+01  0.11394584603E+03  0.12626144211E+03  0.00000000000E+00 0.  1.
         22    1    3    3    0    0  0.32437941451E+02  0.97249784323E+02  0.25701661551E+03  0.27670793492E+03  0.00000000000E+00 0.  1.
</event>
<event>
 7    1  0.6520971E-006  0.1087909E+03  0.7818608E-02  0.1370403E+00
          2   -1    0    0  502    0  0.00000000000E+00  0.00000000000E+00  0.19276354844E+04  0.19276354844E+04  0.00000000000E+00 0. -1.
          1   -1    0    0  501    0 -0.00000000000E+00 -0.00000000000E+00 -0.20630788279E+03  0.20630788279E+03  0.00000000000E+00 0. -1.
         25    2    1    2    0    0  0.10448880601E+03 -0.26518906224E+02 -0.38461388848E+02  0.16949870045E+03  0.12501747100E+03 0.  0.
          2    1    1    2  501    0 -0.90543594126E+02  0.65425909037E+02 -0.71538005264E+02  0.13265134077E+03  0.00000000000E+00 0. -1.
          1    1    1    2  502    0 -0.13945211880E+02 -0.38907002812E+02  0.18313269958E+04  0.18317933260E+04  0.00000000000E+00 0. -1.
         22    1    3    3    0    0  0.74001257554E+02  0.18162657864E+02 -0.72835275067E+02  0.10540894438E+03  0.00000000000E+00 0. -1.
         22    1    3    3    0    0  0.30487548452E+02 -0.44681564089E+02  0.34373886218E+02  0.64089756075E+02  0.00000000000E+00 0. -1.
</event>
<event>
 7    1  0.6520971E-006  0.5459199E+02  0.7818608E-02  0.1517739E+00
          2   -1    0    0  502    0  0.00000000000E+00  0.00000000000E+00  0.80507505768E+03  0.80507505768E+03  0.00000000000E+00 0. -1.
          1   -1    0    0  501    0 -0.00000000000E+00 -0.00000000000E+00 -0.21926523554E+04  0.21926523554E+04  0.00000000000E+00 0. -1.
         25    2    1    2    0    0 -0.25779141881E+02 -0.42481586479E+02  0.58658263123E+02  0.14674858002E+03  0.12500041823E+03 0.  0.
          2    1    1    2  501    0  0.47930626046E+02  0.26214779320E+02 -0.21479909155E+04  0.21486855360E+04  0.00000000000E+00 0. -1.
          1    1    1    2  502    0 -0.22151484164E+02  0.16266807159E+02  0.70175535467E+03  0.70229329704E+03  0.00000000000E+00 0. -1.
         22    1    3    3    0    0 -0.35031655431E+02 -0.78149516290E+02  0.67275187791E+02  0.10890599006E+03  0.00000000000E+00 0. -1.
         22    1    3    3    0    0  0.92525135496E+01  0.35667929811E+02 -0.86169246684E+01  0.37842589958E+02  0.00000000000E+00 0. -1.
</event>
<event>
 7    1  0.6520971E-006  0.1741144E+03  0.7818608E-02  0.1337890E+00
          2   -1    0    0  502    0  0.00000000000E+00  0.00000000000E+00  0.18335582087E+04  0.18335582087E+04  0.00000000000E+00 0. -1.
          1   -1    0    0  501    0 -0.00000000000E+00 -0.00000000000E+00 -0.11120852837E+04  0.11120852837E+04  0.00000000000E+00 0. -1.
         25    2    1    2    0    0 -0.13891249669E+03 -0.62810368070E+02  0.65755846778E+03  0.68647673155E+03  0.12500136132E+03 0.  0.
          2    1    1    2  501    0  0.16827986463E+03  0.45633505331E+02 -0.10904497947E+04  0.11043012652E+04  0.00000000000E+00 0. -1.
          1    1    1    2  502    0 -0.29367367944E+02  0.17176862740E+02  0.11543642519E+04  0.11548654957E+04  0.00000000000E+00 0. -1.
         22    1    3    3    0    0 -0.70083141446E+02 -0.91578963142E+02  0.30408334443E+03  0.32521536489E+03  0.00000000000E+00 0.  1.
         22    1    3    3    0    0 -0.68829355239E+02  0.28768595072E+02  0.35347512336E+03  0.36126136665E+03  0.00000000000E+00 0.  1.
</event>
<event>
 7    1  0.6520971E-006  0.4288749E+02  0.7818608E-02  0.1522761E+00
          2   -1    0    0  502    0  0.00000000000E+00  0.00000000000E+00  0.80542668394E+02  0.80542668394E+02  0.00000000000E+00 0. -1.
          1   -1    0    0  501    0 -0.00000000000E+00 -0.00000000000E+00 -0.47846560602E+03  0.47846560602E+03  0.00000000000E+00 0. -1.
         25    2    1    2    0    0 -0.16640347672E+02  0.26811962710E+01 -0.82633178290E+02  0.15078989006E+03  0.12500103521E+03 0.  0.
          2    1    1    2  501    0 -0.23877937697E+02 -0.23962264302E+02 -0.34946567444E+03  0.35109913648E+03  0.00000000000E+00 0. -1.
          1    1    1    2  502    0  0.40518285370E+02  0.21281068031E+02  0.34175915105E+02  0.57119247886E+02  0.00000000000E+00 0. -1.
         22    1    3    3    0    0  0.51648872714E+02  0.16107906201E+02 -0.50965166586E+02  0.74327107437E+02  0.00000000000E+00 0.  1.
         22    1    3    3    0    0 -0.68289220386E+02 -0.13426709930E+02 -0.31668011704E+02  0.76462782618E+02  0.00000000000E+00 0.  1.
</event>
<event>
 7    1  0.6520971E-006  0.1884497E+03  0.7818608E-02  0.1162981E+00
          2   -1    0    0  502    0  0.00000000000E+00  0.00000000000E+00  0.97111991511E+03  0.97111991511E+03  0.00000000000E+00 0. -1.
          1   -1    0    0  501    0 -0.00000000000E+00 -0.00000000000E+00 -0.53273667505E+03  0.53273667505E+03  0.00000000000E+00 0. -1.
         25    2    1    2    0    0  0.37104520848E+02  0.75166509585E+01  0.51169418555E+02  0.14027288074E+03  0.12499970467E+03 0.  0.
          2    1    1    2  501    0 -0.21321066915E+03  0.59564628255E+02 -0.45209157727E+03  0.50338209009E+03  0.00000000000E+00 0. -1.
          1    1    1    2  502    0  0.17610614830E+03 -0.67081279213E+02  0.83930539877E+03  0.86020161933E+03  0.00000000000E+00 0. -1.
         22    1    3    3    0    0  0.11962796600E+02  0.64951365567E+02  0.38042401297E+02  0.76216879285E+02  0.00000000000E+00 0. -1.
         22    1    3    3    0    0  0.25141724248E+02 -0.57434714608E+02  0.13127017258E+02  0.64056001455E+02  0.00000000000E+00 0. -1.
</event>
<event>
 7    1  0.6520971E-006  0.3402527E+02  0.7818608E-02  0.1569478E+00
          2   -1    0    0  502    0  0.00000000000E+00  0.00000000000E+00  0.15205969117E+04  0.15205969117E+04  0.00000000000E+00 0. -1.
          1   -1    0    0  501    0 -0.00000000000E+00 -0.00000000000E+00 -0.29445039701E+03  0.29445039701E+03  0.00000000000E+00 0. -1.
         25    2    1    2    0    0  0.90976198946E+01 -0.64429344908E+02  0.34171539657E+03  0.36963334795E+03  0.12500196995E+03 0.  0.
          2    1    1    2  501    0 -0.11296440193E+01  0.33917876126E+02 -0.27925053710E+03  0.28130510285E+03  0.00000000000E+00 0. -1.
          1    1    1    2  502    0 -0.79679758753E+01  0.30511468781E+02  0.11636816552E+04  0.11641088579E+04  0.00000000000E+00 0. -1.
         22    1    3    3    0    0  0.25196420502E+02 -0.13565091345E+02  0.30141875726E+03  0.30277407177E+03  0.00000000000E+00 0.  1.
         22    1    3    3    0    0 -0.16098800608E+02 -0.50864253563E+02  0.40296639311E+02  0.66859276180E+02  0.00000000000E+00 0.  1.
</event>
<event>
 7    1  0.6520971E-006  0.7791532E+02  0.7818608E-02  0.1366604E+00
          2   -1    0    0  502    0  0.00000000000E+00  0.00000000000E+00  0.62347093552E+03  0.62347093552E+03  0.00000000000E+00 0. -1.
          1   -1    0    0  501    0 -0.00000000000E+00 -0.00000000000E+00 -0.17738063384E+04  0.17738063384E+04  0.00000000000E+00 0. -1.
         25    2    1    2    0    0  0.85801574882E+02  0.95696964823E+02  0.99690791888E+02  0.20514646579E+03  0.12500799618E+03 0.  0.
          2    1    1    2  501    0 -0.22349477895E+02 -0.55204396507E+02 -0.17175520677E+04  0.17185843389E+04  0.00000000000E+00 0. -1.
          1    1    1    2  502    0 -0.63452096987E+02 -0.40492568316E+02  0.46752587292E+03  0.47354646927E+03  0.00000000000E+00 0. -1.
         22    1    3    3    0    0  0.26452070929E+02 -0.10222315713E+02  0.76434390778E+02  0.81525602657E+02  0.00000000000E+00 0. -1.
         22    1    3    3    0    0  0.59349503952E+02  0.10591928054E+03  0.23256401111E+02  0.12362086313E+03  0.00000000000E+00 0. -1.
</event>
<event>
 7    1  0.6520971E-006  0.3149417E+02  0.7818608E-02  0.1586203E+00
          2   -1    0    0  502    0  0.00000000000E+00  0.00000000000E+00  0.58277022894E+03  0.58277022894E+03  0.00000000000E+00 0. -1.
          1   -1    0    0  501    0 -0.00000000000E+00 -0.00000000000E+00 -0.19741692101E+03  0.19741692101E+03  0.00000000000E+00 0. -1.
         25    2    1    2    0    0  0.39925772486E+02  0.17609565834E+02 -0.22670044314E+02  0.13433121070E+03  0.12500711636E+03 0.  0.
          2    1    1    2  501    0 -0.28400884929E+02  0.11702789777E+02 -0.11645225974E+03  0.12043543644E+03  0.00000000000E+00 0. -1.
          1    1    1    2  502    0 -0.11524887557E+02 -0.29312355610E+02  0.52447561197E+03  0.52542050282E+03  0.00000000000E+00 0. -1.
         22    1    3    3    0    0  0.81115310223E+01  0.55260163969E+02  0.28989877853E+02  0.62927701971E+02  0.00000000000E+00 0.  1.
         22    1    3    3    0    0  0.31814241463E+02 -0.37650598136E+02 -0.51659922167E+02  0.71403508724E+02  0.00000000000E+00 0.  1.
</event>
<event>
 7    1  0.6520971E-006  0.6798790E+02  0.7818608E-02  0.1454708E+00
          2   -1    0    0  502    0  0.00000000000E+00  0.00000000000E+00  0.78444988877E+03  0.78444988877E+03  0.00000000000E+00 0. -1.
          1   -1    0    0  501    0 -0.00000000000E+00 -0.00000000000E+00 -0.44591027193E+03  0.44591027193E+03  0.00000000000E+00 0. -1.
         25    2    1    2    0    0  0.47998774530E+02  0.62452387018E+02 -0.44037884127E+02  0.15417234829E+03  0.12500237892E+03 0.  0.
          2    1    1    2  501    0 -0.13899975300E+02 -0.66338477746E+02 -0.34308406735E+03  0.34971514153E+03  0.00000000000E+00 0. -1.
          1    1    1    2  502    0 -0.34098799229E+02  0.38860907277E+01  0.72566156832E+03  0.72647267089E+03  0.00000000000E+00 0. -1.
         22    1    3    3    0    0  0.90576508637E+02  0.39856064018E+02 -0.36011546148E+02  0.10530641582E+03  0.00000000000E+00 0.  1.
         22    1    3    3    0    0 -0.42577734107E+02  0.22596323000E+02 -0.80263379791E+01  0.48865932470E+02  0.00000000000E+00 0.  1.
</event>
<event>
 7    1  0.6520971E-006  0.1086121E+03  0.7818608E-02  0.1278885E+00
          2   -1    0    0  502    0  0.00000000000E+00  0.00000000000E+00  0.37688540224E+03  0.37688540224E+03  0.00000000000E+00 0. -1.
          1   -1    0    0  501    0 -0.00000000000E+00 -0.00000000000E+00 -0.39736020840E+03  0.39736020840E+03  0.00000000000E+00 0. -1.
         25    2    1    2    0    0  0.65967331145E+02  0.34520061784E+02 -0.74230970759E+02  0.16333687101E+03  0.12500149187E+03 0.  0.
          2    1    1    2  501    0 -0.33660616675E+02 -0.12206557443E+03 -0.25697003098E+03  0.28647275333E+03  0.00000000000E+00 0. -1.
          1    1    1    2  502    0 -0.32306714470E+02  0.87545512644E+02  0.31072619558E+03  0.32443598630E+03  0.00000000000E+00 0. -1.
         22    1    3    3    0    0  0.14666913391E+02 -0.46966929273E+02 -0.25280756339E+02  0.55318418586E+02  0.00000000000E+00 0. -1.
         22    1    3    3    0    0  0.51300417754E+02  0.81486991057E+02 -0.48950214420E+02  0.10801845243E+03  0.00000000000E+00 0. -1.
</event>
<event>
 7    1  0.6520971E-006  0.1003957E+03  0.7818608E-02  0.1348632E+00
          2   -1    0    0  502    0  0.00000000000E+00  0.00000000000E+00  0.11610510592E+04  0.11610510592E+04  0.00000000000E+00 0. -1.
          1   -1    0    0  501    0 -0.00000000000E+00 -0.00000000000E+00 -0.56098466394E+03  0.56098466394E+03  0.00000000000E+00 0. -1.
         25    2    1    2    0    0  0.56524232515E+02 -0.12328658120E+03 -0.24629324829E+03  0.30770121231E+03  0.12500040774E+03 0.  0.
          2    1    1    2  501    0 -0.61154054091E+02  0.69700376478E+02 -0.27575711157E+03  0.29092945089E+03  0.00000000000E+00 0. -1.
          1    1    1    2  502    0  0.46298215758E+01  0.53586204726E+02  0.11221167551E+04  0.11234050600E+04  0.00000000000E+00 0. -1.
         22    1    3    3    0    0  0.68962840066E+02 -0.57219860134E+02 -0.55487414075E+02  0.10539847639E+03  0.00000000000E+00 0. -1.
         22    1    3    3    0    0 -0.12438607551E+02 -0.66066721070E+02 -0.19080583422E+03  0.20230273592E+03  0.00000000000E+00 0. -1.
</event>
<event>
 7    1  0.6520971E-006  0.1887449E+03  0.7818608E-02  0.1322854E+00
          2   -1    0    0  502    0  0.00000000000E+00  0.00000000000E+00  0.19189134560E+04  0.19189134560E+04  0.00000000000E+00 0. -1.
          1   -1    0    0  501    0 -0.00000000000E+00 -0.00000000000E+00 -0.85058225295E+03  0.85058225295E+03  0.00000000000E+00 0. -1.
         25    2    1    2    0    0 -0.13911427093E+03 -0.68715961605E+02  0.20720595613E+03  0.28746159295E+03  0.12500078165E+03 0.  0.
          2    1    1    2  501    0  0.16695779895E+03  0.91251085074E+02 -0.79909149368E+03  0.82143099676E+03  0.00000000000E+00 0. -1.
          1    1    1    2  502    0 -0.27843528020E+02 -0.22535123470E+02  0.16602167406E+04  0.16606031193E+04  0.00000000000E+00 0. -1.
         22    1    3    3    0    0 -0.85945970513E+02 -0.27475695575E+02  0.25602064291E+02  0.93792800314E+02  0.00000000000E+00 0.  1.
         22    1    3    3    0    0 -0.53168300413E+02 -0.41240266030E+02  0.18160389184E+03  0.19366879264E+03  0.00000000000E+00 0.  1.
</event>
<event>
 7    1  0.6520971E-006  0.7858048E+02  0.7818608E-02  0.1451106E+00
          2   -1    0    0  502    0  0.00000000000E+00  0.00000000000E+00  0.23081028075E+04  0.23081028075E+04  0.00000000000E+00 0. -1.
          1   -1    0    0  501    0 -0.00000000000E+00 -0.00000000000E+00 -0.10627694262E+03  0.10627694262E+03  0.00000000000E+00 0. -1.
         25    2    1    2    0    0  0.52559533802E+02 -0.12370338335E+02  0.29962864064E+03  0.32911723310E+03  0.12500120388E+03 0.  0.
          2    1    1    2  501    0 -0.80030286505E+02 -0.85461715483E+00 -0.73897215321E+02  0.10893289476E+03  0.00000000000E+00 0. -1.
          1    1    1    2  502    0  0.27470752703E+02  0.13224955490E+02  0.19760944395E+04  0.19763296222E+04  0.00000000000E+00 0. -1.
         22    1    3    3    0    0 -0.66206991211E+01  0.29229955928E+02  0.11589212895E+02  0.32133064527E+02  0.00000000000E+00 0.  1.
         22    1    3    3    0    0  0.59180232924E+02 -0.41600294263E+02  0.28803942774E+03  0.29698416858E+03  0.00000000000E+00 0.  1.
</event>
<event>
 7    1  0.6520971E-006  0.1714779E+03  0.7818608E-02  0.1213348E+00
          2   -1    0    0  502    0  0.00000000000E+00  0.00000000000E+00  0.15260718001E+04  0.15260718001E+04  0.00000000000E+00 0. -1.
          1   -1    0    0  501    0 -0.00000000000E+00 -0.00000000000E+00 -0.13198327169E+04  0.13198327169E+04  0.00000000000E+00 0. -1.
         25    2    1    2    0    0 -0.21011673227E+02  0.77351192896E+02 -0.30379613704E+03  0.33814450052E+03  0.12499965159E+03 0.  0.
          2    1    1    2  501    0 -0.10759942956E+03  0.38490736047E+02 -0.99060277964E+03  0.99717252320E+03  0.00000000000E+00 0. -1.
          1    1    1    2  502    0  0.12861110279E+03 -0.11584192894E+03  0.15006379998E+04  0.15105874933E+04  0.00000000000E+00 0. -1.
         22    1    3    3    0    0 -0.29524577484E+02  0.98541146484E+02 -0.14539675694E+03  0.17810748203E+03  0.00000000000E+00 0. -1.
         22    1    3    3    0    0  0.85129042565E+01 -0.21189953588E+02 -0.15839938009E+03  0.16003701848E+03  0.00000000000E+00 0. -1.
</event>
<event>
 7    1  0.6520971E-006  0.6134466E+02  0.7818608E-02  0.1427687E+00
          2   -1    0    0  502    0  0.00000000000E+00  0.00000000000E+00  0.23371626836E+04  0.23371626836E+04  0.00000000000E+00 0. -1.
          1   -1    0    0  501    0 -0.00000000000E+00 -0.00000000000E+00 -0.96375729296E+02  0.96375729296E+02  0.00000000000E+00 0. -1.
         25    2    1    2    0    0  0.49043831811E+02  0.28032857177E+02  0.91232602182E+03  0.92258050960E+03  0.12499955236E+03 0.  0.
          2    1    1    2  501    0 -0.31987757718E+02  0.33792818315E+02 -0.84541354737E+02  0.96500838723E+02  0.00000000000E+00 0. -1.
          1    1    1    2  502    0 -0.17056074093E+02 -0.61825675492E+02  0.14130022872E+04  0.14144570645E+04  0.00000000000E+00 0. -1.
         22    1    3    3    0    0  0.46387837972E+02  0.53257922030E+02  0.87256074514E+03  0.87541446854E+03  0.00000000000E+00 0.  1.
         22    1    3    3    0    0  0.26559938382E+01 -0.25225064854E+02  0.39765276679E+02  0.47166041063E+02  0.00000000000E+00 0.  1.
</event>
<event>
 7    1  0.6520971E-006  0.1778365E+03  0.7818608E-02  0.1205882E+00
          2   -1    0    0  502    0  0.00000000000E+00  0.00000000000E+00  0.61656007683E+03  0.61656007683E+03  0.00000000000E+00 0. -1.
          1   -1    0    0  501    0 -0.00000000000E+00 -0.00000000000E+00 -0.27806875017E+03  0.27806875017E+03  0.00000000000E+00 0. -1.
         25    2    1    2    0    0  0.13014518565E+03  0.15259747467E+01 -0.11534548749E+02  0.18082899404E+03  0.12500392523E+03 0.  0.
          2    1    1    2  501    0 -0.20698747252E+03  0.89783304397E+02 -0.10104105218E+03  0.24721276212E+03  0.00000000000E+00 0. -1.
          1    1    1    2  502    0  0.76842286873E+02 -0.91309279143E+02  0.45106692759E+03  0.46658707084E+03  0.00000000000E+00 0. -1.
         22    1    3    3    0    0  0.33594078817E+02  0.55118456453E+02  0.17047279170E+02  0.66762385371E+02  0.00000000000E+00 0. -1.
         22    1    3    3    0    0  0.96551106833E+02 -0.53592481706E+02 -0.28581827920E+02  0.11406660867E+03  0.00000000000E+00 0. -1.
</event>
<event>
 7    1  0.6520971E-006  0.1956520E+03  0.7818608E-02  0.1313153E+00
          2   -1    0    0  502    0  0.00000000000E+00  0.00000000000E+00  0.25430319788E+04  0.25430319788E+04  0.00000000000E+00 0. -1.
          1   -1    0    0  501    0 -0.00000000000E+00 -0.00000000000E+00 -0.66737423125E+03  0.66737423125E+03  0.00000000000E+00 0. -1.
         25    2    1    2    0    0 -0.16580344812E+03 -0.20048305976E+02  0.32646830245E+03  0.38743253655E+03  0.12501879816E+03 0.  0.
          2    1    1    2  501    0 -0.34215289124E+02  0.15817431611E+02 -0.63175186161E+03  0.63287541570E+03  0.00000000000E+00 0. -1.
          1    1    1    2  502    0  0.20001873724E+03  0.42308743643E+01  0.21809413067E+04  0.21900982578E+04  0.00000000000E+00 0. -1.
         22    1    3    3    0    0 -0.17758488881E+03  0.84397015213E+01  0.27933432571E+03  0.33111219672E+03  0.00000000000E+00 0. -1.
         22    1    3    3    0    0  0.11781440686E+02 -0.28488007497E+02  0.47133976738E+02  0.56320339834E+02  0.00000000000E+00 0. -1.
</event>
<event>
 7    1  0.6520971E-006  0.4517796E+02  0.7818608E-02  0.1593540E+00
          2   -1    0    0  502    0  0.00000000000E+00  0.00000000000E+00  0.46080128227E+02  0.46080128227E+02  0.00000000000E+00 0. -1.
          1   -1    0    0  501    0 -0.00000000000E+00 -0.00000000000E+00 -0.12636756068E+04  0.12636756068E+04  0.00000000000E+00 0. -1.
         25    2    1    2    0    0  0.16822183897E+02 -0.56577736581E+02 -0.30606175570E+03  0.33583027598E+03  0.12499659922E+03 0.  0.
          2    1    1    2  501    0  0.73640619939E+01  0.19107012959E+02 -0.92661862074E+03  0.92684484983E+03  0.00000000000E+00 0. -1.
          1    1    1    2  502    0 -0.24186245891E+02  0.37470723622E+02  0.15084897877E+02  0.47080609204E+02  0.00000000000E+00 0. -1.
         22    1    3    3    0    0  0.26717007477E+02 -0.32811456271E+02 -0.30716224945E+03  0.31006295754E+03  0.00000000000E+00 0. -1.
         22    1    3    3    0    0 -0.98948235801E+01 -0.23766280310E+02  0.11004937472E+01  0.25767318447E+02  0.00000000000E+00 0. -1.
</event>
<event>
 7    1  0.6520971E-006  0.8509404E+02  0.7818608E-02  0.1369812E+00
          2   -1    0    0  502    0  0.00000000000E+00  0.00000000000E+00  0.31774443693E+02  0.31774443693E+02  0.00000000000E+00 0. -1.
          1   -1    0    0  501    0 -0.00000000000E+00 -0.00000000000E+00 -0.82602733196E+03  0.82602733196E+03  0.00000000000E+00 0. -1.
         25    2    1    2    0    0 -0.42643977086E+02 -0.21475640912E+02 -0.31293657953E+03  0.34033514966E+03  0.12497599510E+03 0.  0.
          2    1    1    2  501    0  0.87876856651E+02  0.49288420152E+02 -0.43651436133E+03  0.44799160477E+03  0.00000000000E+00 0. -1.
          1    1    1    2  502    0 -0.45232879564E+02 -0.27812779240E+02 -0.44801947411E+02  0.69475021228E+02  0.00000000000E+00 0. -1.
         22    1    3    3    0    0 -0.39301296912E+02  0.44906127253E+02 -0.92354486175E+02  0.10995682480E+03  0.00000000000E+00 0.  1.
         22    1    3    3    0    0 -0.33426801746E+01 -0.66381768165E+02 -0.22058209335E+03  0.23037832485E+03  0.00000000000E+00 0.  1.
</event>
<event>
 7    1  0.6520971E-006  0.1809750E+03  0.7818608E-02  0.1328712E+00
          2   -1    0    0  502    0  0.00000000000E+00  0.00000000000E+00  0.14306448021E+04  0.14306448021E+04  0.00000000000E+00 0. -1.
          1   -1    0    0  501    0 -0.00000000000E+00 -0.00000000000E+00 -0.28408685110E+04  0.28408685110E+04  0.00000000000E+00 0. -1.
         25    2    1    2    0    0 -0.15895797272E+03  0.92135153962E+02 -0.52910194819E+03  0.57387317179E+03  0.12500008816E+03 0.  0.
          2    1    1    2  501    0  0.13614060920E+03 -0.11929171627E+03 -0.22855787789E+04  0.22927352952E+04  0.00000000000E+00 0. -1.
          1    1    1    2  502    0  0.22817363515E+02  0.27156562311E+02  0.14044570182E+04  0.14049048462E+04  0.00000000000E+00 0. -1.
         22    1    3    3    0    0 -0.12068421469E+03  0.99748041564E+02 -0.50329910236E+03  0.52709044566E+03  0.00000000000E+00 0.  1.
         22    1    3    3    0    0 -0.38273758029E+02 -0.76128876019E+01 -0.25802845828E+02  0.46782726130E+02  0.00000000000E+00 0.  1.
</event>
<event>
 7    1  0.6520971E-006  0.1621237E+03  0.7818608E-02  0.1247908E+00
          2   -1    0    0  502    0  0.00000000000E+00  0.00000000000E+00  0.13601127150E+04  0.13601127150E+04  0.00000000000E+00 0. -1.
          1   -1    0    0  501    0 -0.00000000000E+00 -0.00000000000E+00 -0.19676061234E+04  0.19676061234E+04  0.00000000000E+00 0. -1.
         25    2    1    2    0    0  0.43559776692E+02 -0.94361081713E+02  0.83187875179E+02  0.18260854840E+03  0.12499676589E+03 0.  0.
          2    1    1    2  501    0  0.82261249485E+02 -0.19853302732E+02 -0.19110725698E+04  0.19129452250E+04  0.00000000000E+00 0. -1.
          1    1    1    2  502    0 -0.12582102618E+03  0.11421438445E+03  0.12203912861E+04  0.12321650651E+04  0.00000000000E+00 0. -1.
         22    1    3    3    0    0  0.80845139176E+02 -0.65736295481E+02  0.86588228416E+02  0.13547958655E+03  0.00000000000E+00 0. -1.
         22    1    3    3    0    0 -0.37285362484E+02 -0.28624786233E+02 -0.34003532375E+01  0.47128961845E+02  0.00000000000E+00 0. -1.
</event>
<event>
 7    1  0.6520971E-006  0.8136353E+02  0.7818608E-02  0.1485715E+00
          2   -1    0    0  502    0  0.00000000000E+00  0.00000000000E+00  0.15556619592E+03  0.15556619592E+03  0.00000000000E+00 0. -1.
          1   -1    0    0  501    0 -0.00000000000E+00 -0.00000000000E+00 -0.25634607809E+03  0.25634607809E+03  0.00000000000E+00 0. -1.
         25    2    1    2    0    0 -0.62440847267E+02 -0.11980220201E+02  0.10662791664E+02  0.14064187755E+03  0.12499622999E+03 0.  0.
          2    1    1    2  501    0  0.83563532202E+02  0.29625744913E+01 -0.18026679912E+03  0.19871527276E+03  0.00000000000E+00 0. -1.
          1    1    1    2  502    0 -0.21122684935E+02  0.90176457099E+01  0.68824125286E+02  0.72555123695E+02  0.00000000000E+00 0. -1.
         22    1    3    3    0    0 -0.35959808221E+01  0.41255615474E+02  0.38504674955E+02  0.56547032456E+02  0.00000000000E+00 0. -1.
         22    1    3    3    0    0 -0.58844866445E+02 -0.53235835675E+02 -0.27841883291E+02  0.84094845099E+02  0.00000000000E+00 0. -1.
</event>
<event>
 7    1  0.6520971E-006  0.1163724E+03  0.7818608E-02  0.1436323E+00
          2   -1    0    0  502    0  0.00000000000E+00  0.00000000000E+00  0.12948075108E+04  0.12948075108E+04  0.00000000000E+00 0. -1.
          1   -1    0    0  501    0 -0.00000000000E+00 -0.00000000000E+00 -0.16639068927E+03  0.16639068927E+03  0.00000000000E+00 0. -1.
         25    2    1    2    0    0 -0.40030084998E+02 -0.10081171179E+03  0.12005744073E+03  0.20446388061E+03  0.12500512173E+03 0.  0.
          2    1    1    2  501    0  0.62986501745E+02  0.99802131988E+02 -0.96003160974E+02  0.15213274424E+03  0.00000000000E+00 0. -1.
          1    1    1    2  502    0 -0.22956416748E+02  0.10095798019E+01  0.11043625417E+04  0.11046015752E+04  0.00000000000E+00 0. -1.
         22    1    3    3    0    0  0.26680067190E+02  0.27597384169E+01  0.63446663216E+02  0.68883388525E+02  0.00000000000E+00 0.  1.
         22    1    3    3    0    0 -0.66710152188E+02 -0.10357145021E+03  0.56610777514E+02  0.13558049208E+03  0.00000000000E+00 0.  1.
</event>
<event>
 7    1  0.6520971E-006  0.5929470E+02  0.7818608E-02  0.1444622E+00
          2   -1    0    0  502    0  0.00000000000E+00  0.00000000000E+00  0.36764670423E+03  0.36764670423E+03  0.00000000000E+00 0. -1.
          1   -1    0    0  501    0 -0.00000000000E+00 -0.00000000000E+00 -0.23846894997E+04  0.23846894997E+04  0.00000000000E+00 0. -1.
         25    2    1    2    0    0 -0.74623528238E+02  0.59868437303E+02 -0.13592420819E+04  0.13683278069E+04  0.12501619502E+03 0.  0.
          2    1    1    2  501    0  0.19775051981E+02 -0.37492364347E+02 -0.10180445816E+04  0.10189266413E+04  0.00000000000E+00 0. -1.
          1    1    1    2  502    0  0.54848476257E+02 -0.22376072955E+02  0.36024386805E+03  0.36508175585E+03  0.00000000000E+00 0. -1.
         22    1    3    3    0    0 -0.67465579389E+02  0.67495601903E+02 -0.13525452133E+04  0.13559077456E+04  0.00000000000E+00 0.  1.
         22    1    3    3    0    0 -0.71579488492E+01 -0.76271646006E+01 -0.66968686414E+01  0.12420061239E+02  0.00000000000E+00 0.  1.
</event>
<event>
 7    1  0.6520971E-006  0.8798757E+02  0.7818608E-02  0.1391376E+00
          2   -1    0    0  502    0  0.00000000000E+00  0.00000000000E+00  0.35608966894E+04  0.35608966894E+04  0.00000000000E+00 0. -1.
          1   -1    0    0  501    0 -0.00000000000E+00 -0.00000000000E+00 -0.27177984046E+04  0.27177984046E+04  0.00000000000E+00 0. -1.
         25    2    1    2    0    0  0.90094520761E+02 -0.86751572975E+02 -0.26475642041E+03  0.31837681306E+03  0.12499989943E+03 0.  0.
          2    1    1    2  501    0 -0.15514007486E+02  0.40187479759E+02 -0.24254936506E+04  0.24258761649E+04  0.00000000000E+00 0. -1.
          1    1    1    2  502    0 -0.74580513275E+02  0.46564093216E+02  0.35333483559E+04  0.35344421161E+04  0.00000000000E+00 0. -1.
         22    1    3    3    0    0  0.54432277940E+02  0.16425025883E+02 -0.43270368479E+02  0.71449136770E+02  0.00000000000E+00 0. -1.
         22    1    3    3    0    0  0.35662242821E+02 -0.10317659886E+03 -0.22148605193E+03  0.24692767629E+03  0.00000000000E+00 0. -1.
</event>
<event>
 7    1  0.6520971E-006  0.6392682E+02  0.7818608E-02  0.1434942E+00
          2   -1    0    0  502    0  0.00000000000E+00  0.00000000000E+00  0.87319573398E+03  0.87319573398E+03  0.00000000000E+00 0. -1.
          1   -1    0    0  501    0 -0.00000000000E+00 -0.00000000000E+00 -0.87674252888E+03  0.87674252888E+03  0.00000000000E+00 0. -1.
         25    2    1    2    0    0 -0.45256879672E+02 -0.76548125379E+02  0.81861936072E+02  0.17388100020E+03  0.12500169998E+03 0.  0.
          2    1    1    2  501    0  0.40116120025E+02  0.13310789673E+02 -0.82884330939E+03  0.82992030444E+03  0.00000000000E+00 0. -1.
          1    1    1    2  502    0  0.51407596477E+01  0.63237335707E+02  0.74343457841E+03  0.74613695822E+03  0.00000000000E+00 0. -1.
         22    1    3    3    0    0 -0.44756363828E+02 -0.22552898018E+02  0.10405901465E+03  0.11549910754E+03  0.00000000000E+00 0. -1.
         22    1    3    3    0    0 -0.50051584415E+00 -0.53995227361E+02 -0.22197078577E+02  0.58381892666E+02  0.00000000000E+00 0. -1.
</event>
<event>
 7    1  0.6520971E-006  0.2104355E+03  0.7818608E-02  0.1309186E+00
          2   -1    0    0  502    0  0.00000000000E+00  0.00000000000E+00  0.13700585772E+04  0.13700585772E+04  0.00000000000E+00 0. -1.
          1   -1    0    0  501    0 -0.00000000000E+00 -0.00000000000E+00 -0.26472536263E+03  0.26472536263E+03  0.00000000000E+00 0. -1.
         25    2    1    2    0    0  0.16358999992E+03 -0.14319341910E+03  0.19328109279E+03  0.31662220007E+03  0.12500397355E+03 0.  0.
          2    1    1    2  501    0 -0.17828981542E+03  0.10997197388E+03 -0.14863480623E+03  0.25685287412E+03  0.00000000000E+00 0. -1.
          1    1    1    2  502    0  0.14699815504E+02  0.33221445224E+02  0.10606869280E+04  0.10613088656E+04  0.00000000000E+00 0. -1.
         22    1    3    3    0    0  0.15813777874E+03 -0.10635432009E+03  0.97945301553E+02  0.21427104462E+03  0.00000000000E+00 0.  1.
         22    1    3    3    0    0  0.54522211720E+01 -0.36839099016E+02  0.95335791235E+02  0.10235115545E+03  0.00000000000E+00 0.  1.
</event>
<event>
 7    1  0.6520971E-006  0.1550234E+03  0.7818608E-02  0.1395331E+00
          2   -1    0    0  502    0  0.00000000000E+00  0.00000000000E+00  0.30673330349E+03  0.30673330349E+03  0.00000000000E+00 0. -1.
          1   -1    0    0  501    0 -0.00000000000E+00 -0.00000000000E+00 -0.30451151343E+03  0.30451151343E+03  0.00000000000E+00 0. -1.
         25    2    1    2    0    0  0.12073588176E+03 -0.93415298009E+02 -0.58410780303E+01  0.19738896600E+03  0.12499885863E+03 0.  0.
          2    1    1    2  501    0  0.15756487776E+02  0.17689082317E+02 -0.17310536822E+03  0.17471874269E+03  0.00000000000E+00 0. -1.
          1    1    1    2  502    0 -0.13649236953E+03  0.75726215692E+02  0.18116823632E+03  0.23913710823E+03  0.00000000000E+00 0. -1.
         22    1    3    3    0    0  0.51991792735E+02 -0.23201003032E+02  0.57149242100E+02  0.80668884498E+02  0.00000000000E+00 0. -1.
         22    1    3    3    0    0  0.68744089022E+02 -0.70214294977E+02 -0.62990320131E+02  0.11672008150E+03  0.00000000000E+00 0. -1.
</event>
<event>
 7    1  0.6520971E-006  0.1249193E+03  0.7818608E-02  0.1259264E+00
          2   -1    0    0  502    0  0.00000000000E+00  0.00000000000E+00  0.19049856283E+03  0.19049856283E+03  0.00000000000E+00 0. -1.
          1   -1    0    0  501    0 -0.00000000000E+00 -0.00000000000E+00 -0.10101571272E+04  0.10101571272E+04  0.00000000000E+00 0. -1.
         25    2    1    2    0    0 -0.12648459835E+03  0.16948276740E+03 -0.10219626886E+03  0.26606937708E+03  0.12500429587E+03 0.  0.
          2    1    1    2  501    0  0.48176938514E+02 -0.11037143270E+03 -0.79837877274E+03  0.80741038842E+03  0.00000000000E+00 0. -1.
          1    1    1    2  502    0  0.78307659841E+02 -0.59111334708E+02  0.80916477251E+02  0.12717592450E+03  0.00000000000E+00 0. -1.
         22    1    3    3    0    0 -0.79917478402E+02  0.65544819473E+02  0.12884656291E+02  0.10415825018E+03  0.00000000000E+00 0. -1.
         22    1    3    3    0    0 -0.46567119953E+02  0.10393794793E+03 -0.11508092515E+03  0.16191112690E+03  0.00000000000E+00 0. -1.
</event>
<event>
 7    1  0.6520971E-006  0.4148523E+02  0.7818608E-02  0.1520695E+00
          2   -1    0    0  502    0  0.00000000000E+00  0.00000000000E+00  0.33606099532E+03  0.33606099532E+03  0.00000000000E+00 0. -1.
          1   -1    0    0  501    0 -0.00000000000E+00 -0.00000000000E+00 -0.27501811503E+04  0.27501811503E+04  0.00000000000E+00 0. -1.
         25    2    1    2    0    0  0.16966219757E+02  0.77697281732E+01 -0.79841577248E+01  0.12663558750E+03  0.12499841582E+03 0.  0.
          2    1    1    2  501    0 -0.52569691825E+01 -0.41237372839E+02 -0.26815737786E+04  0.26818959873E+04  0.00000000000E+00 0. -1.
          1    1    1    2  502    0 -0.11709250575E+02  0.33467644665E+02  0.27543778132E+03  0.27771057086E+03  0.00000000000E+00 0. -1.
         22    1    3    3    0    0  0.45904464303E+02 -0.42589080257E+02  0.14634287069E+02  0.64305613737E+02  0.00000000000E+00 0. -1.
         22    1    3    3    0    0 -0.28938244546E+02  0.50358808430E+02 -0.22618444794E+02  0.62329973759E+02  0.00000000000E+00 0. -1.
</event>
<event>
 7    1  0.6520971E-006  0.1534929E+03  0.7818608E-02  0.1324510E+00
          2   -1    0    0  502    0  0.00000000000E+00  0.00000000000E+00  0.36135795034E+03  0.36135795034E+03  0.00000000000E+00 0. -1.
          1   -1    0    0  501    0 -0.00000000000E+00 -0.00000000000E+00 -0.15869215239E+04  0.15869215239E+04  0.00000000000E+00 0. -1.
         25    2    1    2    0    0 -0.52193859395E+02  0.10278219552E+03 -0.21970885769E+03  0.27782206686E+03  0.12499896006E+03 0.  0.
          2    1    1    2  501    0 -0.32719292512E+02  0.28519019831E+02 -0.13193847808E+04  0.13200985139E+04  0.00000000000E+00 0. -1.
          1    1    1    2  502    0  0.84913151907E+02 -0.13130121536E+03  0.31353006500E+03  0.35035889339E+03  0.00000000000E+00 0. -1.
         22    1    3    3    0    0  0.54257831411E+01  0.70918109632E+02 -0.19487871214E+03  0.20745247611E+03  0.00000000000E+00 0.  1.
         22    1    3    3    0    0 -0.57619642536E+02  0.31864085892E+02 -0.24830145544E+02  0.70369590758E+02  0.00000000000E+00 0.  1.
</event>
<event>
 7    1  0.6520971E-006  0.1003398E+03  0.7818608E-02  0.1429346E+00
          2   -1    0    0  502    0  0.00000000000E+00  0.00000000000E+00  0.19073351243E+04  0.19073351243E+04  0.00000000000E+00 0. -1.
          1   -1    0    0  501    0 -0.00000000000E+00 -0.00000000000E+00 -0.71469499125E+03  0.71469499125E+03  0.00000000000E+00 0. -1.
         25    2    1    2    0    0 -0.95381462704E+02 -0.97611278188E+01  0.39601283523E+02  0.16242910358E+03  0.12498819540E+03 0.  0.
          2    1    1    2  501    0  0.93294612890E+02  0.37775216554E+02 -0.64929406520E+03  0.65704918757E+03  0.00000000000E+00 0. -1.
          1    1    1    2  502    0  0.20868498144E+01 -0.28014088735E+02  0.18023329147E+04  0.18025518244E+04  0.00000000000E+00 0. -1.
         22    1    3    3    0    0 -0.90984740543E+02  0.17439678001E+02  0.73848578530E+02  0.11847353262E+03  0.00000000000E+00 0. -1.
         22    1    3    3    0    0 -0.43967221609E+01 -0.27200805820E+02 -0.34247295007E+02  0.43955570959E+02  0.00000000000E+00 0. -1.
</event>
<event>
 7    1  0.6520971E-006  0.8339913E+02  0.7818608E-02  0.1404700E+00
          2   -1    0    0  502    0  0.00000000000E+00  0.00000000000E+00  0.83932764734E+02  0.83932764734E+02  0.00000000000E+00 0. -1.
          1   -1    0    0  501    0 -0.00000000000E+00 -0.00000000000E+00 -0.18500191511E+04  0.18500191511E+04  0.00000000000E+00 0. -1.
         25    2    1    2    0    0  0.10857795755E+03  0.54108626174E+01 -0.10212986452E+04  0.10346472854E+04  0.12500252893E+03 0.  0.
          2    1    1    2  501    0 -0.31702822636E+02  0.25817516008E+02 -0.79909270592E+03  0.80013796670E+03  0.00000000000E+00 0. -1.
          1    1    1    2  502    0 -0.76875134918E+02 -0.31228378626E+02  0.54304964740E+02  0.99166663731E+02  0.00000000000E+00 0. -1.
         22    1    3    3    0    0 -0.10268913305E+02 -0.36579052896E+02 -0.18070101365E+03  0.18465192668E+03  0.00000000000E+00 0. -1.
         22    1    3    3    0    0  0.11884687086E+03  0.41989915514E+02 -0.84059763153E+03  0.84999535873E+03  0.00000000000E+00 0. -1.
</event>
<event>
 7    1  0.6520971E-006  0.7130858E+02  0.7818608E-02  0.1365687E+00
          2   -1    0    0  502    0  0.00000000000E+00  0.00000000000E+00  0.11108364492E+04  0.11108364492E+04  0.00000000000E+00 0. -1.
          1   -1    0    0  501    0 -0.00000000000E+00 -0.00000000000E+00 -0.24557728977E+02  0.24557728977E+02  0.00000000000E+00 0. -1.
         25    2    1    2    0    0  0.24642522419E+02  0.83391744839E+01  0.40386791473E+03  0.42357046998E+03  0.12500341894E+03 0.  0.
          2    1    1    2  501    0  0.33920633450E+02 -0.62724032937E+02  0.93880896671E+02  0.11789205419E+03  0.00000000000E+00 0. -1.
          1    1    1    2  502    0 -0.58563155869E+02  0.54384858453E+02  0.58852990882E+03  0.59393165400E+03  0.00000000000E+00 0. -1.
         22    1    3    3    0    0 -0.23832824936E+02  0.46747932549E+02  0.28272583307E+03  0.28755394177E+03  0.00000000000E+00 0.  1.
         22    1    3    3    0    0  0.48475347354E+02 -0.38408758065E+02  0.12114208166E+03  0.13601652821E+03  0.00000000000E+00 0.  1.
</event>
<event>
 7    1  0.6520971E-006  0.9264181E+02  0.7818608E-02  0.1296833E+00
          2   -1    0    0  502    0  0.00000000000E+00  0.00000000000E+00  0.15296625462E+03  0.15296625462E+03  0.00000000000E+00 0. -1.
          1   -1    0    0  501    0 -0.00000000000E+00 -0.00000000000E+00 -0.20709189222E+04  0.20709189222E+04  0.00000000000E+00 0. -1.
         25    2    1    2    0    0  0.43005282994E+02 -0.24583081988E+02 -0.11271252050E+03  0.17544942908E+03  0.12499843040E+03 0.  0.
          2    1    1    2  501    0 -0.70846035762E+02 -0.63776394884E+02 -0.19078283373E+04  0.19102082489E+04  0.00000000000E+00 0. -1.
          1    1    1    2  502    0  0.27840752768E+02  0.88359476872E+02  0.10258819025E+03  0.13822749888E+03  0.00000000000E+00 0. -1.
         22    1    3    3    0    0  0.64171967298E+02  0.33337962807E+01 -0.12313888335E+03  0.13889686886E+03  0.00000000000E+00 0.  1.
         22    1    3    3    0    0 -0.21166684304E+02 -0.27916878269E+02  0.10426362856E+02  0.36552560226E+02  0.00000000000E+00 0.  1.
</event>
<event>
 7    1  0.6520971E-006  0.8108974E+02  0.7818608E-02  0.1453192E+00
          2   -1    0    0  502    0  0.00000000000E+00  0.00000000000E+00  0.48385580637E+03  0.48385580637E+03  0.00000000000E+00 0. -1.
          1   -1    0    0  501    0 -0.00000000000E+00 -0.00000000000E+00 -0.12135728791E+03  0.12135728791E+03  0.00000000000E+00 0. -1.
         25    2    1    2    0    0 -0.23768685215E+02  0.80220589252E+02  0.24721676558E+03  0.28938036702E+03  0.12499829718E+03 0.  0.
          2    1    1    2  501    0 -0.53150652875E+01 -0.81057854257E+02 -0.82583927235E+02  0.11583924505E+03  0.00000000000E+00 0. -1.
          1    1    1    2  502    0  0.29083750502E+02  0.83726500509E+00  0.19786568013E+03  0.19999348221E+03  0.00000000000E+00 0. -1.
         22    1    3    3    0    0 -0.38558665582E+01 -0.75578496148E+01 -0.12161446965E+02  0.14828674587E+02  0.00000000000E+00 0. -1.
         22    1    3    3    0    0 -0.19912818657E+02  0.87778438867E+02  0.25937821254E+03  0.27455169243E+03  0.00000000000E+00 0. -1.
</event>
<event>
 7    1  0.6520971E-006  0.8360136E+02  0.7818608E-02  0.1424400E+00
          2   -1    0    0  502    0  0.00000000000E+00  0.00000000000E+00  0.12214550313E+03  0.12214550313E+03  0.00000000000E+00 0. -1.
          1   -1    0    0  501    0 -0.00000000000E+00 -0.00000000000E+00 -0.54683838318E+03  0.54683838318E+03  0.00000000000E+00 0. -1.
         25    2    1    2    0    0  0.18428636942E+02  0.53045019688E+02 -0.18211514361E+03  0.22791275537E+03  0.12499963903E+03 0.  0.
          2    1    1    2  501    0  0.29647790710E+02  0.18620042535E+02 -0.32193492147E+03  0.32383296797E+03  0.00000000000E+00 0. -1.
          1    1    1    2  502    0 -0.48076427653E+02 -0.71665062223E+02  0.79357185037E+02  0.11723816297E+03  0.00000000000E+00 0. -1.
         22    1    3    3    0    0  0.14764982211E+02  0.94220273314E+02 -0.13409385184E+03  0.16454976665E+03  0.00000000000E+00 0. -1.
         22    1    3    3    0    0  0.36636547315E+01 -0.41175253626E+02 -0.48021291769E+02  0.63362988726E+02  0.00000000000E+00 0. -1.
</event>
<event>
 7    1  0.6520971E-006  0.7449659E+02  0.7818608E-02  0.1436454E+00
          2   -1    0    0  502    0  0.00000000000E+00  0.00000000000E+00  0.25844089428E+03  0.25844089428E+03  0.00000000000E+00 0. -1.
          1   -1    0    0  501    0 -0.00000000000E+00 -0.00000000000E+00 -0.22821513999E+04  0.22821513999E+04  0.00000000000E+00 0. -1.
         25    2    1    2    0    0  0.57900827714E+02  0.23580254909E+02 -0.12619198557E+03  0.18830310282E+03  0.12500042815E+03 0.  0.
          2    1    1    2  501    0 -0.99749336273E+01  0.34444756513E+02 -0.21185208713E+04  0.21188243492E+04  0.00000000000E+00 0. -1.
          1    1    1    2  502    0 -0.47925894087E+02 -0.58025011422E+02  0.22100235125E+03  0.23346484218E+03  0.00000000000E+00 0. -1.
         22    1    3    3    0    0  0.21810526743E+02 -0.41189626896E+02 -0.58781245237E+01  0.46976981476E+02  0.00000000000E+00 0. -1.
         22    1    3    3    0    0  0.36090300971E+02  0.64769881805E+02 -0.12031386105E+03  0.14132612134E+03  0.00000000000E+00 0. -1.
</event>
<event>
 7    1  0.6520971E-006  0.1663696E+03  0.7818608E-02  0.1247105E+00
          2   -1    0    0  502    0  0.00000000000E+00  0.00000000000E+00  0.25899203612E+04  0.25899203612E+04  0.00000000000E+00 0. -1.
          1   -1    0    0  501    0 -0.00000000000E+00 -0.00000000000E+00 -0.22058282935E+03  0.22058282935E+03  0.00000000000E+00 0. -1.
         25    2    1    2    0    0 -0.13179610851E+02  0.87978820067E+02  0.94458907097E+02  0.18017071287E+03  0.12500010290E+03 0.  0.
          2    1    1    2  501    0 -0.33060799948E+01  0.83065088595E+02 -0.16481574151E+03  0.18459406209E+03  0.00000000000E+00 0. -1.
          1    1    1    2  502    0  0.16485690846E+02 -0.17104390866E+03  0.24396943663E+04  0.24457384156E+04  0.00000000000E+00 0. -1.
         22    1    3    3    0    0  0.33988576330E+02  0.93506888847E+02  0.38266626322E+02  0.10659782490E+03  0.00000000000E+00 0.  1.
         22    1    3    3    0    0 -0.47168187181E+02 -0.55280687806E+01  0.56192280774E+02  0.73572887976E+02  0.00000000000E+00 0.  1.
</event>
<event>
 7    1  0.6520971E-006  0.3713081E+02  0.7818608E-02  0.1592744E+00
          2   -1    0    0  502    0  0.00000000000E+00  0.00000000000E+00  0.79838738510E+03  0.79838738510E+03  0.00000000000E+00 0. -1.
          1   -1    0    0  501    0 -0.00000000000E+00 -0.00000000000E+00 -0.43811656292E+03  0.43811656292E+03  0.00000000000E+00 0. -1.
         25    2    1    2    0    0 -0.16643671486E+02 -0.17096097235E+01 -0.71073343975E+02  0.14476201281E+03  0.12499874224E+03 0.  0.
          2    1    1    2  501    0  0.34166670957E+02 -0.16171178248E+02 -0.32891033281E+03  0.33107533197E+03  0.00000000000E+00 0. -1.
          1    1    1    2  502    0 -0.17522999471E+02  0.17880787971E+02  0.76025449897E+03  0.76066660324E+03  0.00000000000E+00 0. -1.
         22    1    3    3    0    0 -0.48402250741E+02 -0.36678509918E+02 -0.75982151135E+02  0.97269616313E+02  0.00000000000E+00 0.  1.
         22    1    3    3    0    0  0.31758579255E+02  0.34968900195E+02  0.49088071597E+01  0.47492396495E+02  0.00000000000E+00 0.  1.
</event>
<event>
 7    1  0.6520971E-006  0.1091262E+03  0.7818608E-02  0.1399433E+00
          2   -1    0    0  502    0  0.00000000000E+00  0.00000000000E+00  0.10019397920E+04  0.10019397920E+04  0.00000000000E+00 0. -1.
          1   -1    0    0  501    0 -0.00000000000E+00 -0.00000000000E+00 -0.40080694244E+03  0.40080694244E+03  0.00000000000E+00 0. -1.
         25    2    1    2    0    0  0.11889028502E+03 -0.57643098850E+02  0.32907545196E+03  0.37599680021E+03  0.12500125589E+03 0.  0.
          2    1    1    2  501    0 -0.87140871929E+02  0.64921240857E+02 -0.36910099951E+03  0.38476466433E+03  0.00000000000E+00 0. -1.
          1    1    1    2  502    0 -0.31749413087E+02 -0.72781420070E+01  0.64115839709E+03  0.64198526988E+03  0.00000000000E+00 0. -1.
         22    1    3    3    0    0  0.85559442763E+02 -0.42951217376E+02  0.81416993102E+02  0.12567399129E+03  0.00000000000E+00 0.  1.
         22    1    3    3    0    0  0.33330842253E+02 -0.14691881474E+02  0.24765845886E+03  0.25032280893E+03  0.00000000000E+00 0.  1.
</event>
<event>
 7    1  0.6520971E-006  0.1186672E+03  0.7818608E-02  0.1335515E+00
          2   -1    0    0  502    0  0.00000000000E+00  0.00000000000E+00  0.27931028154E+03  0.27931028154E+03  0.00000000000E+00 0. -1.
          1   -1    0    0  501    0 -0.00000000000E+00 -0.00000000000E+00 -0.14042592552E+04  0.14042592552E+04  0.00000000000E+00 0. -1.
         25    2    1    2    0    0 -0.74188630280E+02 -0.13470587001E+03  0.90706476033E+02  0.21794990313E+03  0.12499948481E+03 0.  0.
          2    1    1    2  501    0  0.37188623783E+02  0.34843975251E+02 -0.13173690411E+04  0.13183543859E+04  0.00000000000E+00 0. -1.
          1    1    1    2  502    0  0.37000006497E+02  0.99861894755E+02  0.10171359142E+03  0.14726524772E+03  0.00000000000E+00 0. -1.
         22    1    3    3    0    0 -0.23909380110E+02  0.92902641298E+01 -0.17404717202E+02  0.30998252301E+02  0.00000000000E+00 0.  1.
         22    1    3    3    0    0 -0.50279250170E+02 -0.14399613414E+03  0.10811119323E+03  0.18695165082E+03  0.00000000000E+00 0.  1.
</event>
<event>
 7    1  0.6520971E-006  0.4115875E+02  0.7818608E-02  0.1573289E+00
          2   -1    0    0  502    0  0.00000000000E+00  0.00000000000E+00  0.53260473797E+01  0.53260473797E+01  0.00000000000E+00 0. -1.
          1   -1    0    0  501    0 -0.00000000000E+00 -0.00000000000E+00 -0.26322539983E+04  0.26322539983E+04  0.00000000000E+00 0. -1.
         25    2    1    2    0    0 -0.10601865309E+02  0.16627014702E+02 -0.15255685240E+04  0.15308076623E+04  0.12499568145E+03 0.  0.
          2    1    1    2  501    0 -0.23027469636E+01  0.25351863622E+02 -0.91323343600E+03  0.91358816118E+03  0.00000000000E+00 0. -1.
          1    1    1    2  502    0  0.12904612273E+02 -0.41978878323E+02 -0.18812599091E+03  0.19318422218E+03  0.00000000000E+00 0. -1.
         22    1    3    3    0    0  0.35295013625E+02 -0.40994502562E+01 -0.14391058087E+03  0.14823224604E+03  0.00000000000E+00 0.  1.
         22    1    3    3    0    0 -0.45896878934E+02  0.20726464958E+02 -0.13816579431E+04  0.13825754163E+04  0.00000000000E+00 0.  1.
</event>
<event>
 7    1  0.6520971E-006  0.8175556E+02  0.7818608E-02  0.1444338E+00
          2   -1    0    0  502    0  0.00000000000E+00  0.00000000000E+00  0.75757091102E+03  0.75757091102E+03  0.00000000000E+00 0. -1.
          1   -1    0    0  501    0 -0.00000000000E+00 -0.00000000000E+00 -0.35343138618E+03  0.35343138618E+03  0.00000000000E+00 0. -1.
         25    2    1    2    0    0  0.63185875565E+01 -0.77312189261E+02  0.30906984089E+03  0.34229003904E+03  0.12498481956E+03 0.  0.
          2    1    1    2  501    0  0.30738114846E+02  0.20682387303E+01 -0.33202933418E+03  0.33345552637E+03  0.00000000000E+00 0. -1.
          1    1    1    2  502    0 -0.37056702403E+02  0.75243950530E+02  0.42709901812E+03  0.43525673179E+03  0.00000000000E+00 0. -1.
         22    1    3    3    0    0 -0.41033044656E+01  0.34524613042E+02  0.74820140440E+02  0.82503572218E+02  0.00000000000E+00 0.  1.
         22    1    3    3    0    0  0.10421892022E+02 -0.11183680230E+03  0.23424970045E+03  0.25978646682E+03  0.00000000000E+00 0.  1.
</event>
<event>
 7    1  0.6520971E-006  0.6769251E+02  0.7818608E-02  0.1446863E+00
          2   -1    0    0  502    0  0.00000000000E+00  0.00000000000E+00  0.59517682680E+03  0.59517682680E+03  0.00000000000E+00 0. -1.
          1   -1    0    0  501    0 -0.00000000000E+00 -0.00000000000E+00 -0.17028639626E+03  0.17028639626E+03  0.00000000000E+00 0. -1.
         25    2    1    2    0    0  0.83401862892E+00 -0.33704591046E+02  0.84918397540E+02  0.15483141889E+03  0.12499975596E+03 0.  0.
          2    1    1    2  501    0  0.17837373236E+01 -0.36474154127E+02 -0.13021009559E+03  0.13523392559E+03  0.00000000000E+00 0. -1.
          1    1    1    2  502    0 -0.26177559525E+01  0.70178745174E+02  0.47018212859E+03  0.47539787859E+03  0.00000000000E+00 0. -1.
         22    1    3    3    0    0  0.54048970915E+02  0.15700666430E+02  0.44326114794E+02  0.71642212668E+02  0.00000000000E+00 0. -1.
         22    1    3    3    0    0 -0.53214952286E+02 -0.49405257477E+02  0.40592282747E+02  0.83189206221E+02  0.00000000000E+00 0. -1.
</event>
<event>
 7    1  0.6520971E-006  0.1153095E+03  0.7818608E-02  0.1421355E+00
          2   -1    0    0  502    0  0.00000000000E+00  0.00000000000E+00  0.33839761487E+03  0.33839761487E+03  0.00000000000E+00 0. -1.
          1   -1    0    0  501    0 -0.00000000000E+00 -0.00000000000E+00 -0.13342687986E+04  0.13342687986E+04  0.00000000000E+00 0. -1.
         25    2    1    2    0    0 -0.67685868316E+02 -0.94228904835E+02 -0.47284382085E+03  0.50265858261E+03  0.12499563383E+03 0.  0.
          2    1    1    2  501    0 -0.18818009466E+02  0.17914776475E+02 -0.83602561393E+03  0.83642924616E+03  0.00000000000E+00 0. -1.
          1    1    1    2  502    0  0.86503877782E+02  0.76314128360E+02  0.31299825101E+03  0.33357858474E+03  0.00000000000E+00 0. -1.
         22    1    3    3    0    0  0.29944742835E+02 -0.25969977756E+02 -0.21503756830E+03  0.21866020020E+03  0.00000000000E+00 0. -1.
         22    1    3    3    0    0 -0.97630611151E+02 -0.68258927079E+02 -0.25780625255E+03  0.28399838241E+03  0.00000000000E+00 0. -1.
</event>
<event>
 7    1  0.6520971E-006  0.1010110E+03  0.7818608E-02  0.1282925E+00
          2   -1    0    0  502    0  0.00000000000E+00  0.00000000000E+00  0.48588111954E+03  0.48588111954E+03  0.00000000000E+00 0. -1.
          1   -1    0    0  501    0 -0.00000000000E+00 -0.00000000000E+00 -0.27557932380E+03  0.27557932380E+03  0.00000000000E+00 0. -1.
         25    2    1    2    0    0 -0.99588018982E+02 -0.11270043110E+03 -0.30211572798E+02  0.19787922407E+03  0.12499714994E+03 0.  0.
          2    1    1    2  501    0  0.95535108754E+02  0.16225883965E+02 -0.14041419998E+03  0.17060593152E+03  0.00000000000E+00 0. -1.
          1    1    1    2  502    0  0.40529102280E+01  0.96474547134E+02  0.38092756852E+03  0.39297528775E+03  0.00000000000E+00 0. -1.
         22    1    3    3    0    0 -0.55126137014E+02 -0.16887242976E+02  0.40774019093E+02  0.70615795615E+02  0.00000000000E+00 0. -1.
         22    1    3    3    0    0 -0.44461881967E+02 -0.95813188123E+02 -0.70985591891E+02  0.12726342846E+03  0.00000000000E+00 0. -1.
</event>
<event>
 7    1  0.6520971E-006  0.7716760E+02  0.7818608E-02  0.1382848E+00
          2   -1    0    0  502    0  0.00000000000E+00  0.00000000000E+00  0.10882513223E+04  0.10882513223E+04  0.00000000000E+00 0. -1.
          1   -1    0    0  501    0 -0.00000000000E+00 -0.00000000000E+00 -0.82401965847E+02  0.82401965847E+02  0.00000000000E+00 0. -1.
         25    2    1    2    0    0  0.19370693232E+02  0.55362902659E+02  0.15518375562E+03  0.20771930294E+03  0.12500014424E+03 0.  0.
          2    1    1    2  501    0  0.28477394846E+02 -0.77252840171E+02 -0.24722405472E+02  0.85966043668E+02  0.00000000000E+00 0. -1.
          1    1    1    2  502    0 -0.47848088078E+02  0.21889937512E+02  0.87538800630E+03  0.87696794153E+03  0.00000000000E+00 0. -1.
         22    1    3    3    0    0 -0.46212342742E+01  0.53038417217E+02  0.17086225396E+03  0.17896463152E+03  0.00000000000E+00 0. -1.
         22    1    3    3    0    0  0.23991927506E+02  0.23244854422E+01 -0.15678498345E+02  0.28754671419E+02  0.00000000000E+00 0. -1.
</event>
<event>
 7    1  0.6520971E-006  0.2004737E+03  0.7818608E-02  0.1188581E+00
          2   -1    0    0  502    0  0.00000000000E+00  0.00000000000E+00  0.11626316855E+03  0.11626316855E+03  0.00000000000E+00 0. -1.
          1   -1    0    0  501    0 -0.00000000000E+00 -0.00000000000E+00 -0.10693510175E+04  0.10693510175E+04  0.00000000000E+00 0. -1.
         25    2    1    2    0    0  0.18124261649E+03 -0.10747293597E+03 -0.20992880899E+03  0.32263565474E+03  0.12499737144E+03 0.  0.
          2    1    1    2  501    0 -0.82631479256E+02  0.18886288562E+03 -0.69731241054E+03  0.72714630497E+03  0.00000000000E+00 0. -1.
          1    1    1    2  502    0 -0.98611137237E+02 -0.81389949644E+02 -0.45846629437E+02  0.13583222637E+03  0.00000000000E+00 0. -1.
         22    1    3    3    0    0  0.12870019549E+03 -0.19304203641E+02 -0.66166032973E+02  0.14599430303E+03  0.00000000000E+00 0.  1.
         22    1    3    3    0    0  0.52542420999E+02 -0.88168732331E+02 -0.14376277601E+03  0.17664135171E+03  0.00000000000E+00 0.  1.
</event>
<event>
 7    1  0.6520971E-006  0.9347847E+02  0.7818608E-02  0.1326257E+00
          2   -1    0    0  502    0  0.00000000000E+00  0.00000000000E+00  0.14328065504E+04  0.14328065504E+04  0.00000000000E+00 0. -1.
          1   -1    0    0  501    0 -0.00000000000E+00 -0.00000000000E+00 -0.65610910340E+02  0.65610910340E+02  0.00000000000E+00 0. -1.
         25    2    1    2    0    0 -0.19017381977E+02 -0.33583975268E+02  0.22498687684E+03  0.26025379560E+03  0.12499359649E+03 0.  0.
          2    1    1    2  501    0  0.33733723760E+02  0.10219881023E+03  0.14872176060E+02  0.10864503004E+03  0.00000000000E+00 0. -1.
          1    1    1    2  502    0 -0.14716341784E+02 -0.68614834960E+02  0.11273365871E+04  0.11295186351E+04  0.00000000000E+00 0. -1.
         22    1    3    3    0    0  0.38782936012E+02  0.26857043481E+02  0.79452317678E+02  0.92401773222E+02  0.00000000000E+00 0.  1.
         22    1    3    3    0    0 -0.57800317989E+02 -0.60441018748E+02  0.14553455916E+03  0.16785202238E+03  0.00000000000E+00 0.  1.
</event>
<event>
 7    1  0.6520971E-006  0.1880539E+03  0.7818608E-02  0.1318073E+00
          2   -1    0    0  502    0  0.00000000000E+00  0.00000000000E+00  0.21768405873E+04  0.21768405873E+04  0.00000000000E+00 0. -1.
          1   -1    0    0  501    0 -0.00000000000E+00 -0.00000000000E+00 -0.44779191244E+03  0.44779191244E+03  0.00000000000E+00 0. -1.
         25    2    1    2    0    0  0.14579002082E+03  0.54522155176E+02  0.24494238033E+03  0.31599031413E+03  0.12500285345E+03 0.  0.
          2    1    1    2  501    0  0.31703366070E+02  0.20065422406E+02 -0.40651523806E+03  0.40824301999E+03  0.00000000000E+00 0. -1.
          1    1    1    2  502    0 -0.17749338689E+03 -0.74587577582E+02  0.18906215326E+04  0.19003991656E+04  0.00000000000E+00 0. -1.
         22    1    3    3    0    0  0.25854715268E+02  0.66283121125E+02  0.50560291967E+02  0.87282653325E+02  0.00000000000E+00 0.  1.
         22    1    3    3    0    0  0.11993530555E+03 -0.11760965948E+02  0.19438208836E+03  0.22870766081E+03  0.00000000000E+00 0.  1.
</event>
<event>
 7    1  0.6520971E-006  0.9546086E+02  0.7818608E-02  0.1429654E+00
          2   -1    0    0  502    0  0.00000000000E+00  0.00000000000E+00  0.18272119350E+04  0.18272119350E+04  0.00000000000E+00 0. -1.
          1   -1    0    0  501    0 -0.00000000000E+00 -0.00000000000E+00 -0.36628908710E+03  0.36628908710E+03  0.00000000000E+00 0. -1.
         25    2    1    2    0    0 -0.49355272237E+02  0.55422022333E+02  0.15360149721E+02  0.14618300706E+03  0.12500397552E+03 0.  0.
          2    1    1    2  501    0  0.41139687953E+01  0.29169790613E+02 -0.29883555173E+03  0.30028401290E+03  0.00000000000E+00 0. -1.
          1    1    1    2  502    0  0.45241303442E+02 -0.84591812946E+02  0.17443982499E+04  0.17470340021E+04  0.00000000000E+00 0. -1.
         22    1    3    3    0    0  0.28861537151E+02  0.50808747035E+02  0.31205299703E+02  0.66244153188E+02  0.00000000000E+00 0.  1.
         22    1    3    3    0    0 -0.78216809388E+02  0.46132752979E+01 -0.15845149982E+02  0.79938853868E+02  0.00000000000E+00 0.  1.
</event>
<event>
 7    1  0.6520971E-006  0.1444584E+03  0.7818608E-02  0.1266691E+00
          2   -1    0    0  502    0  0.00000000000E+00  0.00000000000E+00  0.14514325067E+04  0.14514325067E+04  0.00000000000E+00 0. -1.
          1   -1    0    0  501    0 -0.00000000000E+00 -0.00000000000E+00 -0.25178212623E+04  0.25178212623E+04  0.00000000000E+00 0. -1.
         25    2    1    2    0    0 -0.38226744236E+02  0.13766153012E+03  0.90175069610E+03  0.92151576611E+03  0.12500003372E+03 0.  0.
          2    1    1    2  501    0  0.77527729122E+02  0.14645767304E+02 -0.24958431666E+04  0.24970899382E+04  0.00000000000E+00 0. -1.
          1    1    1    2  502    0 -0.39300984885E+02 -0.15230729742E+03  0.52770371497E+03  0.55064806460E+03  0.00000000000E+00 0. -1.
         22    1    3    3    0    0 -0.20060036841E+02  0.26232796667E+02  0.37691945139E+02  0.50112348053E+02  0.00000000000E+00 0.  1.
         22    1    3    3    0    0 -0.18166707395E+02  0.11142873345E+03  0.86405875096E+03  0.87140341806E+03  0.00000000000E+00 0.  1.
</event>
<event>
 7    1  0.6520971E-006  0.8516444E+02  0.7818608E-02  0.1485088E+00
          2   -1    0    0  502    0  0.00000000000E+00  0.00000000000E+00  0.17085961742E+04  0.17085961742E+04  0.00000000000E+00 0. -1.
          1   -1    0    0  501    0 -0.00000000000E+00 -0.00000000000E+00 -0.12286745950E+04  0.12286745950E+04  0.00000000000E+00 0. -1.
         25    2    1    2    0    0 -0.30374733713E+01 -0.10648517987E+03 -0.11335595348E+03  0.19956768339E+03  0.12501747194E+03 0.  0.
          2    1    1    2  501    0  0.48953087061E+01  0.21488264954E+02 -0.10710143838E+04  0.10712411119E+04  0.00000000000E+00 0. -1.
          1    1    1    2  502    0 -0.18578353348E+01  0.84996914911E+02  0.16642919165E+04  0.16664619739E+04  0.00000000000E+00 0. -1.
         22    1    3    3    0    0 -0.45636530892E+02 -0.11212831908E+03 -0.88109303579E+02  0.14972876233E+03  0.00000000000E+00 0. -1.
         22    1    3    3    0    0  0.42599057520E+02  0.56431392098E+01 -0.25246649897E+02  0.49838921064E+02  0.00000000000E+00 0. -1.
</event>
<event>
 7    1  0.6520971E-006  0.5189573E+02  0.7818608E-02  0.1473763E+00
          2   -1    0    0  502    0  0.00000000000E+00  0.00000000000E+00  0.22936910485E+04  0.22936910485E+04  0.00000000000E+00 0. -1.
          1   -1    0    0  501    0 -0.00000000000E+00 -0.00000000000E+00 -0.10821440509E+04  0.10821440509E+04  0.00000000000E+00 0. -1.
         25    2    1    2    0    0  0.59088805170E+02 -0.46398670670E+02  0.12119089787E+04  0.12206524966E+04  0.12499928489E+03 0.  0.
          2    1    1    2  501    0 -0.19936056944E+02  0.47906081488E+02 -0.10767911138E+04  0.10780406030E+04  0.00000000000E+00 0. -1.
          1    1    1    2  502    0 -0.39152748227E+02 -0.15074108177E+01  0.10764291327E+04  0.10771419998E+04  0.00000000000E+00 0. -1.
         22    1    3    3    0    0  0.48320408774E+02 -0.40923919848E+01  0.14585822711E+03  0.15370826910E+03  0.00000000000E+00 0. -1.
         22    1    3    3    0    0  0.10768396396E+02 -0.42306278685E+02  0.10660507516E+04  0.10669442275E+04  0.00000000000E+00 0. -1.
</event>
<event>
 7    1  0.6520971E-006  0.9899629E+02  0.7818608E-02  0.1474738E+00
          2   -1    0    0  502    0  0.00000000000E+00  0.00000000000E+00  0.16029185210E+03  0.16029185210E+03  0.00000000000E+00 0. -1.
          1   -1    0    0  501    0 -0.00000000000E+00 -0.00000000000E+00 -0.29581195873E+03  0.29581195873E+03  0.00000000000E+00 0. -1.
         25    2    1    2    0    0  0.28040211069E+02  0.89925447786E+02 -0.18176071904E+03  0.23986494939E+03  0.12500158146E+03 0.  0.
          2    1    1    2  501    0  0.20205099680E+02 -0.27968215293E+01 -0.64295169625E+02  0.67453221575E+02  0.00000000000E+00 0. -1.
          1    1    1    2  502    0 -0.48245310748E+02 -0.87128626257E+02  0.11053578203E+03  0.14878563987E+03  0.00000000000E+00 0. -1.
         22    1    3    3    0    0  0.75902726108E+02  0.70284888336E+02 -0.13541295380E+03  0.17040498060E+03  0.00000000000E+00 0. -1.
         22    1    3    3    0    0 -0.47862515040E+02  0.19640559450E+02 -0.46347765241E+02  0.69459968789E+02  0.00000000000E+00 0. -1.
</event>
<event>
 7    1  0.6520971E-006  0.7280192E+02  0.7818608E-02  0.1436714E+00
          2   -1    0    0  502    0  0.00000000000E+00  0.00000000000E+00  0.10871967769E+03  0.10871967769E+03  0.00000000000E+00 0. -1.
          1   -1    0    0  501    0 -0.00000000000E+00 -0.00000000000E+00 -0.68093591696E+03  0.68093591696E+03  0.00000000000E+00 0. -1.
         25    2    1    2    0    0  0.63319727506E+02  0.49371710440E+02 -0.49006245535E+02  0.15644442123E+03  0.12500516449E+03 0.  0.
          2    1    1    2  501    0 -0.32669188950E+02  0.16552346051E+02 -0.55331341894E+03  0.55452411638E+03  0.00000000000E+00 0. -1.
          1    1    1    2  502    0 -0.30650538556E+02 -0.65924056491E+02  0.30103425197E+02  0.78687057046E+02  0.00000000000E+00 0. -1.
         22    1    3    3    0    0  0.80865005062E+02  0.79212933048E+00  0.58727597085E+01  0.81081846421E+02  0.00000000000E+00 0.  1.
         22    1    3    3    0    0 -0.17545277556E+02  0.48579581110E+02 -0.54879005244E+02  0.75362574809E+02  0.00000000000E+00 0.  1.
</event>
<event>
 7    1  0.6520971E-006  0.6973711E+02  0.7818608E-02  0.1469944E+00
          2   -1    0    0  502    0  0.00000000000E+00  0.00000000000E+00  0.51558937180E+03  0.51558937180E+03  0.00000000000E+00 0. -1.
          1   -1    0    0  501    0 -0.00000000000E+00 -0.00000000000E+00 -0.78332193747E+03  0.78332193747E+03  0.00000000000E+00 0. -1.
         25    2    1    2    0    0  0.48778973389E+01  0.41326928575E+02  0.46345630823E+02  0.13965724620E+03  0.12499808003E+03 0.  0.
          2    1    1    2  501    0  0.23778317842E+01  0.29869431860E+02 -0.73332809657E+03  0.73394000727E+03  0.00000000000E+00 0. -1.
          1    1    1    2  502    0 -0.72557291231E+01 -0.71196360435E+02  0.41924990008E+03  0.42531405580E+03  0.00000000000E+00 0. -1.
         22    1    3    3    0    0  0.26197016783E+02 -0.21185397947E+02  0.63087972138E+02  0.71520605443E+02  0.00000000000E+00 0. -1.
         22    1    3    3    0    0 -0.21319119445E+02  0.62512326522E+02 -0.16742341315E+02  0.68136640758E+02  0.00000000000E+00 0. -1.
</event>
<event>
 7    1  0.6520971E-006  0.9731563E+02  0.7818608E-02  0.1478857E+00
          2   -1    0    0  502    0  0.00000000000E+00  0.00000000000E+00  0.80593832445E+02  0.80593832445E+02  0.00000000000E+00 0. -1.
          1   -1    0    0  501    0 -0.00000000000E+00 -0.00000000000E+00 -0.28690504576E+04  0.28690504576E+04  0.00000000000E+00 0. -1.
         25    2    1    2    0    0  0.10989535468E+03 -0.22589789694E+00 -0.19819898018E+04  0.19889659149E+04  0.12499918430E+03 0.  0.
          2    1    1    2  501    0 -0.13832521714E+02  0.14655265658E+02 -0.85281103216E+03  0.85304910295E+03  0.00000000000E+00 0. -1.
          1    1    1    2  502    0 -0.96062832965E+02 -0.14429367761E+02  0.46344208865E+02  0.10762927216E+03  0.00000000000E+00 0. -1.
         22    1    3    3    0    0  0.52033146470E+02 -0.59498330021E+02 -0.73778541142E+03  0.74200728629E+03  0.00000000000E+00 0. -1.
         22    1    3    3    0    0  0.57862208210E+02  0.59272432124E+02 -0.12442043904E+04  0.12469586286E+04  0.00000000000E+00 0. -1.
</event>
<event>
 7    1  0.6520971E-006  0.5782613E+02  0.7818608E-02  0.1451943E+00
          2   -1    0    0  502    0  0.00000000000E+00  0.00000000000E+00  0.15273245054E+04  0.15273245054E+04  0.00000000000E+00 0. -1.
          1   -1    0    0  501    0 -0.00000000000E+00 -0.00000000000E+00 -0.45352917684E+03  0.45352917684E+03  0.00000000000E+00 0. -1.
         25    2    1    2    0    0 -0.48913622029E+02  0.62082925135E+01  0.53223511175E+03  0.54893187112E+03  0.12498359747E+03 0.  0.
          2    1    1    2  501    0  0.37831936716E-01 -0.41176737980E+02 -0.44331075182E+03  0.44521898865E+03  0.00000000000E+00 0. -1.
          1    1    1    2  502    0  0.48875790092E+02  0.34968445467E+02  0.98487096864E+03  0.98670282249E+03  0.00000000000E+00 0. -1.
         22    1    3    3    0    0 -0.68055958578E+02 -0.18730906912E+02  0.15415757828E+03  0.16954945978E+03  0.00000000000E+00 0. -1.
         22    1    3    3    0    0  0.19142336549E+02  0.24939199426E+02  0.37807753347E+03  0.37938241134E+03  0.00000000000E+00 0. -1.
</event>
<event>
 7    1  0.6520971E-006  0.7169168E+02  0.7818608E-02  0.1462989E+00
          2   -1    0    0  502    0  0.00000000000E+00  0.00000000000E+00  0.22194724884E+02  0.22194724884E+02  0.00000000000E+00 0. -1.
          1   -1    0    0  501    0 -0.00000000000E+00 -0.00000000000E+00 -0.14385892317E+04  0.14385892317E+04  0.00000000000E+00 0. -1.
         25    2    1    2    0    0  0.72816206979E+01 -0.57947898211E+02 -0.92739226547E+03  0.93760001393E+03  0.12500556451E+03 0.  0.
          2    1    1    2  501    0 -0.28072214352E+02 -0.12286949059E+02 -0.42443919134E+03  0.42554394071E+03  0.00000000000E+00 0. -1.
          1    1    1    2  502    0  0.20790593654E+02  0.70234847271E+02 -0.64563050054E+02  0.97640001987E+02  0.00000000000E+00 0. -1.
         22    1    3    3    0    0  0.61280677202E+02 -0.42864822005E+01 -0.37820678154E+03  0.38316323536E+03  0.00000000000E+00 0.  1.
         22    1    3    3    0    0 -0.53999056504E+02 -0.53661416011E+02 -0.54918548393E+03  0.55443677857E+03  0.00000000000E+00 0.  1.
</event>
<event>
 7    1  0.6520971E-006  0.1001690E+03  0.7818608E-02  0.1445434E+00
          2   -1    0    0  502    0  0.00000000000E+00  0.00000000000E+00  0.12201483585E+04  0.12201483585E+04  0.00000000000E+00 0. -1.
          1   -1    0    0  501    0 -0.00000000000E+00 -0.00000000000E+00 -0.72872011702E+03  0.72872011702E+03  0.00000000000E+00 0. -1.
         25    2    1    2    0    0  0.11149690277E+03 -0.33489975456E+01  0.13377098627E+03  0.21438879911E+03  0.12500042121E+03 0.  0.
          2    1    1    2  501    0 -0.98373361518E+02 -0.17859775241E+02 -0.68463104168E+03  0.69189302140E+03  0.00000000000E+00 0. -1.
          1    1    1    2  502    0 -0.13123541251E+02  0.21208772786E+02  0.10422882969E+04  0.10425866550E+04  0.00000000000E+00 0. -1.
         22    1    3    3    0    0  0.73562131489E+02  0.16827146718E+02  0.16751199215E+01  0.75480766310E+02  0.00000000000E+00 0. -1.
         22    1    3    3    0    0  0.37934771279E+02 -0.20176144264E+02  0.13209586635E+03  0.13890803280E+03  0.00000000000E+00 0. -1.
</event>
<event>
 7    1  0.6520971E-006  0.1139451E+03  0.7818608E-02  0.1352583E+00
          2   -1    0    0  502    0  0.00000000000E+00  0.00000000000E+00  0.12084849189E+04  0.12084849189E+04  0.00000000000E+00 0. -1.
          1   -1    0    0  501    0 -0.00000000000E+00 -0.00000000000E+00 -0.83848424228E+03  0.83848424228E+03  0.00000000000E+00 0. -1.
         25    2    1    2    0    0 -0.12946819219E+03 -0.77789739205E+02  0.52289962045E+03  0.55844591122E+03  0.12499826549E+03 0.  0.
          2    1    1    2  501    0  0.38225255029E+02  0.25265489214E+02 -0.81591490785E+03  0.81720049677E+03  0.00000000000E+00 0. -1.
          1    1    1    2  502    0  0.91242937164E+02  0.52524249991E+02  0.66301596400E+03  0.67132275318E+03  0.00000000000E+00 0. -1.
         22    1    3    3    0    0 -0.12472242528E+03 -0.76630496637E+01  0.35841804625E+03  0.37957594968E+03  0.00000000000E+00 0.  1.
         22    1    3    3    0    0 -0.47457669126E+01 -0.70126689541E+02  0.16448157420E+03  0.17886996154E+03  0.00000000000E+00 0.  1.
</event>
<event>
 7    1  0.6520971E-006  0.1075210E+03  0.7818608E-02  0.1343521E+00
          2   -1    0    0  502    0  0.00000000000E+00  0.00000000000E+00  0.10346588918E+04  0.10346588918E+04  0.00000000000E+00 0. -1.
          1   -1    0    0  501    0 -0.00000000000E+00 -0.00000000000E+00 -0.18973748639E+03  0.18973748639E+03  0.00000000000E+00 0. -1.
         25    2    1    2    0    0  0.10950097873E+03 -0.11480254394E+03  0.60855763284E+03  0.64120018917E+03  0.12500080661E+03 0.  0.
          2    1    1    2  501    0 -0.73377340453E+02  0.76742715270E+02 -0.15524823199E+03  0.18808426828E+03  0.00000000000E+00 0. -1.
          1    1    1    2  502    0 -0.36123638281E+02  0.38059828674E+02  0.39161200459E+03  0.39511192078E+03  0.00000000000E+00 0. -1.
         22    1    3    3    0    0  0.21649200506E+02  0.27153898572E+02  0.92006939812E+02  0.98342763149E+02  0.00000000000E+00 0. -1.
         22    1    3    3    0    0  0.87851778228E+02 -0.14195644252E+03  0.51655069303E+03  0.54285742602E+03  0.00000000000E+00 0. -1.
</event>
<event>
 7    1  0.6520971E-006  0.1358367E+03  0.7818608E-02  0.1225280E+00
          2   -1    0    0  502    0  0.00000000000E+00  0.00000000000E+00  0.10235370495E+04  0.10235370495E+04  0.00000000000E+00 0. -1.
          1   -1    0    0  501    0 -0.00000000000E+00 -0.00000000000E+00 -0.43827833637E+03  0.43827833637E+03  0.00000000000E+00 0. -1.
         25    2    1    2    0    0 -0.14191540336E+03  0.20689643405E+03  0.11930920830E+03  0.30464167172E+03  0.12500297927E+03 0.  0.
          2    1    1    2  501    0  0.49184906416E+02 -0.11974346714E+03 -0.32824458272E+03  0.35284863473E+03  0.00000000000E+00 0. -1.
          1    1    1    2  502    0  0.92730496941E+02 -0.87152966914E+02  0.79419408759E+03  0.80432507948E+03  0.00000000000E+00 0. -1.
         22    1    3    3    0    0  0.20276388079E+02  0.34002180098E+02  0.35578042621E+02  0.53226659501E+02  0.00000000000E+00 0. -1.
         22    1    3    3    0    0 -0.16219179144E+03  0.17289425396E+03  0.83731165683E+02  0.25141501221E+03  0.00000000000E+00 0. -1.
</event>
<event>
 7    1  0.6520971E-006  0.9898709E+02  0.7818608E-02  0.1345887E+00
          2   -1    0    0  502    0  0.00000000000E+00  0.00000000000E+00  0.14000781788E+04  0.14000781788E+04  0.00000000000E+00 0. -1.
          1   -1    0    0  501    0 -0.00000000000E+00 -0.00000000000E+00 -0.50408593069E+02  0.50408593069E+02  0.00000000000E+00 0. -1.
         25    2    1    2    0    0  0.61726496063E+02 -0.71196164988E+01  0.43259306241E+03  0.45455717356E+03  0.12499846853E+03 0.  0.
          2    1    1    2  501    0  0.38368386027E+02 -0.40582914950E+02 -0.14561810005E+02  0.57716135896E+02  0.00000000000E+00 0. -1.
          1    1    1    2  502    0 -0.10009488209E+03  0.47702531449E+02  0.93163833337E+03  0.93821346246E+03  0.00000000000E+00 0. -1.
         22    1    3    3    0    0  0.75490439209E+02 -0.47369114486E+02  0.35556630732E+03  0.36656518973E+03  0.00000000000E+00 0. -1.
         22    1    3    3    0    0 -0.13763943146E+02  0.40249497987E+02  0.77026755089E+02  0.87991983832E+02  0.00000000000E+00 0. -1.
</event>
<event>
 7    1  0.6520971E-006  0.1050054E+03  0.7818608E-02  0.1319021E+00
          2   -1    0    0  502    0  0.00000000000E+00  0.00000000000E+00  0.18983991854E+04  0.18983991854E+04  0.00000000000E+00 0. -1.
          1   -1    0    0  501    0 -0.00000000000E+00 -0.00000000000E+00 -0.60360354642E+02  0.60360354642E+02  0.00000000000E+00 0. -1.
         25    2    1    2    0    0  0.91333546947E+02 -0.73940498148E+02  0.22127391456E+03  0.27999351018E+03  0.12500082566E+03 0.  0.
          2    1    1    2  501    0  0.13702667478E+02  0.65201478792E+02  0.86317988077E+01  0.67182615931E+02  0.00000000000E+00 0. -1.
          1    1    1    2  502    0 -0.10503621442E+03  0.87390193554E+01  0.16081331174E+04  0.16115834140E+04  0.00000000000E+00 0. -1.
         22    1    3    3    0    0  0.53317347164E+02  0.24968406861E+02  0.11878737569E+03  0.13257677577E+03  0.00000000000E+00 0. -1.
         22    1    3    3    0    0  0.38016199783E+02 -0.98908905009E+02  0.10248653887E+03  0.14741673442E+03  0.00000000000E+00 0. -1.
</event>
<event>
 7    1  0.6520971E-006  0.1774860E+03  0.7818608E-02  0.1303384E+00
          2   -1    0    0  502    0  0.00000000000E+00  0.00000000000E+00  0.21277426593E+03  0.21277426593E+03  0.00000000000E+00 0. -1.
          1   -1    0    0  501    0 -0.00000000000E+00 -0.00000000000E+00 -0.61294244791E+03  0.61294244791E+03  0.00000000000E+00 0. -1.
         25    2    1    2    0    0  0.18524351108E+03  0.69267064966E+02 -0.18319107802E+03  0.29714850578E+03  0.12500071494E+03 0.  0.
          2    1    1    2  501    0 -0.38422478350E+02  0.24212416186E+02 -0.32206415173E+03  0.32525043546E+03  0.00000000000E+00 0. -1.
          1    1    1    2  502    0 -0.14682103273E+03 -0.93479481152E+02  0.10508704776E+03  0.20331777260E+03  0.00000000000E+00 0. -1.
         22    1    3    3    0    0  0.15239825997E+03  0.98264505595E+02 -0.17609081866E+03  0.25276297022E+03  0.00000000000E+00 0. -1.
         22    1    3    3    0    0  0.32845251109E+02 -0.28997440629E+02 -0.71002593602E+01  0.44385535554E+02  0.00000000000E+00 0. -1.
</event>
<event>
 7    1  0.6520971E-006  0.6780666E+02  0.7818608E-02  0.1391432E+00
          2   -1    0    0  502    0  0.00000000000E+00  0.00000000000E+00  0.73857371031E+03  0.73857371031E+03  0.00000000000E+00 0. -1.
          1   -1    0    0  501    0 -0.00000000000E+00 -0.00000000000E+00 -0.12906280454E+04  0.12906280454E+04  0.00000000000E+00 0. -1.
         25    2    1    2    0    0 -0.35044926632E+02  0.17516677953E+02 -0.66975852963E+03  0.68244852678E+03  0.12499809115E+03 0.  0.
          2    1    1    2  501    0 -0.24468825074E+02 -0.50231639853E+02 -0.61167374417E+03  0.61422040861E+03  0.00000000000E+00 0. -1.
          1    1    1    2  502    0  0.59513751706E+02  0.32714961900E+02  0.72937793872E+03  0.73253282033E+03  0.00000000000E+00 0. -1.
         22    1    3    3    0    0  0.39334251638E+02 -0.21933708114E+02 -0.28938415643E+03  0.29286765082E+03  0.00000000000E+00 0.  1.
         22    1    3    3    0    0 -0.74379178270E+02  0.39450386067E+02 -0.38037437320E+03  0.38958087595E+03  0.00000000000E+00 0.  1.
</event>
<event>
 7    1  0.6520971E-006  0.6235432E+02  0.7818608E-02  0.1415695E+00
          2   -1    0    0  502    0  0.00000000000E+00  0.00000000000E+00  0.24496445170E+03  0.24496445170E+03  0.00000000000E+00 0. -1.
          1   -1    0    0  501    0 -0.00000000000E+00 -0.00000000000E+00 -0.21427372277E+04  0.21427372277E+04  0.00000000000E+00 0. -1.
         25    2    1    2    0    0  0.21954531888E+01  0.12620412578E+02 -0.67788686855E+02  0.14277760739E+03  0.12500417704E+03 0.  0.
          2    1    1    2  501    0 -0.10318163008E+02 -0.62148065534E+02 -0.20339238753E+04  0.20348993040E+04  0.00000000000E+00 0. -1.
          1    1    1    2  502    0  0.81227098188E+01  0.49527652956E+02  0.20393978617E+03  0.21002476808E+03  0.00000000000E+00 0. -1.
         22    1    3    3    0    0 -0.86078832164E+01 -0.50412840087E+02 -0.59231202213E+02  0.78255258064E+02  0.00000000000E+00 0.  1.
         22    1    3    3    0    0  0.10803336405E+02  0.63033252665E+02 -0.85574846423E+01  0.64522349325E+02  0.00000000000E+00 0.  1.
</event>
<event>
 7    1  0.6520971E-006  0.9837408E+02  0.7818608E-02  0.1292779E+00
          2   -1    0    0  502    0  0.00000000000E+00  0.00000000000E+00  0.12130093807E+03  0.12130093807E+03  0.00000000000E+00 0. -1.
          1   -1    0    0  501    0 -0.00000000000E+00 -0.00000000000E+00 -0.54118813336E+03  0.54118813336E+03  0.00000000000E+00 0. -1.
         25    2    1    2    0    0  0.11563961309E+02  0.18930264055E+02  0.61325858092E+02  0.14099370099E+03  0.12500513090E+03 0.  0.
          2    1    1    2  501    0 -0.10148962255E+03 -0.27972136359E+02 -0.31741711255E+03  0.33441920884E+03  0.00000000000E+00 0. -1.
          1    1    1    2  502    0  0.89925661245E+02  0.90418723042E+01 -0.16379594083E+03  0.18707616160E+03  0.00000000000E+00 0. -1.
         22    1    3    3    0    0  0.63090796702E+02  0.33091770984E+02  0.21722878974E+02  0.74480852615E+02  0.00000000000E+00 0.  1.
         22    1    3    3    0    0 -0.51526835394E+02 -0.14161506929E+02  0.39602979118E+02  0.66512848376E+02  0.00000000000E+00 0.  1.
</event>
<event>
 7    1  0.6520971E-006  0.6974870E+02  0.7818608E-02  0.1460409E+00
          2   -1    0    0  502    0  0.00000000000E+00  0.00000000000E+00  0.21980097135E+04  0.21980097135E+04  0.00000000000E+00 0. -1.
          1   -1    0    0  501    0 -0.00000000000E+00 -0.00000000000E+00 -0.47358548307E+03  0.47358548307E+03  0.00000000000E+00 0. -1.
         25    2    1    2    0    0 -0.90846956024E+02 -0.35851079534E+02  0.11306408312E+04  0.11417145031E+04  0.12499939247E+03 0.  0.
          2    1    1    2  501    0  0.68499774134E+02  0.12819240279E+02 -0.46521018990E+03  0.47040097020E+03  0.00000000000E+00 0. -1.
          1    1    1    2  502    0  0.22347181890E+02  0.23031839255E+02  0.10589935891E+04  0.10594797232E+04  0.00000000000E+00 0. -1.
         22    1    3    3    0    0  0.30960642452E+02 -0.15199488982E+02  0.20831474907E+03  0.21115070573E+03  0.00000000000E+00 0. -1.
         22    1    3    3    0    0 -0.12180759848E+03 -0.20651590552E+02  0.92232608215E+03  0.93056379742E+03  0.00000000000E+00 0. -1.
</event>
<event>
 7    1  0.1603668E-005  0.6330893E+02  0.7818608E-02  0.1418900E+00
          2   -1    0    0  502    0  0.00000000000E+00  0.00000000000E+00  0.10696526413E+04  0.10696526413E+04  0.00000000000E+00 0. -1.
          1   -1    0    0  501    0 -0.00000000000E+00 -0.00000000000E+00 -0.93188267222E+03  0.93188267222E+03  0.00000000000E+00 0. -1.
         25    2    1    2    0    0  0.68288264830E+02  0.40113601898E+02 -0.37451667568E+03  0.40269208460E+03  0.12500314584E+03 0.  0.
          2    1    1    2  501    0 -0.54606943826E+01 -0.47914461092E+02 -0.54125598337E+03  0.54340008677E+03  0.00000000000E+00 0. -1.
          1    1    1    2  502    0 -0.62827570448E+02  0.78008591942E+01  0.10535426282E+04  0.10554431422E+04  0.00000000000E+00 0. -1.
         22    1    3    3    0    0 -0.81286786768E+01  0.32084594376E+02 -0.27489671451E+03  0.27688210535E+03  0.00000000000E+00 0.  1.
         22    1    3    3    0    0  0.76416943507E+02  0.80290075218E+01 -0.99619961167E+02  0.12580997925E+03  0.00000000000E+00 0.  1.
</event>
<event>
 7    1  0.6520971E-006  0.1034987E+03  0.7818608E-02  0.1368703E+00
          2   -1    0    0  502    0  0.00000000000E+00  0.00000000000E+00  0.17307019053E+04  0.17307019053E+04  0.00000000000E+00 0. -1.
          1   -1    0    0  501    0 -0.00000000000E+00 -0.00000000000E+00 -0.12736166501E+03  0.12736166501E+03  0.00000000000E+00 0. -1.
         25    2    1    2    0    0  0.11608122198E+03 -0.62139548949E+02  0.27080142250E+03  0.32602788903E+03  0.12499840142E+03 0.  0.
          2    1    1    2  501    0 -0.99155397225E+02  0.21460126970E+02 -0.73518079955E+02  0.12528861851E+03  0.00000000000E+00 0. -1.
          1    1    1    2  502    0 -0.16925824757E+02  0.40679421979E+02  0.14060568977E+04  0.14067470627E+04  0.00000000000E+00 0. -1.
         22    1    3    3    0    0  0.13517969674E+03 -0.63506925014E+02  0.26781969971E+03  0.30664975377E+03  0.00000000000E+00 0.  1.
         22    1    3    3    0    0 -0.19098474755E+02  0.13673760644E+01  0.29817227886E+01  0.19378135258E+02  0.00000000000E+00 0.  1.
</event>
<event>
 7    1  0.6520971E-006  0.9351595E+02  0.7818608E-02  0.1342428E+00
          2   -1    0    0  502    0  0.00000000000E+00  0.00000000000E+00  0.67475208282E+03  0.67475208282E+03  0.00000000000E+00 0. -1.
          1   -1    0    0  501    0 -0.00000000000E+00 -0.00000000000E+00 -0.10138096496E+04  0.10138096496E+04  0.00000000000E+00 0. -1.
         25    2    1    2    0    0  0.92068759033E+02 -0.43760958578E+01 -0.13080548510E+02  0.15585787751E+03  0.12499908251E+03 0.  0.
          2    1    1    2  501    0 -0.76780067283E+02 -0.54576715673E+02 -0.92540635406E+03  0.93018853828E+03  0.00000000000E+00 0. -1.
          1    1    1    2  502    0 -0.15288691749E+02  0.58952811531E+02  0.59942933582E+03  0.60251531659E+03  0.00000000000E+00 0. -1.
         22    1    3    3    0    0  0.17639294302E+02  0.36494835790E+02 -0.49058377559E+02  0.63637584426E+02  0.00000000000E+00 0. -1.
         22    1    3    3    0    0  0.74429464731E+02 -0.40870931648E+02  0.35977829049E+02  0.92220293087E+02  0.00000000000E+00 0. -1.
</event>
<event>
 7    1  0.6520971E-006  0.1128574E+03  0.7818608E-02  0.1321458E+00
          2   -1    0    0  502    0  0.00000000000E+00  0.00000000000E+00  0.71696660268E+03  0.71696660268E+03  0.00000000000E+00 0. -1.
          1   -1    0    0  501    0 -0.00000000000E+00 -0.00000000000E+00 -0.15360161619E+04  0.15360161619E+04  0.00000000000E+00 0. -1.
         25    2    1    2    0    0  0.14871268332E+03 -0.22588441162E+02 -0.31382170291E+03  0.36977692122E+03  0.12500084157E+03 0.  0.
          2    1    1    2  501    0 -0.96430164727E+02  0.53340543246E+02 -0.11903318121E+04  0.11954220230E+04  0.00000000000E+00 0. -1.
          1    1    1    2  502    0 -0.52282518594E+02 -0.30752102084E+02  0.68510395570E+03  0.68778382043E+03  0.00000000000E+00 0. -1.
         22    1    3    3    0    0  0.13714982809E+03  0.73253391070E+00 -0.14742784269E+03  0.20135933242E+03  0.00000000000E+00 0.  1.
         22    1    3    3    0    0  0.11562855233E+02 -0.23320975073E+02 -0.16639386022E+03  0.16841758880E+03  0.00000000000E+00 0.  1.
</event>
<event>
 7    1  0.6520971E-006  0.2546996E+03  0.7818608E-02  0.1340276E+00
          2   -1    0    0  502    0  0.00000000000E+00  0.00000000000E+00  0.15421249475E+04  0.15421249475E+04  0.00000000000E+00 0. -1.
          1   -1    0    0  501    0 -0.00000000000E+00 -0.00000000000E+00 -0.18148533781E+03  0.18148533781E+03  0.00000000000E+00 0. -1.
         25    2    1    2    0    0 -0.15925430311E+03 -0.19774448833E+03  0.50066595892E+03  0.57511476084E+03  0.12500307993E+03 0.  0.
          2    1    1    2  501    0  0.17707505703E+03  0.18355296428E+03 -0.31276518197E+02  0.25695425100E+03  0.00000000000E+00 0. -1.
          1    1    1    2  502    0 -0.17820753916E+02  0.14191524051E+02  0.89125016892E+03  0.89154127343E+03  0.00000000000E+00 0. -1.
         22    1    3    3    0    0 -0.49489242053E+02 -0.66959991506E+02  0.30146602657E+03  0.31275324254E+03  0.00000000000E+00 0.  1.
         22    1    3    3    0    0 -0.10976506106E+03 -0.13078449682E+03  0.19919993235E+03  0.26236151831E+03  0.00000000000E+00 0.  1.
</event>
<event>
 7    1  0.6520971E-006  0.1008791E+03  0.7818608E-02  0.1398014E+00
          2   -1    0    0  502    0  0.00000000000E+00  0.00000000000E+00  0.37905814856E+04  0.37905814856E+04  0.00000000000E+00 0. -1.
          1   -1    0    0  501    0 -0.00000000000E+00 -0.00000000000E+00 -0.67379706478E+03  0.67379706478E+03  0.00000000000E+00 0. -1.
         25    2    1    2    0    0  0.32091462909E+02  0.11359258960E+03  0.16489016899E+04  0.16578408036E+04  0.12500483533E+03 0.  0.
          2    1    1    2  501    0  0.11847363371E+01 -0.10084373114E+03 -0.66537894861E+03  0.67297845951E+03  0.00000000000E+00 0. -1.
          1    1    1    2  502    0 -0.33276199246E+02 -0.12748858460E+02  0.21332616795E+04  0.21335592873E+04  0.00000000000E+00 0. -1.
         22    1    3    3    0    0 -0.13884086781E+02 -0.12657959183E+02  0.60966541405E+03  0.60995484168E+03  0.00000000000E+00 0.  1.
         22    1    3    3    0    0  0.45975549690E+02  0.12625054878E+03  0.10392362758E+04  0.10478859619E+04  0.00000000000E+00 0.  1.
</event>
<event>
 7    1  0.6520971E-006  0.6800871E+02  0.7818608E-02  0.1444666E+00
          2   -1    0    0  502    0  0.00000000000E+00  0.00000000000E+00  0.24401585612E+04  0.24401585612E+04  0.00000000000E+00 0. -1.
          1   -1    0    0  501    0 -0.00000000000E+00 -0.00000000000E+00 -0.31447658687E+03  0.31447658687E+03  0.00000000000E+00 0. -1.
         25    2    1    2    0    0  0.54773892946E+02  0.35188912546E+02  0.23263023591E+03  0.27199262648E+03  0.12499889314E+03 0.  0.
          2    1    1    2  501    0 -0.68203117862E+02 -0.77129394535E+00 -0.29069172194E+03  0.29858656598E+03  0.00000000000E+00 0. -1.
          1    1    1    2  502    0  0.13429224916E+02 -0.34417618600E+02  0.21837434603E+04  0.21840559556E+04  0.00000000000E+00 0. -1.
         22    1    3    3    0    0 -0.32306148837E+02 -0.35514448074E+01  0.12061587894E+03  0.12491793413E+03  0.00000000000E+00 0. -1.
         22    1    3    3    0    0  0.87080041783E+02  0.38740357353E+02  0.11201435696E+03  0.14707469235E+03  0.00000000000E+00 0. -1.
</event>
<event>
 7    1  0.6520971E-006  0.8314247E+02  0.7818608E-02  0.1323133E+00
          2   -1    0    0  502    0  0.00000000000E+00  0.00000000000E+00  0.15319192454E+03  0.15319192454E+03  0.00000000000E+00 0. -1.
          1   -1    0    0  501    0 -0.00000000000E+00 -0.00000000000E+00 -0.39818025411E+04  0.39818025411E+04  0.00000000000E+00 0. -1.
         25    2    1    2    0    0 -0.20966944698E+02  0.47078540429E+02 -0.14275931729E+04  0.14339814425E+04  0.12499803247E+03 0.  0.
          2    1    1    2  501    0  0.95503660176E+02 -0.10241767528E+02 -0.25385154976E+04  0.25403320205E+04  0.00000000000E+00 0. -1.
          1    1    1    2  502    0 -0.74536715478E+02 -0.36836772902E+02  0.13749805395E+03  0.16068100271E+03  0.00000000000E+00 0. -1.
         22    1    3    3    0    0 -0.22180633277E+01 -0.38807373606E+02 -0.23885139507E+03  0.24199363830E+03  0.00000000000E+00 0. -1.
         22    1    3    3    0    0 -0.18748881370E+02  0.85885914035E+02 -0.11887417779E+04  0.11919878042E+04  0.00000000000E+00 0. -1.
</event>
<event>
 7    1  0.6520971E-006  0.5480469E+02  0.7818608E-02  0.1517113E+00
          2   -1    0    0  502    0  0.00000000000E+00  0.00000000000E+00  0.11708836920E+03  0.11708836920E+03  0.00000000000E+00 0. -1.
          1   -1    0    0  501    0 -0.00000000000E+00 -0.00000000000E+00 -0.10127086703E+04  0.10127086703E+04  0.00000000000E+00 0. -1.
         25    2    1    2    0    0  0.20668295496E+02  0.28471016122E+02  0.15085071404E+02  0.13072191631E+03  0.12499153102E+03 0.  0.
          2    1    1    2  501    0 -0.48107016232E+02 -0.26772235474E+02 -0.94973831032E+03  0.95133269454E+03  0.00000000000E+00 0. -1.
          1    1    1    2  502    0  0.27438720736E+02 -0.16987806486E+01  0.39032937856E+02  0.47742428604E+02  0.00000000000E+00 0. -1.
         22    1    3    3    0    0  0.56946282935E+02 -0.18800835747E+02  0.33064331858E+02  0.68480658628E+02  0.00000000000E+00 0. -1.
         22    1    3    3    0    0 -0.36277987439E+02  0.47271851869E+02 -0.17979260454E+02  0.62241257685E+02  0.00000000000E+00 0. -1.
</event>
<event>
 7    1  0.6520971E-006  0.8322456E+02  0.7818608E-02  0.1391776E+00
          2   -1    0    0  502    0  0.00000000000E+00  0.00000000000E+00  0.87079821256E+03  0.87079821256E+03  0.00000000000E+00 0. -1.
          1   -1    0    0  501    0 -0.00000000000E+00 -0.00000000000E+00 -0.11513212149E+04  0.11513212149E+04  0.00000000000E+00 0. -1.
         25    2    1    2    0    0  0.88945222263E+02  0.26514544727E+02 -0.90827515734E+03  0.92152201898E+03  0.12499918546E+03 0.  0.
          2    1    1    2  501    0 -0.55127639713E+02 -0.56802057906E+02 -0.22917955555E+03  0.24246401615E+03  0.00000000000E+00 0. -1.
          1    1    1    2  502    0 -0.33817582550E+02  0.30287513179E+02  0.85693171060E+03  0.85813339229E+03  0.00000000000E+00 0. -1.
         22    1    3    3    0    0  0.10113137418E+03  0.51533271350E+02 -0.84236571839E+03  0.84997837409E+03  0.00000000000E+00 0. -1.
         22    1    3    3    0    0 -0.12186151922E+02 -0.25018726623E+02 -0.65909438953E+02  0.71543644886E+02  0.00000000000E+00 0. -1.
</event>
<event>
 7    1  0.6520971E-006  0.6548785E+02  0.7818608E-02  0.1429148E+00
          2   -1    0    0  502    0  0.00000000000E+00  0.00000000000E+00  0.40232479588E+02  0.40232479588E+02  0.00000000000E+00 0. -1.
          1   -1    0    0  501    0 -0.00000000000E+00 -0.00000000000E+00 -0.81464397811E+03  0.81464397811E+03  0.00000000000E+00 0. -1.
         25    2    1    2    0    0  0.47618390937E+02  0.28792716622E+02 -0.27065487210E+03  0.30327395409E+03  0.12499799898E+03 0.  0.
          2    1    1    2  501    0 -0.67845233600E+02  0.92737034354E+01 -0.50386405687E+03  0.50849578671E+03  0.00000000000E+00 0. -1.
          1    1    1    2  502    0  0.20226842662E+02 -0.38066420058E+02  0.10743045601E+00  0.43106716894E+02  0.00000000000E+00 0. -1.
         22    1    3    3    0    0  0.23329445983E+02 -0.14175110143E+02  0.85746198151E+00  0.27311756416E+02  0.00000000000E+00 0. -1.
         22    1    3    3    0    0  0.24288944954E+02  0.42967826765E+02 -0.27151233408E+03  0.27596219767E+03  0.00000000000E+00 0. -1.
</event>
<event>
 7    1  0.6520971E-006  0.2038583E+03  0.7818608E-02  0.1271556E+00
          2   -1    0    0  502    0  0.00000000000E+00  0.00000000000E+00  0.96952406657E+03  0.96952406657E+03  0.00000000000E+00 0. -1.
          1   -1    0    0  501    0 -0.00000000000E+00 -0.00000000000E+00 -0.96587039531E+03  0.96587039531E+03  0.00000000000E+00 0. -1.
         25    2    1    2    0    0 -0.16645960584E+03  0.48512014853E+02 -0.16340652774E+02  0.21436804345E+03  0.12499770060E+03 0.  0.
          2    1    1    2  501    0  0.18310253962E+03 -0.99185650450E+02 -0.83692798581E+03  0.86244581668E+03  0.00000000000E+00 0. -1.
          1    1    1    2  502    0 -0.16642933778E+02  0.50673635597E+02  0.85692230985E+03  0.85858060175E+03  0.00000000000E+00 0. -1.
         22    1    3    3    0    0 -0.22230041574E+01  0.38875889554E+02  0.22981073929E+02  0.45215111357E+02  0.00000000000E+00 0. -1.
         22    1    3    3    0    0 -0.16423660168E+03  0.96361252991E+01 -0.39321726703E+02  0.16915293209E+03  0.00000000000E+00 0. -1.
</event>
<event>
 7    1  0.6520971E-006  0.1314266E+03  0.7818608E-02  0.1227745E+00
          2   -1    0    0  502    0  0.00000000000E+00  0.00000000000E+00  0.24993521487E+04  0.24993521487E+04  0.00000000000E+00 0. -1.
          1   -1    0    0  501    0 -0.00000000000E+00 -0.00000000000E+00 -0.10000007779E+03  0.10000007779E+03  0.00000000000E+00 0. -1.
         25    2    1    2    0    0 -0.58957549061E+02  0.68502228091E+02  0.16971279773E+04  0.17041235159E+04  0.12500015309E+03 0.  0.
          2    1    1    2  501    0  0.12827237747E+03  0.39347671942E+02 -0.41572130057E+02  0.14046452971E+03  0.00000000000E+00 0. -1.
          1    1    1    2  502    0 -0.69314828413E+02 -0.10784990003E+03  0.74379622363E+03  0.75476418083E+03  0.00000000000E+00 0. -1.
         22    1    3    3    0    0 -0.34170735719E+02  0.38922709181E+02  0.15790446534E+04  0.15798938679E+04  0.00000000000E+00 0.  1.
         22    1    3    3    0    0 -0.24786813342E+02  0.29579518910E+02  0.11808332396E+03  0.12422964804E+03  0.00000000000E+00 0.  1.
</event>
<event>
 7    1  0.6520971E-006  0.8999050E+02  0.7818608E-02  0.1402589E+00
          2   -1    0    0  502    0  0.00000000000E+00  0.00000000000E+00  0.22261529326E+04  0.22261529326E+04  0.00000000000E+00 0. -1.
          1   -1    0    0  501    0 -0.00000000000E+00 -0.00000000000E+00 -0.33784619339E+03  0.33784619339E+03  0.00000000000E+00 0. -1.
         25    2    1    2    0    0 -0.10367399078E+03 -0.47537182047E+02  0.43872885760E+02  0.17481009753E+03  0.12500264018E+03 0.  0.
          2    1    1    2  501    0  0.14761828663E+02  0.35585535304E+02 -0.27005938622E+03  0.27279353730E+03  0.00000000000E+00 0. -1.
          1    1    1    2  502    0  0.88912162120E+02  0.11951646743E+02  0.21144932396E+04  0.21163954911E+04  0.00000000000E+00 0. -1.
         22    1    3    3    0    0 -0.11670077135E+03 -0.36211510134E+02 -0.56951176722E+01  0.12232243402E+03  0.00000000000E+00 0.  1.
         22    1    3    3    0    0  0.13026780566E+02 -0.11325671913E+02  0.49568003432E+02  0.52487663507E+02  0.00000000000E+00 0.  1.
</event>
<event>
 7    1  0.6520971E-006  0.2565080E+03  0.7818608E-02  0.1240717E+00
          2   -1    0    0  502    0  0.00000000000E+00  0.00000000000E+00  0.20025511337E+04  0.20025511337E+04  0.00000000000E+00 0. -1.
          1   -1    0    0  501    0 -0.00000000000E+00 -0.00000000000E+00 -0.29074357108E+03  0.29074357108E+03  0.00000000000E+00 0. -1.
         25    2    1    2    0    0  0.10135856039E+03  0.24436837682E+03  0.24572304187E+03  0.38208896326E+03  0.12499080439E+03 0.  0.
          2    1    1    2  501    0 -0.44351731113E+02 -0.25194005839E+03 -0.14837014172E+03  0.29572718514E+03  0.00000000000E+00 0. -1.
          1    1    1    2  502    0 -0.57006829274E+02  0.75716815655E+01  0.16144546625E+04  0.16154785564E+04  0.00000000000E+00 0. -1.
         22    1    3    3    0    0  0.20791445574E+02  0.11858387700E+03  0.38025962529E+02  0.12625527284E+03  0.00000000000E+00 0. -1.
         22    1    3    3    0    0  0.80567114813E+02  0.12578449982E+03  0.20769707934E+03  0.25583369042E+03  0.00000000000E+00 0. -1.
</event>
<event>
 7    1  0.6520971E-006  0.7067473E+02  0.7818608E-02  0.1490301E+00
          2   -1    0    0  502    0  0.00000000000E+00  0.00000000000E+00  0.52631571604E+03  0.52631571604E+03  0.00000000000E+00 0. -1.
          1   -1    0    0  501    0 -0.00000000000E+00 -0.00000000000E+00 -0.64514837332E+03  0.64514837332E+03  0.00000000000E+00 0. -1.
         25    2    1    2    0    0 -0.43035496058E+02 -0.67242862032E+02  0.67747048389E+01  0.14848045357E+03  0.12500756798E+03 0.  0.
          2    1    1    2  501    0  0.54742798167E+02  0.44468705518E+02 -0.57176161923E+03  0.57609512143E+03  0.00000000000E+00 0. -1.
          1    1    1    2  502    0 -0.11707302109E+02  0.22774156515E+02  0.44615425710E+03  0.44688851435E+03  0.00000000000E+00 0. -1.
         22    1    3    3    0    0  0.23841768320E+02 -0.65687552678E+02 -0.25265844535E+02  0.74307788243E+02  0.00000000000E+00 0.  1.
         22    1    3    3    0    0 -0.66877264377E+02 -0.15553093542E+01  0.32040549374E+02  0.74172665329E+02  0.00000000000E+00 0.  1.
</event>
<event>
 7    1  0.6520971E-006  0.5851544E+02  0.7818608E-02  0.1414185E+00
          2   -1    0    0  502    0  0.00000000000E+00  0.00000000000E+00  0.55987782495E+03  0.55987782495E+03  0.00000000000E+00 0. -1.
          1   -1    0    0  501    0 -0.00000000000E+00 -0.00000000000E+00 -0.30750521643E+03  0.30750521643E+03  0.00000000000E+00 0. -1.
         25    2    1    2    0    0 -0.43035068463E+02  0.69046563956E+02 -0.78952780466E+02  0.16875218306E+03  0.12499725049E+03 0.  0.
          2    1    1    2  501    0  0.55664038350E+02 -0.16429544862E+02 -0.17759702586E+03  0.18683982098E+03  0.00000000000E+00 0. -1.
          1    1    1    2  502    0 -0.12628969887E+02 -0.52617019095E+02  0.50892241484E+03  0.51179103734E+03  0.00000000000E+00 0. -1.
         22    1    3    3    0    0 -0.77302154962E+02  0.43593913509E+02 -0.12289904508E+02  0.89594052311E+02  0.00000000000E+00 0. -1.
         22    1    3    3    0    0  0.34267086498E+02  0.25452650447E+02 -0.66662875958E+02  0.79158130744E+02  0.00000000000E+00 0. -1.
</event>
<event>
 7    1  0.6520971E-006  0.5903423E+02  0.7818608E-02  0.1420003E+00
          2   -1    0    0  502    0  0.00000000000E+00  0.00000000000E+00  0.22404991665E+04  0.22404991665E+04  0.00000000000E+00 0. -1.
          1   -1    0    0  501    0 -0.00000000000E+00 -0.00000000000E+00 -0.12931363943E+04  0.12931363943E+04  0.00000000000E+00 0. -1.
         25    2    1    2    0    0  0.49472251082E+02  0.56335468623E+02  0.64773854973E+03  0.66393620732E+03  0.12499947972E+03 0.  0.
          2    1    1    2  501    0 -0.58742855674E+02 -0.59012355481E+01 -0.12839442215E+04  0.12853008642E+04  0.00000000000E+00 0. -1.
          1    1    1    2  502    0  0.92706045915E+01 -0.50434233075E+02  0.15835684440E+04  0.15843984892E+04  0.00000000000E+00 0. -1.
         22    1    3    3    0    0  0.37407248114E+02  0.47190123646E+02  0.64588232962E+03  0.64868343103E+03  0.00000000000E+00 0.  1.
         22    1    3    3    0    0  0.12065002969E+02  0.91453449774E+01  0.18562201126E+01  0.15252776288E+02  0.00000000000E+00 0.  1.
</event>
<event>
 7    1  0.6520971E-006  0.8099275E+02  0.7818608E-02  0.1367278E+00
          2   -1    0    0  502    0  0.00000000000E+00  0.00000000000E+00  0.13415020936E+04  0.13415020936E+04  0.00000000000E+00 0. -1.
          1   -1    0    0  501    0 -0.00000000000E+00 -0.00000000000E+00 -0.10713754972E+04  0.10713754972E+04  0.00000000000E+00 0. -1.
         25    2    1    2    0    0 -0.19418829669E+02 -0.24391484235E+02  0.24447360577E+03  0.27635837485E+03  0.12503828206E+03 0.  0.
          2    1    1    2  501    0 -0.15124069132E+02 -0.54929672544E+02 -0.10529308231E+04  0.10544711113E+04  0.00000000000E+00 0. -1.
          1    1    1    2  502    0  0.34542898801E+02  0.79321156779E+02  0.10785838137E+04  0.10820481047E+04  0.00000000000E+00 0. -1.
         22    1    3    3    0    0 -0.34344426809E+02 -0.70649737520E+01  0.45617735372E+01  0.35359062272E+02  0.00000000000E+00 0. -1.
         22    1    3    3    0    0  0.14925597140E+02 -0.17326510483E+02  0.23991183223E+03  0.24099931257E+03  0.00000000000E+00 0. -1.
</event>
<event>
 7    1  0.6520971E-006  0.2662012E+03  0.7818608E-02  0.1212731E+00
          2   -1    0    0  502    0  0.00000000000E+00  0.00000000000E+00  0.28658428356E+03  0.28658428356E+03  0.00000000000E+00 0. -1.
          1   -1    0    0  501    0 -0.00000000000E+00 -0.00000000000E+00 -0.49078973840E+03  0.49078973840E+03  0.00000000000E+00 0. -1.
         25    2    1    2    0    0  0.16581795509E+03 -0.24865542478E+03 -0.20481517347E+03  0.38327386645E+03  0.12499794765E+03 0.  0.
          2    1    1    2  501    0 -0.98107953796E+02  0.21855808577E+03 -0.10786670151E+03  0.26273186474E+03  0.00000000000E+00 0. -1.
          1    1    1    2  502    0 -0.67710001296E+02  0.30097339003E+02  0.10847642014E+03  0.13136829076E+03  0.00000000000E+00 0. -1.
         22    1    3    3    0    0  0.23374640997E+02 -0.48851292390E+02  0.12407076855E+02  0.55558601188E+02  0.00000000000E+00 0.  1.
         22    1    3    3    0    0  0.14244331410E+03 -0.19980413239E+03 -0.21722225033E+03  0.32771526526E+03  0.00000000000E+00 0.  1.
</event>
<event>
 7    1  0.6520971E-006  0.1851364E+03  0.7818608E-02  0.1256919E+00
          2   -1    0    0  502    0  0.00000000000E+00  0.00000000000E+00  0.20935887403E+04  0.20935887403E+04  0.00000000000E+00 0. -1.
          1   -1    0    0  501    0 -0.00000000000E+00 -0.00000000000E+00 -0.47800160335E+03  0.47800160335E+03  0.00000000000E+00 0. -1.
         25    2    1    2    0    0  0.10187086843E+03 -0.11935462926E+03 -0.51603960621E+02  0.20713839578E+03  0.12498057806E+03 0.  0.
          2    1    1    2  501    0  0.61201029905E+02  0.29059264029E+02 -0.34098144835E+03  0.34764688263E+03  0.00000000000E+00 0. -1.
          1    1    1    2  502    0 -0.16307189833E+03  0.90295365233E+02  0.20081725460E+04  0.20168050653E+04  0.00000000000E+00 0. -1.
         22    1    3    3    0    0 -0.30526468409E+00 -0.14306569751E+02 -0.58703865335E+02  0.60422801406E+02  0.00000000000E+00 0.  1.
         22    1    3    3    0    0  0.10217613311E+03 -0.10504805951E+03  0.70999047137E+01  0.14671559437E+03  0.00000000000E+00 0.  1.
</event>
<event>
 7    1  0.6520971E-006  0.1797154E+03  0.7818608E-02  0.1245818E+00
          2   -1    0    0  502    0  0.00000000000E+00  0.00000000000E+00  0.23054652473E+04  0.23054652473E+04  0.00000000000E+00 0. -1.
          1   -1    0    0  501    0 -0.00000000000E+00 -0.00000000000E+00 -0.48894853991E+03  0.48894853991E+03  0.00000000000E+00 0. -1.
         25    2    1    2    0    0 -0.53893456098E+02 -0.24328222710E+03  0.48379759803E+03  0.55836874890E+03  0.12499918902E+03 0.  0.
          2    1    1    2  501    0  0.77639399635E+01  0.77571325325E+02 -0.44411441609E+03  0.45090487229E+03  0.00000000000E+00 0. -1.
          1    1    1    2  502    0  0.46129516134E+02  0.16571090177E+03  0.17768335254E+04  0.17851401660E+04  0.00000000000E+00 0. -1.
         22    1    3    3    0    0 -0.93537260129E+02 -0.15233006771E+03  0.33100806788E+03  0.37619145334E+03  0.00000000000E+00 0. -1.
         22    1    3    3    0    0  0.39643804032E+02 -0.90952159382E+02  0.15278953014E+03  0.18217729555E+03  0.00000000000E+00 0. -1.
</event>
<event>
 7    1  0.6520971E-006  0.4531439E+02  0.7818608E-02  0.1518495E+00
          2   -1    0    0  502    0  0.00000000000E+00  0.00000000000E+00  0.24280729778E+04  0.24280729778E+04  0.00000000000E+00 0. -1.
          1   -1    0    0  501    0 -0.00000000000E+00 -0.00000000000E+00 -0.19755531485E+02  0.19755531485E+02  0.00000000000E+00 0. -1.
         25    2    1    2    0    0  0.17650133629E+02  0.73056997596E+02  0.63822817232E+03  0.65468124029E+03  0.12499389715E+03 0.  0.
          2    1    1    2  501    0 -0.16107927493E+02 -0.28735106641E+02  0.12867365241E+02  0.35365813578E+02  0.00000000000E+00 0. -1.
          1    1    1    2  502    0 -0.15422061362E+01 -0.44321890955E+02  0.17572219088E+04  0.17577814554E+04  0.00000000000E+00 0. -1.
         22    1    3    3    0    0  0.44873697459E+02 -0.14984694975E+01  0.88346812981E+02  0.99101228541E+02  0.00000000000E+00 0. -1.
         22    1    3    3    0    0 -0.27223563829E+02  0.74555467093E+02  0.54988135934E+03  0.55558001174E+03  0.00000000000E+00 0. -1.
</event>
<event>
 7    1  0.6520971E-006  0.6143315E+02  0.7818608E-02  0.1514463E+00
          2   -1    0    0  502    0  0.00000000000E+00  0.00000000000E+00  0.27904587811E+03  0.27904587811E+03  0.00000000000E+00 0. -1.
          1   -1    0    0  501    0 -0.00000000000E+00 -0.00000000000E+00 -0.35598836608E+04  0.35598836608E+04  0.00000000000E+00 0. -1.
         25    2    1    2    0    0  0.53233157994E+02  0.59735208378E+02 -0.18351756364E+04  0.18411670313E+04  0.12499742551E+03 0.  0.
          2    1    1    2  501    0 -0.46360987358E+02 -0.35733706531E+02 -0.17206491598E+04  0.17216444959E+04  0.00000000000E+00 0. -1.
          1    1    1    2  502    0 -0.68721706362E+01 -0.24001501847E+02  0.27498701353E+03  0.27611801178E+03  0.00000000000E+00 0. -1.
         22    1    3    3    0    0 -0.12761003461E+02  0.18682293454E+02 -0.57467173634E+02  0.61760402715E+02  0.00000000000E+00 0.  1.
         22    1    3    3    0    0  0.65994161455E+02  0.41052914923E+02 -0.17777084628E+04  0.17794066286E+04  0.00000000000E+00 0.  1.
</event>
<event>
 7    1  0.1072611E-005  0.8137242E+02  0.7818608E-02  0.1333206E+00
          2   -1    0    0  502    0  0.00000000000E+00  0.00000000000E+00  0.27116398698E+04  0.27116398698E+04  0.00000000000E+00 0. -1.
          1   -1    0    0  501    0 -0.00000000000E+00 -0.00000000000E+00 -0.85111850743E+03  0.85111850743E+03  0.00000000000E+00 0. -1.
         25    2    1    2    0    0 -0.11396179871E+03  0.91481929178E+02 -0.17381866953E+03  0.25921947118E+03  0.12500227769E+03 0.  0.
          2    1    1    2  501    0  0.72714768025E+02 -0.21521596400E+02 -0.63171342428E+03  0.63624874618E+03  0.00000000000E+00 0. -1.
          1    1    1    2  502    0  0.41247030688E+02 -0.69960332778E+02  0.26660534562E+04  0.26672901599E+04  0.00000000000E+00 0. -1.
         22    1    3    3    0    0 -0.11513310265E+03  0.24408844235E+02 -0.14353562330E+03  0.18561761274E+03  0.00000000000E+00 0.  1.
         22    1    3    3    0    0  0.11713039405E+01  0.67073084942E+02 -0.30283046232E+02  0.73601858439E+02  0.00000000000E+00 0.  1.
</event>
<event>
 7    1  0.6520971E-006  0.3824506E+02  0.7818608E-02  0.1522685E+00
          2   -1    0    0  502    0  0.00000000000E+00  0.00000000000E+00  0.21010329803E+02  0.21010329803E+02  0.00000000000E+00 0. -1.
          1   -1    0    0  501    0 -0.00000000000E+00 -0.00000000000E+00 -0.41880574397E+04  0.41880574397E+04  0.00000000000E+00 0. -1.
         25    2    1    2    0    0 -0.18536250070E+02  0.23696483585E+02 -0.24326250979E+04  0.24360200181E+04  0.12499418356E+03 0.  0.
          2    1    1    2  501    0 -0.18776191930E+02 -0.32983860604E+02 -0.17341807985E+04  0.17345960689E+04  0.00000000000E+00 0. -1.
          1    1    1    2  502    0  0.37312442000E+02  0.92873770191E+01 -0.24121351214E+00  0.38451682459E+02  0.00000000000E+00 0. -1.
         22    1    3    3    0    0 -0.31030266310E+02 -0.46236483305E+02 -0.86926098066E+03  0.87104267537E+03  0.00000000000E+00 0.  1.
         22    1    3    3    0    0  0.12494016240E+02  0.69932966890E+02 -0.15633641173E+04  0.15649773428E+04  0.00000000000E+00 0.  1.
</event>
<event>
 7    1  0.6520971E-006  0.8280232E+02  0.7818608E-02  0.1354512E+00
          2   -1    0    0  502    0  0.00000000000E+00  0.00000000000E+00  0.49395231783E+03  0.49395231783E+03  0.00000000000E+00 0. -1.
          1   -1    0    0  501    0 -0.00000000000E+00 -0.00000000000E+00 -0.95225066193E+03  0.95225066193E+03  0.00000000000E+00 0. -1.
         25    2    1    2    0    0  0.32556371182E+02 -0.28650734768E+02 -0.22698793605E+03  0.26273295302E+03  0.12499719830E+03 0.  0.
          2    1    1    2  501    0 -0.28941127508E+02 -0.54865166975E+02 -0.70234315026E+03  0.70507707105E+03  0.00000000000E+00 0. -1.
          1    1    1    2  502    0 -0.36152436744E+01  0.83515901743E+02  0.47103274220E+03  0.47839295569E+03  0.00000000000E+00 0. -1.
         22    1    3    3    0    0  0.18833196317E+02 -0.62417996232E+02 -0.21452241437E+03  0.22421097610E+03  0.00000000000E+00 0.  1.
         22    1    3    3    0    0  0.13723174865E+02  0.33767261464E+02 -0.12465521681E+02  0.38521976921E+02  0.00000000000E+00 0.  1.
</event>
<event>
 7    1  0.6520971E-006  0.4565245E+02  0.7818608E-02  0.1500062E+00
          2   -1    0    0  502    0  0.00000000000E+00  0.00000000000E+00  0.16351027296E+04  0.16351027296E+04  0.00000000000E+00 0. -1.
          1   -1    0    0  501    0 -0.00000000000E+00 -0.00000000000E+00 -0.57509914582E+03  0.57509914582E+03  0.00000000000E+00 0. -1.
         25    2    1    2    0    0  0.44875861076E+01 -0.22447865110E+02 -0.24420048043E+01  0.12710465490E+03  0.12500233931E+03 0.  0.
          2    1    1    2  501    0 -0.35210569596E+02 -0.11542207912E+02 -0.50931893725E+03  0.51066504346E+03  0.00000000000E+00 0. -1.
          1    1    1    2  502    0  0.30722983489E+02  0.33990073021E+02  0.15717645258E+04  0.15724321770E+04  0.00000000000E+00 0. -1.
         22    1    3    3    0    0 -0.22825689021E+02 -0.81644023356E+01  0.56006017529E+02  0.61027399947E+02  0.00000000000E+00 0.  1.
         22    1    3    3    0    0  0.27313275129E+02 -0.14283462774E+02 -0.58448022334E+02  0.66077254950E+02  0.00000000000E+00 0.  1.
</event>
<event>
 7    1  0.6520971E-006  0.1373129E+03  0.7818608E-02  0.1374748E+00
          2   -1    0    0  502    0  0.00000000000E+00  0.00000000000E+00  0.46655499344E+03  0.46655499344E+03  0.00000000000E+00 0. -1.
          1   -1    0    0  501    0 -0.00000000000E+00 -0.00000000000E+00 -0.20483827132E+04  0.20483827132E+04  0.00000000000E+00 0. -1.
         25    2    1    2    0    0  0.74490212850E+02 -0.10910485072E+03 -0.26420595201E+03  0.32075762207E+03  0.12501202652E+03 0.  0.
          2    1    1    2  501    0  0.27095436169E+02  0.16247088015E+02 -0.17449495326E+04  0.17452355148E+04  0.00000000000E+00 0. -1.
          1    1    1    2  502    0 -0.10158564902E+03  0.92857762704E+02  0.42732776485E+03  0.44894456985E+03  0.00000000000E+00 0. -1.
         22    1    3    3    0    0 -0.15960309933E+02 -0.86879504559E+02 -0.13933136581E+03  0.16497275321E+03  0.00000000000E+00 0.  1.
         22    1    3    3    0    0  0.90450522783E+02 -0.22225346160E+02 -0.12487458621E+03  0.15578486885E+03  0.00000000000E+00 0.  1.
</event>
<event>
 7    1  0.6520971E-006  0.7865332E+02  0.7818608E-02  0.1470432E+00
          2   -1    0    0  502    0  0.00000000000E+00  0.00000000000E+00  0.19766557722E+04  0.19766557722E+04  0.00000000000E+00 0. -1.
          1   -1    0    0  501    0 -0.00000000000E+00 -0.00000000000E+00 -0.25566844928E+04  0.25566844928E+04  0.00000000000E+00 0. -1.
         25    2    1    2    0    0 -0.80229304936E+02 -0.65715681457E+02 -0.45546158888E+03  0.48355475138E+03  0.12499858589E+03 0.  0.
          2    1    1    2  501    0  0.61336932905E+02  0.47168848314E+02 -0.20863698453E+04  0.20878041697E+04  0.00000000000E+00 0. -1.
          1    1    1    2  502    0  0.18892372031E+02  0.18546833143E+02  0.19618027136E+04  0.19619813439E+04  0.00000000000E+00 0. -1.
         22    1    3    3    0    0 -0.29693263158E+00 -0.81009224537E+02 -0.23161414987E+03  0.24537256784E+03  0.00000000000E+00 0. -1.
         22    1    3    3    0    0 -0.79932372304E+02  0.15293543080E+02 -0.22384743901E+03  0.23818218354E+03  0.00000000000E+00 0. -1.
</event>
<event>
 7    1  0.6520971E-006  0.7814199E+02  0.7818608E-02  0.1370120E+00
          2   -1    0    0  502    0  0.00000000000E+00  0.00000000000E+00  0.80365727178E+03  0.80365727178E+03  0.00000000000E+00 0. -1.
          1   -1    0    0  501    0 -0.00000000000E+00 -0.00000000000E+00 -0.17867026067E+04  0.17867026067E+04  0.00000000000E+00 0. -1.
         25    2    1    2    0    0  0.30268093994E+02  0.11810064208E+03 -0.16239542865E+03  0.23845571585E+03  0.12499973600E+03 0.  0.
          2    1    1    2  501    0  0.15857836834E+02 -0.55453549770E+02 -0.15837745088E+04  0.15848243631E+04  0.00000000000E+00 0. -1.
          1    1    1    2  502    0 -0.46125930828E+02 -0.62647092309E+02  0.76312460259E+03  0.76707979947E+03  0.00000000000E+00 0. -1.
         22    1    3    3    0    0  0.84411782230E+01  0.64956003906E+02  0.73256071276E+00  0.65506278924E+02  0.00000000000E+00 0.  1.
         22    1    3    3    0    0  0.21826915771E+02  0.53144638172E+02 -0.16312798936E+03  0.17294943692E+03  0.00000000000E+00 0.  1.
</event>
<event>
 7    1  0.6520971E-006  0.8227660E+02  0.7818608E-02  0.1361027E+00
          2   -1    0    0  502    0  0.00000000000E+00  0.00000000000E+00  0.50555210571E+02  0.50555210571E+02  0.00000000000E+00 0. -1.
          1   -1    0    0  501    0 -0.00000000000E+00 -0.00000000000E+00 -0.11891906298E+04  0.11891906298E+04  0.00000000000E+00 0. -1.
         25    2    1    2    0    0  0.16154156970E+02 -0.63037899103E+01 -0.65090005758E+03  0.66302151872E+03  0.12500381905E+03 0.  0.
          2    1    1    2  501    0 -0.84142633859E+02 -0.40032003411E+02 -0.48555900533E+03  0.49441894360E+03  0.00000000000E+00 0. -1.
          1    1    1    2  502    0  0.67988476889E+02  0.46335793321E+02 -0.21763563364E+01  0.82305378070E+02  0.00000000000E+00 0. -1.
         22    1    3    3    0    0  0.16639313531E+02  0.52806445852E+02 -0.45615492939E+03  0.45950267364E+03  0.00000000000E+00 0.  1.
         22    1    3    3    0    0 -0.48515656042E+00 -0.59110235762E+02 -0.19474512819E+03  0.20351884508E+03  0.00000000000E+00 0.  1.
</event>
<event>
 7    1  0.6520971E-006  0.3693651E+02  0.7818608E-02  0.1550310E+00
          2   -1    0    0  502    0  0.00000000000E+00  0.00000000000E+00  0.35273642160E+03  0.35273642160E+03  0.00000000000E+00 0. -1.
          1   -1    0    0  501    0 -0.00000000000E+00 -0.00000000000E+00 -0.30290827618E+03  0.30290827618E+03  0.00000000000E+00 0. -1.
         25    2    1    2    0    0  0.16134087544E+02  0.15321647887E+02 -0.43174918628E+02  0.13410218703E+03  0.12499704514E+03 0.  0.
          2    1    1    2  501    0  0.19445642327E+02 -0.26417517205E+02 -0.21187279729E+03  0.21439706260E+03  0.00000000000E+00 0. -1.
          1    1    1    2  502    0 -0.35579729871E+02  0.11095869318E+02  0.30487586133E+03  0.30714544815E+03  0.00000000000E+00 0. -1.
         22    1    3    3    0    0 -0.40338949226E+02  0.53333674655E+01  0.22834711353E+02  0.46659400722E+02  0.00000000000E+00 0.  1.
         22    1    3    3    0    0  0.56473036770E+02  0.99882804210E+01 -0.66009629981E+02  0.87442786312E+02  0.00000000000E+00 0.  1.
</event>
<event>
 7    1  0.6520971E-006  0.1148927E+03  0.7818608E-02  0.1258976E+00
          2   -1    0    0  502    0  0.00000000000E+00  0.00000000000E+00  0.11173578872E+03  0.11173578872E+03  0.00000000000E+00 0. -1.
          1   -1    0    0  501    0 -0.00000000000E+00 -0.00000000000E+00 -0.30048753406E+04  0.30048753406E+04  0.00000000000E+00 0. -1.
         25    2    1    2    0    0  0.60630622741E+02  0.41525008839E+02 -0.66645145254E+03  0.68204373799E+03  0.12500289263E+03 0.  0.
          2    1    1    2  501    0 -0.74655797384E+02  0.76622123957E+02 -0.22949213104E+04  0.22974133844E+04  0.00000000000E+00 0. -1.
          1    1    1    2  502    0  0.14025174643E+02 -0.11814713280E+03  0.68233211081E+02  0.13715400689E+03  0.00000000000E+00 0. -1.
         22    1    3    3    0    0  0.91944126803E+01  0.79872733953E+02 -0.39698920195E+03  0.40504890732E+03  0.00000000000E+00 0.  1.
         22    1    3    3    0    0  0.51436210061E+02 -0.38347725113E+02 -0.26946225059E+03  0.27699483067E+03  0.00000000000E+00 0.  1.
</event>
<event>
 7    1  0.6520971E-006  0.6174750E+02  0.7818608E-02  0.1402973E+00
          2   -1    0    0  502    0  0.00000000000E+00  0.00000000000E+00  0.28086188429E+02  0.28086188429E+02  0.00000000000E+00 0. -1.
          1   -1    0    0  501    0 -0.00000000000E+00 -0.00000000000E+00 -0.76830793291E+03  0.76830793291E+03  0.00000000000E+00 0. -1.
         25    2    1    2    0    0  0.78821395075E+01 -0.18297887042E+02 -0.26826045170E+03  0.29662297896E+03  0.12499832362E+03 0.  0.
          2    1    1    2  501    0 -0.59728502400E+02  0.39404070920E+02 -0.41029137500E+03  0.41648431808E+03  0.00000000000E+00 0. -1.
          1    1    1    2  502    0  0.51846362892E+02 -0.21106183878E+02 -0.61669917782E+02  0.83286824302E+02  0.00000000000E+00 0. -1.
         22    1    3    3    0    0  0.42144354617E+02 -0.29682988512E+02 -0.25165999697E+03  0.25688515042E+03  0.00000000000E+00 0. -1.
         22    1    3    3    0    0 -0.34262215109E+02  0.11385101470E+02 -0.16600454726E+02  0.39737828536E+02  0.00000000000E+00 0. -1.
</event>
<event>
 7    1  0.6520971E-006  0.4403678E+02  0.7818608E-02  0.1482162E+00
          2   -1    0    0  502    0  0.00000000000E+00  0.00000000000E+00  0.19737669552E+03  0.19737669552E+03  0.00000000000E+00 0. -1.
          1   -1    0    0  501    0 -0.00000000000E+00 -0.00000000000E+00 -0.16441310600E+03  0.16441310600E+03  0.00000000000E+00 0. -1.
         25    2    1    2    0    0  0.18050009932E+02 -0.73407216518E+01 -0.20986113553E+02  0.12823868147E+03  0.12500021364E+03 0.  0.
          2    1    1    2  501    0 -0.35246626373E+01  0.48351431002E+02 -0.79540296089E+02  0.93150109117E+02  0.00000000000E+00 0. -1.
          1    1    1    2  502    0 -0.14525347295E+02 -0.41010709350E+02  0.13348999916E+03  0.14040101094E+03  0.00000000000E+00 0. -1.
         22    1    3    3    0    0  0.60952397847E+02 -0.29771205042E+02 -0.36971641254E+02  0.77255561030E+02  0.00000000000E+00 0. -1.
         22    1    3    3    0    0 -0.42902387915E+02  0.22430483391E+02  0.15985527701E+02  0.50983120440E+02  0.00000000000E+00 0. -1.
</event>
<event>
 7    1  0.6520971E-006  0.1297995E+03  0.7818608E-02  0.1373284E+00
          2   -1    0    0  502    0  0.00000000000E+00  0.00000000000E+00  0.26684885054E+04  0.26684885054E+04  0.00000000000E+00 0. -1.
          1   -1    0    0  501    0 -0.00000000000E+00 -0.00000000000E+00 -0.97143579839E+02  0.97143579839E+02  0.00000000000E+00 0. -1.
         25    2    1    2    0    0  0.14337298794E+03  0.72848809044E+02  0.65534119568E+03  0.68626547949E+03  0.12500185176E+03 0.  0.
          2    1    1    2  501    0 -0.11121281547E+03 -0.62360755882E+02 -0.31687147600E+02  0.13138199847E+03  0.00000000000E+00 0. -1.
          1    1    1    2  502    0 -0.32160172473E+02 -0.10488053162E+02  0.19476908775E+04  0.19479846073E+04  0.00000000000E+00 0. -1.
         22    1    3    3    0    0  0.38813656338E+02 -0.24082616246E+02  0.29883437476E+03  0.30230523625E+03  0.00000000000E+00 0.  1.
         22    1    3    3    0    0  0.10455933160E+03  0.96931425290E+02  0.35650682091E+03  0.38396024324E+03  0.00000000000E+00 0.  1.
</event>
<event>
 7    1  0.8159995E-006  0.1545060E+03  0.7818608E-02  0.1244817E+00
          2   -1    0    0  502    0  0.00000000000E+00  0.00000000000E+00  0.16030964844E+04  0.16030964844E+04  0.00000000000E+00 0. -1.
          1   -1    0    0  501    0 -0.00000000000E+00 -0.00000000000E+00 -0.11476472336E+04  0.11476472336E+04  0.00000000000E+00 0. -1.
         25    2    1    2    0    0 -0.17916370584E+02 -0.14729653003E+03 -0.44774206955E+03  0.48796924584E+03  0.12499503966E+03 0.  0.
          2    1    1    2  501    0  0.10723806975E+03  0.12700676703E+03 -0.66827651957E+03  0.68863940425E+03  0.00000000000E+00 0. -1.
          1    1    1    2  502    0 -0.89321699166E+02  0.20289763000E+02  0.15714678399E+04  0.15741350680E+04  0.00000000000E+00 0. -1.
         22    1    3    3    0    0 -0.53860873327E+02 -0.96906733306E+02 -0.38161413416E+03  0.39739307496E+03  0.00000000000E+00 0. -1.
         22    1    3    3    0    0  0.35944502744E+02 -0.50389796720E+02 -0.66127935392E+02  0.90576170874E+02  0.00000000000E+00 0. -1.
</event>
<event>
 7    1  0.6520971E-006  0.9294292E+02  0.7818608E-02  0.1386018E+00
          2   -1    0    0  502    0  0.00000000000E+00  0.00000000000E+00  0.80826416967E+03  0.80826416967E+03  0.00000000000E+00 0. -1.
          1   -1    0    0  501    0 -0.00000000000E+00 -0.00000000000E+00 -0.16852882417E+03  0.16852882417E+03  0.00000000000E+00 0. -1.
         25    2    1    2    0    0 -0.28023801059E+02 -0.12009325999E+03  0.33387842518E+03  0.37723635562E+03  0.12499896272E+03 0.  0.
          2    1    1    2  501    0  0.27331908866E+02  0.32648877039E+02 -0.13941856238E+03  0.14577557392E+03  0.00000000000E+00 0. -1.
          1    1    1    2  502    0  0.69189219317E+00  0.87444382954E+02  0.44527548270E+03  0.45378106430E+03  0.00000000000E+00 0. -1.
         22    1    3    3    0    0 -0.81843238843E+01 -0.14415121810E+03  0.27698947831E+03  0.31236153401E+03  0.00000000000E+00 0. -1.
         22    1    3    3    0    0 -0.19839477175E+02  0.24057958105E+02  0.56888946869E+02  0.64874821607E+02  0.00000000000E+00 0. -1.
</event>
<event>
 7    1  0.6520971E-006  0.8925657E+02  0.7818608E-02  0.1445057E+00
          2   -1    0    0  502    0  0.00000000000E+00  0.00000000000E+00  0.10993385173E+04  0.10993385173E+04  0.00000000000E+00 0. -1.
          1   -1    0    0  501    0 -0.00000000000E+00 -0.00000000000E+00 -0.19068499302E+03  0.19068499302E+03  0.00000000000E+00 0. -1.
         25    2    1    2    0    0  0.12113970967E+02  0.11112780473E+03  0.14876513485E+03  0.22416707502E+03  0.12499469949E+03 0.  0.
          2    1    1    2  501    0  0.10503284520E+02 -0.26029078744E+02 -0.14955205913E+03  0.15216323576E+03  0.00000000000E+00 0. -1.
          1    1    1    2  502    0 -0.22617255487E+02 -0.85098725989E+02  0.90944044854E+03  0.91369319952E+03  0.00000000000E+00 0. -1.
         22    1    3    3    0    0  0.52528369024E+02  0.10853692808E+03  0.81123161343E+02  0.14532880518E+03  0.00000000000E+00 0. -1.
         22    1    3    3    0    0 -0.40414398058E+02  0.25908766534E+01  0.67641973502E+02  0.78838269840E+02  0.00000000000E+00 0. -1.
</event>
<event>
 7    1  0.6520971E-006  0.1485510E+03  0.7818608E-02  0.1278049E+00
          2   -1    0    0  502    0  0.00000000000E+00  0.00000000000E+00  0.49095044773E+03  0.49095044773E+03  0.00000000000E+00 0. -1.
          1   -1    0    0  501    0 -0.00000000000E+00 -0.00000000000E+00 -0.11051490598E+04  0.11051490598E+04  0.00000000000E+00 0. -1.
         25    2    1    2    0    0 -0.18061676668E+03 -0.11054634268E+03 -0.32960645359E+03  0.41122811225E+03  0.12500094307E+03 0.  0.
          2    1    1    2  501    0  0.47096503594E+02  0.50117322700E+02 -0.72112297184E+03  0.72439503532E+03  0.00000000000E+00 0. -1.
          1    1    1    2  502    0  0.13352026309E+03  0.60429019978E+02  0.43653081334E+03  0.46047635999E+03  0.00000000000E+00 0. -1.
         22    1    3    3    0    0 -0.15829911282E+03 -0.32507986256E+02 -0.24894308905E+03  0.29679629357E+03  0.00000000000E+00 0.  1.
         22    1    3    3    0    0 -0.22317653859E+02 -0.78038356421E+02 -0.80663364539E+02  0.11443181868E+03  0.00000000000E+00 0.  1.
</event>
<event>
 7    1  0.6520971E-006  0.2248487E+03  0.7818608E-02  0.1345665E+00
          2   -1    0    0  502    0  0.00000000000E+00  0.00000000000E+00  0.20558217004E+04  0.20558217004E+04  0.00000000000E+00 0. -1.
          1   -1    0    0  501    0 -0.00000000000E+00 -0.00000000000E+00 -0.20631119724E+03  0.20631119724E+03  0.00000000000E+00 0. -1.
         25    2    1    2    0    0  0.23438423856E+03 -0.60768817349E+02  0.43148207356E+03  0.51032402407E+03  0.12500003716E+03 0.  0.
          2    1    1    2  501    0 -0.21118938971E+03  0.69064653621E+02 -0.92788168117E+02  0.24079146341E+03  0.00000000000E+00 0. -1.
          1    1    1    2  502    0 -0.23194848850E+02 -0.82958362724E+01  0.15108165977E+04  0.15110174102E+04  0.00000000000E+00 0. -1.
         22    1    3    3    0    0  0.64800779487E+02  0.39095617413E+02  0.11774923750E+03  0.13997318048E+03  0.00000000000E+00 0.  1.
         22    1    3    3    0    0  0.16958345907E+03 -0.99864434761E+02  0.31373283606E+03  0.37035084359E+03  0.00000000000E+00 0.  1.
</event>
<event>
 7    1  0.6520971E-006  0.6409638E+02  0.7818608E-02  0.1415830E+00
          2   -1    0    0  502    0  0.00000000000E+00  0.00000000000E+00  0.18640812108E+03  0.18640812108E+03  0.00000000000E+00 0. -1.
          1   -1    0    0  501    0 -0.00000000000E+00 -0.00000000000E+00 -0.11735956963E+04  0.11735956963E+04  0.00000000000E+00 0. -1.
         25    2    1    2    0    0  0.95083271645E+00  0.37918223870E+02 -0.19084074938E+03  0.23126507530E+03  0.12499859058E+03 0.  0.
          2    1    1    2  501    0  0.47039747296E+02 -0.46626842061E+02 -0.95779581856E+03  0.96008313717E+03  0.00000000000E+00 0. -1.
          1    1    1    2  502    0 -0.47990580013E+02  0.87086181903E+01  0.16144899274E+03  0.16865560488E+03  0.00000000000E+00 0. -1.
         22    1    3    3    0    0  0.50367064279E+02 -0.19886607860E+02 -0.70262629127E+02  0.88708259976E+02  0.00000000000E+00 0.  1.
         22    1    3    3    0    0 -0.49416231562E+02  0.57804831730E+02 -0.12057812025E+03  0.14255681533E+03  0.00000000000E+00 0.  1.
</event>
<event>
 7    1  0.6520971E-006  0.5988873E+02  0.7818608E-02  0.1436931E+00
          2   -1    0    0  502    0  0.00000000000E+00  0.00000000000E+00  0.20123714240E+04  0.20123714240E+04  0.00000000000E+00 0. -1.
          1   -1    0    0  501    0 -0.00000000000E+00 -0.00000000000E+00 -0.18715003340E+03  0.18715003340E+03  0.00000000000E+00 0. -1.
         25    2    1    2    0    0 -0.69773062299E+02  0.63706035771E+02 -0.31667182759E+02  0.15987496217E+03  0.12502181349E+03 0.  0.
          2    1    1    2  501    0  0.14034101432E+02 -0.42173678796E+02 -0.85487311168E+02  0.96351728355E+02  0.00000000000E+00 0. -1.
          1    1    1    2  502    0  0.55738960868E+02 -0.21532356974E+02  0.19423758845E+04  0.19432947668E+04  0.00000000000E+00 0. -1.
         22    1    3    3    0    0  0.16207162405E+02  0.63536069299E+02 -0.34003165643E+02  0.73862842410E+02  0.00000000000E+00 0. -1.
         22    1    3    3    0    0 -0.85980224704E+02  0.16996647183E+00  0.23359828841E+01  0.86012119756E+02  0.00000000000E+00 0. -1.
</event>
<event>
 7    1  0.6520971E-006  0.3845340E+02  0.7818608E-02  0.1546414E+00
          2   -1    0    0  502    0  0.00000000000E+00  0.00000000000E+00  0.32351328127E+04  0.32351328127E+04  0.00000000000E+00 0. -1.
          1   -1    0    0  501    0 -0.00000000000E+00 -0.00000000000E+00 -0.50319228005E+03  0.50319228005E+03  0.00000000000E+00 0. -1.
         25    2    1    2    0    0 -0.18878178667E+02 -0.11745111626E+02  0.13078677766E+04  0.13140158267E+04  0.12500055380E+03 0.  0.
          2    1    1    2  501    0  0.34816690258E+02 -0.16358678986E+02 -0.49924264978E+03  0.50072250964E+03  0.00000000000E+00 0. -1.
          1    1    1    2  502    0 -0.15938511592E+02  0.28103790612E+02  0.19233154058E+04  0.19235867563E+04  0.00000000000E+00 0. -1.
         22    1    3    3    0    0 -0.69865299073E+02  0.11679600428E+02  0.71907886449E+03  0.72255933074E+03  0.00000000000E+00 0.  1.
         22    1    3    3    0    0  0.50987120406E+02 -0.23424712054E+02  0.58878891214E+03  0.59145649598E+03  0.00000000000E+00 0.  1.
</event>
<event>
 7    1  0.6520971E-006  0.1479398E+03  0.7818608E-02  0.1381983E+00
          2   -1    0    0  502    0  0.00000000000E+00  0.00000000000E+00  0.17995685217E+04  0.17995685217E+04  0.00000000000E+00 0. -1.
          1   -1    0    0  501    0 -0.00000000000E+00 -0.00000000000E+00 -0.33108924874E+02  0.33108924874E+02  0.00000000000E+00 0. -1.
         25    2    1    2    0    0  0.10720108516E+03 -0.71328713343E+02  0.77634013317E+03  0.79681158914E+03  0.12499939286E+03 0.  0.
          2    1    1    2  501    0 -0.13443350719E+03  0.76055920238E+02  0.24107149924E+03  0.28630811830E+03  0.00000000000E+00 0. -1.
          1    1    1    2  502    0  0.27232422031E+02 -0.47272068959E+01  0.74904796446E+03  0.74955773918E+03  0.00000000000E+00 0. -1.
         22    1    3    3    0    0  0.77054101775E+02 -0.52306322106E+02  0.21454150688E+03  0.23388318475E+03  0.00000000000E+00 0. -1.
         22    1    3    3    0    0  0.30146983382E+02 -0.19022391237E+02  0.56179862629E+03  0.56292840440E+03  0.00000000000E+00 0. -1.
</event>
<event>
 7    1  0.6520971E-006  0.8916679E+02  0.7818608E-02  0.1395141E+00
          2   -1    0    0  502    0  0.00000000000E+00  0.00000000000E+00  0.13090064931E+04  0.13090064931E+04  0.00000000000E+00 0. -1.
          1   -1    0    0  501    0 -0.00000000000E+00 -0.00000000000E+00 -0.35269179080E+03  0.35269179080E+03  0.00000000000E+00 0. -1.
         25    2    1    2    0    0 -0.25558165015E+02 -0.50221682636E+02  0.20173548131E+03  0.24392083939E+03  0.12499893705E+03 0.  0.
          2    1    1    2  501    0  0.78685397680E+01 -0.40490072558E+02 -0.32834045793E+03  0.33092116313E+03  0.00000000000E+00 0. -1.
          1    1    1    2  502    0  0.17689625247E+02  0.90711755194E+02  0.10829196789E+04  0.10868562814E+04  0.00000000000E+00 0. -1.
         22    1    3    3    0    0 -0.72015155113E+02 -0.68689477140E+01  0.91025371419E+02  0.11627116259E+03  0.00000000000E+00 0.  1.
         22    1    3    3    0    0  0.46456990098E+02 -0.43352734922E+02  0.11071010989E+03  0.12764967680E+03  0.00000000000E+00 0.  1.
</event>
<event>
 7    1  0.6520971E-006  0.7882212E+02  0.7818608E-02  0.1372359E+00
          2   -1    0    0  502    0  0.00000000000E+00  0.00000000000E+00  0.14220224065E+02  0.14220224065E+02  0.00000000000E+00 0. -1.
          1   -1    0    0  501    0 -0.00000000000E+00 -0.00000000000E+00 -0.23458234908E+04  0.23458234908E+04  0.00000000000E+00 0. -1.
         25    2    1    2    0    0  0.10018156916E+03 -0.57628695230E+02 -0.70553263428E+03  0.72578454811E+03  0.12501799440E+03 0.  0.
          2    1    1    2  501    0 -0.44202540539E+02  0.61754184051E+02 -0.13702518169E+04  0.13723547229E+04  0.00000000000E+00 0. -1.
          1    1    1    2  502    0 -0.55979028620E+02 -0.41254888215E+01 -0.25581881556E+03  0.26190444383E+03  0.00000000000E+00 0. -1.
         22    1    3    3    0    0  0.15959134795E+02 -0.53713717677E+02 -0.50704519047E+03  0.51013202471E+03  0.00000000000E+00 0.  1.
         22    1    3    3    0    0  0.84222434364E+02 -0.39149775525E+01 -0.19848744381E+03  0.21565252340E+03  0.00000000000E+00 0.  1.
</event>
<event>
 7    1  0.6520971E-006  0.9877543E+02  0.7818608E-02  0.1367746E+00
          2   -1    0    0  502    0  0.00000000000E+00  0.00000000000E+00  0.14543951369E+04  0.14543951369E+04  0.00000000000E+00 0. -1.
          1   -1    0    0  501    0 -0.00000000000E+00 -0.00000000000E+00 -0.22270882151E+03  0.22270882151E+03  0.00000000000E+00 0. -1.
         25    2    1    2    0    0 -0.90440423882E+02 -0.43009382968E+02  0.66259542955E+03  0.68167969182E+03  0.12500088674E+03 0.  0.
          2    1    1    2  501    0  0.98898076852E+02 -0.27506553107E+01 -0.20094658078E+03  0.22398197257E+03  0.00000000000E+00 0. -1.
          1    1    1    2  502    0 -0.84576529690E+01  0.45760038279E+02  0.77003746663E+03  0.77144229403E+03  0.00000000000E+00 0. -1.
         22    1    3    3    0    0 -0.38318660386E+02 -0.84937621797E+02  0.37398620812E+03  0.38541977531E+03  0.00000000000E+00 0.  1.
         22    1    3    3    0    0 -0.52121763497E+02  0.41928238829E+02  0.28860922143E+03  0.29625991652E+03  0.00000000000E+00 0.  1.
</event>
<event>
 7    1  0.6520971E-006  0.7825496E+02  0.7818608E-02  0.1387115E+00
          2   -1    0    0  502    0  0.00000000000E+00  0.00000000000E+00  0.31185437101E+03  0.31185437101E+03  0.00000000000E+00 0. -1.
          1   -1    0    0  501    0 -0.00000000000E+00 -0.00000000000E+00 -0.19762771356E+03  0.19762771356E+03  0.00000000000E+00 0. -1.
         25    2    1    2    0    0  0.73840449816E+02  0.21892841144E+02 -0.26855021845E+02  0.14924869527E+03  0.12498908880E+03 0.  0.
          2    1    1    2  501    0 -0.49012012623E+02 -0.65436384245E+02 -0.91272112917E+02  0.12253447009E+03  0.00000000000E+00 0. -1.
          1    1    1    2  502    0 -0.24828437194E+02  0.43543543101E+02  0.23235379221E+03  0.23769891921E+03  0.00000000000E+00 0. -1.
         22    1    3    3    0    0  0.17142052378E+02 -0.32123458915E+02  0.34197066689E+02  0.49952036420E+02  0.00000000000E+00 0. -1.
         22    1    3    3    0    0  0.56698397439E+02  0.54016300059E+02 -0.61052088534E+02  0.99296658849E+02  0.00000000000E+00 0. -1.
</event>
<event>
 7    1  0.6520971E-006  0.7657675E+02  0.7818608E-02  0.1429091E+00
          2   -1    0    0  502    0  0.00000000000E+00  0.00000000000E+00  0.15479709240E+04  0.15479709240E+04  0.00000000000E+00 0. -1.
          1   -1    0    0  501    0 -0.00000000000E+00 -0.00000000000E+00 -0.20497311402E+04  0.20497311402E+04  0.00000000000E+00 0. -1.
         25    2    1    2    0    0 -0.90672785465E+02  0.55240105157E+02 -0.98484215230E+02  0.19130128866E+03  0.12499607655E+03 0.  0.
          2    1    1    2  501    0  0.72543459804E+02 -0.23123498487E+02 -0.19038508688E+04  0.19053727668E+04  0.00000000000E+00 0. -1.
          1    1    1    2  502    0  0.18129325661E+02 -0.32116606670E+02  0.15005748678E+04  0.15010280087E+04  0.00000000000E+00 0. -1.
         22    1    3    3    0    0  0.25582823016E+01  0.37120310148E+02 -0.88253205717E+02  0.95776252554E+02  0.00000000000E+00 0. -1.
         22    1    3    3    0    0 -0.93231067766E+02  0.18119795009E+02 -0.10231009513E+02  0.95525036109E+02  0.00000000000E+00 0. -1.
</event>
<event>
 7    1  0.6520971E-006  0.8570946E+02  0.7818608E-02  0.1481281E+00
          2   -1    0    0  502    0  0.00000000000E+00  0.00000000000E+00  0.50188047481E+03  0.50188047481E+03  0.00000000000E+00 0. -1.
          1   -1    0    0  501    0 -0.00000000000E+00 -0.00000000000E+00 -0.16749796838E+03  0.16749796838E+03  0.00000000000E+00 0. -1.
         25    2    1    2    0    0 -0.77736724525E+02 -0.27323746192E+02 -0.35720399455E+02  0.15391450375E+03  0.12499656828E+03 0.  0.
          2    1    1    2  501    0  0.72973306678E+02  0.49306391525E+02 -0.45585220248E+02  0.99167716712E+02  0.00000000000E+00 0. -1.
          1    1    1    2  502    0  0.47634178475E+01 -0.21982645333E+02  0.41568812614E+03  0.41629622273E+03  0.00000000000E+00 0. -1.
         22    1    3    3    0    0 -0.93314870568E+02  0.21073734287E+02 -0.79822158574E+01  0.95997307858E+02  0.00000000000E+00 0. -1.
         22    1    3    3    0    0  0.15578146043E+02 -0.48397480479E+02 -0.27738183598E+02  0.57917195894E+02  0.00000000000E+00 0. -1.
</event>
<event>
 7    1  0.6520971E-006  0.7816921E+02  0.7818608E-02  0.1486900E+00
          2   -1    0    0  502    0  0.00000000000E+00  0.00000000000E+00  0.22428886859E+03  0.22428886859E+03  0.00000000000E+00 0. -1.
          1   -1    0    0  501    0 -0.00000000000E+00 -0.00000000000E+00 -0.14773603988E+03  0.14773603988E+03  0.00000000000E+00 0. -1.
         25    2    1    2    0    0 -0.96673517355E+02 -0.18668770269E+02 -0.25333637196E+02  0.16112122754E+03  0.12499585933E+03 0.  0.
          2    1    1    2  501    0  0.20891168452E+02  0.11208683592E+02 -0.41931680372E+02  0.48169921383E+02  0.00000000000E+00 0. -1.
          1    1    1    2  502    0  0.75782348902E+02  0.74600866762E+01  0.14381814628E+03  0.16273375955E+03  0.00000000000E+00 0. -1.
         22    1    3    3    0    0 -0.54835170278E+02  0.26288753481E+02 -0.64210822060E+02  0.88436554256E+02  0.00000000000E+00 0.  1.
         22    1    3    3    0    0 -0.41838347076E+02 -0.44957523750E+02  0.38877184864E+02  0.72684673286E+02  0.00000000000E+00 0.  1.
</event>
<event>
 7    1  0.6520971E-006  0.7379070E+02  0.7818608E-02  0.1360626E+00
          2   -1    0    0  502    0  0.00000000000E+00  0.00000000000E+00  0.43474617545E+04  0.43474617545E+04  0.00000000000E+00 0. -1.
          1   -1    0    0  501    0 -0.00000000000E+00 -0.00000000000E+00 -0.15950061758E+02  0.15950061758E+02  0.00000000000E+00 0. -1.
         25    2    1    2    0    0 -0.10910203802E+03  0.30634567129E+01  0.70462797785E+03  0.72390448652E+03  0.12499791589E+03 0.  0.
          2    1    1    2  501    0  0.48835160940E+02 -0.44556894670E+02  0.17851260208E+03  0.19036002444E+03  0.00000000000E+00 0. -1.
          1    1    1    2  502    0  0.60266877083E+02  0.41493437957E+02  0.34483711128E+04  0.34491473053E+04  0.00000000000E+00 0. -1.
         22    1    3    3    0    0  0.98897179186E+01 -0.59050444005E+01  0.26016343987E+01  0.11808665099E+02  0.00000000000E+00 0. -1.
         22    1    3    3    0    0 -0.11899175594E+03  0.89685011134E+01  0.70202634345E+03  0.71209582142E+03  0.00000000000E+00 0. -1.
</event>
<event>
 7    1  0.6520971E-006  0.8317950E+02  0.7818608E-02  0.1350119E+00
          2   -1    0    0  502    0  0.00000000000E+00  0.00000000000E+00  0.98269936851E+03  0.98269936851E+03  0.00000000000E+00 0. -1.
          1   -1    0    0  501    0 -0.00000000000E+00 -0.00000000000E+00 -0.21139578066E+03  0.21139578066E+03  0.00000000000E+00 0. -1.
         25    2    1    2    0    0 -0.38346024998E+02 -0.21030010189E+02  0.61044750832E+03  0.62464731241E+03  0.12500170209E+03 0.  0.
          2    1    1    2  501    0  0.78930906607E+02 -0.28583764723E+02 -0.19266679820E+03  0.21016092585E+03  0.00000000000E+00 0. -1.
          1    1    1    2  502    0 -0.40584881609E+02  0.49613774913E+02  0.35352287773E+03  0.35928691091E+03  0.00000000000E+00 0. -1.
         22    1    3    3    0    0  0.44318185206E+02 -0.22584754007E+02  0.22530871570E+03  0.23073402442E+03  0.00000000000E+00 0. -1.
         22    1    3    3    0    0 -0.82664210204E+02  0.15547438174E+01  0.38513879262E+03  0.39391328799E+03  0.00000000000E+00 0. -1.
</event>
<event>
 7    1  0.6520971E-006  0.7078946E+02  0.7818608E-02  0.1441026E+00
          2   -1    0    0  502    0  0.00000000000E+00  0.00000000000E+00  0.24677839949E+03  0.24677839949E+03  0.00000000000E+00 0. -1.
          1   -1    0    0  501    0 -0.00000000000E+00 -0.00000000000E+00 -0.23398779230E+03  0.23398779230E+03  0.00000000000E+00 0. -1.
         25    2    1    2    0    0 -0.81392479742E+02 -0.41230792776E+02  0.43010051456E+02  0.16061958596E+03  0.12499629130E+03 0.  0.
          2    1    1    2  501    0  0.35200775430E+02 -0.95308748361E+01 -0.16495485750E+03  0.16893796843E+03  0.00000000000E+00 0. -1.
          1    1    1    2  502    0  0.46191704312E+02  0.50761667612E+02  0.13473541323E+03  0.15120863740E+03  0.00000000000E+00 0. -1.
         22    1    3    3    0    0 -0.10120732524E+03 -0.62817558615E+02  0.14955433988E+02  0.12005262745E+03  0.00000000000E+00 0. -1.
         22    1    3    3    0    0  0.19814845499E+02  0.21586765839E+02  0.28054617468E+02  0.40566958510E+02  0.00000000000E+00 0. -1.
</event>
<event>
 7    1  0.6520971E-006  0.1436752E+03  0.7818608E-02  0.1208820E+00
          2   -1    0    0  502    0  0.00000000000E+00  0.00000000000E+00  0.34257101626E+04  0.34257101626E+04  0.00000000000E+00 0. -1.
          1   -1    0    0  501    0 -0.00000000000E+00 -0.00000000000E+00 -0.33154709370E+04  0.33154709370E+04  0.00000000000E+00 0. -1.
         25    2    1    2    0    0 -0.22473260773E+03  0.62809845095E+01 -0.52041969476E+02  0.26244448474E+03  0.12499818094E+03 0.  0.
          2    1    1    2  501    0  0.11485327659E+03  0.85447399434E+02 -0.31550615062E+04  0.31583074013E+04  0.00000000000E+00 0. -1.
          1    1    1    2  502    0  0.10987933114E+03 -0.91728383944E+02  0.33173427013E+04  0.33204292135E+04  0.00000000000E+00 0. -1.
         22    1    3    3    0    0 -0.20522716846E+03  0.48362565270E+02 -0.43047759139E+02  0.21519813652E+03  0.00000000000E+00 0. -1.
         22    1    3    3    0    0 -0.19505439267E+02 -0.42081580761E+02 -0.89942103366E+01  0.47246348218E+02  0.00000000000E+00 0. -1.
</event>
<event>
 7    1  0.6520971E-006  0.5740202E+02  0.7818608E-02  0.1448134E+00
          2   -1    0    0  502    0  0.00000000000E+00  0.00000000000E+00  0.35283194799E+02  0.35283194799E+02  0.00000000000E+00 0. -1.
          1   -1    0    0  501    0 -0.00000000000E+00 -0.00000000000E+00 -0.20312629107E+04  0.20312629107E+04  0.00000000000E+00 0. -1.
         25    2    1    2    0    0 -0.14384465681E+02 -0.18762969184E+02 -0.36859473519E+03  0.38992927176E+03  0.12499518510E+03 0.  0.
          2    1    1    2  501    0  0.11649587479E+01  0.59324595417E+02 -0.16325641934E+04  0.16336421304E+04  0.00000000000E+00 0. -1.
          1    1    1    2  502    0  0.13219506933E+02 -0.40561626233E+02  0.51792126299E+01  0.42974703370E+02  0.00000000000E+00 0. -1.
         22    1    3    3    0    0 -0.11779478398E+02 -0.48818502654E+02 -0.35186920580E+03  0.35543486084E+03  0.00000000000E+00 0. -1.
         22    1    3    3    0    0 -0.26049872824E+01  0.30055533470E+02 -0.16725529390E+02  0.34494410913E+02  0.00000000000E+00 0. -1.
</event>
<event>
 7    1  0.6520971E-006  0.8464409E+02  0.7818608E-02  0.1406169E+00
          2   -1    0    0  502    0  0.00000000000E+00  0.00000000000E+00  0.69869571571E+03  0.69869571571E+03  0.00000000000E+00 0. -1.
          1   -1    0    0  501    0 -0.00000000000E+00 -0.00000000000E+00 -0.15627322904E+03  0.15627322904E+03  0.00000000000E+00 0. -1.
         25    2    1    2    0    0  0.75135849975E+01 -0.45930249703E+02  0.52769974535E+03  0.54430947098E+03  0.12505893475E+03 0.  0.
          2    1    1    2  501    0 -0.24400080825E+02  0.81994239749E+02 -0.13273765824E+03  0.15791676672E+03  0.00000000000E+00 0. -1.
          1    1    1    2  502    0  0.16886495828E+02 -0.36063990046E+02  0.14746039956E+03  0.15274270706E+03  0.00000000000E+00 0. -1.
         22    1    3    3    0    0  0.23370050222E+02 -0.82938930512E+02  0.43157491219E+03  0.44009309274E+03  0.00000000000E+00 0. -1.
         22    1    3    3    0    0 -0.15856465224E+02  0.37008680809E+02  0.96124833158E+02  0.10421637824E+03  0.00000000000E+00 0. -1.
</event>
<event>
 7    1  0.6520971E-006  0.8462526E+02  0.7818608E-02  0.1317569E+00
          2   -1    0    0  502    0  0.00000000000E+00  0.00000000000E+00  0.16576985244E+04  0.16576985244E+04  0.00000000000E+00 0. -1.
          1   -1    0    0  501    0 -0.00000000000E+00 -0.00000000000E+00 -0.72784483478E+03  0.72784483478E+03  0.00000000000E+00 0. -1.
         25    2    1    2    0    0 -0.73461871973E+02  0.79616393368E+02  0.56781614405E+02  0.17488362449E+03  0.12499885461E+03 0.  0.
          2    1    1    2  501    0  0.83623571385E+02  0.46679683111E+01 -0.66499652517E+03  0.67025000568E+03  0.00000000000E+00 0. -1.
          1    1    1    2  502    0 -0.10161699412E+02 -0.84284361679E+02  0.15380686004E+04  0.15404097291E+04  0.00000000000E+00 0. -1.
         22    1    3    3    0    0 -0.18845381755E+02  0.92244426377E+01 -0.38866339024E+02  0.44168213283E+02  0.00000000000E+00 0. -1.
         22    1    3    3    0    0 -0.54616490217E+02  0.70391950731E+02  0.95647953429E+02  0.13071541120E+03  0.00000000000E+00 0. -1.
</event>
<event>
 7    1  0.6520971E-006  0.7488616E+02  0.7818608E-02  0.1385265E+00
          2   -1    0    0  502    0  0.00000000000E+00  0.00000000000E+00  0.71859282983E+03  0.71859282983E+03  0.00000000000E+00 0. -1.
          1   -1    0    0  501    0 -0.00000000000E+00 -0.00000000000E+00 -0.28399743436E+03  0.28399743436E+03  0.00000000000E+00 0. -1.
         25    2    1    2    0    0  0.35055931394E+02 -0.41794808475E+02  0.44073221773E+01  0.13647456249E+03  0.12502062780E+03 0.  0.
          2    1    1    2  501    0  0.40663928363E+02  0.34254367378E+02 -0.21244290237E+03  0.21899521347E+03  0.00000000000E+00 0. -1.
          1    1    1    2  502    0 -0.75719859757E+02  0.75404410965E+01  0.64263097566E+03  0.64712048823E+03  0.00000000000E+00 0. -1.
         22    1    3    3    0    0 -0.46187812356E+02 -0.54782415459E+01 -0.59171244557E+01  0.46886431966E+02  0.00000000000E+00 0. -1.
         22    1    3    3    0    0  0.81243743750E+02 -0.36316566929E+02  0.10324446633E+02  0.89588130521E+02  0.00000000000E+00 0. -1.
</event>
<event>
 7    1  0.6520971E-006  0.5794815E+02  0.7818608E-02  0.1511864E+00
          2   -1    0    0  502    0  0.00000000000E+00  0.00000000000E+00  0.13858810368E+03  0.13858810368E+03  0.00000000000E+00 0. -1.
          1   -1    0    0  501    0 -0.00000000000E+00 -0.00000000000E+00 -0.39535177118E+03  0.39535177118E+03  0.00000000000E+00 0. -1.
         25    2    1    2    0    0  0.43799085183E+02  0.14267343843E+02 -0.11620575370E+03  0.17677843756E+03  0.12499968731E+03 0.  0.
          2    1    1    2  501    0 -0.43428234385E+02 -0.41200605347E+02 -0.24350170305E+03  0.25075203052E+03  0.00000000000E+00 0. -1.
          1    1    1    2  502    0 -0.37085079844E+00  0.26933261504E+02  0.10294378925E+03  0.10640940678E+03  0.00000000000E+00 0. -1.
         22    1    3    3    0    0  0.33733724468E+02  0.12666206590E+02 -0.14333660145E+03  0.14779640818E+03  0.00000000000E+00 0. -1.
         22    1    3    3    0    0  0.10065360715E+02  0.16011372527E+01  0.27130847750E+02  0.28982029371E+02  0.00000000000E+00 0. -1.
</event>
<event>
 7    1  0.6520971E-006  0.1268268E+03  0.7818608E-02  0.1424011E+00
          2   -1    0    0  502    0  0.00000000000E+00  0.00000000000E+00  0.97380637370E+02  0.97380637370E+02  0.00000000000E+00 0. -1.
          1   -1    0    0  501    0 -0.00000000000E+00 -0.00000000000E+00 -0.68306755909E+03  0.68306755909E+03  0.00000000000E+00 0. -1.
         25    2    1    2    0    0  0.49218353949E+02  0.11206143127E+03 -0.12114530566E+03  0.21279411476E+03  0.12499975780E+03 0.  0.
          2    1    1    2  501    0 -0.71557288243E+02 -0.10600073582E+03 -0.50505414520E+03  0.52099548087E+03  0.00000000000E+00 0. -1.
          1    1    1    2  502    0  0.22338934294E+02 -0.60606954508E+01  0.40512529138E+02  0.46658600835E+02  0.00000000000E+00 0. -1.
         22    1    3    3    0    0  0.87293266687E+01  0.10374683751E+03 -0.23460070992E+02  0.10672386035E+03  0.00000000000E+00 0. -1.
         22    1    3    3    0    0  0.40489027280E+02  0.83145937650E+01 -0.97685234666E+02  0.10607025441E+03  0.00000000000E+00 0. -1.
</event>
<event>
 7    1  0.6520971E-006  0.1847821E+03  0.7818608E-02  0.1165289E+00
          2   -1    0    0  502    0  0.00000000000E+00  0.00000000000E+00  0.90013288647E+02  0.90013288647E+02  0.00000000000E+00 0. -1.
          1   -1    0    0  501    0 -0.00000000000E+00 -0.00000000000E+00 -0.28044191638E+04  0.28044191638E+04  0.00000000000E+00 0. -1.
         25    2    1    2    0    0  0.49234553379E+02 -0.50944866001E+02 -0.13492241678E+03  0.19709785040E+03  0.12499633380E+03 0.  0.
          2    1    1    2  501    0  0.79085981942E+02  0.18390450927E+03 -0.24788621070E+04  0.24869324089E+04  0.00000000000E+00 0. -1.
          1    1    1    2  502    0 -0.12832053532E+03 -0.13295964327E+03 -0.10062135140E+03  0.21040219315E+03  0.00000000000E+00 0. -1.
         22    1    3    3    0    0  0.73378196970E+02 -0.77808257520E+02 -0.92692258906E+02  0.14152858224E+03  0.00000000000E+00 0. -1.
         22    1    3    3    0    0 -0.24143643591E+02  0.26863391519E+02 -0.42230157872E+02  0.55569268158E+02  0.00000000000E+00 0. -1.
</event>
<event>
 7    1  0.6520971E-006  0.1005471E+03  0.7818608E-02  0.1298668E+00
          2   -1    0    0  502    0  0.00000000000E+00  0.00000000000E+00  0.19720744622E+04  0.19720744622E+04  0.00000000000E+00 0. -1.
          1   -1    0    0  501    0 -0.00000000000E+00 -0.00000000000E+00 -0.45037430791E+03  0.45037430791E+03  0.00000000000E+00 0. -1.
         25    2    1    2    0    0  0.58760116293E+02  0.14829804222E+03  0.31494243047E+03  0.37450730775E+03  0.12498771323E+03 0.  0.
          2    1    1    2  501    0 -0.66950600050E+02 -0.50271032847E+02 -0.41492021396E+03  0.42328281744E+03  0.00000000000E+00 0. -1.
          1    1    1    2  502    0  0.81904837574E+01 -0.98027009370E+02  0.16216779378E+04  0.16246586449E+04  0.00000000000E+00 0. -1.
         22    1    3    3    0    0 -0.39153277694E+02  0.43221407422E+02  0.77245650304E+02  0.96788220898E+02  0.00000000000E+00 0. -1.
         22    1    3    3    0    0  0.97913393987E+02  0.10507663480E+03  0.23769678017E+03  0.27771908686E+03  0.00000000000E+00 0. -1.
</event>
<event>
 7    1  0.6520971E-006  0.6318357E+02  0.7818608E-02  0.1540501E+00
          2   -1    0    0  502    0  0.00000000000E+00  0.00000000000E+00  0.10844122823E+04  0.10844122823E+04  0.00000000000E+00 0. -1.
          1   -1    0    0  501    0 -0.00000000000E+00 -0.00000000000E+00 -0.35568033141E+02  0.35568033141E+02  0.00000000000E+00 0. -1.
         25    2    1    2    0    0  0.23038057514E+02 -0.46023464906E+02  0.19378117576E+03  0.23627145040E+03  0.12499657108E+03 0.  0.
          2    1    1    2  501    0  0.20411381227E+02 -0.89590412121E+00 -0.51918912531E+01  0.21080390475E+02  0.00000000000E+00 0. -1.
          1    1    1    2  502    0 -0.43449438741E+02  0.46919369027E+02  0.86025496466E+03  0.86262847457E+03  0.00000000000E+00 0. -1.
         22    1    3    3    0    0  0.32795422546E+02 -0.28606155359E+02  0.20752175610E+03  0.21203568360E+03  0.00000000000E+00 0.  1.
         22    1    3    3    0    0 -0.97573650315E+01 -0.17417309547E+02 -0.13740580345E+02  0.24235766801E+02  0.00000000000E+00 0.  1.
</event>
<event>
 7    1  0.6685808E-006  0.4340042E+02  0.7818608E-02  0.1545448E+00
          2   -1    0    0  502    0  0.00000000000E+00  0.00000000000E+00  0.18112587537E+04  0.18112587537E+04  0.00000000000E+00 0. -1.
          1   -1    0    0  501    0 -0.00000000000E+00 -0.00000000000E+00 -0.91339927989E+03  0.91339927989E+03  0.00000000000E+00 0. -1.
         25    2    1    2    0    0 -0.27060271547E+02 -0.53653763988E+02 -0.19282488775E+03  0.23752058373E+03  0.12499442257E+03 0.  0.
          2    1    1    2  501    0  0.26493817638E+00  0.43082638756E+02 -0.69744582816E+03  0.69877526227E+03  0.00000000000E+00 0. -1.
          1    1    1    2  502    0  0.26795333370E+02  0.10571125233E+02  0.17881301897E+04  0.17883621876E+04  0.00000000000E+00 0. -1.
         22    1    3    3    0    0 -0.71914562893E+02 -0.28116984409E+02 -0.69724092666E+02  0.10403710043E+03  0.00000000000E+00 0.  1.
         22    1    3    3    0    0  0.44854291346E+02 -0.25536779579E+02 -0.12310079508E+03  0.13348348330E+03  0.00000000000E+00 0.  1.
</event>
<event>
 7    1  0.6520971E-006  0.7571203E+02  0.7818608E-02  0.1355576E+00
          2   -1    0    0  502    0  0.00000000000E+00  0.00000000000E+00  0.24241167238E+04  0.24241167238E+04  0.00000000000E+00 0. -1.
          1   -1    0    0  501    0 -0.00000000000E+00 -0.00000000000E+00 -0.60962834672E+03  0.60962834672E+03  0.00000000000E+00 0. -1.
         25    2    1    2    0    0 -0.11992060332E+03  0.41284833850E+02  0.13437583261E+04  0.13555061604E+04  0.12500049370E+03 0.  0.
          2    1    1    2  501    0  0.67225686140E+02  0.86575107999E+00 -0.60081819801E+03  0.60456806851E+03  0.00000000000E+00 0. -1.
          1    1    1    2  502    0  0.52694917179E+02 -0.42150584930E+02  0.10715482491E+04  0.10736708416E+04  0.00000000000E+00 0. -1.
         22    1    3    3    0    0 -0.40779042026E+02 -0.45127201089E+02  0.44069681748E+03  0.44487422884E+03  0.00000000000E+00 0.  1.
         22    1    3    3    0    0 -0.79141561293E+02  0.86412034939E+02  0.90306150857E+03  0.91063193156E+03  0.00000000000E+00 0.  1.
</event>
<event>
 7    1  0.6520971E-006  0.2218455E+03  0.7818608E-02  0.1264112E+00
          2   -1    0    0  502    0  0.00000000000E+00  0.00000000000E+00  0.42570277329E+03  0.42570277329E+03  0.00000000000E+00 0. -1.
          1   -1    0    0  501    0 -0.00000000000E+00 -0.00000000000E+00 -0.62978969224E+03  0.62978969224E+03  0.00000000000E+00 0. -1.
         25    2    1    2    0    0  0.21158823493E+03  0.15202072466E+03 -0.69546459188E+01  0.28905067446E+03  0.12498817313E+03 0.  0.
          2    1    1    2  501    0 -0.29917471212E+02 -0.43364576899E+02 -0.44064470938E+03  0.44378294415E+03  0.00000000000E+00 0. -1.
          1    1    1    2  502    0 -0.18167076372E+03 -0.10865614776E+03  0.24351243635E+03  0.32265884691E+03  0.00000000000E+00 0. -1.
         22    1    3    3    0    0  0.20792786274E+03  0.15976377237E+03 -0.30509292769E+02  0.26398726487E+03  0.00000000000E+00 0.  1.
         22    1    3    3    0    0  0.36603721914E+01 -0.77430477147E+01  0.23554646850E+02  0.25063409599E+02  0.00000000000E+00 0.  1.
</event>
<event>
 7    1  0.6520971E-006  0.1163197E+03  0.7818608E-02  0.1267459E+00
          2   -1    0    0  502    0  0.00000000000E+00  0.00000000000E+00  0.43931670699E+03  0.43931670699E+03  0.00000000000E+00 0. -1.
          1   -1    0    0  501    0 -0.00000000000E+00 -0.00000000000E+00 -0.71132029376E+03  0.71132029376E+03  0.00000000000E+00 0. -1.
         25    2    1    2    0    0 -0.81052581925E+02 -0.37028132337E+02  0.12019332238E+03  0.19496974198E+03  0.12500464760E+03 0.  0.
          2    1    1    2  501    0  0.10346034358E+03 -0.57612073237E+02 -0.66010983529E+03  0.67064758877E+03  0.00000000000E+00 0. -1.
          1    1    1    2  502    0 -0.22407761657E+02  0.94640205574E+02  0.26791292615E+03  0.28501967000E+03  0.00000000000E+00 0. -1.
         22    1    3    3    0    0 -0.94129673159E+02 -0.11498600574E+02  0.28687658215E+02  0.99073684286E+02  0.00000000000E+00 0.  1.
         22    1    3    3    0    0  0.13077091235E+02 -0.25529531763E+02  0.91505664164E+02  0.95896057694E+02  0.00000000000E+00 0.  1.
</event>
<event>
 7    1  0.6520971E-006  0.9830561E+02  0.7818608E-02  0.1433644E+00
          2   -1    0    0  502    0  0.00000000000E+00  0.00000000000E+00  0.67557178989E+02  0.67557178989E+02  0.00000000000E+00 0. -1.
          1   -1    0    0  501    0 -0.00000000000E+00 -0.00000000000E+00 -0.16531299850E+04  0.16531299850E+04  0.00000000000E+00 0. -1.
         25    2    1    2    0    0  0.90633243257E+01 -0.11690271257E+03 -0.62250416238E+03  0.64566652392E+03  0.12500175947E+03 0.  0.
          2    1    1    2  501    0  0.15631437251E+02  0.22935575671E+02 -0.97653903958E+03  0.97693340525E+03  0.00000000000E+00 0. -1.
          1    1    1    2  502    0 -0.24694761577E+02  0.93967136904E+02  0.13470395956E+02  0.98087234819E+02  0.00000000000E+00 0. -1.
         22    1    3    3    0    0  0.35092824477E+02 -0.98535051014E+02 -0.59329667733E+03  0.60244635441E+03  0.00000000000E+00 0.  1.
         22    1    3    3    0    0 -0.26029500151E+02 -0.18367661561E+02 -0.29207485048E+02  0.43220169506E+02  0.00000000000E+00 0.  1.
</event>
<event>
 7    1  0.6520971E-006  0.5059532E+02  0.7818608E-02  0.1496190E+00
          2   -1    0    0  502    0  0.00000000000E+00  0.00000000000E+00  0.10094898049E+04  0.10094898049E+04  0.00000000000E+00 0. -1.
          1   -1    0    0  501    0 -0.00000000000E+00 -0.00000000000E+00 -0.11672992769E+04  0.11672992769E+04  0.00000000000E+00 0. -1.
         25    2    1    2    0    0  0.55448794646E+02 -0.61290085108E+02  0.13901929916E+03  0.20440629199E+03  0.12499809321E+03 0.  0.
          2    1    1    2  501    0 -0.16498534996E+02  0.30114786837E+02 -0.11336028294E+04  0.11341227786E+04  0.00000000000E+00 0. -1.
          1    1    1    2  502    0 -0.38950259650E+02  0.31175298270E+02  0.83677405818E+03  0.83826001120E+03  0.00000000000E+00 0. -1.
         22    1    3    3    0    0  0.67491579726E+02 -0.90016920301E+02  0.13011033155E+03  0.17200830692E+03  0.00000000000E+00 0. -1.
         22    1    3    3    0    0 -0.12042785080E+02  0.28726835193E+02  0.89089676095E+01  0.32397985069E+02  0.00000000000E+00 0. -1.
</event>
<event>
 7    1  0.6520971E-006  0.6194014E+02  0.7818608E-02  0.1433107E+00
          2   -1    0    0  502    0  0.00000000000E+00  0.00000000000E+00  0.16217669549E+04  0.16217669549E+04  0.00000000000E+00 0. -1.
          1   -1    0    0  501    0 -0.00000000000E+00 -0.00000000000E+00 -0.14446049379E+03  0.14446049379E+03  0.00000000000E+00 0. -1.
         25    2    1    2    0    0  0.22269895014E+02 -0.78285666244E+02  0.20463059057E+02  0.15055055545E+03  0.12498855626E+03 0.  0.
          2    1    1    2  501    0  0.23969373385E+02  0.37171999692E+02 -0.72584020006E+02  0.84998402231E+02  0.00000000000E+00 0. -1.
          1    1    1    2  502    0 -0.46239268399E+02  0.41113666552E+02  0.15294274220E+04  0.15306784910E+04  0.00000000000E+00 0. -1.
         22    1    3    3    0    0 -0.10797384957E+02 -0.41795972690E+02  0.69010607183E+02  0.81399943236E+02  0.00000000000E+00 0. -1.
         22    1    3    3    0    0  0.33067279971E+02 -0.36489693553E+02 -0.48547548126E+02  0.69150612212E+02  0.00000000000E+00 0. -1.
</event>
<event>
 7    1  0.6520971E-006  0.1069937E+03  0.7818608E-02  0.1360038E+00
          2   -1    0    0  502    0  0.00000000000E+00  0.00000000000E+00  0.34866096005E+03  0.34866096005E+03  0.00000000000E+00 0. -1.
          1   -1    0    0  501    0 -0.00000000000E+00 -0.00000000000E+00 -0.45408248889E+03  0.45408248889E+03  0.00000000000E+00 0. -1.
         25    2    1    2    0    0  0.71872208530E+02 -0.61407503995E+01 -0.34873584996E+02  0.14846939381E+03  0.12499468306E+03 0.  0.
          2    1    1    2  501    0 -0.11138374668E+03 -0.17057508778E+02 -0.35175291351E+03  0.36936081247E+03  0.00000000000E+00 0. -1.
          1    1    1    2  502    0  0.39511538147E+02  0.23198259178E+02  0.28120496967E+03  0.28491324266E+03  0.00000000000E+00 0. -1.
         22    1    3    3    0    0  0.10470284316E+03 -0.19451553833E+02 -0.37602620318E+02  0.11293805987E+03  0.00000000000E+00 0.  1.
         22    1    3    3    0    0 -0.32830634626E+02  0.13310803434E+02  0.27290353224E+01  0.35531333943E+02  0.00000000000E+00 0.  1.
</event>
<event>
 7    1  0.6520971E-006  0.6848939E+02  0.7818608E-02  0.1529415E+00
          2   -1    0    0  502    0  0.00000000000E+00  0.00000000000E+00  0.85458648800E+03  0.85458648800E+03  0.00000000000E+00 0. -1.
          1   -1    0    0  501    0 -0.00000000000E+00 -0.00000000000E+00 -0.18639640861E+03  0.18639640861E+03  0.00000000000E+00 0. -1.
         25    2    1    2    0    0  0.30367651337E+02  0.63597448098E+02  0.28762202870E+03  0.32143253985E+03  0.12500246651E+03 0.  0.
          2    1    1    2  501    0 -0.19836943387E+02  0.41603344526E+01 -0.16673802094E+03  0.16796541410E+03  0.00000000000E+00 0. -1.
          1    1    1    2  502    0 -0.10530707950E+02 -0.67757782550E+02  0.54730607164E+03  0.55158494265E+03  0.00000000000E+00 0. -1.
         22    1    3    3    0    0  0.97786157576E+01  0.21177749721E+02 -0.59699862936E+01  0.24078188174E+02  0.00000000000E+00 0. -1.
         22    1    3    3    0    0  0.20589035580E+02  0.42419698377E+02  0.29359201499E+03  0.29735435168E+03  0.00000000000E+00 0. -1.
</event>
<event>
 7    1  0.6520971E-006  0.7155319E+02  0.7818608E-02  0.1446577E+00
          2   -1    0    0  502    0  0.00000000000E+00  0.00000000000E+00  0.77493425857E+03  0.77493425857E+03  0.00000000000E+00 0. -1.
          1   -1    0    0  501    0 -0.00000000000E+00 -0.00000000000E+00 -0.10088987762E+04  0.10088987762E+04  0.00000000000E+00 0. -1.
         25    2    1    2    0    0 -0.14227626524E+02  0.10338389145E+03  0.18991914014E+02  0.16394000680E+03  0.12499991466E+03 0.  0.
          2    1    1    2  501    0 -0.20960720365E+01 -0.34557070211E+02 -0.93427303244E+03  0.93491426546E+03  0.00000000000E+00 0. -1.
          1    1    1    2  502    0  0.16323698560E+02 -0.68826821238E+02  0.68131660084E+03  0.68497876247E+03  0.00000000000E+00 0. -1.
         22    1    3    3    0    0 -0.60869222242E+01 -0.12513258341E+02 -0.33630576357E+02  0.36395712970E+02  0.00000000000E+00 0. -1.
         22    1    3    3    0    0 -0.81407042997E+01  0.11589714979E+03  0.52622490372E+02  0.12754429383E+03  0.00000000000E+00 0. -1.
</event>
<event>
 7    1  0.6520971E-006  0.8261542E+02  0.7818608E-02  0.1372171E+00
          2   -1    0    0  502    0  0.00000000000E+00  0.00000000000E+00  0.11188126773E+04  0.11188126773E+04  0.00000000000E+00 0. -1.
          1   -1    0    0  501    0 -0.00000000000E+00 -0.00000000000E+00 -0.49360746728E+03  0.49360746728E+03  0.00000000000E+00 0. -1.
         25    2    1    2    0    0 -0.67450090682E+01  0.45963801857E+02 -0.49189016146E+02  0.14213669157E+03  0.12500045421E+03 0.  0.
          2    1    1    2  501    0 -0.34973132433E+02 -0.79675508865E+02 -0.39250634333E+03  0.40203549129E+03  0.00000000000E+00 0. -1.
          1    1    1    2  502    0  0.41718141501E+02  0.33711707008E+02  0.10669005695E+04  0.10682479618E+04  0.00000000000E+00 0. -1.
         22    1    3    3    0    0  0.27169393142E+02  0.94724466218E+00 -0.75272760239E+02  0.80031628936E+02  0.00000000000E+00 0. -1.
         22    1    3    3    0    0 -0.33914402210E+02  0.45016557195E+02  0.26083744092E+02  0.62105062634E+02  0.00000000000E+00 0. -1.
</event>
<event>
 7    1  0.6520971E-006  0.7316927E+02  0.7818608E-02  0.1356542E+00
          2   -1    0    0  502    0  0.00000000000E+00  0.00000000000E+00  0.54557173383E+03  0.54557173383E+03  0.00000000000E+00 0. -1.
          1   -1    0    0  501    0 -0.00000000000E+00 -0.00000000000E+00 -0.11716091706E+04  0.11716091706E+04  0.00000000000E+00 0. -1.
         25    2    1    2    0    0  0.85862231849E+02  0.93298621233E+02  0.23156981371E+02  0.17955047887E+03  0.12500069238E+03 0.  0.
          2    1    1    2  501    0 -0.67568048073E+02 -0.26765972291E+02 -0.10895148898E+04  0.10919361490E+04  0.00000000000E+00 0. -1.
          1    1    1    2  502    0 -0.18294183777E+02 -0.66532648943E+02  0.44032047158E+03  0.44569427664E+03  0.00000000000E+00 0. -1.
         22    1    3    3    0    0 -0.19064144426E+02  0.13270320324E+02 -0.29433290145E+02  0.37494820615E+02  0.00000000000E+00 0.  1.
         22    1    3    3    0    0  0.10492637628E+03  0.80028300909E+02  0.52590271516E+02  0.14205565826E+03  0.00000000000E+00 0.  1.
</event>
<event>
 7    1  0.6520971E-006  0.8867643E+02  0.7818608E-02  0.1384754E+00
          2   -1    0    0  502    0  0.00000000000E+00  0.00000000000E+00  0.19861988748E+04  0.19861988748E+04  0.00000000000E+00 0. -1.
          1   -1    0    0  501    0 -0.00000000000E+00 -0.00000000000E+00 -0.88134570596E+03  0.88134570596E+03  0.00000000000E+00 0. -1.
         25    2    1    2    0    0 -0.22126301074E+02 -0.85699737621E+02  0.20179708251E+02  0.15448654783E+03  0.12499941843E+03 0.  0.
          2    1    1    2  501    0 -0.22959080497E+02  0.85978457488E+02 -0.81149183468E+03  0.81635679227E+03  0.00000000000E+00 0. -1.
          1    1    1    2  502    0  0.45085381571E+02 -0.27871986679E+00  0.18961652953E+04  0.18967012407E+04  0.00000000000E+00 0. -1.
         22    1    3    3    0    0 -0.42623992690E+01  0.31046379923E+02 -0.94315241268E+01  0.32726127196E+02  0.00000000000E+00 0. -1.
         22    1    3    3    0    0 -0.17863901805E+02 -0.11674611754E+03  0.29611232378E+02  0.12176042063E+03  0.00000000000E+00 0. -1.
</event>
<event>
 7    1  0.6520971E-006  0.8852009E+02  0.7818608E-02  0.1407576E+00
          2   -1    0    0  502    0  0.00000000000E+00  0.00000000000E+00  0.10930083081E+04  0.10930083081E+04  0.00000000000E+00 0. -1.
          1   -1    0    0  501    0 -0.00000000000E+00 -0.00000000000E+00 -0.22665828901E+04  0.22665828901E+04  0.00000000000E+00 0. -1.
         25    2    1    2    0    0  0.12156053380E+03  0.25153523983E+01  0.31024142223E+02  0.17711818756E+03  0.12500025835E+03 0.  0.
          2    1    1    2  501    0 -0.86663095063E+02 -0.16674622249E+02 -0.21922891855E+04  0.21940648139E+04  0.00000000000E+00 0. -1.
          1    1    1    2  502    0 -0.34897438738E+02  0.14159269850E+02  0.98769046122E+03  0.98840819672E+03  0.00000000000E+00 0. -1.
         22    1    3    3    0    0  0.10060554626E+03 -0.50211507293E+02  0.40663932118E+02  0.11956682976E+03  0.00000000000E+00 0.  1.
         22    1    3    3    0    0  0.20954987543E+02  0.52726859691E+02 -0.96397898944E+01  0.57551357804E+02  0.00000000000E+00 0.  1.
</event>
<event>
 7    1  0.6520971E-006  0.1523137E+03  0.7818608E-02  0.1303125E+00
          2   -1    0    0  502    0  0.00000000000E+00  0.00000000000E+00  0.25261913884E+04  0.25261913884E+04  0.00000000000E+00 0. -1.
          1   -1    0    0  501    0 -0.00000000000E+00 -0.00000000000E+00 -0.45816630250E+03  0.45816630250E+03  0.00000000000E+00 0. -1.
         25    2    1    2    0    0  0.83398619256E+02  0.12305928129E+03  0.38004749898E+03  0.42680192349E+03  0.12499945603E+03 0.  0.
          2    1    1    2  501    0 -0.12409526385E+03 -0.89034050713E+02 -0.42103263529E+03  0.44787852893E+03  0.00000000000E+00 0. -1.
          1    1    1    2  502    0  0.40696644594E+02 -0.34025230582E+02  0.21090102222E+04  0.21096772384E+04  0.00000000000E+00 0. -1.
         22    1    3    3    0    0  0.10132458035E+03  0.59736029444E+02  0.30549907340E+03  0.32736027194E+03  0.00000000000E+00 0. -1.
         22    1    3    3    0    0 -0.17925961095E+02  0.63323251850E+02  0.74548425576E+02  0.99441651545E+02  0.00000000000E+00 0. -1.
</event>
<event>
 7    1  0.6520971E-006  0.1251458E+03  0.7818608E-02  0.1356784E+00
          2   -1    0    0  502    0  0.00000000000E+00  0.00000000000E+00  0.22806662808E+04  0.22806662808E+04  0.00000000000E+00 0. -1.
          1   -1    0    0  501    0 -0.00000000000E+00 -0.00000000000E+00 -0.62045707100E+02  0.62045707100E+02  0.00000000000E+00 0. -1.
         25    2    1    2    0    0 -0.68229549495E+02  0.89099029110E+02  0.17163776727E+04  0.17245785670E+04  0.12500004029E+03 0.  0.
          2    1    1    2  501    0  0.41214476356E+02 -0.11895099254E+03  0.12243434094E+02  0.12648269987E+03  0.00000000000E+00 0. -1.
          1    1    1    2  502    0  0.27015073139E+02  0.29851963434E+02  0.48999946691E+03  0.49165072101E+03  0.00000000000E+00 0. -1.
         22    1    3    3    0    0 -0.60984945953E+02  0.17569215188E+02  0.31348212460E+03  0.31984196629E+03  0.00000000000E+00 0.  1.
         22    1    3    3    0    0 -0.72446035411E+01  0.71529813922E+02  0.14028955481E+04  0.14047366007E+04  0.00000000000E+00 0.  1.
</event>
<event>
 7    1  0.6520971E-006  0.4078711E+02  0.7818608E-02  0.1519772E+00
          2   -1    0    0  502    0  0.00000000000E+00  0.00000000000E+00  0.91811973956E+03  0.91811973956E+03  0.00000000000E+00 0. -1.
          1   -1    0    0  501    0 -0.00000000000E+00 -0.00000000000E+00 -0.37892000281E+03  0.37892000281E+03  0.00000000000E+00 0. -1.
         25    2    1    2    0    0  0.48995359553E+02 -0.49068939657E+02  0.11033352677E+03  0.18057713218E+03  0.12500522965E+03 0.  0.
          2    1    1    2  501    0 -0.34475826129E+02  0.11321131395E+02 -0.34230931718E+03  0.34422727845E+03  0.00000000000E+00 0. -1.
          1    1    1    2  502    0 -0.14519533424E+02  0.37747808261E+02  0.77117552717E+03  0.77223533174E+03  0.00000000000E+00 0. -1.
         22    1    3    3    0    0 -0.42490821191E+02 -0.16027673250E+02  0.40327385016E+02  0.60734291611E+02  0.00000000000E+00 0. -1.
         22    1    3    3    0    0  0.91486180744E+02 -0.33041266407E+02  0.70006141751E+02  0.11984284057E+03  0.00000000000E+00 0. -1.
</event>
<event>
 7    1  0.6520971E-006  0.7070975E+02  0.7818608E-02  0.1466585E+00
          2   -1    0    0  502    0  0.00000000000E+00  0.00000000000E+00  0.98145752258E+02  0.98145752258E+02  0.00000000000E+00 0. -1.
          1   -1    0    0  501    0 -0.00000000000E+00 -0.00000000000E+00 -0.34039272583E+03  0.34039272583E+03  0.00000000000E+00 0. -1.
         25    2    1    2    0    0  0.35985902437E+02 -0.52650480515E+02  0.29987158364E+02  0.14349660537E+03  0.12499995125E+03 0.  0.
          2    1    1    2  501    0 -0.11552032633E+02  0.70523772222E+02 -0.24170259640E+03  0.25204602161E+03  0.00000000000E+00 0. -1.
          1    1    1    2  502    0 -0.24433869803E+02 -0.17873291707E+02 -0.30531535541E+02  0.42995851108E+02  0.00000000000E+00 0. -1.
         22    1    3    3    0    0  0.36468465151E+02  0.28966525145E+02  0.39836740864E+02  0.61286005353E+02  0.00000000000E+00 0. -1.
         22    1    3    3    0    0 -0.48256271485E+00 -0.81617005659E+02 -0.98495824999E+01  0.82210600016E+02  0.00000000000E+00 0. -1.
</event>
<event>
 7    1  0.6520971E-006  0.8461169E+02  0.7818608E-02  0.1421103E+00
          2   -1    0    0  502    0  0.00000000000E+00  0.00000000000E+00  0.43251333780E+03  0.43251333780E+03  0.00000000000E+00 0. -1.
          1   -1    0    0  501    0 -0.00000000000E+00 -0.00000000000E+00 -0.24791641677E+04  0.24791641677E+04  0.00000000000E+00 0. -1.
         25    2    1    2    0    0  0.33360002820E+02 -0.94408250044E+02  0.41026830533E+02  0.16533332811E+03  0.12500440430E+03 0.  0.
          2    1    1    2  501    0  0.71683896421E+00  0.84540127525E+02 -0.24153137558E+04  0.24167929341E+04  0.00000000000E+00 0. -1.
          1    1    1    2  502    0 -0.34076841784E+02  0.98681225193E+01  0.32763609539E+03  0.32955124334E+03  0.00000000000E+00 0. -1.
         22    1    3    3    0    0  0.62455164819E+02 -0.24916233523E+01  0.61474481610E+01  0.62806424181E+02  0.00000000000E+00 0.  1.
         22    1    3    3    0    0 -0.29095162000E+02 -0.91916626692E+02  0.34879382372E+02  0.10252690393E+03  0.00000000000E+00 0.  1.
</event>
<event>
 7    1  0.6520971E-006  0.1270102E+03  0.7818608E-02  0.1309563E+00
          2   -1    0    0  502    0  0.00000000000E+00  0.00000000000E+00  0.28199395983E+04  0.28199395983E+04  0.00000000000E+00 0. -1.
          1   -1    0    0  501    0 -0.00000000000E+00 -0.00000000000E+00 -0.70479745742E+03  0.70479745742E+03  0.00000000000E+00 0. -1.
         25    2    1    2    0    0 -0.10112534082E+03 -0.27041933436E+02  0.54358665840E+02  0.17186538582E+03  0.12500098229E+03 0.  0.
          2    1    1    2  501    0  0.95363357590E+02  0.86749269167E+02 -0.63927636760E+03  0.65214559712E+03  0.00000000000E+00 0. -1.
          1    1    1    2  502    0  0.57619832274E+01 -0.59707335731E+02  0.27000598427E+04  0.27007260728E+04  0.00000000000E+00 0. -1.
         22    1    3    3    0    0 -0.12108246335E+02 -0.37206486121E+02 -0.29613354610E+02  0.49070184532E+02  0.00000000000E+00 0. -1.
         22    1    3    3    0    0 -0.89017094482E+02  0.10164552685E+02  0.83972020450E+02  0.12279520129E+03  0.00000000000E+00 0. -1.
</event>
<event>
 7    1  0.8936374E-006  0.1405201E+03  0.7818608E-02  0.1256100E+00
          2   -1    0    0  502    0  0.00000000000E+00  0.00000000000E+00  0.12399086512E+04  0.12399086512E+04  0.00000000000E+00 0. -1.
          1   -1    0    0  501    0 -0.00000000000E+00 -0.00000000000E+00 -0.26208489256E+04  0.26208489256E+04  0.00000000000E+00 0. -1.
         25    2    1    2    0    0 -0.26358032066E+01  0.23684605173E+02 -0.10417150798E+04  0.10494585533E+04  0.12500015840E+03 0.  0.
          2    1    1    2  501    0  0.60782149716E+02 -0.15161002709E+03 -0.15670095240E+04  0.15754995774E+04  0.00000000000E+00 0. -1.
          1    1    1    2  502    0 -0.58146346510E+02  0.12792542192E+03  0.12277843295E+04  0.12357994461E+04  0.00000000000E+00 0. -1.
         22    1    3    3    0    0 -0.20905847951E+02  0.37339542702E+02 -0.11898376054E+03  0.12644536844E+03  0.00000000000E+00 0. -1.
         22    1    3    3    0    0  0.18270044744E+02 -0.13654937528E+02 -0.92273131929E+03  0.92301318488E+03  0.00000000000E+00 0. -1.
</event>
<event>
 7    1  0.6520971E-006  0.1459606E+03  0.7818608E-02  0.1370438E+00
          2   -1    0    0  502    0  0.00000000000E+00  0.00000000000E+00  0.17547649109E+04  0.17547649109E+04  0.00000000000E+00 0. -1.
          1   -1    0    0  501    0 -0.00000000000E+00 -0.00000000000E+00 -0.47327885867E+03  0.47327885867E+03  0.00000000000E+00 0. -1.
         25    2    1    2    0    0 -0.99740078074E+02  0.14060995787E+03  0.22674029424E+03  0.31105602530E+03  0.12500178567E+03 0.  0.
          2    1    1    2  501    0  0.25296752635E+02 -0.17564442407E+02 -0.42708544665E+03  0.42819436483E+03  0.00000000000E+00 0. -1.
          1    1    1    2  502    0  0.74443325439E+02 -0.12304551546E+03  0.14818312047E+04  0.14887933795E+04  0.00000000000E+00 0. -1.
         22    1    3    3    0    0 -0.10705925329E+03  0.48633662229E+02  0.15285867222E+03  0.19285406527E+03  0.00000000000E+00 0.  1.
         22    1    3    3    0    0  0.73191752111E+01  0.91976295638E+02  0.73881622012E+02  0.11820196004E+03  0.00000000000E+00 0.  1.
</event>
<event>
 7    1  0.6520971E-006  0.7919875E+02  0.7818608E-02  0.1376863E+00
          2   -1    0    0  502    0  0.00000000000E+00  0.00000000000E+00  0.18902609363E+04  0.18902609363E+04  0.00000000000E+00 0. -1.
          1   -1    0    0  501    0 -0.00000000000E+00 -0.00000000000E+00 -0.21500842816E+03  0.21500842816E+03  0.00000000000E+00 0. -1.
         25    2    1    2    0    0 -0.27455518605E+02  0.11920643991E+02  0.31518094563E+03  0.34038193688E+03  0.12499970883E+03 0.  0.
          2    1    1    2  501    0 -0.51815312913E+02  0.14600682445E+02 -0.19768803758E+03  0.20488671695E+03  0.00000000000E+00 0. -1.
          1    1    1    2  502    0  0.79270831519E+02 -0.26521326436E+02  0.15577596001E+04  0.15600007106E+04  0.00000000000E+00 0. -1.
         22    1    3    3    0    0 -0.18180631184E+01  0.43415326889E+02  0.31156457918E+02  0.53468877231E+02  0.00000000000E+00 0.  1.
         22    1    3    3    0    0 -0.25637455487E+02 -0.31494682898E+02  0.28402448771E+03  0.28691305964E+03  0.00000000000E+00 0.  1.
</event>
<event>
 7    1  0.6520971E-006  0.7084552E+02  0.7818608E-02  0.1413457E+00
          2   -1    0    0  502    0  0.00000000000E+00  0.00000000000E+00  0.10338717455E+04  0.10338717455E+04  0.00000000000E+00 0. -1.
          1   -1    0    0  501    0 -0.00000000000E+00 -0.00000000000E+00 -0.10165910103E+03  0.10165910103E+03  0.00000000000E+00 0. -1.
         25    2    1    2    0    0  0.64769659960E+02  0.60688583665E+02  0.63590187805E+03  0.65412167111E+03  0.12500299621E+03 0.  0.
          2    1    1    2  501    0 -0.44771432558E+02  0.39669730858E+01 -0.83921982877E+02  0.95200405770E+02  0.00000000000E+00 0. -1.
          1    1    1    2  502    0 -0.19998227402E+02 -0.64655556751E+02  0.38023274931E+03  0.38620876966E+03  0.00000000000E+00 0. -1.
         22    1    3    3    0    0  0.40181673848E+02 -0.22122188860E+02  0.40501377875E+03  0.40760289392E+03  0.00000000000E+00 0. -1.
         22    1    3    3    0    0  0.24587986113E+02  0.82810772525E+02  0.23088809930E+03  0.24651877719E+03  0.00000000000E+00 0. -1.
</event>
<event>
 7    1  0.6520971E-006  0.8096575E+02  0.7818608E-02  0.1326457E+00
          2   -1    0    0  502    0  0.00000000000E+00  0.00000000000E+00  0.88710270391E+02  0.88710270391E+02  0.00000000000E+00 0. -1.
          1   -1    0    0  501    0 -0.00000000000E+00 -0.00000000000E+00 -0.17996053075E+04  0.17996053075E+04  0.00000000000E+00 0. -1.
         25    2    1    2    0    0 -0.11993020192E+02  0.50983378992E+02 -0.94192187881E+03  0.95162212020E+03  0.12499878562E+03 0.  0.
          2    1    1    2  501    0 -0.69729089019E+02 -0.40974328728E+02 -0.83017497007E+03  0.83410522262E+03  0.00000000000E+00 0. -1.
          1    1    1    2  502    0  0.81722109211E+02 -0.10009050265E+02  0.61201811740E+02  0.10258823510E+03  0.00000000000E+00 0. -1.
         22    1    3    3    0    0 -0.27904313368E+02 -0.35768288127E+02 -0.24770230689E+03  0.25182226665E+03  0.00000000000E+00 0.  1.
         22    1    3    3    0    0  0.15911293175E+02  0.86751667119E+02 -0.69421957192E+03  0.69979985355E+03  0.00000000000E+00 0.  1.
</event>
<event>
 7    1  0.6520971E-006  0.1043700E+03  0.7818608E-02  0.1460761E+00
          2   -1    0    0  502    0  0.00000000000E+00  0.00000000000E+00  0.13243358448E+04  0.13243358448E+04  0.00000000000E+00 0. -1.
          1   -1    0    0  501    0 -0.00000000000E+00 -0.00000000000E+00 -0.45370989279E+02  0.45370989279E+02  0.00000000000E+00 0. -1.
         25    2    1    2    0    0  0.74586174321E+02  0.97781486048E+02  0.38752653696E+03  0.42535422655E+03  0.12500033916E+03 0.  0.
          2    1    1    2  501    0 -0.12982561512E+02 -0.17001497857E+02 -0.18790347853E+02  0.28472355105E+02  0.00000000000E+00 0. -1.
          1    1    1    2  502    0 -0.61603612809E+02 -0.80779988191E+02  0.91022866646E+03  0.91588025246E+03  0.00000000000E+00 0. -1.
         22    1    3    3    0    0  0.75690680420E+02  0.11927303801E+03  0.25881864845E+03  0.29485967761E+03  0.00000000000E+00 0. -1.
         22    1    3    3    0    0 -0.11045060988E+01 -0.21491551957E+02  0.12870788851E+03  0.13049454894E+03  0.00000000000E+00 0. -1.
</event>
<event>
 7    1  0.6520971E-006  0.8744741E+02  0.7818608E-02  0.1314991E+00
          2   -1    0    0  502    0  0.00000000000E+00  0.00000000000E+00  0.99822956339E+02  0.99822956339E+02  0.00000000000E+00 0. -1.
          1   -1    0    0  501    0 -0.00000000000E+00 -0.00000000000E+00 -0.15037099390E+04  0.15037099390E+04  0.00000000000E+00 0. -1.
         25    2    1    2    0    0 -0.20731811748E+02  0.55882344535E+02 -0.33151208144E+03  0.35927884433E+03  0.12501353286E+03 0.  0.
          2    1    1    2  501    0  0.82035698027E+02  0.12282199715E+02 -0.11319081955E+04  0.11349435542E+04  0.00000000000E+00 0. -1.
          1    1    1    2  502    0 -0.61303886279E+02 -0.68164544251E+02  0.59533294331E+02  0.10931049675E+03  0.00000000000E+00 0. -1.
         22    1    3    3    0    0 -0.13476712805E+02  0.15756590410E+02  0.41533536957E+01  0.21145738963E+02  0.00000000000E+00 0.  1.
         22    1    3    3    0    0 -0.72550989438E+01  0.40125754126E+02 -0.33566543513E+03  0.33813310537E+03  0.00000000000E+00 0.  1.
</event>
<event>
 7    1  0.7171154E-006  0.7300179E+02  0.7818608E-02  0.1496615E+00
          2   -1    0    0  502    0  0.00000000000E+00  0.00000000000E+00  0.93878142692E+03  0.93878142692E+03  0.00000000000E+00 0. -1.
          1   -1    0    0  501    0 -0.00000000000E+00 -0.00000000000E+00 -0.92856435102E+03  0.92856435102E+03  0.00000000000E+00 0. -1.
         25    2    1    2    0    0  0.48335954873E+02 -0.35112066593E+02 -0.34332510291E+03  0.37022720504E+03  0.12500734102E+03 0.  0.
          2    1    1    2  501    0 -0.44520418027E+01 -0.23307527752E+02 -0.57009864263E+03  0.57059225710E+03  0.00000000000E+00 0. -1.
          1    1    1    2  502    0 -0.43883913070E+02  0.58419594345E+02  0.92364082145E+03  0.92652631581E+03  0.00000000000E+00 0. -1.
         22    1    3    3    0    0  0.12128252709E+02 -0.79846949721E+02 -0.18974155250E+03  0.20621466155E+03  0.00000000000E+00 0.  1.
         22    1    3    3    0    0  0.36207702163E+02  0.44734883128E+02 -0.15358355041E+03  0.16401254349E+03  0.00000000000E+00 0.  1.
</event>
<event>
 7    1  0.6520971E-006  0.1362645E+03  0.7818608E-02  0.1267435E+00
          2   -1    0    0  502    0  0.00000000000E+00  0.00000000000E+00  0.15169330191E+04  0.15169330191E+04  0.00000000000E+00 0. -1.
          1   -1    0    0  501    0 -0.00000000000E+00 -0.00000000000E+00 -0.46307680611E+04  0.46307680611E+04  0.00000000000E+00 0. -1.
         25    2    1    2    0    0 -0.12735753460E+03  0.10944218736E+02 -0.93562255846E+02  0.20179603645E+03  0.12501210767E+03 0.  0.
          2    1    1    2  501    0  0.24380369684E+02  0.79381334286E+02 -0.44794965931E+04  0.44802662339E+04  0.00000000000E+00 0. -1.
          1    1    1    2  502    0  0.10297716492E+03 -0.90325553022E+02  0.14592238070E+04  0.14656388098E+04  0.00000000000E+00 0. -1.
         22    1    3    3    0    0 -0.12573433922E+03  0.16517315757E+02 -0.12008277652E+03  0.17464769966E+03  0.00000000000E+00 0. -1.
         22    1    3    3    0    0 -0.16231953868E+01 -0.55730970211E+01  0.26520520676E+02  0.27148336793E+02  0.00000000000E+00 0. -1.
</event>
<event>
 7    1  0.6520971E-006  0.1057343E+03  0.7818608E-02  0.1401150E+00
          2   -1    0    0  502    0  0.00000000000E+00  0.00000000000E+00  0.96038429934E+03  0.96038429934E+03  0.00000000000E+00 0. -1.
          1   -1    0    0  501    0 -0.00000000000E+00 -0.00000000000E+00 -0.17408650410E+03  0.17408650410E+03  0.00000000000E+00 0. -1.
         25    2    1    2    0    0  0.45205616298E+02 -0.63077163360E+02  0.88574668217E+02  0.17173559084E+03  0.12500146011E+03 0.  0.
          2    1    1    2  501    0 -0.65559210386E+02  0.89260766647E+02 -0.10896428943E+03  0.15536637635E+03  0.00000000000E+00 0. -1.
          1    1    1    2  502    0  0.20353594087E+02 -0.26183603287E+02  0.80668741646E+03  0.80736883625E+03  0.00000000000E+00 0. -1.
         22    1    3    3    0    0  0.17019432170E+01 -0.93836451089E+02  0.56524823958E+02  0.10955926199E+03  0.00000000000E+00 0.  1.
         22    1    3    3    0    0  0.43503673081E+02  0.30759287729E+02  0.32049844259E+02  0.62176328858E+02  0.00000000000E+00 0.  1.
</event>
<event>
 7    1  0.6520971E-006  0.4207360E+02  0.7818608E-02  0.1583958E+00
          2   -1    0    0  502    0  0.00000000000E+00  0.00000000000E+00  0.14789248554E+04  0.14789248554E+04  0.00000000000E+00 0. -1.
          1   -1    0    0  501    0 -0.00000000000E+00 -0.00000000000E+00 -0.11285639734E+04  0.11285639734E+04  0.00000000000E+00 0. -1.
         25    2    1    2    0    0  0.46720666293E+02 -0.23536494525E+02  0.23036132231E+02  0.13745017458E+03  0.12500039948E+03 0.  0.
          2    1    1    2  501    0 -0.21138216023E+02 -0.98307425421E+01 -0.10709140863E+04  0.10711677964E+04  0.00000000000E+00 0. -1.
          1    1    1    2  502    0 -0.25582450269E+02  0.33367237068E+02  0.13982388361E+04  0.13988708579E+04  0.00000000000E+00 0. -1.
         22    1    3    3    0    0  0.14117990822E+02 -0.27005273352E+02  0.72193854540E+02  0.78361694003E+02  0.00000000000E+00 0.  1.
         22    1    3    3    0    0  0.32602675471E+02  0.34687788263E+01 -0.49157722309E+02  0.59088480578E+02  0.00000000000E+00 0.  1.
</event>
<event>
 7    1  0.6520971E-006  0.3417238E+02  0.7818608E-02  0.1627599E+00
          2   -1    0    0  502    0  0.00000000000E+00  0.00000000000E+00  0.59839445172E+03  0.59839445172E+03  0.00000000000E+00 0. -1.
          1   -1    0    0  501    0 -0.00000000000E+00 -0.00000000000E+00 -0.28411602639E+03  0.28411602639E+03  0.00000000000E+00 0. -1.
         25    2    1    2    0    0  0.86699242483E+01  0.46791695855E+02  0.12519920011E+03  0.18319739431E+03  0.12498726010E+03 0.  0.
          2    1    1    2  501    0 -0.17194548817E+02 -0.13909827648E+02 -0.25398625228E+03  0.25494735174E+03  0.00000000000E+00 0. -1.
          1    1    1    2  502    0  0.85246245687E+01 -0.32881868207E+02  0.44306547750E+03  0.44436573206E+03  0.00000000000E+00 0. -1.
         22    1    3    3    0    0  0.23664128832E+02 -0.29057722002E+02  0.91459292296E+02  0.98838981929E+02  0.00000000000E+00 0. -1.
         22    1    3    3    0    0 -0.14994204584E+02  0.75849417858E+02  0.33739907810E+02  0.84358412381E+02  0.00000000000E+00 0. -1.
</event>
<event>
 7    1  0.6520971E-006  0.6778732E+02  0.7818608E-02  0.1436001E+00
          2   -1    0    0  502    0  0.00000000000E+00  0.00000000000E+00  0.22439188653E+03  0.22439188653E+03  0.00000000000E+00 0. -1.
          1   -1    0    0  501    0 -0.00000000000E+00 -0.00000000000E+00 -0.15906915323E+04  0.15906915323E+04  0.00000000000E+00 0. -1.
         25    2    1    2    0    0 -0.60855233499E+01 -0.62420106749E+02 -0.81522124401E+03  0.82713002767E+03  0.12500041062E+03 0.  0.
          2    1    1    2  501    0  0.45040700044E+02  0.55624460453E+02 -0.76604431228E+03  0.76938068187E+03  0.00000000000E+00 0. -1.
          1    1    1    2  502    0 -0.38955176694E+02  0.67956462959E+01  0.21496591047E+03  0.21857270933E+03  0.00000000000E+00 0. -1.
         22    1    3    3    0    0 -0.50978195221E+02 -0.39552896778E+01 -0.16492116268E+03  0.17266560342E+03  0.00000000000E+00 0. -1.
         22    1    3    3    0    0  0.44892671871E+02 -0.58464817071E+02 -0.65030008134E+03  0.65446442425E+03  0.00000000000E+00 0. -1.
</event>
<event>
 7    1  0.6520971E-006  0.1010586E+03  0.7818608E-02  0.1290638E+00
          2   -1    0    0  502    0  0.00000000000E+00  0.00000000000E+00  0.42232954145E+03  0.42232954145E+03  0.00000000000E+00 0. -1.
          1   -1    0    0  501    0 -0.00000000000E+00 -0.00000000000E+00 -0.81354517766E+03  0.81354517766E+03  0.00000000000E+00 0. -1.
         25    2    1    2    0    0 -0.14959521779E+03  0.10954315649E+03 -0.56448293481E+02  0.23062892786E+03  0.12499944083E+03 0.  0.
          2    1    1    2  501    0  0.65390436999E+02 -0.61482848511E+02 -0.65989432502E+03  0.66597039732E+03  0.00000000000E+00 0. -1.
          1    1    1    2  502    0  0.84204780791E+02 -0.48060307981E+02  0.32512698229E+03  0.33927539393E+03  0.00000000000E+00 0. -1.
         22    1    3    3    0    0 -0.22087249377E+02  0.56023423694E+02 -0.69227971178E+02  0.91755013928E+02  0.00000000000E+00 0.  1.
         22    1    3    3    0    0 -0.12750796841E+03  0.53519732798E+02  0.12779677697E+02  0.13887391393E+03  0.00000000000E+00 0.  1.
</event>
<event>
 7    1  0.6520971E-006  0.4607981E+02  0.7818608E-02  0.1500748E+00
          2   -1    0    0  502    0  0.00000000000E+00  0.00000000000E+00  0.15185751990E+03  0.15185751990E+03  0.00000000000E+00 0. -1.
          1   -1    0    0  501    0 -0.00000000000E+00 -0.00000000000E+00 -0.10633342906E+04  0.10633342906E+04  0.00000000000E+00 0. -1.
         25    2    1    2    0    0  0.34140440946E+01 -0.59779671914E+02 -0.17172020371E+03  0.22067412595E+03  0.12499590646E+03 0.  0.
          2    1    1    2  501    0 -0.29363403916E+02  0.21744306108E+02 -0.86257682326E+03  0.86335033467E+03  0.00000000000E+00 0. -1.
          1    1    1    2  502    0  0.25949359821E+02  0.38035365807E+02  0.12282025627E+03  0.13116734989E+03  0.00000000000E+00 0. -1.
         22    1    3    3    0    0  0.40537884771E+02 -0.55004341053E+02 -0.16998526735E+03  0.18320422689E+03  0.00000000000E+00 0.  1.
         22    1    3    3    0    0 -0.37123840676E+02 -0.47753308616E+01 -0.17349363628E+01  0.37469899060E+02  0.00000000000E+00 0.  1.
</event>
<event>
 7    1  0.6520971E-006  0.6017660E+02  0.7818608E-02  0.1402815E+00
          2   -1    0    0  502    0  0.00000000000E+00  0.00000000000E+00  0.20857262689E+04  0.20857262689E+04  0.00000000000E+00 0. -1.
          1   -1    0    0  501    0 -0.00000000000E+00 -0.00000000000E+00 -0.71837492333E+03  0.71837492333E+03  0.00000000000E+00 0. -1.
         25    2    1    2    0    0 -0.68190535212E+02  0.81410655637E+02  0.39742693426E+02  0.16876557957E+03  0.12499878089E+03 0.  0.
          2    1    1    2  501    0  0.53877627449E+02 -0.25709714805E+02 -0.65208243578E+03  0.65480935488E+03  0.00000000000E+00 0. -1.
          1    1    1    2  502    0  0.14312907763E+02 -0.55700940833E+02  0.19796910879E+04  0.19805262577E+04  0.00000000000E+00 0. -1.
         22    1    3    3    0    0 -0.47835170838E+01 -0.92379155178E+01 -0.34172063424E+02  0.35720456849E+02  0.00000000000E+00 0.  1.
         22    1    3    3    0    0 -0.63407018129E+02  0.90648571155E+02  0.73914756850E+02  0.13304512272E+03  0.00000000000E+00 0.  1.
</event>
<event>
 7    1  0.6520971E-006  0.2947767E+03  0.7818608E-02  0.1129819E+00
          2   -1    0    0  502    0  0.00000000000E+00  0.00000000000E+00  0.20868895057E+04  0.20868895057E+04  0.00000000000E+00 0. -1.
          1   -1    0    0  501    0 -0.00000000000E+00 -0.00000000000E+00 -0.57539698781E+03  0.57539698781E+03  0.00000000000E+00 0. -1.
         25    2    1    2    0    0  0.27831159312E+03 -0.31474263007E+03  0.10434860670E+04  0.11318171918E+04  0.12500687017E+03 0.  0.
          2    1    1    2  501    0 -0.13027108607E+03  0.11317340243E+03 -0.50090761495E+03  0.52979922008E+03  0.00000000000E+00 0. -1.
          1    1    1    2  502    0 -0.14804050706E+03  0.20156922764E+03  0.96891406582E+03  0.10006700816E+04  0.00000000000E+00 0. -1.
         22    1    3    3    0    0  0.58192046366E+02 -0.39533842587E+02  0.83472775801E+02  0.10916475287E+03  0.00000000000E+00 0. -1.
         22    1    3    3    0    0  0.22011954676E+03 -0.27520878748E+03  0.96001329121E+03  0.10226524389E+04  0.00000000000E+00 0. -1.
</event>
<event>
 7    1  0.6520971E-006  0.3160194E+02  0.7818608E-02  0.1589195E+00
          2   -1    0    0  502    0  0.00000000000E+00  0.00000000000E+00  0.16059436103E+03  0.16059436103E+03  0.00000000000E+00 0. -1.
          1   -1    0    0  501    0 -0.00000000000E+00 -0.00000000000E+00 -0.16463655073E+03  0.16463655073E+03  0.00000000000E+00 0. -1.
         25    2    1    2    0    0  0.11485518067E+02  0.33625272153E+02  0.77748778482E+02  0.15143427509E+03  0.12499956426E+03 0.  0.
          2    1    1    2  501    0  0.19599843082E+02 -0.22788619122E+02 -0.11980001711E+03  0.12351323456E+03  0.00000000000E+00 0. -1.
          1    1    1    2  502    0 -0.31085361150E+02 -0.10836653031E+02  0.38009048938E+02  0.50283402111E+02  0.00000000000E+00 0. -1.
         22    1    3    3    0    0  0.28287946215E+02  0.62924431827E+02  0.91815630751E+02  0.11484686357E+03  0.00000000000E+00 0.  1.
         22    1    3    3    0    0 -0.16802428148E+02 -0.29299159674E+02 -0.14066852269E+02  0.36587411524E+02  0.00000000000E+00 0.  1.
</event>
<event>
 7    1  0.6520971E-006  0.1242289E+03  0.7818608E-02  0.1392343E+00
          2   -1    0    0  502    0  0.00000000000E+00  0.00000000000E+00  0.41117193400E+03  0.41117193400E+03  0.00000000000E+00 0. -1.
          1   -1    0    0  501    0 -0.00000000000E+00 -0.00000000000E+00 -0.14330075559E+04  0.14330075559E+04  0.00000000000E+00 0. -1.
         25    2    1    2    0    0 -0.91105231930E+02 -0.36510015916E+02 -0.70723660676E+02  0.17395453078E+03  0.12500079221E+03 0.  0.
          2    1    1    2  501    0  0.12123466641E+03  0.33539797098E+02 -0.13070061945E+04  0.13130452980E+04  0.00000000000E+00 0. -1.
          1    1    1    2  502    0 -0.30129434480E+02  0.29702188184E+01  0.35589423325E+03  0.35717966107E+03  0.00000000000E+00 0. -1.
         22    1    3    3    0    0 -0.28711631340E+02  0.37460778001E+02 -0.60371249413E+02  0.76631295294E+02  0.00000000000E+00 0. -1.
         22    1    3    3    0    0 -0.62393600590E+02 -0.73970793917E+02 -0.10352411263E+02  0.97323235490E+02  0.00000000000E+00 0. -1.
</event>
<event>
 7    1  0.6520971E-006  0.1205941E+03  0.7818608E-02  0.1305115E+00
          2   -1    0    0  502    0  0.00000000000E+00  0.00000000000E+00  0.43482701430E+03  0.43482701430E+03  0.00000000000E+00 0. -1.
          1   -1    0    0  501    0 -0.00000000000E+00 -0.00000000000E+00 -0.12621496669E+04  0.12621496669E+04  0.00000000000E+00 0. -1.
         25    2    1    2    0    0 -0.33598934261E+01  0.60914373087E+02 -0.53809482027E+02  0.14913762189E+03  0.12499888069E+03 0.  0.
          2    1    1    2  501    0 -0.15711369982E+02 -0.12387894350E+03 -0.11544900010E+04  0.11612234937E+04  0.00000000000E+00 0. -1.
          1    1    1    2  502    0  0.19071263408E+02  0.62964570416E+02  0.38097683048E+03  0.38661556562E+03  0.00000000000E+00 0. -1.
         22    1    3    3    0    0 -0.57241746601E+02  0.58067220254E+02 -0.48616048711E+02  0.94931237294E+02  0.00000000000E+00 0. -1.
         22    1    3    3    0    0  0.53881853175E+02  0.28471528331E+01 -0.51934333161E+01  0.54206384591E+02  0.00000000000E+00 0. -1.
</event>
<event>
 7    1  0.6520971E-006  0.7573977E+02  0.7818608E-02  0.1491064E+00
          2   -1    0    0  502    0  0.00000000000E+00  0.00000000000E+00  0.71173147132E+03  0.71173147132E+03  0.00000000000E+00 0. -1.
          1   -1    0    0  501    0 -0.00000000000E+00 -0.00000000000E+00 -0.82254723440E+03  0.82254723440E+03  0.00000000000E+00 0. -1.
         25    2    1    2    0    0 -0.56739733258E+02  0.42231550183E+02 -0.12547151587E+02  0.14417206013E+03  0.12500100299E+03 0.  0.
          2    1    1    2  501    0  0.43746354278E+02 -0.62133544036E+02 -0.74202794250E+03  0.74590869968E+03  0.00000000000E+00 0. -1.
          1    1    1    2  502    0  0.12993378980E+02  0.19901993853E+02  0.64375933100E+03  0.64419794591E+03  0.00000000000E+00 0. -1.
         22    1    3    3    0    0 -0.16231197094E+02 -0.15349564952E+02  0.46951330440E+02  0.51995079896E+02  0.00000000000E+00 0.  1.
         22    1    3    3    0    0 -0.40508536165E+02  0.57581115135E+02 -0.59498482027E+02  0.92176980238E+02  0.00000000000E+00 0.  1.
</event>
<event>
 7    1  0.6520971E-006  0.8854248E+02  0.7818608E-02  0.1323413E+00
          2   -1    0    0  502    0  0.00000000000E+00  0.00000000000E+00  0.17341041445E+04  0.17341041445E+04  0.00000000000E+00 0. -1.
          1   -1    0    0  501    0 -0.00000000000E+00 -0.00000000000E+00 -0.40640016892E+03  0.40640016892E+03  0.00000000000E+00 0. -1.
         25    2    1    2    0    0 -0.33936861261E+02  0.15951748097E+03  0.61982951677E+03  0.65300280881E+03  0.12500600454E+03 0.  0.
          2    1    1    2  501    0  0.10059972133E+02 -0.87387765630E+02 -0.38351338001E+03  0.39347215565E+03  0.00000000000E+00 0. -1.
          1    1    1    2  502    0  0.23876889127E+02 -0.72129715344E+02  0.10913878388E+04  0.10940293489E+04  0.00000000000E+00 0. -1.
         22    1    3    3    0    0 -0.50385573805E+02  0.15248167700E+03  0.61327058992E+03  0.63394809278E+03  0.00000000000E+00 0. -1.
         22    1    3    3    0    0  0.16448712544E+02  0.70358039718E+01  0.65589268461E+01  0.19054716038E+02  0.00000000000E+00 0. -1.
</event>
<event>
 7    1  0.6520971E-006  0.7639828E+02  0.7818608E-02  0.1435142E+00
          2   -1    0    0  502    0  0.00000000000E+00  0.00000000000E+00  0.13064889271E+04  0.13064889271E+04  0.00000000000E+00 0. -1.
          1   -1    0    0  501    0 -0.00000000000E+00 -0.00000000000E+00 -0.24207098067E+03  0.24207098067E+03  0.00000000000E+00 0. -1.
         25    2    1    2    0    0 -0.66967170666E+01 -0.10738465447E+03  0.39663696763E+02  0.16963341255E+03  0.12500390304E+03 0.  0.
          2    1    1    2  501    0 -0.10876967790E+02  0.33597207532E+02 -0.17411500701E+03  0.17766011497E+03  0.00000000000E+00 0. -1.
          1    1    1    2  502    0  0.17573684856E+02  0.73787446942E+02  0.11988692567E+04  0.12012663803E+04  0.00000000000E+00 0. -1.
         22    1    3    3    0    0 -0.34449492137E+02 -0.10460172792E+03 -0.12142592707E+02  0.11079590042E+03  0.00000000000E+00 0.  1.
         22    1    3    3    0    0  0.27752775071E+02 -0.27829265504E+01  0.51806289470E+02  0.58837512125E+02  0.00000000000E+00 0.  1.
</event>
<event>
 7    1  0.6520971E-006  0.9541054E+02  0.7818608E-02  0.1373989E+00
          2   -1    0    0  502    0  0.00000000000E+00  0.00000000000E+00  0.25729513160E+03  0.25729513160E+03  0.00000000000E+00 0. -1.
          1   -1    0    0  501    0 -0.00000000000E+00 -0.00000000000E+00 -0.14521021211E+03  0.14521021211E+03  0.00000000000E+00 0. -1.
         25    2    1    2    0    0  0.62546010216E+02 -0.12997130747E+02  0.47632068293E+02  0.14824762069E+03  0.12501045680E+03 0.  0.
          2    1    1    2  501    0 -0.10572262439E+03 -0.21392642057E+01 -0.60056239949E+02  0.12160839493E+03  0.00000000000E+00 0. -1.
          1    1    1    2  502    0  0.43176614176E+02  0.15136394953E+02  0.12450909115E+03  0.13264932809E+03  0.00000000000E+00 0. -1.
         22    1    3    3    0    0  0.58217506038E+02 -0.28092827411E+02  0.85538935035E+02  0.10721657693E+03  0.00000000000E+00 0.  1.
         22    1    3    3    0    0  0.43285041778E+01  0.15095696664E+02 -0.37906866742E+02  0.41031043764E+02  0.00000000000E+00 0.  1.
</event>
<event>
 7    1  0.6520971E-006  0.2898243E+02  0.7818608E-02  0.1618376E+00
          2   -1    0    0  502    0  0.00000000000E+00  0.00000000000E+00  0.24534978088E+04  0.24534978088E+04  0.00000000000E+00 0. -1.
          1   -1    0    0  501    0 -0.00000000000E+00 -0.00000000000E+00 -0.22083839221E+02  0.22083839221E+02  0.00000000000E+00 0. -1.
         25    2    1    2    0    0  0.45540401931E+02 -0.14675929725E+02  0.95130128917E+03  0.96067100942E+03  0.12500133776E+03 0.  0.
          2    1    1    2  501    0 -0.26659376873E+02 -0.68300737086E+01 -0.62919827754E+01  0.28230503527E+02  0.00000000000E+00 0. -1.
          1    1    1    2  502    0 -0.18881025057E+02  0.21506003434E+02  0.14864046632E+04  0.14866801351E+04  0.00000000000E+00 0. -1.
         22    1    3    3    0    0 -0.35056373609E+02 -0.84470155764E+01  0.11620391768E+03  0.12167025885E+03  0.00000000000E+00 0. -1.
         22    1    3    3    0    0  0.80596775539E+02 -0.62289141488E+01  0.83509737149E+03  0.83900075058E+03  0.00000000000E+00 0. -1.
</event>
<event>
 7    1  0.6520971E-006  0.7750294E+02  0.7818608E-02  0.1396841E+00
          2   -1    0    0  502    0  0.00000000000E+00  0.00000000000E+00  0.17575703496E+04  0.17575703496E+04  0.00000000000E+00 0. -1.
          1   -1    0    0  501    0 -0.00000000000E+00 -0.00000000000E+00 -0.12427594890E+04  0.12427594890E+04  0.00000000000E+00 0. -1.
         25    2    1    2    0    0  0.77073496784E+02  0.53481396446E+02  0.18071467299E+03  0.23892225368E+03  0.12500186638E+03 0.  0.
          2    1    1    2  501    0 -0.77192381287E+02 -0.66646178791E+01 -0.12120644507E+04  0.12145383130E+04  0.00000000000E+00 0. -1.
          1    1    1    2  502    0  0.11888450329E+00 -0.46816778567E+02  0.15461606383E+04  0.15468692719E+04  0.00000000000E+00 0. -1.
         22    1    3    3    0    0 -0.28644485403E+02 -0.12771719848E+02  0.40784686097E+02  0.51449139856E+02  0.00000000000E+00 0.  1.
         22    1    3    3    0    0  0.10571798219E+03  0.66253116295E+02  0.13992998689E+03  0.18747311383E+03  0.00000000000E+00 0.  1.
</event>
<event>
 7    1  0.6520971E-006  0.5212654E+02  0.7818608E-02  0.1435123E+00
          2   -1    0    0  502    0  0.00000000000E+00  0.00000000000E+00  0.13626995038E+04  0.13626995038E+04  0.00000000000E+00 0. -1.
          1   -1    0    0  501    0 -0.00000000000E+00 -0.00000000000E+00 -0.22967857785E+02  0.22967857785E+02  0.00000000000E+00 0. -1.
         25    2    1    2    0    0 -0.22080334604E+02 -0.62818561885E+02  0.74189638503E+03  0.75529481028E+03  0.12500516556E+03 0.  0.
          2    1    1    2  501    0  0.48974115935E+02  0.18165451789E+02  0.30174882550E+02  0.60323885876E+02  0.00000000000E+00 0. -1.
          1    1    1    2  502    0 -0.26893781330E+02  0.44653110096E+02  0.56766037841E+03  0.57004866541E+03  0.00000000000E+00 0. -1.
         22    1    3    3    0    0 -0.26186520847E+02 -0.44196310149E+02  0.94031151823E+02  0.10714898608E+03  0.00000000000E+00 0.  1.
         22    1    3    3    0    0  0.41061862427E+01 -0.18622251737E+02  0.64786523321E+03  0.64814582420E+03  0.00000000000E+00 0.  1.
</event>
<event>
 7    1  0.6520971E-006  0.9478525E+02  0.7818608E-02  0.1315516E+00
          2   -1    0    0  502    0  0.00000000000E+00  0.00000000000E+00  0.12509759059E+04  0.12509759059E+04  0.00000000000E+00 0. -1.
          1   -1    0    0  501    0 -0.00000000000E+00 -0.00000000000E+00 -0.39907794867E+03  0.39907794867E+03  0.00000000000E+00 0. -1.
         25    2    1    2    0    0 -0.60117001226E+02 -0.32428958311E+02 -0.63414687192E+02  0.15591288792E+03  0.12498685889E+03 0.  0.
          2    1    1    2  501    0  0.98675754716E+02 -0.33257673960E+02 -0.27879503234E+03  0.29760653136E+03  0.00000000000E+00 0. -1.
          1    1    1    2  502    0 -0.38558753491E+02  0.65686632272E+02  0.11941076768E+04  0.11965344353E+04  0.00000000000E+00 0. -1.
         22    1    3    3    0    0 -0.84340797264E+01 -0.68079706625E+02 -0.62978789581E+02  0.93125228011E+02  0.00000000000E+00 0. -1.
         22    1    3    3    0    0 -0.51682921500E+02  0.35650748313E+02 -0.43589761048E+00  0.62787659908E+02  0.00000000000E+00 0. -1.
</event>
<event>
 7    1  0.6520971E-006  0.1044174E+03  0.7818608E-02  0.1455946E+00
          2   -1    0    0  502    0  0.00000000000E+00  0.00000000000E+00  0.24305492756E+02  0.24305492756E+02  0.00000000000E+00 0. -1.
          1   -1    0    0  501    0 -0.00000000000E+00 -0.00000000000E+00 -0.34804634686E+04  0.34804634686E+04  0.00000000000E+00 0. -1.
         25    2    1    2    0    0  0.82262577120E+02  0.89606787037E+02 -0.10259949696E+04  0.10407146846E+04  0.12499947733E+03 0.  0.
          2    1    1    2  501    0 -0.61807508437E+02 -0.81123003731E+02 -0.24383223739E+04  0.24404542833E+04  0.00000000000E+00 0. -1.
          1    1    1    2  502    0 -0.20455068683E+02 -0.84837833054E+01  0.81593675589E+01  0.23599993495E+02  0.00000000000E+00 0. -1.
         22    1    3    3    0    0  0.48115260512E+02 -0.21856405547E+02 -0.44600101758E+03  0.44912101759E+03  0.00000000000E+00 0.  1.
         22    1    3    3    0    0  0.34147316608E+02  0.11146319258E+03 -0.57999395201E+03  0.59159366706E+03  0.00000000000E+00 0.  1.
</event>
<event>
 7    1  0.6520971E-006  0.7595087E+02  0.7818608E-02  0.1394268E+00
          2   -1    0    0  502    0  0.00000000000E+00  0.00000000000E+00  0.22642883135E+03  0.22642883135E+03  0.00000000000E+00 0. -1.
          1   -1    0    0  501    0 -0.00000000000E+00 -0.00000000000E+00 -0.22363694557E+03  0.22363694557E+03  0.00000000000E+00 0. -1.
         25    2    1    2    0    0 -0.45892381972E+02 -0.10731062877E+03 -0.38196578300E+02  0.17523221151E+03  0.12500267032E+03 0.  0.
          2    1    1    2  501    0  0.33387633476E+02  0.35540878239E+02 -0.10272410525E+03  0.11371072902E+03  0.00000000000E+00 0. -1.
          1    1    1    2  502    0  0.12504748496E+02  0.71769750530E+02  0.14371256932E+03  0.16112283639E+03  0.00000000000E+00 0. -1.
         22    1    3    3    0    0 -0.12786839840E+02  0.14258590711E+01 -0.58387616625E+02  0.59788377820E+02  0.00000000000E+00 0.  1.
         22    1    3    3    0    0 -0.33105542132E+02 -0.10873648784E+03  0.20191038326E+02  0.11544383369E+03  0.00000000000E+00 0.  1.
</event>
<event>
 7    1  0.6520971E-006  0.4165907E+02  0.7818608E-02  0.1602157E+00
          2   -1    0    0  502    0  0.00000000000E+00  0.00000000000E+00  0.10914201486E+04  0.10914201486E+04  0.00000000000E+00 0. -1.
          1   -1    0    0  501    0 -0.00000000000E+00 -0.00000000000E+00 -0.66564669365E+03  0.66564669365E+03  0.00000000000E+00 0. -1.
         25    2    1    2    0    0  0.40494554156E+02 -0.35670050480E+02 -0.32253385325E+03  0.35009306102E+03  0.12499961385E+03 0.  0.
          2    1    1    2  501    0 -0.21049657232E+02 -0.11606022340E+01 -0.32859291544E+03  0.32926849097E+03  0.00000000000E+00 0. -1.
          1    1    1    2  502    0 -0.19444896925E+02  0.36830652714E+02  0.10769002236E+04  0.10777052903E+04  0.00000000000E+00 0. -1.
         22    1    3    3    0    0  0.51608858043E+02 -0.31051097529E+02 -0.52817393559E+02  0.80108189023E+02  0.00000000000E+00 0. -1.
         22    1    3    3    0    0 -0.11114303886E+02 -0.46189529511E+01 -0.26971645969E+03  0.26998487200E+03  0.00000000000E+00 0. -1.
</event>
<event>
 7    1  0.6520971E-006  0.9459457E+02  0.7818608E-02  0.1397993E+00
          2   -1    0    0  502    0  0.00000000000E+00  0.00000000000E+00  0.64078980666E+03  0.64078980666E+03  0.00000000000E+00 0. -1.
          1   -1    0    0  501    0 -0.00000000000E+00 -0.00000000000E+00 -0.60125689246E+03  0.60125689246E+03  0.00000000000E+00 0. -1.
         25    2    1    2    0    0  0.61183116217E+02  0.11051849740E+02  0.10660615918E+03  0.17565843802E+03  0.12500198630E+03 0.  0.
          2    1    1    2  501    0 -0.87469815567E+02 -0.38504499959E+02 -0.56196780954E+03  0.57003630070E+03  0.00000000000E+00 0. -1.
          1    1    1    2  502    0  0.26286699350E+02  0.27452650218E+02  0.49489456456E+03  0.49635196040E+03  0.00000000000E+00 0. -1.
         22    1    3    3    0    0  0.39795576329E+02  0.28993935679E+02 -0.14538249402E+02  0.51339038725E+02  0.00000000000E+00 0. -1.
         22    1    3    3    0    0  0.21387539888E+02 -0.17942085939E+02  0.12114440858E+03  0.12431939930E+03  0.00000000000E+00 0. -1.
</event>
<event>
 7    1  0.6520971E-006  0.6883009E+02  0.7818608E-02  0.1473258E+00
          2   -1    0    0  502    0  0.00000000000E+00  0.00000000000E+00  0.48957608818E+03  0.48957608818E+03  0.00000000000E+00 0. -1.
          1   -1    0    0  501    0 -0.00000000000E+00 -0.00000000000E+00 -0.91773197984E+03  0.91773197984E+03  0.00000000000E+00 0. -1.
         25    2    1    2    0    0 -0.62284345208E+02  0.21349858286E+02 -0.14567530916E+03  0.20293335520E+03  0.12500197936E+03 0.  0.
          2    1    1    2  501    0 -0.62586762393E+01 -0.28980219884E+02 -0.74054968655E+03  0.74114294331E+03  0.00000000000E+00 0. -1.
          1    1    1    2  502    0  0.68543021448E+02  0.76303615975E+01  0.45806910405E+03  0.46323176952E+03  0.00000000000E+00 0. -1.
         22    1    3    3    0    0  0.75387754966E+01 -0.20156209981E+02 -0.11356940179E+03  0.11559028921E+03  0.00000000000E+00 0. -1.
         22    1    3    3    0    0 -0.69823120705E+02  0.41506068268E+02 -0.32105907375E+02  0.87343065989E+02  0.00000000000E+00 0. -1.
</event>
<event>
 7    1  0.6520971E-006  0.5147160E+02  0.7818608E-02  0.1440324E+00
          2   -1    0    0  502    0  0.00000000000E+00  0.00000000000E+00  0.60507767018E+03  0.60507767018E+03  0.00000000000E+00 0. -1.
          1   -1    0    0  501    0 -0.00000000000E+00 -0.00000000000E+00 -0.25275323427E+03  0.25275323427E+03  0.00000000000E+00 0. -1.
         25    2    1    2    0    0  0.21348701089E+02 -0.47140985983E+02  0.28955465766E+03  0.31960013564E+03  0.12499722931E+03 0.  0.
          2    1    1    2  501    0  0.28888877166E+02  0.42871222930E+02 -0.23275959413E+03  0.23843141076E+03  0.00000000000E+00 0. -1.
          1    1    1    2  502    0 -0.50237578255E+02  0.42697630532E+01  0.29552937238E+03  0.29979935805E+03  0.00000000000E+00 0. -1.
         22    1    3    3    0    0 -0.29065421620E+02 -0.64541381945E+02  0.98861346839E+02  0.12158928660E+03  0.00000000000E+00 0. -1.
         22    1    3    3    0    0  0.50414122709E+02  0.17400395962E+02  0.19069331082E+03  0.19801084904E+03  0.00000000000E+00 0. -1.
</event>
<event>
 7    1  0.6520971E-006  0.7388562E+02  0.7818608E-02  0.1486379E+00
          2   -1    0    0  502    0  0.00000000000E+00  0.00000000000E+00  0.79836825605E+03  0.79836825605E+03  0.00000000000E+00 0. -1.
          1   -1    0    0  501    0 -0.00000000000E+00 -0.00000000000E+00 -0.87213275844E+03  0.87213275844E+03  0.00000000000E+00 0. -1.
         25    2    1    2    0    0 -0.68798067452E+02  0.23772645514E+02  0.70887020519E+03  0.72347778534E+03  0.12499930127E+03 0.  0.
          2    1    1    2  501    0  0.57585144475E+02 -0.46311850694E+02 -0.86128136705E+03  0.86444573549E+03  0.00000000000E+00 0. -1.
          1    1    1    2  502    0  0.11212922977E+02  0.22539205180E+02  0.78646659478E+02  0.82577493658E+02  0.00000000000E+00 0. -1.
         22    1    3    3    0    0  0.25401700096E+02  0.16777833027E+02  0.38259908448E+03  0.38380828742E+03  0.00000000000E+00 0. -1.
         22    1    3    3    0    0 -0.94199767548E+02  0.69948124869E+01  0.32627112070E+03  0.33966949791E+03  0.00000000000E+00 0. -1.
</event>
<event>
 7    1  0.6520971E-006  0.2202120E+03  0.7818608E-02  0.1205677E+00
          2   -1    0    0  502    0  0.00000000000E+00  0.00000000000E+00  0.10011970044E+04  0.10011970044E+04  0.00000000000E+00 0. -1.
          1   -1    0    0  501    0 -0.00000000000E+00 -0.00000000000E+00 -0.32732140171E+04  0.32732140171E+04  0.00000000000E+00 0. -1.
         25    2    1    2    0    0 -0.93862213669E+02 -0.10820256422E+03 -0.63475188494E+01  0.19021569117E+03  0.12499523235E+03 0.  0.
          2    1    1    2  501    0  0.90359429719E+02  0.20472757141E+03 -0.31684096934E+04  0.31763025974E+04  0.00000000000E+00 0. -1.
          1    1    1    2  502    0  0.35027839506E+01 -0.96525007189E+02  0.90274019954E+03  0.90789273286E+03  0.00000000000E+00 0. -1.
         22    1    3    3    0    0 -0.12246471170E+03 -0.66155312451E+02 -0.68552457313E+01  0.13935969780E+03  0.00000000000E+00 0.  1.
         22    1    3    3    0    0  0.28602498027E+02 -0.42047251771E+02  0.50772688187E+00  0.50855993368E+02  0.00000000000E+00 0.  1.
</event>
<event>
 7    1  0.6520971E-006  0.6678969E+02  0.7818608E-02  0.1386355E+00
          2   -1    0    0  502    0  0.00000000000E+00  0.00000000000E+00  0.70415253310E+03  0.70415253310E+03  0.00000000000E+00 0. -1.
          1   -1    0    0  501    0 -0.00000000000E+00 -0.00000000000E+00 -0.20113504984E+03  0.20113504984E+03  0.00000000000E+00 0. -1.
         25    2    1    2    0    0 -0.11840950183E+03 -0.22421431432E+02  0.73495850533E+02  0.18854520587E+03  0.12499649556E+03 0.  0.
          2    1    1    2  501    0  0.53336713091E+02  0.25434564221E+02 -0.13558052391E+03  0.14789793942E+03  0.00000000000E+00 0. -1.
          1    1    1    2  502    0  0.65072788736E+02 -0.30131327891E+01  0.56510215664E+03  0.56884443765E+03  0.00000000000E+00 0. -1.
         22    1    3    3    0    0 -0.27795321379E+02 -0.12524421698E+02  0.90784822058E+02  0.95767034754E+02  0.00000000000E+00 0. -1.
         22    1    3    3    0    0 -0.90614180448E+02 -0.98970097349E+01 -0.17288971525E+02  0.92778171120E+02  0.00000000000E+00 0. -1.
</event>
<event>
 7    1  0.6520971E-006  0.8223275E+02  0.7818608E-02  0.1368197E+00
          2   -1    0    0  502    0  0.00000000000E+00  0.00000000000E+00  0.12065035441E+04  0.12065035441E+04  0.00000000000E+00 0. -1.
          1   -1    0    0  501    0 -0.00000000000E+00 -0.00000000000E+00 -0.73284688610E+03  0.73284688610E+03  0.00000000000E+00 0. -1.
         25    2    1    2    0    0 -0.11670398423E+03 -0.53631731619E+02  0.17247229144E+03  0.24873286767E+03  0.12500066229E+03 0.  0.
          2    1    1    2  501    0  0.37168787319E+02  0.41468108824E+02 -0.69197107246E+03  0.69420824536E+03  0.00000000000E+00 0. -1.
          1    1    1    2  502    0  0.79535196914E+02  0.12163622795E+02  0.99315543905E+03  0.99640931719E+03  0.00000000000E+00 0. -1.
         22    1    3    3    0    0 -0.10854763707E+03 -0.67387076665E+02  0.18743146388E+03  0.22683509708E+03  0.00000000000E+00 0. -1.
         22    1    3    3    0    0 -0.81563471592E+01  0.13755345046E+02 -0.14959172445E+02  0.21897770584E+02  0.00000000000E+00 0. -1.
</event>
<event>
 7    1  0.6520971E-006  0.1461434E+03  0.7818608E-02  0.1382614E+00
          2   -1    0    0  502    0  0.00000000000E+00  0.00000000000E+00  0.21901580426E+03  0.21901580426E+03  0.00000000000E+00 0. -1.
          1   -1    0    0  501    0 -0.00000000000E+00 -0.00000000000E+00 -0.68766126920E+03  0.68766126920E+03  0.00000000000E+00 0. -1.
         25    2    1    2    0    0  0.98759669843E+02  0.95355604177E+02 -0.40455062002E+03  0.44512133486E+03  0.12500253979E+03 0.  0.
          2    1    1    2  501    0  0.23794023143E+02 -0.14446774079E+02 -0.23476102155E+03  0.23640558804E+03  0.00000000000E+00 0. -1.
          1    1    1    2  502    0 -0.12255369299E+03 -0.80908830098E+02  0.17066617663E+03  0.22515015056E+03  0.00000000000E+00 0. -1.
         22    1    3    3    0    0  0.91865212903E+02  0.37748136722E+02 -0.12520235822E+03  0.15981166939E+03  0.00000000000E+00 0. -1.
         22    1    3    3    0    0  0.68944569403E+01  0.57607467455E+02 -0.27934826180E+03  0.28530966547E+03  0.00000000000E+00 0. -1.
</event>
<event>
 7    1  0.6520971E-006  0.3334123E+02  0.7818608E-02  0.1608628E+00
          2   -1    0    0  502    0  0.00000000000E+00  0.00000000000E+00  0.12284608225E+04  0.12284608225E+04  0.00000000000E+00 0. -1.
          1   -1    0    0  501    0 -0.00000000000E+00 -0.00000000000E+00 -0.61208254263E+02  0.61208254263E+02  0.00000000000E+00 0. -1.
         25    2    1    2    0    0  0.42019621092E+02 -0.36574560533E+02  0.82360155755E+02  0.15972212187E+03  0.12499845568E+03 0.  0.
          2    1    1    2  501    0 -0.26796441819E+02  0.16314423736E+02 -0.11386947928E+02  0.33374725453E+02  0.00000000000E+00 0. -1.
          1    1    1    2  502    0 -0.15223179273E+02  0.20260136797E+02  0.10962793604E+04  0.10965722295E+04  0.00000000000E+00 0. -1.
         22    1    3    3    0    0  0.62309117145E+02  0.28543169217E+02  0.44466510258E+02  0.81697057002E+02  0.00000000000E+00 0. -1.
         22    1    3    3    0    0 -0.20289496053E+02 -0.65117729750E+02  0.37893645497E+02  0.78025064863E+02  0.00000000000E+00 0. -1.
</event>
<event>
 7    1  0.6520971E-006  0.7982306E+02  0.7818608E-02  0.1499989E+00
          2   -1    0    0  502    0  0.00000000000E+00  0.00000000000E+00  0.18400504936E+04  0.18400504936E+04  0.00000000000E+00 0. -1.
          1   -1    0    0  501    0 -0.00000000000E+00 -0.00000000000E+00 -0.68247639535E+02  0.68247639535E+02  0.00000000000E+00 0. -1.
         25    2    1    2    0    0 -0.37087641352E+02  0.67263524258E+02  0.71389158941E+02  0.16315988072E+03  0.12499943930E+03 0.  0.
          2    1    1    2  501    0 -0.18694038381E+02 -0.10004267293E+02 -0.16188226454E+02  0.26676040013E+02  0.00000000000E+00 0. -1.
          1    1    1    2  502    0  0.55781679732E+02 -0.57259256965E+02  0.17166019216E+04  0.17184622124E+04  0.00000000000E+00 0. -1.
         22    1    3    3    0    0 -0.28735189493E+02  0.10237871909E+03  0.35104487989E+02  0.11197963349E+03  0.00000000000E+00 0. -1.
         22    1    3    3    0    0 -0.83524518585E+01 -0.35115194836E+02  0.36284670952E+02  0.51180247230E+02  0.00000000000E+00 0. -1.
</event>
<event>
 7    1  0.6520971E-006  0.1859121E+03  0.7818608E-02  0.1252312E+00
          2   -1    0    0  502    0  0.00000000000E+00  0.00000000000E+00  0.20755301663E+04  0.20755301663E+04  0.00000000000E+00 0. -1.
          1   -1    0    0  501    0 -0.00000000000E+00 -0.00000000000E+00 -0.39382984350E+03  0.39382984350E+03  0.00000000000E+00 0. -1.
         25    2    1    2    0    0 -0.56842376098E+02 -0.10424394602E+03  0.65575848584E+03  0.67804368006E+03  0.12500473716E+03 0.  0.
          2    1    1    2  501    0  0.76166079816E+02  0.17216846517E+03 -0.35857854503E+03  0.40499608031E+03  0.00000000000E+00 0. -1.
          1    1    1    2  502    0 -0.19323703718E+02 -0.67924519150E+02  0.13845203820E+04  0.13863202495E+04  0.00000000000E+00 0. -1.
         22    1    3    3    0    0 -0.61021170890E+01  0.15027287135E+02  0.92523394425E+01  0.18672465738E+02  0.00000000000E+00 0. -1.
         22    1    3    3    0    0 -0.50740259009E+02 -0.11927123316E+03  0.64650614640E+03  0.65937121432E+03  0.00000000000E+00 0. -1.
</event>
<event>
 7    1  0.6520971E-006  0.6939101E+02  0.7818608E-02  0.1375271E+00
          2   -1    0    0  502    0  0.00000000000E+00  0.00000000000E+00  0.42175809373E+03  0.42175809373E+03  0.00000000000E+00 0. -1.
          1   -1    0    0  501    0 -0.00000000000E+00 -0.00000000000E+00 -0.12240051731E+03  0.12240051731E+03  0.00000000000E+00 0. -1.
         25    2    1    2    0    0 -0.25398244365E+02  0.31035499480E+01  0.61043487171E+02  0.14144242407E+03  0.12499979664E+03 0.  0.
          2    1    1    2  501    0  0.25616174057E+02  0.66287115565E+02 -0.62110677575E+02  0.94381705494E+02  0.00000000000E+00 0. -1.
          1    1    1    2  502    0 -0.21792969152E+00 -0.69390665513E+02  0.30042476682E+03  0.30833448148E+03  0.00000000000E+00 0. -1.
         22    1    3    3    0    0 -0.17460887980E+02  0.53230454801E+01 -0.37947072567E+02  0.42109354527E+02  0.00000000000E+00 0. -1.
         22    1    3    3    0    0 -0.79373563850E+01 -0.22194955321E+01  0.98990559738E+02  0.99333069539E+02  0.00000000000E+00 0. -1.
</event>
<event>
 7    1  0.6520971E-006  0.9542502E+02  0.7818608E-02  0.1478794E+00
          2   -1    0    0  502    0  0.00000000000E+00  0.00000000000E+00  0.88137201283E+03  0.88137201283E+03  0.00000000000E+00 0. -1.
          1   -1    0    0  501    0 -0.00000000000E+00 -0.00000000000E+00 -0.87256098088E+03  0.87256098088E+03  0.00000000000E+00 0. -1.
         25    2    1    2    0    0 -0.55586788497E+02 -0.58356186153E+02  0.54781102113E+03  0.56764206490E+03  0.12500105384E+03 0.  0.
          2    1    1    2  501    0  0.76135477558E+02  0.57651500273E+02 -0.85967208906E+03  0.86496035004E+03  0.00000000000E+00 0. -1.
          1    1    1    2  502    0 -0.20548689061E+02  0.70468588000E+00  0.32067209988E+03  0.32133057876E+03  0.00000000000E+00 0. -1.
         22    1    3    3    0    0 -0.62593962572E+02 -0.93277423975E+02  0.38958122597E+03  0.40545309668E+03  0.00000000000E+00 0. -1.
         22    1    3    3    0    0  0.70071740750E+01  0.34921237822E+02  0.15822979515E+03  0.16218896823E+03  0.00000000000E+00 0. -1.
</event>
<event>
 7    1  0.6520971E-006  0.1413890E+03  0.7818608E-02  0.1238965E+00
          2   -1    0    0  502    0  0.00000000000E+00  0.00000000000E+00  0.86172030185E+03  0.86172030185E+03  0.00000000000E+00 0. -1.
          1   -1    0    0  501    0 -0.00000000000E+00 -0.00000000000E+00 -0.51734308520E+03  0.51734308520E+03  0.00000000000E+00 0. -1.
         25    2    1    2    0    0 -0.22186448312E+03 -0.98308417020E+02  0.13992559541E+03  0.30674531803E+03  0.12500049661E+03 0.  0.
          2    1    1    2  501    0  0.12440028408E+03  0.56118364293E+02 -0.41859735382E+03  0.44028223462E+03  0.00000000000E+00 0. -1.
          1    1    1    2  502    0  0.97464199047E+02  0.42190052727E+02  0.62304897506E+03  0.63203583440E+03  0.00000000000E+00 0. -1.
         22    1    3    3    0    0 -0.56731314536E+02 -0.21959244919E+02  0.10521396173E+03  0.12153447342E+03  0.00000000000E+00 0.  1.
         22    1    3    3    0    0 -0.16513316859E+03 -0.76349172102E+02  0.34711633684E+02  0.18521084461E+03  0.00000000000E+00 0.  1.
</event>
<event>
 7    1  0.6520971E-006  0.7759143E+02  0.7818608E-02  0.1450841E+00
          2   -1    0    0  502    0  0.00000000000E+00  0.00000000000E+00  0.73186240167E+03  0.73186240167E+03  0.00000000000E+00 0. -1.
          1   -1    0    0  501    0 -0.00000000000E+00 -0.00000000000E+00 -0.13283130734E+03  0.13283130734E+03  0.00000000000E+00 0. -1.
         25    2    1    2    0    0 -0.91119333200E+01 -0.79957773438E+02  0.13778596572E+03  0.20269762300E+03  0.12500032463E+03 0.  0.
          2    1    1    2  501    0  0.37687103051E+02  0.68101180826E+02 -0.84782934743E+02  0.11509228727E+03  0.00000000000E+00 0. -1.
          1    1    1    2  502    0 -0.28575169731E+02  0.11856592612E+02  0.54602806335E+03  0.54690379875E+03  0.00000000000E+00 0. -1.
         22    1    3    3    0    0 -0.57722951167E+02 -0.19864702847E+02  0.98778230644E+02  0.11611926782E+03  0.00000000000E+00 0. -1.
         22    1    3    3    0    0  0.48611017847E+02 -0.60093070591E+02  0.39007735077E+02  0.86578355176E+02  0.00000000000E+00 0. -1.
</event>
<event>
 7    1  0.6520971E-006  0.4729219E+02  0.7818608E-02  0.1467547E+00
          2   -1    0    0  502    0  0.00000000000E+00  0.00000000000E+00  0.17826660937E+04  0.17826660937E+04  0.00000000000E+00 0. -1.
          1   -1    0    0  501    0 -0.00000000000E+00 -0.00000000000E+00 -0.52962320336E+03  0.52962320336E+03  0.00000000000E+00 0. -1.
         25    2    1    2    0    0  0.10195131738E+02 -0.28122206046E+02  0.30522048212E+01  0.12856812227E+03  0.12500258767E+03 0.  0.
          2    1    1    2  501    0  0.34451996607E+02  0.33344404231E+02 -0.46533905090E+03  0.46780254558E+03  0.00000000000E+00 0. -1.
          1    1    1    2  502    0 -0.44647128345E+02 -0.52221981855E+01  0.17153297365E+04  0.17159186293E+04  0.00000000000E+00 0. -1.
         22    1    3    3    0    0 -0.23533424058E+02  0.16474274920E+02  0.48596365941E+02  0.56452020024E+02  0.00000000000E+00 0. -1.
         22    1    3    3    0    0  0.33728555796E+02 -0.44596480966E+02 -0.45544161120E+02  0.72116102243E+02  0.00000000000E+00 0. -1.
</event>
<event>
 7    1  0.6520971E-006  0.7056694E+02  0.7818608E-02  0.1394908E+00
          2   -1    0    0  502    0  0.00000000000E+00  0.00000000000E+00  0.23901964078E+04  0.23901964078E+04  0.00000000000E+00 0. -1.
          1   -1    0    0  501    0 -0.00000000000E+00 -0.00000000000E+00 -0.24057724513E+02  0.24057724513E+02  0.00000000000E+00 0. -1.
         25    2    1    2    0    0 -0.31135618345E+02 -0.12418794935E+02  0.17677115787E+04  0.17724426227E+04  0.12499988816E+03 0.  0.
          2    1    1    2  501    0  0.82992568109E+02  0.63002444865E+01  0.58074988099E+03  0.58668380216E+03  0.00000000000E+00 0. -1.
          1    1    1    2  502    0 -0.51856949763E+02  0.61185504487E+01  0.17677223612E+02  0.55127707489E+02  0.00000000000E+00 0. -1.
         22    1    3    3    0    0 -0.68747382381E+02 -0.42360261016E+02  0.11879230551E+04  0.11906644276E+04  0.00000000000E+00 0. -1.
         22    1    3    3    0    0  0.37611764036E+02  0.29941466081E+02  0.57978852361E+03  0.58177819510E+03  0.00000000000E+00 0. -1.
</event>
<event>
 7    1  0.6520971E-006  0.2716084E+03  0.7818608E-02  0.1234398E+00
          2   -1    0    0  502    0  0.00000000000E+00  0.00000000000E+00  0.10670977562E+04  0.10670977562E+04  0.00000000000E+00 0. -1.
          1   -1    0    0  501    0 -0.00000000000E+00 -0.00000000000E+00 -0.24282452225E+03  0.24282452225E+03  0.00000000000E+00 0. -1.
         25    2    1    2    0    0 -0.30052830024E+03 -0.68722423415E+02  0.29456820819E+03  0.44433732444E+03  0.12500079158E+03 0.  0.
          2    1    1    2  501    0  0.26048791137E+03  0.26865455686E+02 -0.63581185868E+02  0.26947777622E+03  0.00000000000E+00 0. -1.
          1    1    1    2  502    0  0.40040388861E+02  0.41856967729E+02  0.59328621160E+03  0.59610717775E+03  0.00000000000E+00 0. -1.
         22    1    3    3    0    0 -0.17217917440E+03  0.21806852694E+02  0.12997183588E+03  0.21682685499E+03  0.00000000000E+00 0.  1.
         22    1    3    3    0    0 -0.12834912584E+03 -0.90529276109E+02  0.16459637231E+03  0.22751046946E+03  0.00000000000E+00 0.  1.
</event>
<event>
 7    1  0.6520971E-006  0.5229951E+02  0.7818608E-02  0.1447401E+00
          2   -1    0    0  502    0  0.00000000000E+00  0.00000000000E+00  0.16155624036E+04  0.16155624036E+04  0.00000000000E+00 0. -1.
          1   -1    0    0  501    0 -0.00000000000E+00 -0.00000000000E+00 -0.70294854742E+02  0.70294854742E+02  0.00000000000E+00 0. -1.
         25    2    1    2    0    0  0.28484649058E+02 -0.17328588563E+02  0.35641412107E+03  0.37916631486E+03  0.12499765362E+03 0.  0.
          2    1    1    2  501    0  0.19159743122E+02  0.43002980138E+02 -0.48827755386E+02  0.67826998705E+02  0.00000000000E+00 0. -1.
          1    1    1    2  502    0 -0.47644392180E+02 -0.25674391575E+02  0.12376811831E+04  0.12388639447E+04  0.00000000000E+00 0. -1.
         22    1    3    3    0    0  0.53247882579E+01  0.50760777784E+02  0.92711853330E+02  0.10583240373E+03  0.00000000000E+00 0. -1.
         22    1    3    3    0    0  0.23159860800E+02 -0.68089366347E+02  0.26370226774E+03  0.27333391113E+03  0.00000000000E+00 0. -1.
</event>
<event>
 7    1  0.6520971E-006  0.1037397E+03  0.7818608E-02  0.1464275E+00
          2   -1    0    0  502    0  0.00000000000E+00  0.00000000000E+00  0.69823099957E+02  0.69823099957E+02  0.00000000000E+00 0. -1.
          1   -1    0    0  501    0 -0.00000000000E+00 -0.00000000000E+00 -0.10590351636E+04  0.10590351636E+04  0.00000000000E+00 0. -1.
         25    2    1    2    0    0  0.69883490080E+02 -0.81346370929E+02 -0.32132638551E+03  0.36107631213E+03  0.12499809162E+03 0.  0.
          2    1    1    2  501    0  0.11548477478E+02  0.17516542346E+02 -0.66390708609E+03  0.66423852308E+03  0.00000000000E+00 0. -1.
          1    1    1    2  502    0 -0.81431967558E+02  0.63829828584E+02 -0.39785920378E+01  0.10354342834E+03  0.00000000000E+00 0. -1.
         22    1    3    3    0    0 -0.36468014816E+02 -0.24732501094E+02 -0.93077050776E+02  0.10298033840E+03  0.00000000000E+00 0. -1.
         22    1    3    3    0    0  0.10635150490E+03 -0.56613869835E+02 -0.22824933473E+03  0.25809597373E+03  0.00000000000E+00 0. -1.
</event>
<event>
 7    1  0.6520971E-006  0.3422319E+02  0.7818608E-02  0.1573203E+00
          2   -1    0    0  502    0  0.00000000000E+00  0.00000000000E+00  0.19744194124E+04  0.19744194124E+04  0.00000000000E+00 0. -1.
          1   -1    0    0  501    0 -0.00000000000E+00 -0.00000000000E+00 -0.62266330264E+02  0.62266330264E+02  0.00000000000E+00 0. -1.
         25    2    1    2    0    0 -0.32156196258E+02 -0.56145050034E+02  0.10623658784E+04  0.10716490015E+04  0.12499614151E+03 0.  0.
          2    1    1    2  501    0  0.17393584462E+02  0.29305598046E+02 -0.52303542765E+02  0.62426079830E+02  0.00000000000E+00 0. -1.
          1    1    1    2  502    0  0.14762611796E+02  0.26839451988E+02  0.90209074654E+03  0.90261066129E+03  0.00000000000E+00 0. -1.
         22    1    3    3    0    0 -0.49527371684E+02  0.25901158999E+02  0.48862157808E+03  0.49180776442E+03  0.00000000000E+00 0. -1.
         22    1    3    3    0    0  0.17371175426E+02 -0.82046209033E+02  0.57374430028E+03  0.57984123712E+03  0.00000000000E+00 0. -1.
</event>
<event>
 7    1  0.6520971E-006  0.1178167E+03  0.7818608E-02  0.1397310E+00
          2   -1    0    0  502    0  0.00000000000E+00  0.00000000000E+00  0.12930613974E+03  0.12930613974E+03  0.00000000000E+00 0. -1.
          1   -1    0    0  501    0 -0.00000000000E+00 -0.00000000000E+00 -0.21127345114E+04  0.21127345114E+04  0.00000000000E+00 0. -1.
         25    2    1    2    0    0 -0.79258132440E+02 -0.57612950888E+02 -0.86148658073E+03  0.87600492095E+03  0.12499755625E+03 0.  0.
          2    1    1    2  501    0  0.15732468447E+00 -0.30682598315E+02 -0.12149631819E+04  0.12153505584E+04  0.00000000000E+00 0. -1.
          1    1    1    2  502    0  0.79100807756E+02  0.88295549203E+02  0.93021390981E+02  0.15068517172E+03  0.00000000000E+00 0. -1.
         22    1    3    3    0    0 -0.10506700186E+03 -0.32864184141E+02 -0.76911863092E+03  0.77695726904E+03  0.00000000000E+00 0. -1.
         22    1    3    3    0    0  0.25808869419E+02 -0.24748766747E+02 -0.92367949813E+02  0.99047651910E+02  0.00000000000E+00 0. -1.
</event>
<event>
 7    1  0.6520971E-006  0.7346793E+02  0.7818608E-02  0.1429616E+00
          2   -1    0    0  502    0  0.00000000000E+00  0.00000000000E+00  0.13401064390E+03  0.13401064390E+03  0.00000000000E+00 0. -1.
          1   -1    0    0  501    0 -0.00000000000E+00 -0.00000000000E+00 -0.32841413346E+03  0.32841413346E+03  0.00000000000E+00 0. -1.
         25    2    1    2    0    0  0.12443536342E+01  0.59658100436E+02 -0.18275819629E+02  0.13971318369E+03  0.12500052299E+03 0.  0.
          2    1    1    2  501    0 -0.39220631909E+02 -0.64534974772E+02 -0.23814231719E+03  0.24982951021E+03  0.00000000000E+00 0. -1.
          1    1    1    2  502    0  0.37976278275E+02  0.48768743355E+01  0.62014647256E+02  0.72882083458E+02  0.00000000000E+00 0. -1.
         22    1    3    3    0    0  0.58850370450E+01 -0.28101710446E+02  0.28246446198E+02  0.40276562835E+02  0.00000000000E+00 0. -1.
         22    1    3    3    0    0 -0.46406834108E+01  0.87759810882E+02 -0.46522265827E+02  0.99436620851E+02  0.00000000000E+00 0. -1.
</event>
<event>
 7    1  0.6520971E-006  0.6048554E+02  0.7818608E-02  0.1451136E+00
          2   -1    0    0  502    0  0.00000000000E+00  0.00000000000E+00  0.26758841088E+04  0.26758841088E+04  0.00000000000E+00 0. -1.
          1   -1    0    0  501    0 -0.00000000000E+00 -0.00000000000E+00 -0.20517031072E+03  0.20517031072E+03  0.00000000000E+00 0. -1.
         25    2    1    2    0    0 -0.67895740024E+01  0.20362636244E+02  0.11150810353E+04  0.11222702707E+04  0.12499643940E+03 0.  0.
          2    1    1    2  501    0  0.98037486798E+01 -0.59848301961E+02 -0.19675598772E+03  0.20589038696E+03  0.00000000000E+00 0. -1.
          1    1    1    2  502    0 -0.30141746774E+01  0.39485665717E+02  0.15523887505E+04  0.15528937619E+04  0.00000000000E+00 0. -1.
         22    1    3    3    0    0 -0.31603174238E+02  0.20506638277E+02  0.99611087713E+02  0.10649719072E+03  0.00000000000E+00 0. -1.
         22    1    3    3    0    0  0.24813600235E+02 -0.14400203330E+00  0.10154699476E+04  0.10157730800E+04  0.00000000000E+00 0. -1.
</event>
<event>
 7    1  0.6520971E-006  0.8475615E+02  0.7818608E-02  0.1371745E+00
          2   -1    0    0  502    0  0.00000000000E+00  0.00000000000E+00  0.15151596381E+04  0.15151596381E+04  0.00000000000E+00 0. -1.
          1   -1    0    0  501    0 -0.00000000000E+00 -0.00000000000E+00 -0.75544535284E+02  0.75544535284E+02  0.00000000000E+00 0. -1.
         25    2    1    2    0    0  0.28844999405E+02 -0.49279517736E+02  0.67702637743E+02  0.15319502808E+03  0.12499825844E+03 0.  0.
          2    1    1    2  501    0 -0.37555983515E+02  0.10101744917E+03  0.57694173559E+02  0.12224399616E+03  0.00000000000E+00 0. -1.
          1    1    1    2  502    0  0.87109841099E+01 -0.51737931437E+02  0.13142182915E+04  0.13152651492E+04  0.00000000000E+00 0. -1.
         22    1    3    3    0    0 -0.29340886130E+02  0.26629463781E+02  0.79285214341E+01  0.40408877642E+02  0.00000000000E+00 0. -1.
         22    1    3    3    0    0  0.58185885535E+02 -0.75908981517E+02  0.59774116309E+02  0.11278615044E+03  0.00000000000E+00 0. -1.
</event>
<event>
 7    1  0.6520971E-006  0.3892521E+02  0.7818608E-02  0.1525486E+00
          2   -1    0    0  502    0  0.00000000000E+00  0.00000000000E+00  0.53618294000E+03  0.53618294000E+03  0.00000000000E+00 0. -1.
          1   -1    0    0  501    0 -0.00000000000E+00 -0.00000000000E+00 -0.99399672211E+02  0.99399672211E+02  0.00000000000E+00 0. -1.
         25    2    1    2    0    0 -0.29695931141E+02  0.17322124009E+02 -0.51168271061E+01  0.12974138838E+03  0.12499896652E+03 0.  0.
          2    1    1    2  501    0 -0.16320246801E+01 -0.40424739953E+02 -0.18011120725E+02  0.44285703953E+02  0.00000000000E+00 0. -1.
          1    1    1    2  502    0  0.31327955821E+02  0.23102615944E+02  0.45991121562E+03  0.46155551988E+03  0.00000000000E+00 0. -1.
         22    1    3    3    0    0  0.32036833192E+02 -0.29150872586E+02  0.21053253735E+02  0.48159854094E+02  0.00000000000E+00 0.  1.
         22    1    3    3    0    0 -0.61732764333E+02  0.46472996595E+02 -0.26170080841E+02  0.81581534283E+02  0.00000000000E+00 0.  1.
</event>
<event>
 7    1  0.6520971E-006  0.1156660E+03  0.7818608E-02  0.1342267E+00
          2   -1    0    0  502    0  0.00000000000E+00  0.00000000000E+00  0.40782957330E+03  0.40782957330E+03  0.00000000000E+00 0. -1.
          1   -1    0    0  501    0 -0.00000000000E+00 -0.00000000000E+00 -0.40737336189E+03  0.40737336189E+03  0.00000000000E+00 0. -1.
         25    2    1    2    0    0  0.44031783994E+02 -0.63777374945E+02 -0.21160642098E+01  0.14707078188E+03  0.12497594007E+03 0.  0.
          2    1    1    2  501    0 -0.89637390304E+02  0.82525326429E+02 -0.31968899657E+03  0.34212036738E+03  0.00000000000E+00 0. -1.
          1    1    1    2  502    0  0.45605606310E+02 -0.18747951484E+02  0.32226127219E+03  0.32601178593E+03  0.00000000000E+00 0. -1.
         22    1    3    3    0    0  0.64854728752E+02  0.94428065854E+01 -0.20666173844E+02  0.68719670976E+02  0.00000000000E+00 0. -1.
         22    1    3    3    0    0 -0.20822944758E+02 -0.73220181530E+02  0.18550109634E+02  0.78351110899E+02  0.00000000000E+00 0. -1.
</event>
<event>
 7    1  0.6520971E-006  0.8287022E+02  0.7818608E-02  0.1357626E+00
          2   -1    0    0  502    0  0.00000000000E+00  0.00000000000E+00  0.25352896041E+04  0.25352896041E+04  0.00000000000E+00 0. -1.
          1   -1    0    0  501    0 -0.00000000000E+00 -0.00000000000E+00 -0.69264729649E+03  0.69264729649E+03  0.00000000000E+00 0. -1.
         25    2    1    2    0    0 -0.13404482294E+02 -0.24669066909E+02  0.13230650814E+02  0.12878779397E+03  0.12499201073E+03 0.  0.
          2    1    1    2  501    0  0.66810471469E+02  0.52815676339E+02 -0.63164074837E+03  0.63735639149E+03  0.00000000000E+00 0. -1.
          1    1    1    2  502    0 -0.53405989175E+02 -0.28146609430E+02  0.24610524051E+04  0.24617927151E+04  0.00000000000E+00 0. -1.
         22    1    3    3    0    0 -0.14964537579E+02 -0.22509996199E+02 -0.54589627458E+02  0.60915225845E+02  0.00000000000E+00 0. -1.
         22    1    3    3    0    0  0.15600552848E+01 -0.21590707092E+01  0.67820278271E+02  0.67872568123E+02  0.00000000000E+00 0. -1.
</event>
<event>
 7    1  0.6520971E-006  0.4904276E+02  0.7818608E-02  0.1457140E+00
          2   -1    0    0  502    0  0.00000000000E+00  0.00000000000E+00  0.25335099518E+04  0.25335099518E+04  0.00000000000E+00 0. -1.
          1   -1    0    0  501    0 -0.00000000000E+00 -0.00000000000E+00 -0.71433620921E+03  0.71433620921E+03  0.00000000000E+00 0. -1.
         25    2    1    2    0    0  0.41032010659E+02  0.22384335988E+02  0.12381517610E+02  0.13403018763E+03  0.12500441921E+03 0.  0.
          2    1    1    2  501    0  0.16664232911E+01 -0.46709350882E+02 -0.65243040154E+03  0.65410241498E+03  0.00000000000E+00 0. -1.
          1    1    1    2  502    0 -0.42698433950E+02  0.24325014894E+02  0.24592226265E+04  0.24597135584E+04  0.00000000000E+00 0. -1.
         22    1    3    3    0    0 -0.35267886508E+02 -0.25280686260E+02  0.64585123444E+01  0.43870825137E+02  0.00000000000E+00 0.  1.
         22    1    3    3    0    0  0.76299897167E+02  0.47665022248E+02  0.59230052656E+01  0.90159362492E+02  0.00000000000E+00 0.  1.
</event>
<event>
 7    1  0.6520971E-006  0.1155174E+03  0.7818608E-02  0.1290597E+00
          2   -1    0    0  502    0  0.00000000000E+00  0.00000000000E+00  0.16435115888E+04  0.16435115888E+04  0.00000000000E+00 0. -1.
          1   -1    0    0  501    0 -0.00000000000E+00 -0.00000000000E+00 -0.71678437575E+03  0.71678437575E+03  0.00000000000E+00 0. -1.
         25    2    1    2    0    0  0.60770596652E+02  0.31982563583E+02  0.47947030369E+02  0.15046453113E+03  0.12499883045E+03 0.  0.
          2    1    1    2  501    0 -0.46704731924E+02 -0.10926364603E+03 -0.65921128033E+03  0.66983534428E+03  0.00000000000E+00 0. -1.
          1    1    1    2  502    0 -0.14065864728E+02  0.77281082444E+02  0.15379914630E+04  0.15399960891E+04  0.00000000000E+00 0. -1.
         22    1    3    3    0    0  0.66858129074E+02  0.46727409296E+02  0.80256583969E+02  0.11443154929E+03  0.00000000000E+00 0. -1.
         22    1    3    3    0    0 -0.60875324220E+01 -0.14744845713E+02 -0.32309553600E+02  0.36032981835E+02  0.00000000000E+00 0. -1.
</event>
<event>
 7    1  0.6520971E-006  0.9923745E+02  0.7818608E-02  0.1384995E+00
          2   -1    0    0  502    0  0.00000000000E+00  0.00000000000E+00  0.12121579994E+04  0.12121579994E+04  0.00000000000E+00 0. -1.
          1   -1    0    0  501    0 -0.00000000000E+00 -0.00000000000E+00 -0.96201386224E+03  0.96201386224E+03  0.00000000000E+00 0. -1.
         25    2    1    2    0    0 -0.42737509217E+02  0.12519049584E+03 -0.15691239234E+03  0.24030608214E+03  0.12500543710E+03 0.  0.
          2    1    1    2  501    0 -0.68769240693E+01 -0.39617258498E+02 -0.76078289215E+03  0.76184475337E+03  0.00000000000E+00 0. -1.
          1    1    1    2  502    0  0.49614433286E+02 -0.85573237339E+02  0.11678394217E+04  0.11720210261E+04  0.00000000000E+00 0. -1.
         22    1    3    3    0    0 -0.56558467705E+02  0.69741581856E+01 -0.23841181939E+02  0.61772980402E+02  0.00000000000E+00 0. -1.
         22    1    3    3    0    0  0.13820958488E+02  0.11821633765E+03 -0.13307121040E+03  0.17853310174E+03  0.00000000000E+00 0. -1.
</event>
<event>
 7    1  0.6520971E-006  0.2092744E+03  0.7818608E-02  0.1192734E+00
          2   -1    0    0  502    0  0.00000000000E+00  0.00000000000E+00  0.70833271539E+03  0.70833271539E+03  0.00000000000E+00 0. -1.
          1   -1    0    0  501    0 -0.00000000000E+00 -0.00000000000E+00 -0.27143815213E+04  0.27143815213E+04  0.00000000000E+00 0. -1.
         25    2    1    2    0    0  0.25645457056E+02 -0.31748116143E+03 -0.43973753727E+03  0.55717805324E+03  0.12500521590E+03 0.  0.
          2    1    1    2  501    0  0.15789399252E+02  0.11592731003E+03 -0.21980341730E+04  0.22011457635E+04  0.00000000000E+00 0. -1.
          1    1    1    2  502    0 -0.41434856307E+02  0.20155385139E+03  0.63172290434E+03  0.66439042000E+03  0.00000000000E+00 0. -1.
         22    1    3    3    0    0 -0.35394879897E+02 -0.50075676988E+02 -0.12814583014E+03  0.14206239732E+03  0.00000000000E+00 0.  1.
         22    1    3    3    0    0  0.61040336953E+02 -0.26740548444E+03 -0.31159170712E+03  0.41511565592E+03  0.00000000000E+00 0.  1.
</event>
<event>
 7    1  0.6520971E-006  0.5254628E+02  0.7818608E-02  0.1497755E+00
          2   -1    0    0  502    0  0.00000000000E+00  0.00000000000E+00  0.11503491097E+04  0.11503491097E+04  0.00000000000E+00 0. -1.
          1   -1    0    0  501    0 -0.00000000000E+00 -0.00000000000E+00 -0.14164538190E+03  0.14164538190E+03  0.00000000000E+00 0. -1.
         25    2    1    2    0    0 -0.33944007445E+02 -0.26743019484E+02  0.36288916507E+02  0.13713907852E+03  0.12499142636E+03 0.  0.
          2    1    1    2  501    0  0.54168564133E+02  0.10372086477E+01 -0.82899957041E+02  0.99033893286E+02  0.00000000000E+00 0. -1.
          1    1    1    2  502    0 -0.20224556688E+02  0.25705810837E+02  0.10553147683E+04  0.10558215198E+04  0.00000000000E+00 0. -1.
         22    1    3    3    0    0 -0.73362315036E+02 -0.24530725148E+02 -0.80473622996E+01  0.77772397313E+02  0.00000000000E+00 0. -1.
         22    1    3    3    0    0  0.39418307592E+02 -0.22122943361E+01  0.44336278807E+02  0.59366681211E+02  0.00000000000E+00 0. -1.
</event>
<event>
 7    1  0.6520971E-006  0.1006434E+03  0.7818608E-02  0.1317535E+00
          2   -1    0    0  502    0  0.00000000000E+00  0.00000000000E+00  0.19235810341E+04  0.19235810341E+04  0.00000000000E+00 0. -1.
          1   -1    0    0  501    0 -0.00000000000E+00 -0.00000000000E+00 -0.17288641015E+04  0.17288641015E+04  0.00000000000E+00 0. -1.
         25    2    1    2    0    0  0.15735027526E+03 -0.55021581820E+02  0.17525652191E+03  0.27226570237E+03  0.12500912217E+03 0.  0.
          2    1    1    2  501    0 -0.60416322898E+02  0.36227029007E+02 -0.16781860521E+04  0.16796639411E+04  0.00000000000E+00 0. -1.
          1    1    1    2  502    0 -0.96933952361E+02  0.18794552813E+02  0.16976464628E+04  0.17005154921E+04  0.00000000000E+00 0. -1.
         22    1    3    3    0    0  0.15096355054E+02  0.26450289114E+02 -0.23770876567E+01  0.30547803127E+02  0.00000000000E+00 0.  1.
         22    1    3    3    0    0  0.14225392020E+03 -0.81471870934E+02  0.17763360956E+03  0.24171789924E+03  0.00000000000E+00 0.  1.
</event>
<event>
 7    1  0.6520971E-006  0.6167658E+02  0.7818608E-02  0.1420029E+00
          2   -1    0    0  502    0  0.00000000000E+00  0.00000000000E+00  0.92893555036E+03  0.92893555036E+03  0.00000000000E+00 0. -1.
          1   -1    0    0  501    0 -0.00000000000E+00 -0.00000000000E+00 -0.66922441562E+03  0.66922441562E+03  0.00000000000E+00 0. -1.
         25    2    1    2    0    0  0.31442255689E+02 -0.10197044530E+03 -0.82532082041E+02  0.18390773310E+03  0.12499569020E+03 0.  0.
          2    1    1    2  501    0 -0.28669309801E+02  0.52976241731E+02 -0.53362317942E+03  0.53701220575E+03  0.00000000000E+00 0. -1.
          1    1    1    2  502    0 -0.27729458876E+01  0.48994203574E+02  0.87586639620E+03  0.87724002713E+03  0.00000000000E+00 0. -1.
         22    1    3    3    0    0 -0.81656131152E+01 -0.12021258961E+03 -0.56039428382E+02  0.13288401511E+03  0.00000000000E+00 0.  1.
         22    1    3    3    0    0  0.39607868804E+02  0.18242144302E+02 -0.26492653660E+02  0.51023717993E+02  0.00000000000E+00 0.  1.
</event>
<event>
 7    1  0.6520971E-006  0.1414599E+03  0.7818608E-02  0.1356591E+00
          2   -1    0    0  502    0  0.00000000000E+00  0.00000000000E+00  0.45690029370E+03  0.45690029370E+03  0.00000000000E+00 0. -1.
          1   -1    0    0  501    0 -0.00000000000E+00 -0.00000000000E+00 -0.11141761280E+04  0.11141761280E+04  0.00000000000E+00 0. -1.
         25    2    1    2    0    0 -0.11167967388E+03  0.17165420223E+02 -0.33729116636E+03  0.37703728135E+03  0.12499911764E+03 0.  0.
          2    1    1    2  501    0 -0.23895963885E+02  0.26490488953E+02 -0.74496880420E+03  0.74582255419E+03  0.00000000000E+00 0. -1.
          1    1    1    2  502    0  0.13557563777E+03 -0.43655909176E+02  0.42498413631E+03  0.44821658613E+03  0.00000000000E+00 0. -1.
         22    1    3    3    0    0 -0.10734077279E+03 -0.14920427464E+02 -0.13968059543E+03  0.17679176846E+03  0.00000000000E+00 0.  1.
         22    1    3    3    0    0 -0.43389010925E+01  0.32085847686E+02 -0.19761057094E+03  0.20024551288E+03  0.00000000000E+00 0.  1.
</event>
<event>
 7    1  0.6520971E-006  0.1944597E+03  0.7818608E-02  0.1327474E+00
          2   -1    0    0  502    0  0.00000000000E+00  0.00000000000E+00  0.14417980786E+04  0.14417980786E+04  0.00000000000E+00 0. -1.
          1   -1    0    0  501    0 -0.00000000000E+00 -0.00000000000E+00 -0.18953023572E+03  0.18953023572E+03  0.00000000000E+00 0. -1.
         25    2    1    2    0    0  0.30254068850E+02 -0.20226339823E+03  0.23563097237E+03  0.33611364766E+03  0.12499855223E+03 0.  0.
          2    1    1    2  501    0 -0.57959181562E+02  0.18365782310E+03 -0.72341571012E+02  0.20572497566E+03  0.00000000000E+00 0. -1.
          1    1    1    2  502    0  0.27705112711E+02  0.18605575127E+02  0.10889784415E+04  0.10894896910E+04  0.00000000000E+00 0. -1.
         22    1    3    3    0    0  0.28257522914E+02 -0.17030617958E+03  0.10598511842E+03  0.20257227780E+03  0.00000000000E+00 0.  1.
         22    1    3    3    0    0  0.19965459359E+01 -0.31957218648E+02  0.12964585395E+03  0.13354136987E+03  0.00000000000E+00 0.  1.
</event>
<event>
 7    1  0.6520971E-006  0.1547101E+03  0.7818608E-02  0.1357428E+00
          2   -1    0    0  502    0  0.00000000000E+00  0.00000000000E+00  0.14364748044E+04  0.14364748044E+04  0.00000000000E+00 0. -1.
          1   -1    0    0  501    0 -0.00000000000E+00 -0.00000000000E+00 -0.11136978748E+03  0.11136978748E+03  0.00000000000E+00 0. -1.
         25    2    1    2    0    0 -0.17409279557E+03 -0.35527734116E+02  0.46567270018E+03  0.51385414728E+03  0.12499799846E+03 0.  0.
          2    1    1    2  501    0  0.14406667603E+03  0.47676730739E+02 -0.20793654957E+02  0.15316871052E+03  0.00000000000E+00 0. -1.
          1    1    1    2  502    0  0.30026119537E+02 -0.12148996622E+02  0.88022597170E+03  0.88082173408E+03  0.00000000000E+00 0. -1.
         22    1    3    3    0    0 -0.38311428666E+02 -0.27411364413E+02  0.27861006412E+03  0.28256453475E+03  0.00000000000E+00 0. -1.
         22    1    3    3    0    0 -0.13578136690E+03 -0.81163697027E+01  0.18706263606E+03  0.23128961253E+03  0.00000000000E+00 0. -1.
</event>
<event>
 7    1  0.6520971E-006  0.1790615E+03  0.7818608E-02  0.1365165E+00
          2   -1    0    0  502    0  0.00000000000E+00  0.00000000000E+00  0.19578152304E+03  0.19578152304E+03  0.00000000000E+00 0. -1.
          1   -1    0    0  501    0 -0.00000000000E+00 -0.00000000000E+00 -0.83966492562E+03  0.83966492562E+03  0.00000000000E+00 0. -1.
         25    2    1    2    0    0 -0.15611400686E+03 -0.12162501899E+03 -0.11306711765E+03  0.25994912643E+03  0.12500058743E+03 0.  0.
          2    1    1    2  501    0  0.24423269069E+02  0.95596923405E+01 -0.59161863928E+03  0.59219971136E+03  0.00000000000E+00 0. -1.
          1    1    1    2  502    0  0.13169073779E+03  0.11206532665E+03  0.60802354347E+02  0.18329761087E+03  0.00000000000E+00 0. -1.
         22    1    3    3    0    0 -0.40098085866E+02  0.11766488859E+02 -0.64080616463E+02  0.76502497714E+02  0.00000000000E+00 0.  1.
         22    1    3    3    0    0 -0.11601592099E+03 -0.13339150784E+03 -0.48986501186E+02  0.18344662872E+03  0.00000000000E+00 0.  1.
</event>
<event>
 7    1  0.6520971E-006  0.1383350E+03  0.7818608E-02  0.1331148E+00
          2   -1    0    0  502    0  0.00000000000E+00  0.00000000000E+00  0.15210619073E+04  0.15210619073E+04  0.00000000000E+00 0. -1.
          1   -1    0    0  501    0 -0.00000000000E+00 -0.00000000000E+00 -0.13505401723E+04  0.13505401723E+04  0.00000000000E+00 0. -1.
         25    2    1    2    0    0 -0.39722149589E+02  0.12132053992E+03 -0.14440180271E+03  0.22972404504E+03  0.12499893467E+03 0.  0.
          2    1    1    2  501    0  0.84152810646E+02 -0.11189633202E+03 -0.11589140976E+04  0.11673407259E+04  0.00000000000E+00 0. -1.
          1    1    1    2  502    0 -0.44430661056E+02 -0.94242079015E+01  0.14738376353E+04  0.14745373087E+04  0.00000000000E+00 0. -1.
         22    1    3    3    0    0 -0.57640669239E+02  0.14081600682E+03 -0.12149542574E+03  0.19471192311E+03  0.00000000000E+00 0.  1.
         22    1    3    3    0    0  0.17918519650E+02 -0.19495466896E+02 -0.22906376975E+02  0.35012121930E+02  0.00000000000E+00 0.  1.
</event>
<event>
 7    1  0.6520971E-006  0.7776459E+02  0.7818608E-02  0.1448387E+00
          2   -1    0    0  502    0  0.00000000000E+00  0.00000000000E+00  0.13895451648E+04  0.13895451648E+04  0.00000000000E+00 0. -1.
          1   -1    0    0  501    0 -0.00000000000E+00 -0.00000000000E+00 -0.11874483593E+04  0.11874483593E+04  0.00000000000E+00 0. -1.
         25    2    1    2    0    0 -0.85480183050E+02 -0.62351214750E+02  0.57835304322E+02  0.17368469818E+03  0.12500766488E+03 0.  0.
          2    1    1    2  501    0  0.30310353269E+02  0.83217916189E+01 -0.11281342559E+04  0.11285720486E+04  0.00000000000E+00 0. -1.
          1    1    1    2  502    0  0.55169829781E+02  0.54029423131E+02  0.12723957571E+04  0.12747367772E+04  0.00000000000E+00 0. -1.
         22    1    3    3    0    0 -0.10880838374E+03 -0.39359403179E+02  0.10584452761E+02  0.11619146970E+03  0.00000000000E+00 0. -1.
         22    1    3    3    0    0  0.23328200695E+02 -0.22991811571E+02  0.47250851561E+02  0.57493228472E+02  0.00000000000E+00 0. -1.
</event>
<event>
 7    1  0.6520971E-006  0.6058345E+02  0.7818608E-02  0.1420280E+00
          2   -1    0    0  502    0  0.00000000000E+00  0.00000000000E+00  0.16639971919E+04  0.16639971919E+04  0.00000000000E+00 0. -1.
          1   -1    0    0  501    0 -0.00000000000E+00 -0.00000000000E+00 -0.75544753140E+02  0.75544753140E+02  0.00000000000E+00 0. -1.
         25    2    1    2    0    0  0.41349852641E+02 -0.91971480637E+02  0.19853022360E+03  0.25535751525E+03  0.12499858939E+03 0.  0.
          2    1    1    2  501    0 -0.52749163061E+01  0.57550754249E+02 -0.28810891202E+02  0.64575393987E+02  0.00000000000E+00 0. -1.
          1    1    1    2  502    0 -0.36074936335E+02  0.34420726388E+02  0.14187331064E+04  0.14196090358E+04  0.00000000000E+00 0. -1.
         22    1    3    3    0    0  0.63840070716E+02 -0.91650594134E+02  0.86990034745E+02  0.14157207415E+03  0.00000000000E+00 0. -1.
         22    1    3    3    0    0 -0.22490218075E+02 -0.32088650306E+00  0.11154018886E+03  0.11378544110E+03  0.00000000000E+00 0. -1.
</event>
<event>
 7    1  0.6520971E-006  0.1035726E+03  0.7818608E-02  0.1467541E+00
          2   -1    0    0  502    0  0.00000000000E+00  0.00000000000E+00  0.11753753301E+03  0.11753753301E+03  0.00000000000E+00 0. -1.
          1   -1    0    0  501    0 -0.00000000000E+00 -0.00000000000E+00 -0.24348986712E+03  0.24348986712E+03  0.00000000000E+00 0. -1.
         25    2    1    2    0    0  0.20665557638E+02 -0.87519004802E+02 -0.46334338654E+02  0.16080742212E+03  0.12500205837E+03 0.  0.
          2    1    1    2  501    0  0.67109539900E+01 -0.19398099252E+02 -0.87209771054E+02  0.89592786123E+02  0.00000000000E+00 0. -1.
          1    1    1    2  502    0 -0.27376511628E+02  0.10691710405E+03  0.75917755922E+01  0.11062719189E+03  0.00000000000E+00 0. -1.
         22    1    3    3    0    0  0.72271593861E+02 -0.48491939061E+02 -0.40037768456E+02  0.95800179207E+02  0.00000000000E+00 0.  1.
         22    1    3    3    0    0 -0.51606036224E+02 -0.39027065741E+02 -0.62965701983E+01  0.65007242914E+02  0.00000000000E+00 0.  1.
</event>
<event>
 7    1  0.6520971E-006  0.1053234E+03  0.7818608E-02  0.1313298E+00
          2   -1    0    0  502    0  0.00000000000E+00  0.00000000000E+00  0.14567600388E+04  0.14567600388E+04  0.00000000000E+00 0. -1.
          1   -1    0    0  501    0 -0.00000000000E+00 -0.00000000000E+00 -0.15605118641E+03  0.15605118641E+03  0.00000000000E+00 0. -1.
         25    2    1    2    0    0  0.61949317002E+02 -0.38165437871E+02  0.14783657530E+03  0.20681991675E+03  0.12499802575E+03 0.  0.
          2    1    1    2  501    0 -0.39841332758E+02  0.10450925856E+03 -0.10068250228E+03  0.15048748515E+03  0.00000000000E+00 0. -1.
          1    1    1    2  502    0 -0.22107984244E+02 -0.66343820690E+02  0.12535547794E+04  0.12555038233E+04  0.00000000000E+00 0. -1.
         22    1    3    3    0    0  0.55738301400E+02  0.38455674453E+02  0.66696870627E+02  0.95047723234E+02  0.00000000000E+00 0.  1.
         22    1    3    3    0    0  0.62110156020E+01 -0.76621112324E+02  0.81139704678E+02  0.11177219352E+03  0.00000000000E+00 0.  1.
</event>
<event>
 7    1  0.6520971E-006  0.4519791E+02  0.7818608E-02  0.1496959E+00
          2   -1    0    0  502    0  0.00000000000E+00  0.00000000000E+00  0.30610486157E+02  0.30610486157E+02  0.00000000000E+00 0. -1.
          1   -1    0    0  501    0 -0.00000000000E+00 -0.00000000000E+00 -0.68591980962E+03  0.68591980962E+03  0.00000000000E+00 0. -1.
         25    2    1    2    0    0  0.20871548482E+01 -0.48284779299E+02 -0.45581945709E+03  0.47511254009E+03  0.12499908864E+03 0.  0.
          2    1    1    2  501    0 -0.34725212548E+02  0.16002654280E+02 -0.19092940751E+03  0.19472021976E+03  0.00000000000E+00 0. -1.
          1    1    1    2  502    0  0.32638057700E+02  0.32282125019E+02 -0.85604588637E+01  0.46697535932E+02  0.00000000000E+00 0. -1.
         22    1    3    3    0    0  0.33549647950E+02 -0.75665978212E+02 -0.37655227058E+03  0.38554186752E+03  0.00000000000E+00 0.  1.
         22    1    3    3    0    0 -0.31462493101E+02  0.27381198913E+02 -0.79267186514E+02  0.89570672566E+02  0.00000000000E+00 0.  1.
</event>
<event>
 7    1  0.6520971E-006  0.9623864E+02  0.7818608E-02  0.1365931E+00
          2   -1    0    0  502    0  0.00000000000E+00  0.00000000000E+00  0.95507960400E+03  0.95507960400E+03  0.00000000000E+00 0. -1.
          1   -1    0    0  501    0 -0.00000000000E+00 -0.00000000000E+00 -0.94302069653E+02  0.94302069653E+02  0.00000000000E+00 0. -1.
         25    2    1    2    0    0 -0.21299219681E+02  0.72859008340E+02  0.18302566325E+03  0.23427635522E+03  0.12499970141E+03 0.  0.
          2    1    1    2  501    0  0.69784746225E+02 -0.73392157932E+02 -0.30055327658E+02  0.10563920850E+03  0.00000000000E+00 0. -1.
          1    1    1    2  502    0 -0.48485526544E+02  0.53314959221E+00  0.70780719875E+03  0.70946610993E+03  0.00000000000E+00 0. -1.
         22    1    3    3    0    0 -0.31705780336E+02  0.93624025043E+02  0.18622254432E+03  0.21083062060E+03  0.00000000000E+00 0. -1.
         22    1    3    3    0    0  0.10406560655E+02 -0.20765016702E+02 -0.31968810660E+01  0.23445734620E+02  0.00000000000E+00 0. -1.
</event>
<event>
 7    1  0.6520971E-006  0.8152058E+02  0.7818608E-02  0.1418764E+00
          2   -1    0    0  502    0  0.00000000000E+00  0.00000000000E+00  0.52108362457E+03  0.52108362457E+03  0.00000000000E+00 0. -1.
          1   -1    0    0  501    0 -0.00000000000E+00 -0.00000000000E+00 -0.74653647988E+02  0.74653647988E+02  0.00000000000E+00 0. -1.
         25    2    1    2    0    0  0.99168157582E+02 -0.48829002825E+02  0.18470416960E+03  0.24891555064E+03  0.12499890434E+03 0.  0.
          2    1    1    2  501    0 -0.61795068529E+02  0.45867000133E+02 -0.53353580341E+01  0.77141935683E+02  0.00000000000E+00 0. -1.
          1    1    1    2  502    0 -0.37373089053E+02  0.29620026920E+01  0.26706116502E+03  0.26967978624E+03  0.00000000000E+00 0. -1.
         22    1    3    3    0    0  0.23263356974E+02 -0.33186315076E+02  0.16366834544E+03  0.16861151380E+03  0.00000000000E+00 0.  1.
         22    1    3    3    0    0  0.75904800607E+02 -0.15642687749E+02  0.21035824165E+02  0.80304036845E+02  0.00000000000E+00 0.  1.
</event>
<event>
 7    1  0.6520971E-006  0.1026570E+03  0.7818608E-02  0.1296007E+00
          2   -1    0    0  502    0  0.00000000000E+00  0.00000000000E+00  0.16213711254E+04  0.16213711254E+04  0.00000000000E+00 0. -1.
          1   -1    0    0  501    0 -0.00000000000E+00 -0.00000000000E+00 -0.56224022725E+03  0.56224022725E+03  0.00000000000E+00 0. -1.
         25    2    1    2    0    0  0.46646411765E+02 -0.69310392830E+02 -0.13031487262E+03  0.19896217372E+03  0.12499664900E+03 0.  0.
          2    1    1    2  501    0 -0.79007939676E+02 -0.28663925890E+02 -0.39145950776E+03  0.40038034591E+03  0.00000000000E+00 0. -1.
          1    1    1    2  502    0  0.32361527911E+02  0.97974318720E+02  0.15809052785E+04  0.15842688330E+04  0.00000000000E+00 0. -1.
         22    1    3    3    0    0  0.78910789441E+02 -0.83238610187E+02 -0.10643948950E+03  0.15647665590E+03  0.00000000000E+00 0.  1.
         22    1    3    3    0    0 -0.32264377676E+02  0.13928217357E+02 -0.23875383121E+02  0.42485517823E+02  0.00000000000E+00 0.  1.
</event>
<event>
 7    1  0.6520971E-006  0.4209257E+02  0.7818608E-02  0.1584151E+00
          2   -1    0    0  502    0  0.00000000000E+00  0.00000000000E+00  0.77571813115E+03  0.77571813115E+03  0.00000000000E+00 0. -1.
          1   -1    0    0  501    0 -0.00000000000E+00 -0.00000000000E+00 -0.16699054399E+02  0.16699054399E+02  0.00000000000E+00 0. -1.
         25    2    1    2    0    0 -0.54504614076E+02  0.17476292655E+02  0.46382139107E+03  0.48376699519E+03  0.12499619617E+03 0.  0.
          2    1    1    2  501    0  0.14265600868E+02 -0.18389784828E+02  0.20487030408E+02  0.31006611700E+02  0.00000000000E+00 0. -1.
          1    1    1    2  502    0  0.40239013208E+02  0.91349217359E+00  0.27471065527E+03  0.27764357866E+03  0.00000000000E+00 0. -1.
         22    1    3    3    0    0 -0.48797396550E+02  0.59521186408E+02  0.39856840097E+03  0.40593192508E+03  0.00000000000E+00 0. -1.
         22    1    3    3    0    0 -0.57072175256E+01 -0.42044893753E+02  0.65252990101E+02  0.77835070115E+02  0.00000000000E+00 0. -1.
</event>
<event>
 7    1  0.6520971E-006  0.8797070E+02  0.7818608E-02  0.1412324E+00
          2   -1    0    0  502    0  0.00000000000E+00  0.00000000000E+00  0.86827508830E+03  0.86827508830E+03  0.00000000000E+00 0. -1.
          1   -1    0    0  501    0 -0.00000000000E+00 -0.00000000000E+00 -0.35120172911E+03  0.35120172911E+03  0.00000000000E+00 0. -1.
         25    2    1    2    0    0 -0.67475764981E+02  0.10359209018E+03 -0.30262692657E+02  0.17840026751E+03  0.12500609934E+03 0.  0.
          2    1    1    2  501    0  0.21117443591E+02 -0.29791946480E+02 -0.24311156856E+03  0.24583885223E+03  0.00000000000E+00 0. -1.
          1    1    1    2  502    0  0.46358321390E+02 -0.73800143699E+02  0.79044762041E+03  0.79523769767E+03  0.00000000000E+00 0. -1.
         22    1    3    3    0    0 -0.88979941389E+02  0.11952512755E+03 -0.27052889673E+02  0.15144485770E+03  0.00000000000E+00 0. -1.
         22    1    3    3    0    0  0.21504176408E+02 -0.15933037367E+02 -0.32098029837E+01  0.26955409808E+02  0.00000000000E+00 0. -1.
</event>
<event>
 7    1  0.6520971E-006  0.6447588E+02  0.7818608E-02  0.1417791E+00
          2   -1    0    0  502    0  0.00000000000E+00  0.00000000000E+00  0.15726704780E+04  0.15726704780E+04  0.00000000000E+00 0. -1.
          1   -1    0    0  501    0 -0.00000000000E+00 -0.00000000000E+00 -0.15423107608E+03  0.15423107608E+03  0.00000000000E+00 0. -1.
         25    2    1    2    0    0  0.22357107387E+02 -0.12604067175E+02  0.95491666478E+02  0.15937920632E+03  0.12499748110E+03 0.  0.
          2    1    1    2  501    0 -0.67547803817E+02 -0.28443180072E+01 -0.11251535954E+03  0.13126500706E+03  0.00000000000E+00 0. -1.
          1    1    1    2  502    0  0.45190696430E+02  0.15448385183E+02  0.14354630950E+04  0.14362573407E+04  0.00000000000E+00 0. -1.
         22    1    3    3    0    0  0.30895322489E+02 -0.12243804419E+02  0.12464494613E+03  0.12899920269E+03  0.00000000000E+00 0. -1.
         22    1    3    3    0    0 -0.85382151020E+01 -0.36026275592E+00 -0.29153279652E+02  0.30380003635E+02  0.00000000000E+00 0. -1.
</event>
<event>
 7    1  0.6520971E-006  0.1249837E+03  0.7818608E-02  0.1304952E+00
          2   -1    0    0  502    0  0.00000000000E+00  0.00000000000E+00  0.23016175425E+03  0.23016175425E+03  0.00000000000E+00 0. -1.
          1   -1    0    0  501    0 -0.00000000000E+00 -0.00000000000E+00 -0.21998986895E+04  0.21998986895E+04  0.00000000000E+00 0. -1.
         25    2    1    2    0    0 -0.28844757720E+02  0.61117804952E+02  0.88144282626E+02  0.16721789989E+03  0.12500002141E+03 0.  0.
          2    1    1    2  501    0  0.82753614639E+02 -0.94813647135E+02 -0.21484808046E+04  0.21521634594E+04  0.00000000000E+00 0. -1.
          1    1    1    2  502    0 -0.53908856919E+02  0.33695842183E+02  0.90599586670E+02  0.11067908447E+03  0.00000000000E+00 0. -1.
         22    1    3    3    0    0  0.11052857481E+02  0.24287362128E+02  0.10658436025E+03  0.10987387073E+03  0.00000000000E+00 0.  1.
         22    1    3    3    0    0 -0.39897615201E+02  0.36830442824E+02 -0.18440077629E+02  0.57344029160E+02  0.00000000000E+00 0.  1.
</event>
<event>
 7    1  0.6520971E-006  0.6312211E+02  0.7818608E-02  0.1397696E+00
          2   -1    0    0  502    0  0.00000000000E+00  0.00000000000E+00  0.97743528311E+03  0.97743528311E+03  0.00000000000E+00 0. -1.
          1   -1    0    0  501    0 -0.00000000000E+00 -0.00000000000E+00 -0.78917802448E+03  0.78917802448E+03  0.00000000000E+00 0. -1.
         25    2    1    2    0    0  0.65009152496E+02 -0.35009823184E+02 -0.10998245161E+03  0.18213343172E+03  0.12499827864E+03 0.  0.
          2    1    1    2  501    0 -0.56633562353E+01  0.56812322864E+02 -0.64078783478E+03  0.64332632686E+03  0.00000000000E+00 0. -1.
          1    1    1    2  502    0 -0.59345796261E+02 -0.21802499679E+02  0.93902754501E+03  0.94115354901E+03  0.00000000000E+00 0. -1.
         22    1    3    3    0    0 -0.85898349398E+01  0.39328819003E+02 -0.25315769211E+02  0.47554489159E+02  0.00000000000E+00 0.  1.
         22    1    3    3    0    0  0.73598987436E+02 -0.74338642187E+02 -0.84666682395E+02  0.13457894256E+03  0.00000000000E+00 0.  1.
</event>
<event>
 7    1  0.6520971E-006  0.2433694E+03  0.7818608E-02  0.1211657E+00
          2   -1    0    0  502    0  0.00000000000E+00  0.00000000000E+00  0.87462174718E+03  0.87462174718E+03  0.00000000000E+00 0. -1.
          1   -1    0    0  501    0 -0.00000000000E+00 -0.00000000000E+00 -0.27543152657E+04  0.27543152657E+04  0.00000000000E+00 0. -1.
         25    2    1    2    0    0  0.22942931004E+03  0.10933565354E+03 -0.50969101163E+03  0.58309594204E+03  0.12499542728E+03 0.  0.
          2    1    1    2  501    0 -0.55157399665E+02  0.60649934227E+02 -0.21894560235E+04  0.21909902857E+04  0.00000000000E+00 0. -1.
          1    1    1    2  502    0 -0.17427191038E+03 -0.16998558776E+03  0.81945351665E+03  0.85485078508E+03  0.00000000000E+00 0. -1.
         22    1    3    3    0    0  0.25219022586E+02 -0.21817785287E+02 -0.11517068813E+03  0.11990121876E+03  0.00000000000E+00 0.  1.
         22    1    3    3    0    0  0.20421028746E+03  0.13115343883E+03 -0.39452032350E+03  0.46319472328E+03  0.00000000000E+00 0.  1.
</event>
<event>
 7    1  0.6520971E-006  0.1254242E+03  0.7818608E-02  0.1347213E+00
          2   -1    0    0  502    0  0.00000000000E+00  0.00000000000E+00  0.62561731365E+03  0.62561731365E+03  0.00000000000E+00 0. -1.
          1   -1    0    0  501    0 -0.00000000000E+00 -0.00000000000E+00 -0.25262358071E+03  0.25262358071E+03  0.00000000000E+00 0. -1.
         25    2    1    2    0    0 -0.34472734523E+02  0.82240141075E+02  0.86758169919E+02  0.17636109925E+03  0.12499778818E+03 0.  0.
          2    1    1    2  501    0 -0.19788033352E+02  0.38827105019E+02 -0.19648491344E+03  0.20125961234E+03  0.00000000000E+00 0. -1.
          1    1    1    2  502    0  0.54260767875E+02 -0.12106724609E+03  0.48272047646E+03  0.50062018278E+03  0.00000000000E+00 0. -1.
         22    1    3    3    0    0 -0.63145515366E+02  0.91011430598E+02  0.94264037679E+02  0.14545152254E+03  0.00000000000E+00 0. -1.
         22    1    3    3    0    0  0.28672780843E+02 -0.87712895232E+01 -0.75058677599E+01  0.30909576703E+02  0.00000000000E+00 0. -1.
</event>
<event>
 7    1  0.6520971E-006  0.1290446E+03  0.7818608E-02  0.1256007E+00
          2   -1    0    0  502    0  0.00000000000E+00  0.00000000000E+00  0.30953022253E+04  0.30953022253E+04  0.00000000000E+00 0. -1.
          1   -1    0    0  501    0 -0.00000000000E+00 -0.00000000000E+00 -0.44077740970E+03  0.44077740970E+03  0.00000000000E+00 0. -1.
         25    2    1    2    0    0 -0.80847216072E+02  0.16082262177E+03  0.36841728093E+03  0.42866946032E+03  0.12500410115E+03 0.  0.
          2    1    1    2  501    0  0.92154603850E+02 -0.33570840572E+02 -0.40325707400E+03  0.41501293965E+03  0.00000000000E+00 0. -1.
          1    1    1    2  502    0 -0.11307387778E+02 -0.12725178120E+03  0.26893646086E+04  0.26923972350E+04  0.00000000000E+00 0. -1.
         22    1    3    3    0    0 -0.52629336391E+02  0.13258343425E+03  0.15141541966E+03  0.20802606423E+03  0.00000000000E+00 0. -1.
         22    1    3    3    0    0 -0.28217879681E+02  0.28239187520E+02  0.21700186127E+03  0.22064339609E+03  0.00000000000E+00 0. -1.
</event>
<event>
 7    1  0.6520971E-006  0.1150143E+03  0.7818608E-02  0.1266789E+00
          2   -1    0    0  502    0  0.00000000000E+00  0.00000000000E+00  0.22600065730E+04  0.22600065730E+04  0.00000000000E+00 0. -1.
          1   -1    0    0  501    0 -0.00000000000E+00 -0.00000000000E+00 -0.70032444384E+03  0.70032444384E+03  0.00000000000E+00 0. -1.
         25    2    1    2    0    0 -0.13400824749E+03 -0.11585518524E+03 -0.12515582078E+03  0.25034412163E+03  0.12501026124E+03 0.  0.
          2    1    1    2  501    0  0.10927430879E+03  0.19991369422E+02 -0.50542421388E+03  0.51748832391E+03  0.00000000000E+00 0. -1.
          1    1    1    2  502    0  0.24733938703E+02  0.95863815817E+02  0.21902621639E+04  0.21924985713E+04  0.00000000000E+00 0. -1.
         22    1    3    3    0    0 -0.60449369264E+02 -0.85767818252E+02 -0.34482991483E+01  0.10498635940E+03  0.00000000000E+00 0.  1.
         22    1    3    3    0    0 -0.73558878230E+02 -0.30087366987E+02 -0.12170752163E+03  0.14535776223E+03  0.00000000000E+00 0.  1.
</event>
<event>
 7    1  0.6520971E-006  0.1860305E+03  0.7818608E-02  0.1285542E+00
          2   -1    0    0  502    0  0.00000000000E+00  0.00000000000E+00  0.50761609136E+03  0.50761609136E+03  0.00000000000E+00 0. -1.
          1   -1    0    0  501    0 -0.00000000000E+00 -0.00000000000E+00 -0.14558049089E+04  0.14558049089E+04  0.00000000000E+00 0. -1.
         25    2    1    2    0    0 -0.15076463810E+03 -0.24725224911E+02 -0.84227719641E+03  0.86509987256E+03  0.12500240419E+03 0.  0.
          2    1    1    2  501    0 -0.35648582909E+02  0.36679523575E+02 -0.58337780289E+03  0.58561580393E+03  0.00000000000E+00 0. -1.
          1    1    1    2  502    0  0.18641322101E+03 -0.11954298665E+02  0.47746618180E+03  0.51270532374E+03  0.00000000000E+00 0. -1.
         22    1    3    3    0    0 -0.11893697815E+03  0.18542999407E+01 -0.32363969417E+03  0.34480733003E+03  0.00000000000E+00 0. -1.
         22    1    3    3    0    0 -0.31827659957E+02 -0.26579524851E+02 -0.51863750224E+03  0.52029254253E+03  0.00000000000E+00 0. -1.
</event>
<event>
 7    1  0.6520971E-006  0.2092456E+03  0.7818608E-02  0.1254625E+00
          2   -1    0    0  502    0  0.00000000000E+00  0.00000000000E+00  0.59958061500E+03  0.59958061500E+03  0.00000000000E+00 0. -1.
          1   -1    0    0  501    0 -0.00000000000E+00 -0.00000000000E+00 -0.28895523310E+03  0.28895523310E+03  0.00000000000E+00 0. -1.
         25    2    1    2    0    0 -0.56576913665E+02 -0.23448026333E+03  0.18495732445E+02  0.27230186084E+03  0.12499708095E+03 0.  0.
          2    1    1    2  501    0  0.82655663967E+02  0.17898256151E+03 -0.98804499439E+02  0.22051994291E+03  0.00000000000E+00 0. -1.
          1    1    1    2  502    0 -0.26078750301E+02  0.55497701824E+02  0.39093414889E+03  0.39571404435E+03  0.00000000000E+00 0. -1.
         22    1    3    3    0    0  0.38249563953E+01 -0.12962420600E+03  0.61961900170E+02  0.14372314408E+03  0.00000000000E+00 0.  1.
         22    1    3    3    0    0 -0.60401870061E+02 -0.10485605733E+03 -0.43466167725E+02  0.12857871676E+03  0.00000000000E+00 0.  1.
</event>
<event>
 7    1  0.6520971E-006  0.1170083E+03  0.7818608E-02  0.1286792E+00
          2   -1    0    0  502    0  0.00000000000E+00  0.00000000000E+00  0.75439569530E+03  0.75439569530E+03  0.00000000000E+00 0. -1.
          1   -1    0    0  501    0 -0.00000000000E+00 -0.00000000000E+00 -0.43570809744E+03  0.43570809744E+03  0.00000000000E+00 0. -1.
         25    2    1    2    0    0 -0.22313651340E+02  0.76913455108E+02 -0.14764128030E+03  0.20936958601E+03  0.12499638907E+03 0.  0.
          2    1    1    2  501    0 -0.78926838115E+02 -0.15157239853E+02 -0.24589967652E+03  0.25870028722E+03  0.00000000000E+00 0. -1.
          1    1    1    2  502    0  0.10124048946E+03 -0.61756215255E+02  0.71222855469E+03  0.72203391952E+03  0.00000000000E+00 0. -1.
         22    1    3    3    0    0  0.21715197803E+01 -0.31612400234E+02 -0.11867356158E+02  0.33836274749E+02  0.00000000000E+00 0.  1.
         22    1    3    3    0    0 -0.24485171121E+02  0.10852585534E+03 -0.13577392415E+03  0.17553331126E+03  0.00000000000E+00 0.  1.
</event>
<event>
 7    1  0.6520971E-006  0.1133181E+03  0.7818608E-02  0.1280747E+00
          2   -1    0    0  502    0  0.00000000000E+00  0.00000000000E+00  0.28247872601E+04  0.28247872601E+04  0.00000000000E+00 0. -1.
          1   -1    0    0  501    0 -0.00000000000E+00 -0.00000000000E+00 -0.94593441958E+03  0.94593441958E+03  0.00000000000E+00 0. -1.
         25    2    1    2    0    0  0.15439258350E+02 -0.74198122055E+02  0.25043511354E+03  0.28997721840E+03  0.12500123633E+03 0.  0.
          2    1    1    2  501    0  0.86475534376E+02  0.15588328946E+02 -0.92272242914E+03  0.92689680941E+03  0.00000000000E+00 0. -1.
          1    1    1    2  502    0 -0.10191479273E+03  0.58609793109E+02  0.25511401561E+04  0.25538476518E+04  0.00000000000E+00 0. -1.
         22    1    3    3    0    0 -0.43812297203E+02  0.15812513322E+01  0.43415669455E+02  0.61700389758E+02  0.00000000000E+00 0.  1.
         22    1    3    3    0    0  0.59251555553E+02 -0.75779373387E+02  0.20701944409E+03  0.22827682865E+03  0.00000000000E+00 0.  1.
</event>
<event>
 7    1  0.6520971E-006  0.6714465E+02  0.7818608E-02  0.1457431E+00
          2   -1    0    0  502    0  0.00000000000E+00  0.00000000000E+00  0.95686726189E+02  0.95686726189E+02  0.00000000000E+00 0. -1.
          1   -1    0    0  501    0 -0.00000000000E+00 -0.00000000000E+00 -0.16687603981E+03  0.16687603981E+03  0.00000000000E+00 0. -1.
         25    2    1    2    0    0 -0.40328428688E+02 -0.44179612708E+02 -0.24036506661E+02  0.14064414699E+03  0.12499920836E+03 0.  0.
          2    1    1    2  501    0 -0.30139850768E+02  0.15877315694E+02 -0.32971267167E+01  0.34225294776E+02  0.00000000000E+00 0. -1.
          1    1    1    2  502    0  0.70468279456E+02  0.28302297014E+02 -0.43855680247E+02  0.87693324237E+02  0.00000000000E+00 0. -1.
         22    1    3    3    0    0  0.19936437696E+02 -0.49860816869E+02  0.28232302777E+02  0.60668159086E+02  0.00000000000E+00 0. -1.
         22    1    3    3    0    0 -0.60264866384E+02  0.56812041611E+01 -0.52268809438E+02  0.79975987903E+02  0.00000000000E+00 0. -1.
</event>
<event>
 7    1  0.6520971E-006  0.2274266E+03  0.7818608E-02  0.1268070E+00
          2   -1    0    0  502    0  0.00000000000E+00  0.00000000000E+00  0.32535715480E+04  0.32535715480E+04  0.00000000000E+00 0. -1.
          1   -1    0    0  501    0 -0.00000000000E+00 -0.00000000000E+00 -0.11233754110E+03  0.11233754110E+03  0.00000000000E+00 0. -1.
         25    2    1    2    0    0  0.17534289446E+03 -0.15245317678E+03  0.60312921783E+03  0.65831360035E+03  0.12499936505E+03 0.  0.
          2    1    1    2  501    0  0.24043145201E+02  0.43210524031E+02 -0.72144073240E+02  0.87464218524E+02  0.00000000000E+00 0. -1.
          1    1    1    2  502    0 -0.19938603966E+03  0.10924265275E+03  0.26102488623E+04  0.26201312702E+04  0.00000000000E+00 0. -1.
         22    1    3    3    0    0  0.16549414814E+03 -0.12285391629E+03  0.37367541525E+03  0.42674900559E+03  0.00000000000E+00 0.  1.
         22    1    3    3    0    0  0.98487463156E+01 -0.29599260493E+02  0.22945380258E+03  0.23156459476E+03  0.00000000000E+00 0.  1.
</event>
<event>
 7    1  0.6520971E-006  0.1084265E+03  0.7818608E-02  0.1378036E+00
          2   -1    0    0  502    0  0.00000000000E+00  0.00000000000E+00  0.13778536896E+03  0.13778536896E+03  0.00000000000E+00 0. -1.
          1   -1    0    0  501    0 -0.00000000000E+00 -0.00000000000E+00 -0.45016066636E+03  0.45016066636E+03  0.00000000000E+00 0. -1.
         25    2    1    2    0    0  0.79309201121E+02  0.36740801836E+01 -0.19989239667E+03  0.24876830035E+03  0.12500099506E+03 0.  0.
          2    1    1    2  501    0  0.31296759022E+02 -0.23179480064E+02 -0.19560946602E+03  0.19944883709E+03  0.00000000000E+00 0. -1.
          1    1    1    2  502    0 -0.11060596014E+03  0.19505399881E+02  0.83126565295E+02  0.13972889787E+03  0.00000000000E+00 0. -1.
         22    1    3    3    0    0  0.64693160686E+02  0.12644131652E+02 -0.21181972255E+02  0.69236948614E+02  0.00000000000E+00 0. -1.
         22    1    3    3    0    0  0.14616040435E+02 -0.89700514688E+01 -0.17871042442E+03  0.17953135174E+03  0.00000000000E+00 0. -1.
</event>
<event>
 7    1  0.6520971E-006  0.5283709E+02  0.7818608E-02  0.1529995E+00
          2   -1    0    0  502    0  0.00000000000E+00  0.00000000000E+00  0.41977443504E+03  0.41977443504E+03  0.00000000000E+00 0. -1.
          1   -1    0    0  501    0 -0.00000000000E+00 -0.00000000000E+00 -0.35649392058E+03  0.35649392058E+03  0.00000000000E+00 0. -1.
         25    2    1    2    0    0  0.43957242800E+01  0.28311156535E+02  0.33111687307E+02  0.13244837735E+03  0.12500137939E+03 0.  0.
          2    1    1    2  501    0  0.28446512186E+01 -0.53462036338E+02 -0.30397452856E+03  0.30865319597E+03  0.00000000000E+00 0. -1.
          1    1    1    2  502    0 -0.72403754986E+01  0.25150879803E+02  0.33414335571E+03  0.33516678230E+03  0.00000000000E+00 0. -1.
         22    1    3    3    0    0  0.55712214993E+01  0.26806100121E+02  0.80496425044E+02  0.85025172493E+02  0.00000000000E+00 0. -1.
         22    1    3    3    0    0 -0.11754972193E+01  0.15050564141E+01 -0.47384737736E+02  0.47423204857E+02  0.00000000000E+00 0. -1.
</event>
<event>
 7    1  0.6520971E-006  0.2786489E+02  0.7818608E-02  0.1654194E+00
          2   -1    0    0  502    0  0.00000000000E+00  0.00000000000E+00  0.10806694005E+04  0.10806694005E+04  0.00000000000E+00 0. -1.
          1   -1    0    0  501    0 -0.00000000000E+00 -0.00000000000E+00 -0.45797856002E+02  0.45797856002E+02  0.00000000000E+00 0. -1.
         25    2    1    2    0    0  0.12466046852E+02  0.12272622776E+02  0.90392148960E+03  0.91269099694E+03  0.12499910770E+03 0.  0.
          2    1    1    2  501    0 -0.10507893790E+02  0.20796290287E+02 -0.36378183986E+02  0.43200391106E+02  0.00000000000E+00 0. -1.
          1    1    1    2  502    0 -0.19581530616E+01 -0.33068913063E+02  0.16732823892E+03  0.17057586850E+03  0.00000000000E+00 0. -1.
         22    1    3    3    0    0  0.40749275008E+02 -0.44887261246E+02  0.51799310662E+03  0.52152874144E+03  0.00000000000E+00 0.  1.
         22    1    3    3    0    0 -0.28283228157E+02  0.57159884022E+02  0.38592838298E+03  0.39116225550E+03  0.00000000000E+00 0.  1.
</event>
<event>
 7    1  0.6520971E-006  0.1103174E+03  0.7818608E-02  0.1260147E+00
          2   -1    0    0  502    0  0.00000000000E+00  0.00000000000E+00  0.48628232731E+03  0.48628232731E+03  0.00000000000E+00 0. -1.
          1   -1    0    0  501    0 -0.00000000000E+00 -0.00000000000E+00 -0.36646070281E+03  0.36646070281E+03  0.00000000000E+00 0. -1.
         25    2    1    2    0    0 -0.69777046411E+02 -0.75233333497E+02  0.17721131846E+03  0.23991335464E+03  0.12500270264E+03 0.  0.
          2    1    1    2  501    0  0.97083087194E+02 -0.52390965362E+02 -0.30970070992E+03  0.32876202457E+03  0.00000000000E+00 0. -1.
          1    1    1    2  502    0 -0.27306040784E+02  0.12762429886E+03  0.25231101596E+03  0.28406765092E+03  0.00000000000E+00 0. -1.
         22    1    3    3    0    0 -0.67724501710E+02 -0.37668097096E+02  0.18580929320E+03  0.20132209792E+03  0.00000000000E+00 0.  1.
         22    1    3    3    0    0 -0.20525447007E+01 -0.37565236401E+02 -0.85979747375E+01  0.38591256719E+02  0.00000000000E+00 0.  1.
</event>
<event>
 7    1  0.6520971E-006  0.4575761E+02  0.7818608E-02  0.1563909E+00
          2   -1    0    0  502    0  0.00000000000E+00  0.00000000000E+00  0.21863287983E+03  0.21863287983E+03  0.00000000000E+00 0. -1.
          1   -1    0    0  501    0 -0.00000000000E+00 -0.00000000000E+00 -0.56526618548E+03  0.56526618548E+03  0.00000000000E+00 0. -1.
         25    2    1    2    0    0 -0.15047185703E+02  0.15625391765E+02 -0.27095467188E+03  0.29916630725E+03  0.12495388955E+03 0.  0.
          2    1    1    2  501    0 -0.16678520887E+02  0.17650724437E+02 -0.27708411913E+03  0.27814623889E+03  0.00000000000E+00 0. -1.
          1    1    1    2  502    0  0.31725706590E+02 -0.33276116202E+02  0.20140548536E+03  0.20658651917E+03  0.00000000000E+00 0. -1.
         22    1    3    3    0    0  0.23612974086E+02  0.57700684702E+02 -0.90615777959E+02  0.10999163957E+03  0.00000000000E+00 0. -1.
         22    1    3    3    0    0 -0.38660159790E+02 -0.42075292937E+02 -0.18033889392E+03  0.18917466768E+03  0.00000000000E+00 0. -1.
</event>
<event>
 7    1  0.7043976E-006  0.1241006E+03  0.7818608E-02  0.1407389E+00
          2   -1    0    0  502    0  0.00000000000E+00  0.00000000000E+00  0.27581507455E+04  0.27581507455E+04  0.00000000000E+00 0. -1.
          1   -1    0    0  501    0 -0.00000000000E+00 -0.00000000000E+00 -0.11561338775E+04  0.11561338775E+04  0.00000000000E+00 0. -1.
         25    2    1    2    0    0  0.28020253052E+02  0.94261524568E+02 -0.35796674848E+03  0.39170497741E+03  0.12498890637E+03 0.  0.
          2    1    1    2  501    0  0.15272778757E+02  0.22146716944E+02 -0.77965914927E+03  0.78012314661E+03  0.00000000000E+00 0. -1.
          1    1    1    2  502    0 -0.43293031809E+02 -0.11640824151E+03  0.27396427657E+04  0.27424564990E+04  0.00000000000E+00 0. -1.
         22    1    3    3    0    0 -0.25132970958E+02  0.16368673555E+02 -0.23416999493E+03  0.23608300708E+03  0.00000000000E+00 0. -1.
         22    1    3    3    0    0  0.53153224010E+02  0.77892851013E+02 -0.12379675354E+03  0.15562197033E+03  0.00000000000E+00 0. -1.
</event>
<event>
 7    1  0.6520971E-006  0.1533596E+03  0.7818608E-02  0.1381361E+00
          2   -1    0    0  502    0  0.00000000000E+00  0.00000000000E+00  0.47075434963E+03  0.47075434963E+03  0.00000000000E+00 0. -1.
          1   -1    0    0  501    0 -0.00000000000E+00 -0.00000000000E+00 -0.67593572838E+03  0.67593572838E+03  0.00000000000E+00 0. -1.
         25    2    1    2    0    0 -0.15902736815E+03 -0.74548097611E+02  0.31689584619E+01  0.21559607598E+03  0.12499801199E+03 0.  0.
          2    1    1    2  501    0  0.26488127288E+02  0.40642366456E+01 -0.55379454050E+03  0.55444254165E+03  0.00000000000E+00 0. -1.
          1    1    1    2  502    0  0.13253924086E+03  0.70483860965E+02  0.34544420329E+03  0.37665146039E+03  0.00000000000E+00 0. -1.
         22    1    3    3    0    0 -0.99847051426E+02 -0.90176848997E+02 -0.40386418887E+02  0.14047192105E+03  0.00000000000E+00 0. -1.
         22    1    3    3    0    0 -0.59180316720E+02  0.15628751386E+02  0.43555377349E+02  0.75124154923E+02  0.00000000000E+00 0. -1.
</event>
<event>
 7    1  0.6520971E-006  0.4810539E+02  0.7818608E-02  0.1466673E+00
          2   -1    0    0  502    0  0.00000000000E+00  0.00000000000E+00  0.29819304911E+04  0.29819304911E+04  0.00000000000E+00 0. -1.
          1   -1    0    0  501    0 -0.00000000000E+00 -0.00000000000E+00 -0.19803140620E+03  0.19803140620E+03  0.00000000000E+00 0. -1.
         25    2    1    2    0    0 -0.92035086951E+02 -0.69106235228E+01  0.14233770277E+03  0.21072334113E+03  0.12500436361E+03 0.  0.
          2    1    1    2  501    0  0.44404164062E+02  0.24256116717E+01 -0.16061301153E+03  0.16665579153E+03  0.00000000000E+00 0. -1.
          1    1    1    2  502    0  0.47630922889E+02  0.44850118510E+01  0.28021743937E+04  0.28025827646E+04  0.00000000000E+00 0. -1.
         22    1    3    3    0    0 -0.10091841527E+03 -0.10014293357E+01  0.41175019370E+02  0.10899959459E+03  0.00000000000E+00 0.  1.
         22    1    3    3    0    0  0.88833283197E+01 -0.59091941871E+01  0.10116268340E+03  0.10172374654E+03  0.00000000000E+00 0.  1.
</event>
<event>
 7    1  0.6520971E-006  0.7971926E+02  0.7818608E-02  0.1393545E+00
          2   -1    0    0  502    0  0.00000000000E+00  0.00000000000E+00  0.37940612577E+03  0.37940612577E+03  0.00000000000E+00 0. -1.
          1   -1    0    0  501    0 -0.00000000000E+00 -0.00000000000E+00 -0.33168339049E+03  0.33168339049E+03  0.00000000000E+00 0. -1.
         25    2    1    2    0    0  0.48494377025E+02  0.68055959895E+02  0.12626898968E+03  0.19634778441E+03  0.12500110563E+03 0.  0.
          2    1    1    2  501    0 -0.33095806242E+01 -0.79964381221E+02 -0.28863182081E+03  0.29952225889E+03  0.00000000000E+00 0. -1.
          1    1    1    2  502    0 -0.45184796401E+02  0.11908421326E+02  0.21008556642E+03  0.21521947296E+03  0.00000000000E+00 0. -1.
         22    1    3    3    0    0  0.73889122438E+02  0.31430619680E+02  0.22463451132E+02  0.83379211467E+02  0.00000000000E+00 0. -1.
         22    1    3    3    0    0 -0.25394745413E+02  0.36625340215E+02  0.10380553855E+03  0.11296857295E+03  0.00000000000E+00 0. -1.
</event>
<event>
 7    1  0.6520971E-006  0.7361528E+02  0.7818608E-02  0.1397453E+00
          2   -1    0    0  502    0  0.00000000000E+00  0.00000000000E+00  0.52065750059E+02  0.52065750059E+02  0.00000000000E+00 0. -1.
          1   -1    0    0  501    0 -0.00000000000E+00 -0.00000000000E+00 -0.37759722571E+04  0.37759722571E+04  0.00000000000E+00 0. -1.
         25    2    1    2    0    0 -0.77492234634E+02 -0.15620986066E+02 -0.57371259463E+03  0.59246941954E+03  0.12499924087E+03 0.  0.
          2    1    1    2  501    0  0.28418176116E+02 -0.39979169756E+02 -0.31603378496E+04  0.31607184706E+04  0.00000000000E+00 0. -1.
          1    1    1    2  502    0  0.49074058518E+02  0.55600155822E+02  0.10143937248E+02  0.74850116965E+02  0.00000000000E+00 0. -1.
         22    1    3    3    0    0 -0.77661212972E+01 -0.24558318524E+02 -0.15952610622E+02  0.30297020223E+02  0.00000000000E+00 0.  1.
         22    1    3    3    0    0 -0.69726113337E+02  0.89373324574E+01 -0.55775998401E+03  0.56217239932E+03  0.00000000000E+00 0.  1.
</event>
<event>
 7    1  0.6520971E-006  0.7940159E+02  0.7818608E-02  0.1404233E+00
          2   -1    0    0  502    0  0.00000000000E+00  0.00000000000E+00  0.10876323959E+03  0.10876323959E+03  0.00000000000E+00 0. -1.
          1   -1    0    0  501    0 -0.00000000000E+00 -0.00000000000E+00 -0.12309269664E+04  0.12309269664E+04  0.00000000000E+00 0. -1.
         25    2    1    2    0    0 -0.41888013705E+02  0.58853518854E+02 -0.39438193176E+02  0.14966165063E+03  0.12499958486E+03 0.  0.
          2    1    1    2  501    0  0.73984980771E+02 -0.30086544691E+02 -0.11260716465E+04  0.11289004964E+04  0.00000000000E+00 0. -1.
          1    1    1    2  502    0 -0.32096967065E+02 -0.28766974163E+02  0.43346112882E+02  0.61128059018E+02  0.00000000000E+00 0. -1.
         22    1    3    3    0    0 -0.74107790881E+02  0.66223601128E+02 -0.15701898087E+01  0.99398166541E+02  0.00000000000E+00 0.  1.
         22    1    3    3    0    0  0.32219777176E+02 -0.73700822735E+01 -0.37868003368E+02  0.50263484092E+02  0.00000000000E+00 0.  1.
</event>
<event>
 7    1  0.6520971E-006  0.2747941E+02  0.7818608E-02  0.1636292E+00
          2   -1    0    0  502    0  0.00000000000E+00  0.00000000000E+00  0.74950828063E+03  0.74950828063E+03  0.00000000000E+00 0. -1.
          1   -1    0    0  501    0 -0.00000000000E+00 -0.00000000000E+00 -0.11486733798E+03  0.11486733798E+03  0.00000000000E+00 0. -1.
         25    2    1    2    0    0 -0.56012790889E+01 -0.11093846532E+02  0.33676177455E+03  0.35942756416E+03  0.12500093326E+03 0.  0.
          2    1    1    2  501    0  0.27396783371E+02 -0.33665462229E+01 -0.10125898125E+03  0.10495379296E+03  0.00000000000E+00 0. -1.
          1    1    1    2  502    0 -0.21795504282E+02  0.14460392755E+02  0.39913814935E+03  0.39999426149E+03  0.00000000000E+00 0. -1.
         22    1    3    3    0    0 -0.35079843980E+02  0.47447132661E+02  0.18302483180E+03  0.19230162482E+03  0.00000000000E+00 0.  1.
         22    1    3    3    0    0  0.29478564891E+02 -0.58540979193E+02  0.15373694275E+03  0.16712593934E+03  0.00000000000E+00 0.  1.
</event>
<event>
 7    1  0.6520971E-006  0.9568585E+02  0.7818608E-02  0.1406134E+00
          2   -1    0    0  502    0  0.00000000000E+00  0.00000000000E+00  0.43215884462E+03  0.43215884462E+03  0.00000000000E+00 0. -1.
          1   -1    0    0  501    0 -0.00000000000E+00 -0.00000000000E+00 -0.13819907992E+03  0.13819907992E+03  0.00000000000E+00 0. -1.
         25    2    1    2    0    0  0.69132797503E+01  0.65334863669E+02  0.26550259856E+03  0.30072181253E+03  0.12500216336E+03 0.  0.
          2    1    1    2  501    0  0.71482532240E+01 -0.97643599986E+02 -0.97901770943E+02  0.13845622736E+03  0.00000000000E+00 0. -1.
          1    1    1    2  502    0 -0.14061532974E+02  0.32308736317E+02  0.12635893709E+03  0.13117988464E+03  0.00000000000E+00 0. -1.
         22    1    3    3    0    0  0.46305350350E+02  0.81137131891E+02  0.14061896245E+03  0.16882272431E+03  0.00000000000E+00 0. -1.
         22    1    3    3    0    0 -0.39392070599E+02 -0.15802268222E+02  0.12488363611E+03  0.13189908823E+03  0.00000000000E+00 0. -1.
</event>
<event>
 7    1  0.6520971E-006  0.6736998E+02  0.7818608E-02  0.1381932E+00
          2   -1    0    0  502    0  0.00000000000E+00  0.00000000000E+00  0.50496108487E+03  0.50496108487E+03  0.00000000000E+00 0. -1.
          1   -1    0    0  501    0 -0.00000000000E+00 -0.00000000000E+00 -0.18679215272E+04  0.18679215272E+04  0.00000000000E+00 0. -1.
         25    2    1    2    0    0  0.11773345304E+03 -0.21737152145E+02 -0.31978684895E+03  0.36362345934E+03  0.12499888668E+03 0.  0.
          2    1    1    2  501    0 -0.51492407827E+02  0.32178098157E+02 -0.15232812274E+04  0.15244909301E+04  0.00000000000E+00 0. -1.
          1    1    1    2  502    0 -0.66241045213E+02 -0.10440946012E+02  0.48010763405E+03  0.48476822265E+03  0.00000000000E+00 0. -1.
         22    1    3    3    0    0  0.14432188486E+03 -0.16956567161E+02 -0.25631303368E+03  0.29463995461E+03  0.00000000000E+00 0.  1.
         22    1    3    3    0    0 -0.26588431819E+02 -0.47805849841E+01 -0.63473815272E+02  0.68983504728E+02  0.00000000000E+00 0.  1.
</event>
<event>
 7    1  0.6520971E-006  0.6006849E+02  0.7818608E-02  0.1446343E+00
          2   -1    0    0  502    0  0.00000000000E+00  0.00000000000E+00  0.25253381216E+04  0.25253381216E+04  0.00000000000E+00 0. -1.
          1   -1    0    0  501    0 -0.00000000000E+00 -0.00000000000E+00 -0.31785202173E+03  0.31785202173E+03  0.00000000000E+00 0. -1.
         25    2    1    2    0    0  0.44475549793E+02  0.54525996635E+02 -0.93001994591E+02  0.17095371436E+03  0.12499857046E+03 0.  0.
          2    1    1    2  501    0 -0.58204685590E+02 -0.15562719988E+02 -0.18081539692E+03  0.19058906433E+03  0.00000000000E+00 0. -1.
          1    1    1    2  502    0  0.13729135798E+02 -0.38963276648E+02  0.24813034914E+04  0.24816473646E+04  0.00000000000E+00 0. -1.
         22    1    3    3    0    0  0.18907593992E+02 -0.36370276979E+02 -0.39841171538E+01  0.41184552293E+02  0.00000000000E+00 0. -1.
         22    1    3    3    0    0  0.25567955801E+02  0.90896273614E+02 -0.89017877437E+02  0.12976916207E+03  0.00000000000E+00 0. -1.
</event>
<event>
 7    1  0.6520971E-006  0.8659111E+02  0.7818608E-02  0.1387105E+00
          2   -1    0    0  502    0  0.00000000000E+00  0.00000000000E+00  0.17455930981E+03  0.17455930981E+03  0.00000000000E+00 0. -1.
          1   -1    0    0  501    0 -0.00000000000E+00 -0.00000000000E+00 -0.58526977049E+03  0.58526977049E+03  0.00000000000E+00 0. -1.
         25    2    1    2    0    0 -0.40072191131E+02  0.15354757873E+02  0.56685729672E+02  0.14379577768E+03  0.12498961812E+03 0.  0.
          2    1    1    2  501    0  0.83269715133E+02 -0.29004456344E+02 -0.53081871883E+03  0.53809257216E+03  0.00000000000E+00 0. -1.
          1    1    1    2  502    0 -0.43197524002E+02  0.13649698471E+02  0.63422528472E+02  0.77940730469E+02  0.00000000000E+00 0. -1.
         22    1    3    3    0    0  0.12138103604E+02  0.56431544864E+02  0.20101357302E+01  0.57757194015E+02  0.00000000000E+00 0.  1.
         22    1    3    3    0    0 -0.52210294735E+02 -0.41076786990E+02  0.54675593942E+02  0.86038583662E+02  0.00000000000E+00 0.  1.
</event>
<event>
 7    1  0.6520971E-006  0.7685932E+02  0.7818608E-02  0.1455691E+00
          2   -1    0    0  502    0  0.00000000000E+00  0.00000000000E+00  0.29993756322E+02  0.29993756322E+02  0.00000000000E+00 0. -1.
          1   -1    0    0  501    0 -0.00000000000E+00 -0.00000000000E+00 -0.24932743583E+04  0.24932743583E+04  0.00000000000E+00 0. -1.
         25    2    1    2    0    0 -0.41593053475E+02 -0.29496297129E+02 -0.30456636265E+03  0.33315948827E+03  0.12503824106E+03 0.  0.
          2    1    1    2  501    0  0.53182971732E+02  0.57319678658E+02 -0.21585516483E+04  0.21599674054E+04  0.00000000000E+00 0. -1.
          1    1    1    2  502    0 -0.11589918258E+02 -0.27823381529E+02 -0.16259104247E+00  0.30141220956E+02  0.00000000000E+00 0. -1.
         22    1    3    3    0    0 -0.50669026108E+02  0.39402767398E+02 -0.12284090666E+03  0.13859948281E+03  0.00000000000E+00 0. -1.
         22    1    3    3    0    0  0.90759726335E+01 -0.68899064527E+02 -0.18172545599E+03  0.19456000547E+03  0.00000000000E+00 0. -1.
</event>
<event>
 7    1  0.6520971E-006  0.6301017E+02  0.7818608E-02  0.1417810E+00
          2   -1    0    0  502    0  0.00000000000E+00  0.00000000000E+00  0.51098293570E+03  0.51098293570E+03  0.00000000000E+00 0. -1.
          1   -1    0    0  501    0 -0.00000000000E+00 -0.00000000000E+00 -0.27088955455E+03  0.27088955455E+03  0.00000000000E+00 0. -1.
         25    2    1    2    0    0 -0.66159029621E+01  0.19434439850E+02  0.89045675885E+02  0.15483993164E+03  0.12499921764E+03 0.  0.
          2    1    1    2  501    0  0.51110365965E+02 -0.39626608250E+02 -0.23201817523E+03  0.24086297189E+03  0.00000000000E+00 0. -1.
          1    1    1    2  502    0 -0.44494463003E+02  0.20192168400E+02  0.38306588050E+03  0.38616958672E+03  0.00000000000E+00 0. -1.
         22    1    3    3    0    0  0.15239746542E+02  0.16856029585E+02  0.11704303989E+03  0.11922855696E+03  0.00000000000E+00 0.  1.
         22    1    3    3    0    0 -0.21855649505E+02  0.25784102651E+01 -0.27997364009E+02  0.35611374675E+02  0.00000000000E+00 0.  1.
</event>
<event>
 7    1  0.6520971E-006  0.8861525E+02  0.7818608E-02  0.1365946E+00
          2   -1    0    0  502    0  0.00000000000E+00  0.00000000000E+00  0.23305170772E+02  0.23305170772E+02  0.00000000000E+00 0. -1.
          1   -1    0    0  501    0 -0.00000000000E+00 -0.00000000000E+00 -0.21749683273E+04  0.21749683273E+04  0.00000000000E+00 0. -1.
         25    2    1    2    0    0 -0.40515562928E+02  0.13413957880E+01 -0.12271401482E+04  0.12341569488E+04  0.12500848231E+03 0.  0.
          2    1    1    2  501    0 -0.52209577254E+02  0.68188921797E+01 -0.82924809087E+03  0.83091800646E+03  0.00000000000E+00 0. -1.
          1    1    1    2  502    0  0.92725140181E+02 -0.81602879677E+01 -0.95274917436E+02  0.13319854284E+03  0.00000000000E+00 0. -1.
         22    1    3    3    0    0 -0.74262476880E+02  0.30285801404E+02 -0.58390222936E+03  0.58938438959E+03  0.00000000000E+00 0. -1.
         22    1    3    3    0    0  0.33746913952E+02 -0.28944405616E+02 -0.64323791887E+03  0.64477255919E+03  0.00000000000E+00 0. -1.
</event>
<event>
 7    1  0.6520971E-006  0.1773804E+03  0.7818608E-02  0.1264828E+00
          2   -1    0    0  502    0  0.00000000000E+00  0.00000000000E+00  0.37292432455E+03  0.37292432455E+03  0.00000000000E+00 0. -1.
          1   -1    0    0  501    0 -0.00000000000E+00 -0.00000000000E+00 -0.24446950505E+04  0.24446950505E+04  0.00000000000E+00 0. -1.
         25    2    1    2    0    0 -0.14677679749E+03 -0.75669806373E+02 -0.61782692170E+03  0.65161457974E+03  0.12498842936E+03 0.  0.
          2    1    1    2  501    0  0.12227112570E+03  0.13633855594E+03 -0.18022881261E+04  0.18115686351E+04  0.00000000000E+00 0. -1.
          1    1    1    2  502    0  0.24505671796E+02 -0.60668749566E+02  0.34834432186E+03  0.35443616025E+03  0.00000000000E+00 0. -1.
         22    1    3    3    0    0 -0.65657106592E+02  0.31394743046E+02 -0.21779598209E+03  0.22963356756E+03  0.00000000000E+00 0.  1.
         22    1    3    3    0    0 -0.81119690902E+02 -0.10706454942E+03 -0.40003093961E+03  0.42198101218E+03  0.00000000000E+00 0.  1.
</event>
<event>
 7    1  0.6520971E-006  0.6312901E+02  0.7818608E-02  0.1519983E+00
          2   -1    0    0  502    0  0.00000000000E+00  0.00000000000E+00  0.61751991849E+02  0.61751991849E+02  0.00000000000E+00 0. -1.
          1   -1    0    0  501    0 -0.00000000000E+00 -0.00000000000E+00 -0.76907544384E+03  0.76907544384E+03  0.00000000000E+00 0. -1.
         25    2    1    2    0    0  0.94410504436E+01  0.22162292604E+01 -0.65413157186E+03  0.66603798948E+03  0.12499778007E+03 0.  0.
          2    1    1    2  501    0  0.31349644740E+01 -0.64079916296E+02 -0.74354963045E+02  0.98207556757E+02  0.00000000000E+00 0. -1.
          1    1    1    2  502    0 -0.12576014918E+02  0.61863687035E+02  0.21163082912E+02  0.66581889453E+02  0.00000000000E+00 0. -1.
         22    1    3    3    0    0 -0.44813443829E+02 -0.37170444008E+02 -0.31779223193E+03  0.32308170690E+03  0.00000000000E+00 0. -1.
         22    1    3    3    0    0  0.54254494272E+02  0.39386673268E+02 -0.33633933993E+03  0.34295628258E+03  0.00000000000E+00 0. -1.
</event>
<event>
 7    1  0.6520971E-006  0.4551967E+02  0.7818608E-02  0.1471801E+00
          2   -1    0    0  502    0  0.00000000000E+00  0.00000000000E+00  0.24823785385E+03  0.24823785385E+03  0.00000000000E+00 0. -1.
          1   -1    0    0  501    0 -0.00000000000E+00 -0.00000000000E+00 -0.17380604569E+03  0.17380604569E+03  0.00000000000E+00 0. -1.
         25    2    1    2    0    0  0.28967187093E+02  0.20925898310E+02  0.18883249569E+03  0.22925908558E+03  0.12500010297E+03 0.  0.
          2    1    1    2  501    0 -0.39910754378E+02  0.23032145021E+02 -0.13527423903E+03  0.14290719983E+03  0.00000000000E+00 0. -1.
          1    1    1    2  502    0  0.10943567284E+02 -0.43958043331E+02  0.20873551495E+02  0.49877614121E+02  0.00000000000E+00 0. -1.
         22    1    3    3    0    0 -0.11443936800E+02  0.60234171441E+02  0.48988311048E+02  0.78479129187E+02  0.00000000000E+00 0.  1.
         22    1    3    3    0    0  0.40411123893E+02 -0.39308273131E+02  0.13984418465E+03  0.15077995639E+03  0.00000000000E+00 0.  1.
</event>
<event>
 7    1  0.6520971E-006  0.3149623E+02  0.7818608E-02  0.1626517E+00
          2   -1    0    0  502    0  0.00000000000E+00  0.00000000000E+00  0.60321457406E+03  0.60321457406E+03  0.00000000000E+00 0. -1.
          1   -1    0    0  501    0 -0.00000000000E+00 -0.00000000000E+00 -0.66052175896E+02  0.66052175896E+02  0.00000000000E+00 0. -1.
         25    2    1    2    0    0  0.34328925702E+02  0.41401473329E+02  0.11097235453E+03  0.17559245314E+03  0.12500115597E+03 0.  0.
          2    1    1    2  501    0 -0.15623096978E+02 -0.26131789912E+02 -0.26486304633E+02  0.40354379394E+02  0.00000000000E+00 0. -1.
          1    1    1    2  502    0 -0.18705828724E+02 -0.15269683417E+02  0.45267634826E+03  0.45331991742E+03  0.00000000000E+00 0. -1.
         22    1    3    3    0    0  0.32878669729E+02 -0.33583572823E-01 -0.19816858352E+02  0.38389007879E+02  0.00000000000E+00 0. -1.
         22    1    3    3    0    0  0.14502559722E+01  0.41435056902E+02  0.13078921289E+03  0.13720344526E+03  0.00000000000E+00 0. -1.
</event>
<event>
 7    1  0.6520971E-006  0.3017415E+02  0.7818608E-02  0.1652062E+00
          2   -1    0    0  502    0  0.00000000000E+00  0.00000000000E+00  0.80768616297E+03  0.80768616297E+03  0.00000000000E+00 0. -1.
          1   -1    0    0  501    0 -0.00000000000E+00 -0.00000000000E+00 -0.97050684342E+02  0.97050684342E+02  0.00000000000E+00 0. -1.
         25    2    1    2    0    0 -0.31408173253E+02  0.40203659674E+02  0.15870906799E+03  0.20836537354E+03  0.12499901212E+03 0.  0.
          2    1    1    2  501    0  0.16328331663E+02 -0.14408520703E+02 -0.70214267205E+02  0.73513693982E+02  0.00000000000E+00 0. -1.
          1    1    1    2  502    0  0.15079841591E+02 -0.25795138971E+02  0.62214067784E+03  0.62285777979E+03  0.00000000000E+00 0. -1.
         22    1    3    3    0    0  0.26207294109E+01  0.55771906196E+02  0.12197355190E+02  0.57150233744E+02  0.00000000000E+00 0. -1.
         22    1    3    3    0    0 -0.34028902664E+02 -0.15568246522E+02  0.14651171280E+03  0.15121513980E+03  0.00000000000E+00 0. -1.
</event>
<event>
 7    1  0.6520971E-006  0.6941449E+02  0.7818608E-02  0.1384961E+00
          2   -1    0    0  502    0  0.00000000000E+00  0.00000000000E+00  0.67782567475E+03  0.67782567475E+03  0.00000000000E+00 0. -1.
          1   -1    0    0  501    0 -0.00000000000E+00 -0.00000000000E+00 -0.12510483270E+03  0.12510483270E+03  0.00000000000E+00 0. -1.
         25    2    1    2    0    0  0.33497425105E+02 -0.10338932154E+01 -0.25422290096E+02  0.13189428691E+03  0.12500665447E+03 0.  0.
          2    1    1    2  501    0 -0.46527430966E+02  0.69214464521E+02 -0.52155249296E+01  0.83562226104E+02  0.00000000000E+00 0. -1.
          1    1    1    2  502    0  0.13030005861E+02 -0.68180571305E+02  0.58335865708E+03  0.58747399444E+03  0.00000000000E+00 0. -1.
         22    1    3    3    0    0  0.28444869092E+01  0.50105966444E+01 -0.73952549494E+02  0.74176659140E+02  0.00000000000E+00 0.  1.
         22    1    3    3    0    0  0.30652938196E+02 -0.60444898598E+01  0.48530259398E+02  0.57717627766E+02  0.00000000000E+00 0.  1.
</event>
<event>
 7    1  0.6520971E-006  0.5104698E+02  0.7818608E-02  0.1565018E+00
          2   -1    0    0  502    0  0.00000000000E+00  0.00000000000E+00  0.83277731406E+03  0.83277731406E+03  0.00000000000E+00 0. -1.
          1   -1    0    0  501    0 -0.00000000000E+00 -0.00000000000E+00 -0.86387010383E+03  0.86387010383E+03  0.00000000000E+00 0. -1.
         25    2    1    2    0    0  0.10980602854E+02  0.42430149070E+02 -0.63274182494E+02  0.14679694990E+03  0.12499932456E+03 0.  0.
          2    1    1    2  501    0  0.21424495060E+02 -0.28733336776E+01 -0.75785385133E+03  0.75816207041E+03  0.00000000000E+00 0. -1.
          1    1    1    2  502    0 -0.32405097913E+02 -0.39556815392E+02  0.79003524406E+03  0.79168839758E+03  0.00000000000E+00 0. -1.
         22    1    3    3    0    0 -0.15929101273E+02  0.82487477876E+02 -0.43968342160E+02  0.94821597677E+02  0.00000000000E+00 0.  1.
         22    1    3    3    0    0  0.26909704127E+02 -0.40057328806E+02 -0.19305840334E+02  0.51975352219E+02  0.00000000000E+00 0.  1.
</event>
<event>
 7    1  0.6520971E-006  0.1685549E+03  0.7818608E-02  0.1197938E+00
          2   -1    0    0  502    0  0.00000000000E+00  0.00000000000E+00  0.93253405563E+03  0.93253405563E+03  0.00000000000E+00 0. -1.
          1   -1    0    0  501    0 -0.00000000000E+00 -0.00000000000E+00 -0.12653759540E+04  0.12653759540E+04  0.00000000000E+00 0. -1.
         25    2    1    2    0    0  0.76589346523E+02  0.36896341183E+02  0.35735330015E+03  0.38801223510E+03  0.12499938184E+03 0.  0.
          2    1    1    2  501    0  0.15747088209E+03 -0.60113848156E+02 -0.12192858203E+04  0.12308812555E+04  0.00000000000E+00 0. -1.
          1    1    1    2  502    0 -0.23406022862E+03  0.23217506973E+02  0.52909062180E+03  0.57901651904E+03  0.00000000000E+00 0. -1.
         22    1    3    3    0    0 -0.22794236232E+02 -0.21773596517E+01  0.10683974020E+02  0.25267872908E+02  0.00000000000E+00 0.  1.
         22    1    3    3    0    0  0.99383582755E+02  0.39073700835E+02  0.34666932613E+03  0.36274436219E+03  0.00000000000E+00 0.  1.
</event>
<event>
 7    1  0.6520971E-006  0.1657197E+03  0.7818608E-02  0.1288469E+00
          2   -1    0    0  502    0  0.00000000000E+00  0.00000000000E+00  0.15580470596E+04  0.15580470596E+04  0.00000000000E+00 0. -1.
          1   -1    0    0  501    0 -0.00000000000E+00 -0.00000000000E+00 -0.59944409851E+03  0.59944409851E+03  0.00000000000E+00 0. -1.
         25    2    1    2    0    0 -0.19455559642E+03  0.63728082794E+02  0.35628990991E+03  0.42951232536E+03  0.12500075642E+03 0.  0.
          2    1    1    2  501    0  0.54168812660E+02  0.13633624709E+02 -0.55591373839E+03  0.55871300371E+03  0.00000000000E+00 0. -1.
          1    1    1    2  502    0  0.14038678376E+03 -0.77361707503E+02  0.11582267896E+04  0.11692658290E+04  0.00000000000E+00 0. -1.
         22    1    3    3    0    0 -0.12516018407E+02  0.99308882465E+01 -0.86411073387E+01  0.18164305496E+02  0.00000000000E+00 0. -1.
         22    1    3    3    0    0 -0.18203957801E+03  0.53797194548E+02  0.36493101724E+03  0.41134801987E+03  0.00000000000E+00 0. -1.
</event>
<event>
 7    1  0.6520971E-006  0.1402079E+03  0.7818608E-02  0.1240033E+00
          2   -1    0    0  502    0  0.00000000000E+00  0.00000000000E+00  0.21422971713E+04  0.21422971713E+04  0.00000000000E+00 0. -1.
          1   -1    0    0  501    0 -0.00000000000E+00 -0.00000000000E+00 -0.37873764805E+03  0.37873764805E+03  0.00000000000E+00 0. -1.
         25    2    1    2    0    0 -0.16664146416E+03  0.13434688822E+03  0.40673589613E+03  0.47631651198E+03  0.12499946574E+03 0.  0.
          2    1    1    2  501    0  0.35350116723E+02 -0.99870267642E+02 -0.33300261820E+03  0.34944877284E+03  0.00000000000E+00 0. -1.
          1    1    1    2  502    0  0.13129134744E+03 -0.34476620575E+02  0.16898262453E+04  0.16952695345E+04  0.00000000000E+00 0. -1.
         22    1    3    3    0    0 -0.31582742631E+02  0.60395700740E+02  0.23941568505E+03  0.24892766127E+03  0.00000000000E+00 0.  1.
         22    1    3    3    0    0 -0.13505872153E+03  0.73951187477E+02  0.16732021108E+03  0.22738885071E+03  0.00000000000E+00 0.  1.
</event>
<event>
 7    1  0.6520971E-006  0.1066871E+03  0.7818608E-02  0.1338867E+00
          2   -1    0    0  502    0  0.00000000000E+00  0.00000000000E+00  0.38137300124E+04  0.38137300124E+04  0.00000000000E+00 0. -1.
          1   -1    0    0  501    0 -0.00000000000E+00 -0.00000000000E+00 -0.12861394036E+04  0.12861394036E+04  0.00000000000E+00 0. -1.
         25    2    1    2    0    0  0.19044322906E+02  0.11936018074E+03 -0.15474275019E+03  0.23276346441E+03  0.12499589053E+03 0.  0.
          2    1    1    2  501    0  0.32976587416E+02 -0.10133602003E+03 -0.10895859343E+04  0.10947848887E+04  0.00000000000E+00 0. -1.
          1    1    1    2  502    0 -0.52020910322E+02 -0.18024160707E+02  0.37719192933E+04  0.37723210628E+04  0.00000000000E+00 0. -1.
         22    1    3    3    0    0  0.44293120209E+02  0.13557629074E+03 -0.11654788662E+03  0.18419071905E+03  0.00000000000E+00 0. -1.
         22    1    3    3    0    0 -0.25248797303E+02 -0.16216110004E+02 -0.38194863569E+02  0.48572745362E+02  0.00000000000E+00 0. -1.
</event>
<event>
 7    1  0.6520971E-006  0.9204842E+02  0.7818608E-02  0.1357003E+00
          2   -1    0    0  502    0  0.00000000000E+00  0.00000000000E+00  0.30638315478E+04  0.30638315478E+04  0.00000000000E+00 0. -1.
          1   -1    0    0  501    0 -0.00000000000E+00 -0.00000000000E+00 -0.18084935834E+03  0.18084935834E+03  0.00000000000E+00 0. -1.
         25    2    1    2    0    0  0.10094607090E+03 -0.88344839849E+02  0.21535024624E+03  0.28283748090E+03  0.12500556823E+03 0.  0.
          2    1    1    2  501    0 -0.47637273670E+02  0.76373602051E+02 -0.13304490610E+03  0.16063369501E+03  0.00000000000E+00 0. -1.
          1    1    1    2  502    0 -0.53308797226E+02  0.11971237798E+02  0.28006768493E+04  0.28012097302E+04  0.00000000000E+00 0. -1.
         22    1    3    3    0    0  0.55182572661E+02 -0.10088016108E+03  0.20380296115E+03  0.23400335511E+03  0.00000000000E+00 0.  1.
         22    1    3    3    0    0  0.45763498235E+02  0.12535321235E+02  0.11547285087E+02  0.48834125794E+02  0.00000000000E+00 0.  1.
</event>
<event>
 7    1  0.6520971E-006  0.4472711E+02  0.7818608E-02  0.1544102E+00
          2   -1    0    0  502    0  0.00000000000E+00  0.00000000000E+00  0.39393966334E+03  0.39393966334E+03  0.00000000000E+00 0. -1.
          1   -1    0    0  501    0 -0.00000000000E+00 -0.00000000000E+00 -0.10613705548E+04  0.10613705548E+04  0.00000000000E+00 0. -1.
         25    2    1    2    0    0  0.22722309452E+02  0.39410789710E+02 -0.35228213922E+02  0.13760309022E+03  0.12499627870E+03 0.  0.
          2    1    1    2  501    0  0.50047738747E+01 -0.44527438003E+02 -0.97385905013E+03  0.97488932193E+03  0.00000000000E+00 0. -1.
          1    1    1    2  502    0 -0.27727083326E+02  0.51166482937E+01  0.34165637254E+03  0.34281780604E+03  0.00000000000E+00 0. -1.
         22    1    3    3    0    0  0.62410515822E+02 -0.74408712493E+01  0.67634586673E+01  0.63215373315E+02  0.00000000000E+00 0. -1.
         22    1    3    3    0    0 -0.39688206371E+02  0.46851660959E+02 -0.41991672589E+02  0.74387716905E+02  0.00000000000E+00 0. -1.
</event>
<event>
 7    1  0.6520971E-006  0.6884706E+02  0.7818608E-02  0.1513469E+00
          2   -1    0    0  502    0  0.00000000000E+00  0.00000000000E+00  0.14080623956E+03  0.14080623956E+03  0.00000000000E+00 0. -1.
          1   -1    0    0  501    0 -0.00000000000E+00 -0.00000000000E+00 -0.19968651966E+03  0.19968651966E+03  0.00000000000E+00 0. -1.
         25    2    1    2    0    0  0.25698970277E+02 -0.44001013050E+02  0.14005154044E+02  0.13571273184E+03  0.12500110008E+03 0.  0.
          2    1    1    2  501    0 -0.45352339294E+02  0.54805140426E+02 -0.12735403836E+03  0.14587490937E+03  0.00000000000E+00 0. -1.
          1    1    1    2  502    0  0.19653369016E+02 -0.10804127376E+02  0.54468604213E+02  0.58905118003E+02  0.00000000000E+00 0. -1.
         22    1    3    3    0    0 -0.45775732238E+02 -0.93982465857E+01 -0.18024658262E+02  0.50086255663E+02  0.00000000000E+00 0.  1.
         22    1    3    3    0    0  0.71474702516E+02 -0.34602766465E+02  0.32029812307E+02  0.85626476181E+02  0.00000000000E+00 0.  1.
</event>
<event>
 7    1  0.6520971E-006  0.6628220E+02  0.7818608E-02  0.1481755E+00
          2   -1    0    0  502    0  0.00000000000E+00  0.00000000000E+00  0.42650563377E+03  0.42650563377E+03  0.00000000000E+00 0. -1.
          1   -1    0    0  501    0 -0.00000000000E+00 -0.00000000000E+00 -0.79386647025E+03  0.79386647025E+03  0.00000000000E+00 0. -1.
         25    2    1    2    0    0 -0.42016993122E+02  0.10728628836E+02  0.13652117282E+02  0.13302517883E+03  0.12501514592E+03 0.  0.
          2    1    1    2  501    0  0.66646222894E+02  0.45595303548E+01 -0.73206172309E+03  0.73510330890E+03  0.00000000000E+00 0. -1.
          1    1    1    2  502    0 -0.24629229771E+02 -0.15288159191E+02  0.35104876933E+03  0.35224361629E+03  0.00000000000E+00 0. -1.
         22    1    3    3    0    0 -0.56665383591E+02  0.31889505438E+02  0.54435321520E+02  0.84800415586E+02  0.00000000000E+00 0.  1.
         22    1    3    3    0    0  0.14648390468E+02 -0.21160876602E+02 -0.40783204238E+02  0.48224763242E+02  0.00000000000E+00 0.  1.
</event>
<event>
 7    1  0.6520971E-006  0.1186855E+03  0.7818608E-02  0.1401383E+00
          2   -1    0    0  502    0  0.00000000000E+00  0.00000000000E+00  0.15148474383E+04  0.15148474383E+04  0.00000000000E+00 0. -1.
          1   -1    0    0  501    0 -0.00000000000E+00 -0.00000000000E+00 -0.13165180649E+04  0.13165180649E+04  0.00000000000E+00 0. -1.
         25    2    1    2    0    0  0.13122779664E+03 -0.50863915922E+02  0.22487589651E+03  0.29326171523E+03  0.12500156892E+03 0.  0.
          2    1    1    2  501    0 -0.17370349369E+02  0.23832157828E+02 -0.12794286262E+04  0.12797684597E+04  0.00000000000E+00 0. -1.
          1    1    1    2  502    0 -0.11385744727E+03  0.27031758094E+02  0.12528821031E+04  0.12583353283E+04  0.00000000000E+00 0. -1.
         22    1    3    3    0    0 -0.26282502474E+01  0.30245543544E+02  0.50713736787E+02  0.59106545345E+02  0.00000000000E+00 0.  1.
         22    1    3    3    0    0  0.13385604689E+03 -0.81109459466E+02  0.17416215973E+03  0.23415516989E+03  0.00000000000E+00 0.  1.
</event>
<event>
 7    1  0.6520971E-006  0.3222189E+03  0.7818608E-02  0.1136290E+00
          2   -1    0    0  502    0  0.00000000000E+00  0.00000000000E+00  0.80889743537E+03  0.80889743537E+03  0.00000000000E+00 0. -1.
          1   -1    0    0  501    0 -0.00000000000E+00 -0.00000000000E+00 -0.15705459236E+04  0.15705459236E+04  0.00000000000E+00 0. -1.
         25    2    1    2    0    0 -0.53814623637E+01 -0.33312840357E+03 -0.40315608702E+03  0.53773696082E+03  0.12499086019E+03 0.  0.
          2    1    1    2  501    0  0.14056052044E+03  0.39011928232E+02 -0.10595412665E+04  0.10695358273E+04  0.00000000000E+00 0. -1.
          1    1    1    2  502    0 -0.13517905807E+03  0.29411647534E+03  0.70104886534E+03  0.77217057080E+03  0.00000000000E+00 0. -1.
         22    1    3    3    0    0 -0.39969983574E+02 -0.79001021590E+02 -0.16740381358E+03  0.18937475491E+03  0.00000000000E+00 0.  1.
         22    1    3    3    0    0  0.34588521210E+02 -0.25412738198E+03 -0.23575227344E+03  0.34836220591E+03  0.00000000000E+00 0.  1.
</event>
<event>
 7    1  0.6520971E-006  0.5651685E+02  0.7818608E-02  0.1537570E+00
          2   -1    0    0  502    0  0.00000000000E+00  0.00000000000E+00  0.14876542672E+04  0.14876542672E+04  0.00000000000E+00 0. -1.
          1   -1    0    0  501    0 -0.00000000000E+00 -0.00000000000E+00 -0.56977869086E+03  0.56977869086E+03  0.00000000000E+00 0. -1.
         25    2    1    2    0    0 -0.38375797858E+02  0.58631994128E+02 -0.95510710665E+02  0.17221491736E+03  0.12500107725E+03 0.  0.
          2    1    1    2  501    0 -0.51892770015E+01 -0.22695898162E+02 -0.43505436010E+03  0.43567686263E+03  0.00000000000E+00 0. -1.
          1    1    1    2  502    0  0.43565074860E+02 -0.35936095966E+02  0.14484406471E+04  0.14495411781E+04  0.00000000000E+00 0. -1.
         22    1    3    3    0    0 -0.90605886431E+01  0.94185964396E+02 -0.48271945309E+02  0.10622274173E+03  0.00000000000E+00 0. -1.
         22    1    3    3    0    0 -0.29315209215E+02 -0.35553970267E+02 -0.47238765356E+02  0.65992175638E+02  0.00000000000E+00 0. -1.
</event>
<event>
 7    1  0.6520971E-006  0.8663521E+02  0.7818608E-02  0.1375927E+00
          2   -1    0    0  502    0  0.00000000000E+00  0.00000000000E+00  0.89614249943E+03  0.89614249943E+03  0.00000000000E+00 0. -1.
          1   -1    0    0  501    0 -0.00000000000E+00 -0.00000000000E+00 -0.17598406302E+04  0.17598406302E+04  0.00000000000E+00 0. -1.
         25    2    1    2    0    0  0.68290883913E+02  0.44174919831E+02 -0.63642032936E+02  0.16214307591E+03  0.12500000137E+03 0.  0.
          2    1    1    2  501    0 -0.87061399156E+02  0.17269722102E+01 -0.16450695779E+04  0.16473726312E+04  0.00000000000E+00 0. -1.
          1    1    1    2  502    0  0.18770515242E+02 -0.45901892041E+02  0.84501348009E+03  0.84646742257E+03  0.00000000000E+00 0. -1.
         22    1    3    3    0    0  0.57917205208E+02 -0.11597302386E+02  0.18872957046E+02  0.62008778325E+02  0.00000000000E+00 0. -1.
         22    1    3    3    0    0  0.10373678706E+02  0.55772222217E+02 -0.82514989982E+02  0.10013429758E+03  0.00000000000E+00 0. -1.
</event>
<event>
 7    1  0.6520971E-006  0.1935586E+03  0.7818608E-02  0.1383572E+00
          2   -1    0    0  502    0  0.00000000000E+00  0.00000000000E+00  0.40627911367E+03  0.40627911367E+03  0.00000000000E+00 0. -1.
          1   -1    0    0  501    0 -0.00000000000E+00 -0.00000000000E+00 -0.14966947421E+04  0.14966947421E+04  0.00000000000E+00 0. -1.
         25    2    1    2    0    0 -0.11422260833E+03  0.14793667693E+03 -0.50591760929E+03  0.55363400532E+03  0.12500367923E+03 0.  0.
          2    1    1    2  501    0  0.12160302485E+02  0.16942315474E+02 -0.94221471314E+03  0.94244547888E+03  0.00000000000E+00 0. -1.
          1    1    1    2  502    0  0.10206230585E+03 -0.16487899241E+03  0.35771669403E+03  0.40689437155E+03  0.00000000000E+00 0. -1.
         22    1    3    3    0    0 -0.19388037112E+02  0.12352144918E+03 -0.31875475973E+03  0.34240041069E+03  0.00000000000E+00 0.  1.
         22    1    3    3    0    0 -0.94834571218E+02  0.24415227751E+02 -0.18716284956E+03  0.21123359463E+03  0.00000000000E+00 0.  1.
</event>
<event>
 7    1  0.6520971E-006  0.8840301E+02  0.7818608E-02  0.1446814E+00
          2   -1    0    0  502    0  0.00000000000E+00  0.00000000000E+00  0.11149168999E+04  0.11149168999E+04  0.00000000000E+00 0. -1.
          1   -1    0    0  501    0 -0.00000000000E+00 -0.00000000000E+00 -0.38540729190E+02  0.38540729190E+02  0.00000000000E+00 0. -1.
         25    2    1    2    0    0  0.12471511588E+02  0.10862268838E+03  0.59971262325E+03  0.62228253300E+03  0.12500357339E+03 0.  0.
          2    1    1    2  501    0  0.40837210601E+01 -0.86074984126E+02  0.42447929098E+02  0.96059389727E+02  0.00000000000E+00 0. -1.
          1    1    1    2  502    0 -0.16555232648E+02 -0.22547704251E+02  0.43421561836E+03  0.43511570636E+03  0.00000000000E+00 0. -1.
         22    1    3    3    0    0  0.34899556045E+01  0.86964735305E+02  0.16163652776E+03  0.18357944352E+03  0.00000000000E+00 0. -1.
         22    1    3    3    0    0  0.89815559836E+01  0.21657953072E+02  0.43807609549E+03  0.43870308948E+03  0.00000000000E+00 0. -1.
</event>
<event>
 7    1  0.6520971E-006  0.7715250E+02  0.7818608E-02  0.1412292E+00
          2   -1    0    0  502    0  0.00000000000E+00  0.00000000000E+00  0.16794261752E+04  0.16794261752E+04  0.00000000000E+00 0. -1.
          1   -1    0    0  501    0 -0.00000000000E+00 -0.00000000000E+00 -0.21368339465E+03  0.21368339465E+03  0.00000000000E+00 0. -1.
         25    2    1    2    0    0  0.39652835367E+02  0.11006581379E+03  0.14490037791E+03  0.22429053006E+03  0.12499316637E+03 0.  0.
          2    1    1    2  501    0 -0.24077481944E+02 -0.71439848843E+02 -0.16551659618E+03  0.18187666357E+03  0.00000000000E+00 0. -1.
          1    1    1    2  502    0 -0.15575353423E+02 -0.38625964948E+02  0.14863589988E+04  0.14869423762E+04  0.00000000000E+00 0. -1.
         22    1    3    3    0    0 -0.22713648415E+02  0.86446047462E+02  0.35512806061E+02  0.96176859693E+02  0.00000000000E+00 0. -1.
         22    1    3    3    0    0  0.62366483783E+02  0.23619766329E+02  0.10938757184E+03  0.12811367037E+03  0.00000000000E+00 0. -1.
</event>
<event>
 7    1  0.6520971E-006  0.1972101E+03  0.7818608E-02  0.1265036E+00
          2   -1    0    0  502    0  0.00000000000E+00  0.00000000000E+00  0.25984117962E+04  0.25984117962E+04  0.00000000000E+00 0. -1.
          1   -1    0    0  501    0 -0.00000000000E+00 -0.00000000000E+00 -0.13216438516E+04  0.13216438516E+04  0.00000000000E+00 0. -1.
         25    2    1    2    0    0  0.19312600249E+03 -0.71798458462E+02 -0.87164484413E+01  0.24114903790E+03  0.12499684209E+03 0.  0.
          2    1    1    2  501    0 -0.15754364012E+03  0.11852550360E+03 -0.11882403602E+04  0.12044847227E+04  0.00000000000E+00 0. -1.
          1    1    1    2  502    0 -0.35582362370E+02 -0.46727045142E+02  0.24737247532E+04  0.24744218872E+04  0.00000000000E+00 0. -1.
         22    1    3    3    0    0  0.90609811674E+02  0.14593520838E+02 -0.45065387698E+02  0.10224479444E+03  0.00000000000E+00 0.  1.
         22    1    3    3    0    0  0.10251619082E+03 -0.86391979300E+02  0.36348939257E+02  0.13890424346E+03  0.00000000000E+00 0.  1.
</event>
<event>
 7    1  0.6520971E-006  0.1103072E+03  0.7818608E-02  0.1429373E+00
          2   -1    0    0  502    0  0.00000000000E+00  0.00000000000E+00  0.14303737695E+04  0.14303737695E+04  0.00000000000E+00 0. -1.
          1   -1    0    0  501    0 -0.00000000000E+00 -0.00000000000E+00 -0.12047226327E+04  0.12047226327E+04  0.00000000000E+00 0. -1.
         25    2    1    2    0    0 -0.10103266672E+03 -0.56422773200E+01 -0.45133744108E+03  0.47913456822E+03  0.12500005479E+03 0.  0.
          2    1    1    2  501    0 -0.77313276259E+01  0.24350103901E+02 -0.73711535872E+03  0.73755796589E+03  0.00000000000E+00 0. -1.
          1    1    1    2  502    0  0.10876399435E+03 -0.18707826581E+02  0.14141039367E+04  0.14184038681E+04  0.00000000000E+00 0. -1.
         22    1    3    3    0    0 -0.17040029060E+02  0.53898475543E+02 -0.13150958939E+03  0.14314391484E+03  0.00000000000E+00 0.  1.
         22    1    3    3    0    0 -0.83992637663E+02 -0.59540752863E+02 -0.31982785170E+03  0.33599065337E+03  0.00000000000E+00 0.  1.
</event>
<event>
 7    1  0.6520971E-006  0.5279256E+02  0.7818608E-02  0.1520482E+00
          2   -1    0    0  502    0  0.00000000000E+00  0.00000000000E+00  0.13477205400E+04  0.13477205400E+04  0.00000000000E+00 0. -1.
          1   -1    0    0  501    0 -0.00000000000E+00 -0.00000000000E+00 -0.37877595457E+03  0.37877595457E+03  0.00000000000E+00 0. -1.
         25    2    1    2    0    0  0.11138139463E+02  0.74564078626E+02  0.11069253086E+03  0.18319922645E+03  0.12500104085E+03 0.  0.
          2    1    1    2  501    0  0.93912762116E+01 -0.26274373053E+02 -0.34137989785E+03  0.34251828186E+03  0.00000000000E+00 0. -1.
          1    1    1    2  502    0 -0.20529415674E+02 -0.48289705574E+02  0.11996319524E+04  0.12007789862E+04  0.00000000000E+00 0. -1.
         22    1    3    3    0    0  0.45888077411E+02  0.36240266722E+02 -0.27293472770E+01  0.58536500725E+02  0.00000000000E+00 0.  1.
         22    1    3    3    0    0 -0.34749937949E+02  0.38323811905E+02  0.11342187813E+03  0.12466272573E+03  0.00000000000E+00 0.  1.
</event>
<event>
 7    1  0.6520971E-006  0.1694893E+03  0.7818608E-02  0.1191437E+00
          2   -1    0    0  502    0  0.00000000000E+00  0.00000000000E+00  0.60318287150E+03  0.60318287150E+03  0.00000000000E+00 0. -1.
          1   -1    0    0  501    0 -0.00000000000E+00 -0.00000000000E+00 -0.79180277152E+03  0.79180277152E+03  0.00000000000E+00 0. -1.
         25    2    1    2    0    0 -0.87738640715E+02 -0.24179225013E+03 -0.20281078282E+03  0.35059792598E+03  0.12500052311E+03 0.  0.
          2    1    1    2  501    0 -0.44427064058E+02  0.13964264286E+03 -0.49094565002E+03  0.51234896604E+03  0.00000000000E+00 0. -1.
          1    1    1    2  502    0  0.13216570477E+03  0.10214960726E+03  0.50513653282E+03  0.53203875100E+03  0.00000000000E+00 0. -1.
         22    1    3    3    0    0 -0.99508231342E+02 -0.10266243055E+03 -0.12946111732E+03  0.19287727614E+03  0.00000000000E+00 0. -1.
         22    1    3    3    0    0  0.11769590627E+02 -0.13912981957E+03 -0.73349665500E+02  0.15772064984E+03  0.00000000000E+00 0. -1.
</event>
<event>
 7    1  0.6520971E-006  0.7871598E+02  0.7818608E-02  0.1338432E+00
          2   -1    0    0  502    0  0.00000000000E+00  0.00000000000E+00  0.97264590676E+03  0.97264590676E+03  0.00000000000E+00 0. -1.
          1   -1    0    0  501    0 -0.00000000000E+00 -0.00000000000E+00 -0.50639174593E+02  0.50639174593E+02  0.00000000000E+00 0. -1.
         25    2    1    2    0    0  0.10335559818E+01 -0.50776235043E+01  0.17787629481E+03  0.21746866769E+03  0.12500317865E+03 0.  0.
          2    1    1    2  501    0 -0.17546087985E+02 -0.76735523537E+02  0.26068680682E+02  0.82920334591E+02  0.00000000000E+00 0. -1.
          1    1    1    2  502    0  0.16512532003E+02  0.81813147042E+02  0.71806175667E+03  0.72289607907E+03  0.00000000000E+00 0. -1.
         22    1    3    3    0    0 -0.36277722662E+00  0.46152721451E+02  0.17933672379E+02  0.49515875330E+02  0.00000000000E+00 0.  1.
         22    1    3    3    0    0  0.13963332084E+01 -0.51230344956E+02  0.15994262243E+03  0.16795279236E+03  0.00000000000E+00 0.  1.
</event>
<event>
 7    1  0.6520971E-006  0.1330901E+03  0.7818608E-02  0.1302219E+00
          2   -1    0    0  502    0  0.00000000000E+00  0.00000000000E+00  0.46450338550E+03  0.46450338550E+03  0.00000000000E+00 0. -1.
          1   -1    0    0  501    0 -0.00000000000E+00 -0.00000000000E+00 -0.32131517174E+03  0.32131517174E+03  0.00000000000E+00 0. -1.
         25    2    1    2    0    0  0.73480321728E+02 -0.67709280731E+02  0.11134761798E+02  0.16041364449E+03  0.12499860015E+03 0.  0.
          2    1    1    2  501    0 -0.14642986332E+02 -0.59438335564E+02 -0.22956957828E+03  0.23759108581E+03  0.00000000000E+00 0. -1.
          1    1    1    2  502    0 -0.58837335397E+02  0.12714761629E+03  0.36162303025E+03  0.38781382695E+03  0.00000000000E+00 0. -1.
         22    1    3    3    0    0  0.10254943966E+03 -0.67577407313E+02 -0.11810267178E+02  0.12337980371E+03  0.00000000000E+00 0.  1.
         22    1    3    3    0    0 -0.29069117932E+02 -0.13187341848E+00  0.22945028976E+02  0.37033840776E+02  0.00000000000E+00 0.  1.
</event>
<event>
 7    1  0.6520971E-006  0.8033879E+02  0.7818608E-02  0.1414500E+00
          2   -1    0    0  502    0  0.00000000000E+00  0.00000000000E+00  0.13170888056E+04  0.13170888056E+04  0.00000000000E+00 0. -1.
          1   -1    0    0  501    0 -0.00000000000E+00 -0.00000000000E+00 -0.11032883953E+03  0.11032883953E+03  0.00000000000E+00 0. -1.
         25    2    1    2    0    0  0.43045962294E+02 -0.28790308003E+02  0.11852232096E+03  0.17987301947E+03  0.12499970345E+03 0.  0.
          2    1    1    2  501    0  0.24837544080E+01 -0.39237987770E+02 -0.73272057485E+02  0.83153972415E+02  0.00000000000E+00 0. -1.
          1    1    1    2  502    0 -0.45529716702E+02  0.68028295773E+02  0.11615097026E+04  0.11643906533E+04  0.00000000000E+00 0. -1.
         22    1    3    3    0    0  0.48170956033E+02 -0.72082166916E+02  0.10042825003E+03  0.13267295578E+03  0.00000000000E+00 0. -1.
         22    1    3    3    0    0 -0.51249937388E+01  0.43291858914E+02  0.18094070931E+02  0.47200063685E+02  0.00000000000E+00 0. -1.
</event>
<event>
 7    1  0.6520971E-006  0.8907160E+02  0.7818608E-02  0.1393652E+00
          2   -1    0    0  502    0  0.00000000000E+00  0.00000000000E+00  0.16234099670E+03  0.16234099670E+03  0.00000000000E+00 0. -1.
          1   -1    0    0  501    0 -0.00000000000E+00 -0.00000000000E+00 -0.42087488090E+03  0.42087488090E+03  0.00000000000E+00 0. -1.
         25    2    1    2    0    0  0.11405118762E+03  0.22082302038E+02 -0.12013242931E+03  0.20868996826E+03  0.12499760326E+03 0.  0.
          2    1    1    2  501    0 -0.75844447571E+02 -0.39002021876E+02 -0.24532548954E+03  0.25972703701E+03  0.00000000000E+00 0. -1.
          1    1    1    2  502    0 -0.38206740048E+02  0.16919719839E+02  0.10692403464E+03  0.11479887233E+03  0.00000000000E+00 0. -1.
         22    1    3    3    0    0  0.92739581625E+02 -0.25946076306E+02 -0.12282544359E+03  0.15607664293E+03  0.00000000000E+00 0.  1.
         22    1    3    3    0    0  0.21311605994E+02  0.48028378343E+02  0.26930142809E+01  0.52613325329E+02  0.00000000000E+00 0.  1.
</event>
<event>
 7    1  0.6520971E-006  0.1121767E+03  0.7818608E-02  0.1342168E+00
          2   -1    0    0  502    0  0.00000000000E+00  0.00000000000E+00  0.80225746674E+03  0.80225746674E+03  0.00000000000E+00 0. -1.
          1   -1    0    0  501    0 -0.00000000000E+00 -0.00000000000E+00 -0.30251726091E+03  0.30251726091E+03  0.00000000000E+00 0. -1.
         25    2    1    2    0    0 -0.12561944822E+03 -0.39647480009E+02  0.30604303111E+03  0.35586488154E+03  0.12500123433E+03 0.  0.
          2    1    1    2  501    0  0.85961259543E+02  0.71531915277E+02 -0.26487913390E+03  0.28751888394E+03  0.00000000000E+00 0. -1.
          1    1    1    2  502    0  0.39658188676E+02 -0.31884435268E+02  0.45857630862E+03  0.46139096217E+03  0.00000000000E+00 0. -1.
         22    1    3    3    0    0 -0.13564394152E+03  0.37616002457E+01  0.24797960721E+03  0.28267881791E+03  0.00000000000E+00 0.  1.
         22    1    3    3    0    0  0.10024493299E+02 -0.43409080255E+02  0.58063423902E+02  0.73186063630E+02  0.00000000000E+00 0.  1.
</event>
<event>
 7    1  0.6520971E-006  0.2412153E+03  0.7818608E-02  0.1202317E+00
          2   -1    0    0  502    0  0.00000000000E+00  0.00000000000E+00  0.18331537930E+04  0.18331537930E+04  0.00000000000E+00 0. -1.
          1   -1    0    0  501    0 -0.00000000000E+00 -0.00000000000E+00 -0.13178528577E+03  0.13178528577E+03  0.00000000000E+00 0. -1.
         25    2    1    2    0    0 -0.71240660654E+02 -0.14956263206E+03  0.85593362174E+03  0.88073348951E+03  0.12499960830E+03 0.  0.
          2    1    1    2  501    0  0.79229104647E+02  0.24064583768E+03  0.20458127435E+02  0.25417750725E+03  0.00000000000E+00 0. -1.
          1    1    1    2  502    0 -0.79884439925E+01 -0.91083205615E+02  0.82497675810E+03  0.83002808205E+03  0.00000000000E+00 0. -1.
         22    1    3    3    0    0 -0.60285560409E+02 -0.21499063059E+02  0.46072140068E+03  0.46514596370E+03  0.00000000000E+00 0.  1.
         22    1    3    3    0    0 -0.10955100246E+02 -0.12806356900E+03  0.39521222107E+03  0.41558752581E+03  0.00000000000E+00 0.  1.
</event>
<event>
 7    1  0.6520971E-006  0.9573540E+02  0.7818608E-02  0.1420357E+00
          2   -1    0    0  502    0  0.00000000000E+00  0.00000000000E+00  0.14230458116E+04  0.14230458116E+04  0.00000000000E+00 0. -1.
          1   -1    0    0  501    0 -0.00000000000E+00 -0.00000000000E+00 -0.47489009100E+03  0.47489009100E+03  0.00000000000E+00 0. -1.
         25    2    1    2    0    0  0.30905739259E+02 -0.64353334963E+02  0.76649216315E+02  0.16308328098E+03  0.12499815092E+03 0.  0.
          2    1    1    2  501    0  0.29406511438E+02 -0.11388533410E+02 -0.42929555648E+03  0.43045222316E+03  0.00000000000E+00 0. -1.
          1    1    1    2  502    0 -0.60312250698E+02  0.75741868373E+02  0.13008020607E+04  0.13044003984E+04  0.00000000000E+00 0. -1.
         22    1    3    3    0    0 -0.33135967390E+02  0.12451925725E+02  0.46882184721E+02  0.58745059650E+02  0.00000000000E+00 0.  1.
         22    1    3    3    0    0  0.64041706649E+02 -0.76805260688E+02  0.29767031594E+02  0.10433822133E+03  0.00000000000E+00 0.  1.
</event>
<event>
 7    1  0.6520971E-006  0.5440423E+02  0.7818608E-02  0.1509092E+00
          2   -1    0    0  502    0  0.00000000000E+00  0.00000000000E+00  0.28311288554E+04  0.28311288554E+04  0.00000000000E+00 0. -1.
          1   -1    0    0  501    0 -0.00000000000E+00 -0.00000000000E+00 -0.20398163633E+02  0.20398163633E+02  0.00000000000E+00 0. -1.
         25    2    1    2    0    0 -0.20395587553E+02 -0.29871294550E+02  0.68059591013E+03  0.69292406912E+03  0.12499879378E+03 0.  0.
          2    1    1    2  501    0  0.49456476597E+02  0.26693670603E+02  0.41743960327E+02  0.70007523534E+02  0.00000000000E+00 0. -1.
          1    1    1    2  502    0 -0.29060889045E+02  0.31776239470E+01  0.20883908213E+04  0.20885954263E+04  0.00000000000E+00 0. -1.
         22    1    3    3    0    0  0.91312264385E+01 -0.10965345260E+02  0.63616826790E+03  0.63632828255E+03  0.00000000000E+00 0.  1.
         22    1    3    3    0    0 -0.29526813991E+02 -0.18905949290E+02  0.44427642238E+02  0.56595786573E+02  0.00000000000E+00 0.  1.
</event>
<event>
 7    1  0.6520971E-006  0.1715444E+03  0.7818608E-02  0.1285013E+00
          2   -1    0    0  502    0  0.00000000000E+00  0.00000000000E+00  0.56333436698E+03  0.56333436698E+03  0.00000000000E+00 0. -1.
          1   -1    0    0  501    0 -0.00000000000E+00 -0.00000000000E+00 -0.48872096926E+03  0.48872096926E+03  0.00000000000E+00 0. -1.
         25    2    1    2    0    0  0.19854476586E+03 -0.77911622419E+02  0.19833847860E+02  0.24801335688E+03  0.12500799458E+03 0.  0.
          2    1    1    2  501    0 -0.16222419948E+03  0.35621696484E+02 -0.35423863830E+03  0.39124239165E+03  0.00000000000E+00 0. -1.
          1    1    1    2  502    0 -0.36320566382E+02  0.42289925935E+02  0.40901818815E+03  0.41279958771E+03  0.00000000000E+00 0. -1.
         22    1    3    3    0    0  0.10416935357E+02 -0.45881306585E+01 -0.36627806061E+02  0.38355699212E+02  0.00000000000E+00 0. -1.
         22    1    3    3    0    0  0.18812783051E+03 -0.73323491761E+02  0.56461653921E+02  0.20965765767E+03  0.00000000000E+00 0. -1.
</event>
<event>
 7    1  0.6520971E-006  0.7422596E+02  0.7818608E-02  0.1383913E+00
          2   -1    0    0  502    0  0.00000000000E+00  0.00000000000E+00  0.18150272308E+04  0.18150272308E+04  0.00000000000E+00 0. -1.
          1   -1    0    0  501    0 -0.00000000000E+00 -0.00000000000E+00 -0.34593702325E+03  0.34593702325E+03  0.00000000000E+00 0. -1.
         25    2    1    2    0    0 -0.59997348486E+02  0.35465092043E+02  0.66272533787E+03  0.67800246228E+03  0.12500004331E+03 0.  0.
          2    1    1    2  501    0  0.72321326679E+02  0.17348234343E+02 -0.33355837870E+03  0.34174921731E+03  0.00000000000E+00 0. -1.
          1    1    1    2  502    0 -0.12323978192E+02 -0.52813326386E+02  0.11399232484E+04  0.11412125745E+04  0.00000000000E+00 0. -1.
         22    1    3    3    0    0 -0.48123573709E+02 -0.91498400835E+01  0.82528150433E+02  0.95971316204E+02  0.00000000000E+00 0. -1.
         22    1    3    3    0    0 -0.11873774777E+02  0.44614932126E+02  0.58019718744E+03  0.58203114608E+03  0.00000000000E+00 0. -1.
</event>
<event>
 7    1  0.6520971E-006  0.1177378E+03  0.7818608E-02  0.1441260E+00
          2   -1    0    0  502    0  0.00000000000E+00  0.00000000000E+00  0.74958783212E+03  0.74958783212E+03  0.00000000000E+00 0. -1.
          1   -1    0    0  501    0 -0.00000000000E+00 -0.00000000000E+00 -0.24093782195E+03  0.24093782195E+03  0.00000000000E+00 0. -1.
         25    2    1    2    0    0  0.72200334223E+02  0.66446217115E+02  0.33123457924E+03  0.36738226156E+03  0.12500156636E+03 0.  0.
          2    1    1    2  501    0 -0.81396530661E+02 -0.86308742589E+02 -0.20674203017E+03  0.23836287733E+03  0.00000000000E+00 0. -1.
          1    1    1    2  502    0  0.91961964386E+01  0.19862525473E+02  0.38415746109E+03  0.38478051518E+03  0.00000000000E+00 0. -1.
         22    1    3    3    0    0  0.99992181206E+02  0.51629620197E+02  0.17539882043E+03  0.20839577777E+03  0.00000000000E+00 0.  1.
         22    1    3    3    0    0 -0.27791846983E+02  0.14816596918E+02  0.15583575882E+03  0.15898648379E+03  0.00000000000E+00 0.  1.
</event>
<event>
 7    1  0.6520971E-006  0.9297413E+02  0.7818608E-02  0.1391647E+00
          2   -1    0    0  502    0  0.00000000000E+00  0.00000000000E+00  0.23383984759E+04  0.23383984759E+04  0.00000000000E+00 0. -1.
          1   -1    0    0  501    0 -0.00000000000E+00 -0.00000000000E+00 -0.35825306353E+04  0.35825306353E+04  0.00000000000E+00 0. -1.
         25    2    1    2    0    0  0.50356702591E+02  0.15635735401E+02 -0.77154749279E+03  0.78338390413E+03  0.12499813556E+03 0.  0.
          2    1    1    2  501    0  0.36001641935E+02  0.18938702921E+02 -0.28039898840E+04  0.28042849467E+04  0.00000000000E+00 0. -1.
          1    1    1    2  502    0 -0.86358344527E+02 -0.34574438322E+02  0.23314052174E+04  0.23332602605E+04  0.00000000000E+00 0. -1.
         22    1    3    3    0    0  0.73371497459E+02  0.33767500215E+02 -0.71637960329E+03  0.72091841197E+03  0.00000000000E+00 0. -1.
         22    1    3    3    0    0 -0.23014794867E+02 -0.18131764814E+02 -0.55167889504E+02  0.62465492157E+02  0.00000000000E+00 0. -1.
</event>
<event>
 7    1  0.6520971E-006  0.5573205E+02  0.7818608E-02  0.1503612E+00
          2   -1    0    0  502    0  0.00000000000E+00  0.00000000000E+00  0.56288483407E+03  0.56288483407E+03  0.00000000000E+00 0. -1.
          1   -1    0    0  501    0 -0.00000000000E+00 -0.00000000000E+00 -0.18347389696E+03  0.18347389696E+03  0.00000000000E+00 0. -1.
         25    2    1    2    0    0 -0.29009241022E+02 -0.79938908182E+02  0.41724387598E+03  0.44378911914E+03  0.12499826047E+03 0.  0.
          2    1    1    2  501    0  0.18488595833E+02  0.52247006116E+02 -0.16392717220E+03  0.17304246765E+03  0.00000000000E+00 0. -1.
          1    1    1    2  502    0  0.10520645189E+02  0.27691902066E+02  0.12609423334E+03  0.12952714424E+03  0.00000000000E+00 0. -1.
         22    1    3    3    0    0 -0.38046125341E+02 -0.22285245987E+01  0.29400251168E+02  0.48133655004E+02  0.00000000000E+00 0.  1.
         22    1    3    3    0    0  0.90368843191E+01 -0.77710383583E+02  0.38784362481E+03  0.39565546413E+03  0.00000000000E+00 0.  1.
</event>
<event>
 7    1  0.6520971E-006  0.9287887E+02  0.7818608E-02  0.1396356E+00
          2   -1    0    0  502    0  0.00000000000E+00  0.00000000000E+00  0.81551153305E+03  0.81551153305E+03  0.00000000000E+00 0. -1.
          1   -1    0    0  501    0 -0.00000000000E+00 -0.00000000000E+00 -0.24918355652E+03  0.24918355652E+03  0.00000000000E+00 0. -1.
         25    2    1    2    0    0  0.81181253083E+02  0.92885077486E+02  0.30144034830E+03  0.34886828470E+03  0.12499905206E+03 0.  0.
          2    1    1    2  501    0 -0.13276119069E+02 -0.36902097007E+02 -0.21977094446E+03  0.22324266646E+03  0.00000000000E+00 0. -1.
          1    1    1    2  502    0 -0.67905134014E+02 -0.55982980478E+02  0.48465857269E+03  0.49258413841E+03  0.00000000000E+00 0. -1.
         22    1    3    3    0    0  0.36242367965E+02  0.90016005457E+01  0.51821650369E+01  0.37701364465E+02  0.00000000000E+00 0. -1.
         22    1    3    3    0    0  0.44938885118E+02  0.83883476940E+02  0.29625818326E+03  0.31116692024E+03  0.00000000000E+00 0. -1.
</event>
<event>
 7    1  0.6520971E-006  0.6212935E+02  0.7818608E-02  0.1471744E+00
          2   -1    0    0  502    0  0.00000000000E+00  0.00000000000E+00  0.11998238237E+04  0.11998238237E+04  0.00000000000E+00 0. -1.
          1   -1    0    0  501    0 -0.00000000000E+00 -0.00000000000E+00 -0.10034866958E+04  0.10034866958E+04  0.00000000000E+00 0. -1.
         25    2    1    2    0    0  0.63306274210E+02  0.68594153271E+02 -0.18808537738E+03  0.24436313002E+03  0.12499755164E+03 0.  0.
          2    1    1    2  501    0 -0.45115452758E+02 -0.40817827631E+02 -0.78585119723E+03  0.78820276790E+03  0.00000000000E+00 0. -1.
          1    1    1    2  502    0 -0.18190821451E+02 -0.27776325640E+02  0.11702737025E+04  0.11707446216E+04  0.00000000000E+00 0. -1.
         22    1    3    3    0    0 -0.29356193754E+02  0.37456225912E+02 -0.10790114282E+03  0.11792968919E+03  0.00000000000E+00 0. -1.
         22    1    3    3    0    0  0.92662467964E+02  0.31137927359E+02 -0.80184234560E+02  0.12643344083E+03  0.00000000000E+00 0. -1.
</event>
<event>
 7    1  0.6520971E-006  0.7829595E+02  0.7818608E-02  0.1350779E+00
          2   -1    0    0  502    0  0.00000000000E+00  0.00000000000E+00  0.81210195573E+03  0.81210195573E+03  0.00000000000E+00 0. -1.
          1   -1    0    0  501    0 -0.00000000000E+00 -0.00000000000E+00 -0.32852737466E+03  0.32852737466E+03  0.00000000000E+00 0. -1.
         25    2    1    2    0    0 -0.12418332643E+03  0.28918566697E+02  0.12629766825E+03  0.21870964684E+03  0.12500010621E+03 0.  0.
          2    1    1    2  501    0  0.64895181062E+02  0.19337233838E+02 -0.27592884025E+03  0.28411624033E+03  0.00000000000E+00 0. -1.
          1    1    1    2  502    0  0.59288145364E+02 -0.48255800535E+02  0.63320575307E+03  0.63780344322E+03  0.00000000000E+00 0. -1.
         22    1    3    3    0    0 -0.80320498736E+02  0.75558546653E+02  0.56187183575E+02  0.12376379150E+03  0.00000000000E+00 0. -1.
         22    1    3    3    0    0 -0.43862827690E+02 -0.46639979957E+02  0.70110484679E+02  0.94945855334E+02  0.00000000000E+00 0. -1.
</event>
<event>
 7    1  0.6520971E-006  0.1867779E+03  0.7818608E-02  0.1351841E+00
          2   -1    0    0  502    0  0.00000000000E+00  0.00000000000E+00  0.92647647231E+03  0.92647647231E+03  0.00000000000E+00 0. -1.
          1   -1    0    0  501    0 -0.00000000000E+00 -0.00000000000E+00 -0.22493711220E+03  0.22493711220E+03  0.00000000000E+00 0. -1.
         25    2    1    2    0    0  0.44604313854E+02 -0.18919291691E+03  0.70642893561E+02  0.24165779317E+03  0.12499826385E+03 0.  0.
          2    1    1    2  501    0 -0.27851806569E+02  0.39467858824E+01 -0.12663581010E+03  0.12972250633E+03  0.00000000000E+00 0. -1.
          1    1    1    2  502    0 -0.16752507285E+02  0.18524613103E+03  0.75753227665E+03  0.78003328501E+03  0.00000000000E+00 0. -1.
         22    1    3    3    0    0  0.23273995122E+02 -0.26863215801E+02  0.69349799783E+02  0.77927568562E+02  0.00000000000E+00 0. -1.
         22    1    3    3    0    0  0.21330318732E+02 -0.16232970111E+03  0.12930937788E+01  0.16373022461E+03  0.00000000000E+00 0. -1.
</event>
<event>
 7    1  0.6520971E-006  0.6438357E+02  0.7818608E-02  0.1406396E+00
          2   -1    0    0  502    0  0.00000000000E+00  0.00000000000E+00  0.27915965729E+04  0.27915965729E+04  0.00000000000E+00 0. -1.
          1   -1    0    0  501    0 -0.00000000000E+00 -0.00000000000E+00 -0.21411530725E+03  0.21411530725E+03  0.00000000000E+00 0. -1.
         25    2    1    2    0    0 -0.44788531894E+02  0.15939665655E+02  0.38462175280E+03  0.40720883310E+03  0.12500022198E+03 0.  0.
          2    1    1    2  501    0  0.23957034787E+02  0.46445131036E+02 -0.19899582608E+03  0.20574359895E+03  0.00000000000E+00 0. -1.
          1    1    1    2  502    0  0.20831497107E+02 -0.62384796691E+02  0.23918553389E+04  0.23927594481E+04  0.00000000000E+00 0. -1.
         22    1    3    3    0    0  0.25102633519E+01 -0.19420015571E+01  0.33926904060E+03  0.33928388512E+03  0.00000000000E+00 0.  1.
         22    1    3    3    0    0 -0.47298795246E+02  0.17881667212E+02  0.45352712201E+02  0.67924947979E+02  0.00000000000E+00 0.  1.
</event>
<event>
 7    1  0.6520971E-006  0.5791632E+02  0.7818608E-02  0.1484032E+00
          2   -1    0    0  502    0  0.00000000000E+00  0.00000000000E+00  0.31206400858E+04  0.31206400858E+04  0.00000000000E+00 0. -1.
          1   -1    0    0  501    0 -0.00000000000E+00 -0.00000000000E+00 -0.23812944214E+04  0.23812944214E+04  0.00000000000E+00 0. -1.
         25    2    1    2    0    0 -0.24821516536E+02 -0.62743666684E+01  0.11621492316E+03  0.17259339028E+03  0.12500837828E+03 0.  0.
          2    1    1    2  501    0 -0.31373989226E+02 -0.90329514844E+01 -0.23527069725E+04  0.23529334924E+04  0.00000000000E+00 0. -1.
          1    1    1    2  502    0  0.56195505762E+02  0.15307318153E+02  0.29758377137E+04  0.29764076245E+04  0.00000000000E+00 0. -1.
         22    1    3    3    0    0  0.32411649786E+02  0.32770826524E+02  0.84808412590E+02  0.96524136665E+02  0.00000000000E+00 0.  1.
         22    1    3    3    0    0 -0.57233166322E+02 -0.39045193192E+02  0.31406510571E+02  0.76069253611E+02  0.00000000000E+00 0.  1.
</event>
<event>
 7    1  0.6520971E-006  0.9677063E+02  0.7818608E-02  0.1312349E+00
          2   -1    0    0  502    0  0.00000000000E+00  0.00000000000E+00  0.57920128219E+02  0.57920128219E+02  0.00000000000E+00 0. -1.
          1   -1    0    0  501    0 -0.00000000000E+00 -0.00000000000E+00 -0.17437275032E+04  0.17437275032E+04  0.00000000000E+00 0. -1.
         25    2    1    2    0    0 -0.90107719823E+02 -0.12824245931E+03 -0.55189323464E+03  0.58717488117E+03  0.12499067600E+03 0.  0.
          2    1    1    2  501    0  0.65689590792E+02  0.39723594123E+02 -0.11187779649E+04  0.11214085879E+04  0.00000000000E+00 0. -1.
          1    1    1    2  502    0  0.24418129031E+02  0.88518865185E+02 -0.15136175510E+02  0.93064162426E+02  0.00000000000E+00 0. -1.
         22    1    3    3    0    0 -0.41268689531E+02  0.30129398147E+01 -0.26175051384E+03  0.26500096988E+03  0.00000000000E+00 0. -1.
         22    1    3    3    0    0 -0.48839030292E+02 -0.13125539912E+03 -0.29014272080E+03  0.32217391129E+03  0.00000000000E+00 0. -1.
</event>
<event>
 7    1  0.6520971E-006  0.9426901E+02  0.7818608E-02  0.1295206E+00
          2   -1    0    0  502    0  0.00000000000E+00  0.00000000000E+00  0.24406056545E+04  0.24406056545E+04  0.00000000000E+00 0. -1.
          1   -1    0    0  501    0 -0.00000000000E+00 -0.00000000000E+00 -0.16245417514E+03  0.16245417514E+03  0.00000000000E+00 0. -1.
         25    2    1    2    0    0 -0.38965183874E+02  0.31261843794E+02  0.83815170009E+02  0.15855675064E+03  0.12497868625E+03 0.  0.
          2    1    1    2  501    0 -0.43299634294E+02 -0.81409856320E+02 -0.10694387997E+03  0.14120699876E+03  0.00000000000E+00 0. -1.
          1    1    1    2  502    0  0.82264818168E+02  0.50148012526E+02  0.23012801894E+04  0.23032960803E+04  0.00000000000E+00 0. -1.
         22    1    3    3    0    0  0.10398452344E+01 -0.46799723219E+02  0.26809801987E+02  0.53944979878E+02  0.00000000000E+00 0.  1.
         22    1    3    3    0    0 -0.40005029108E+02  0.78061567013E+02  0.57005368022E+02  0.10461177076E+03  0.00000000000E+00 0.  1.
</event>
<event>
 7    1  0.6520971E-006  0.3136901E+02  0.7818608E-02  0.1612834E+00
          2   -1    0    0  502    0  0.00000000000E+00  0.00000000000E+00  0.13628170149E+04  0.13628170149E+04  0.00000000000E+00 0. -1.
          1   -1    0    0  501    0 -0.00000000000E+00 -0.00000000000E+00 -0.28083275563E+03  0.28083275563E+03  0.00000000000E+00 0. -1.
         25    2    1    2    0    0  0.20709598631E+02 -0.36031379136E+02  0.26695778029E+03  0.29768719507E+03  0.12499624753E+03 0.  0.
          2    1    1    2  501    0  0.85761966041E+01  0.24832124843E+02 -0.26458992210E+03  0.26589097850E+03  0.00000000000E+00 0. -1.
          1    1    1    2  502    0 -0.29285795235E+02  0.11199254292E+02  0.10796164010E+04  0.10800715969E+04  0.00000000000E+00 0. -1.
         22    1    3    3    0    0  0.68964363164E+02 -0.45130877796E+02  0.17511448355E+03  0.19354059488E+03  0.00000000000E+00 0. -1.
         22    1    3    3    0    0 -0.48254764533E+02  0.90994986608E+01  0.91843296746E+02  0.10414660020E+03  0.00000000000E+00 0. -1.
</event>
<event>
 7    1  0.6520971E-006  0.4161642E+02  0.7818608E-02  0.1602622E+00
          2   -1    0    0  502    0  0.00000000000E+00  0.00000000000E+00  0.28463264121E+03  0.28463264121E+03  0.00000000000E+00 0. -1.
          1   -1    0    0  501    0 -0.00000000000E+00 -0.00000000000E+00 -0.60613340690E+03  0.60613340690E+03  0.00000000000E+00 0. -1.
         25    2    1    2    0    0  0.53964535590E+02  0.10195422985E+02 -0.51143111353E+02  0.14579753691E+03  0.12500074472E+03 0.  0.
          2    1    1    2  501    0 -0.18156624410E+02  0.10639898131E+02 -0.50563440967E+03  0.50607215561E+03  0.00000000000E+00 0. -1.
          1    1    1    2  502    0 -0.35807911180E+02 -0.20835321116E+02  0.23527675533E+03  0.23889635558E+03  0.00000000000E+00 0. -1.
         22    1    3    3    0    0  0.60554237722E+02  0.42094092585E+02  0.12029143685E+02  0.74722343609E+02  0.00000000000E+00 0. -1.
         22    1    3    3    0    0 -0.65897021321E+01 -0.31898669601E+02 -0.63172255038E+02  0.71075193303E+02  0.00000000000E+00 0. -1.
</event>
<event>
 7    1  0.6520971E-006  0.8313537E+02  0.7818608E-02  0.1321589E+00
          2   -1    0    0  502    0  0.00000000000E+00  0.00000000000E+00  0.11476358425E+03  0.11476358425E+03  0.00000000000E+00 0. -1.
          1   -1    0    0  501    0 -0.00000000000E+00 -0.00000000000E+00 -0.35941514941E+03  0.35941514941E+03  0.00000000000E+00 0. -1.
         25    2    1    2    0    0  0.50405364325E+02 -0.47783545476E+00 -0.10850948026E+03  0.17301855713E+03  0.12498073742E+03 0.  0.
          2    1    1    2  501    0 -0.46903521768E+01  0.83002955567E+02 -0.17913362940E+03  0.19748505568E+03  0.00000000000E+00 0. -1.
          1    1    1    2  502    0 -0.45715012148E+02 -0.82525120112E+02  0.42991544493E+02  0.10367512085E+03  0.00000000000E+00 0. -1.
         22    1    3    3    0    0 -0.15611725380E+02 -0.47635422223E+02 -0.23023242049E+02  0.55162750966E+02  0.00000000000E+00 0. -1.
         22    1    3    3    0    0  0.66017089705E+02  0.47157586768E+02 -0.85486238209E+02  0.11785580616E+03  0.00000000000E+00 0. -1.
</event>
<event>
 7    1  0.6520971E-006  0.8744511E+02  0.7818608E-02  0.1468100E+00
          2   -1    0    0  502    0  0.00000000000E+00  0.00000000000E+00  0.15242863996E+03  0.15242863996E+03  0.00000000000E+00 0. -1.
          1   -1    0    0  501    0 -0.00000000000E+00 -0.00000000000E+00 -0.78022209679E+03  0.78022209679E+03  0.00000000000E+00 0. -1.
         25    2    1    2    0    0 -0.35545174110E+02  0.90095995106E+02 -0.28970078963E+02  0.16076225615E+03  0.12499795915E+03 0.  0.
          2    1    1    2  501    0  0.11616882695E+02 -0.86384612928E+02 -0.68082738006E+03  0.68638413061E+03  0.00000000000E+00 0. -1.
          1    1    1    2  502    0  0.23928291414E+02 -0.37113821777E+01  0.82004002206E+02  0.85504349979E+02  0.00000000000E+00 0. -1.
         22    1    3    3    0    0 -0.59827328528E+02  0.10918347144E+03 -0.10895622372E+02  0.12497621478E+03  0.00000000000E+00 0.  1.
         22    1    3    3    0    0  0.24282154418E+02 -0.19087476334E+02 -0.18074456591E+02  0.35786041372E+02  0.00000000000E+00 0.  1.
</event>
<event>
 7    1  0.6520971E-006  0.3423201E+02  0.7818608E-02  0.1609776E+00
          2   -1    0    0  502    0  0.00000000000E+00  0.00000000000E+00  0.96635655946E+03  0.96635655946E+03  0.00000000000E+00 0. -1.
          1   -1    0    0  501    0 -0.00000000000E+00 -0.00000000000E+00 -0.64986298881E+03  0.64986298881E+03  0.00000000000E+00 0. -1.
         25    2    1    2    0    0  0.36134938506E+02 -0.11599537171E+02 -0.79776579015E+00  0.13063571659E+03  0.12499908390E+03 0.  0.
          2    1    1    2  501    0 -0.18630415824E+02  0.28762425680E+02 -0.58347673953E+03  0.58448222822E+03  0.00000000000E+00 0. -1.
          1    1    1    2  502    0 -0.17504522682E+02 -0.17162888509E+02  0.90076807597E+03  0.90110160345E+03  0.00000000000E+00 0. -1.
         22    1    3    3    0    0  0.68126919103E+02  0.28349201241E+01  0.38210243679E+02  0.78162245365E+02  0.00000000000E+00 0.  1.
         22    1    3    3    0    0 -0.31991980597E+02 -0.14434457295E+02 -0.39008009469E+02  0.52473471228E+02  0.00000000000E+00 0.  1.
</event>
<event>
 7    1  0.6520971E-006  0.8994963E+02  0.7818608E-02  0.1348116E+00
          2   -1    0    0  502    0  0.00000000000E+00  0.00000000000E+00  0.13049018818E+04  0.13049018818E+04  0.00000000000E+00 0. -1.
          1   -1    0    0  501    0 -0.00000000000E+00 -0.00000000000E+00 -0.53305331888E+03  0.53305331888E+03  0.00000000000E+00 0. -1.
         25    2    1    2    0    0 -0.21999181294E+02 -0.32316643214E+02  0.29944154461E+03  0.32683079434E+03  0.12499920035E+03 0.  0.
          2    1    1    2  501    0 -0.27296080922E+02 -0.53765067696E+02 -0.51511530952E+03  0.51863237523E+03  0.00000000000E+00 0. -1.
          1    1    1    2  502    0  0.49295262216E+02  0.86081710910E+02  0.98752232787E+03  0.99249203113E+03  0.00000000000E+00 0. -1.
         22    1    3    3    0    0 -0.19073233531E+02 -0.77474759558E+02  0.14052124348E+03  0.16159315108E+03  0.00000000000E+00 0. -1.
         22    1    3    3    0    0 -0.29259477626E+01  0.45158116344E+02  0.15892030113E+03  0.16523764326E+03  0.00000000000E+00 0. -1.
</event>
<event>
 7    1  0.6520971E-006  0.1346984E+03  0.7818608E-02  0.1416780E+00
          2   -1    0    0  502    0  0.00000000000E+00  0.00000000000E+00  0.14462150546E+03  0.14462150546E+03  0.00000000000E+00 0. -1.
          1   -1    0    0  501    0 -0.00000000000E+00 -0.00000000000E+00 -0.18754186779E+04  0.18754186779E+04  0.00000000000E+00 0. -1.
         25    2    1    2    0    0 -0.10574291618E+03  0.62813360169E+02 -0.27104628249E+02  0.17744303308E+03  0.12499714628E+03 0.  0.
          2    1    1    2  501    0 -0.11165194205E+02  0.20153284035E+02 -0.16990083391E+04  0.16991645456E+04  0.00000000000E+00 0. -1.
          1    1    1    2  502    0  0.11690811038E+03 -0.82966644203E+02 -0.46842050635E+01  0.14343260473E+03  0.00000000000E+00 0. -1.
         22    1    3    3    0    0  0.15634570915E+02  0.49131848601E+02 -0.19280766807E+02  0.55046583212E+02  0.00000000000E+00 0.  1.
         22    1    3    3    0    0 -0.12137748709E+03  0.13681511567E+02 -0.78238614417E+01  0.12239644987E+03  0.00000000000E+00 0.  1.
</event>
<event>
 7    1  0.6520971E-006  0.6339392E+02  0.7818608E-02  0.1433409E+00
          2   -1    0    0  502    0  0.00000000000E+00  0.00000000000E+00  0.21896987952E+04  0.21896987952E+04  0.00000000000E+00 0. -1.
          1   -1    0    0  501    0 -0.00000000000E+00 -0.00000000000E+00 -0.20100908976E+02  0.20100908976E+02  0.00000000000E+00 0. -1.
         25    2    1    2    0    0  0.81729687809E+02  0.41273320631E+02  0.70823182969E+03  0.72498293136E+03  0.12499878924E+03 0.  0.
          2    1    1    2  501    0 -0.38972483247E+02 -0.46835003647E+02  0.70081937309E+02  0.92864686259E+02  0.00000000000E+00 0. -1.
          1    1    1    2  502    0 -0.42757204563E+02  0.55616830158E+01  0.13912841192E+04  0.13919520866E+04  0.00000000000E+00 0. -1.
         22    1    3    3    0    0  0.56009403819E+02  0.82529609197E+02  0.36727301949E+03  0.38057543347E+03  0.00000000000E+00 0. -1.
         22    1    3    3    0    0  0.25720283990E+02 -0.41256288566E+02  0.34095881020E+03  0.34440749790E+03  0.00000000000E+00 0. -1.
</event>
<event>
 7    1  0.6520971E-006  0.5286340E+02  0.7818608E-02  0.1471341E+00
          2   -1    0    0  502    0  0.00000000000E+00  0.00000000000E+00  0.74210093155E+03  0.74210093155E+03  0.00000000000E+00 0. -1.
          1   -1    0    0  501    0 -0.00000000000E+00 -0.00000000000E+00 -0.10557572752E+04  0.10557572752E+04  0.00000000000E+00 0. -1.
         25    2    1    2    0    0  0.80235407029E+02  0.39013214123E+02 -0.20200585771E+03  0.25375889756E+03  0.12500984010E+03 0.  0.
          2    1    1    2  501    0 -0.29110903276E+02 -0.26155562353E+02 -0.82644120114E+03  0.82736728064E+03  0.00000000000E+00 0. -1.
          1    1    1    2  502    0 -0.51124503753E+02 -0.12857651771E+02  0.71479071525E+03  0.71673202851E+03  0.00000000000E+00 0. -1.
         22    1    3    3    0    0  0.11145051778E+03  0.29797925631E+02 -0.18222120274E+03  0.21567035265E+03  0.00000000000E+00 0.  1.
         22    1    3    3    0    0 -0.31215110747E+02  0.92152884925E+01 -0.19784654976E+02  0.38088544912E+02  0.00000000000E+00 0.  1.
</event>
<event>
 7    1  0.6520971E-006  0.9832253E+02  0.7818608E-02  0.1435005E+00
          2   -1    0    0  502    0  0.00000000000E+00  0.00000000000E+00  0.13400676664E+03  0.13400676664E+03  0.00000000000E+00 0. -1.
          1   -1    0    0  501    0 -0.00000000000E+00 -0.00000000000E+00 -0.16855037168E+03  0.16855037168E+03  0.00000000000E+00 0. -1.
         25    2    1    2    0    0  0.51610375543E+02  0.59742280190E+02  0.24226345488E+02  0.14981506126E+03  0.12499946344E+03 0.  0.
          2    1    1    2  501    0 -0.60214146891E+02 -0.85827820106E+02 -0.66565015627E+02  0.12418961106E+03  0.00000000000E+00 0. -1.
          1    1    1    2  502    0  0.86037713482E+01  0.26085539916E+02  0.77950650982E+01  0.28552465989E+02  0.00000000000E+00 0. -1.
         22    1    3    3    0    0  0.73928893459E+02  0.31902653658E+02 -0.29131135189E+02  0.85626419030E+02  0.00000000000E+00 0. -1.
         22    1    3    3    0    0 -0.22318517916E+02  0.27839626532E+02  0.53357480678E+02  0.64188642233E+02  0.00000000000E+00 0. -1.
</event>
<event>
 7    1  0.6520971E-006  0.7034200E+02  0.7818608E-02  0.1446810E+00
          2   -1    0    0  502    0  0.00000000000E+00  0.00000000000E+00  0.35198989455E+03  0.35198989455E+03  0.00000000000E+00 0. -1.
          1   -1    0    0  501    0 -0.00000000000E+00 -0.00000000000E+00 -0.13401960618E+04  0.13401960618E+04  0.00000000000E+00 0. -1.
         25    2    1    2    0    0 -0.19367844539E+02 -0.40373220110E+02  0.41676109474E+01  0.13284333628E+03  0.12499949083E+03 0.  0.
          2    1    1    2  501    0 -0.34134568108E+02 -0.84127930299E+01 -0.12709878279E+04  0.12714739488E+04  0.00000000000E+00 0. -1.
          1    1    1    2  502    0  0.53502412646E+02  0.48786013140E+02  0.27861404967E+03  0.28786867129E+03  0.00000000000E+00 0. -1.
         22    1    3    3    0    0  0.19040759075E+01 -0.68430955348E+02 -0.37689237582E+02  0.78146655619E+02  0.00000000000E+00 0. -1.
         22    1    3    3    0    0 -0.21271920446E+02  0.28057735239E+02  0.41856848530E+02  0.54696680658E+02  0.00000000000E+00 0. -1.
</event>
<event>
 7    1  0.6520971E-006  0.6898250E+02  0.7818608E-02  0.1465225E+00
          2   -1    0    0  502    0  0.00000000000E+00  0.00000000000E+00  0.49255709960E+03  0.49255709960E+03  0.00000000000E+00 0. -1.
          1   -1    0    0  501    0 -0.00000000000E+00 -0.00000000000E+00 -0.41120486834E+02  0.41120486834E+02  0.00000000000E+00 0. -1.
         25    2    1    2    0    0 -0.21023515851E+02 -0.41958121071E+02  0.10246193679E+03  0.16830018959E+03  0.12499613267E+03 0.  0.
          2    1    1    2  501    0 -0.29917417167E+02 -0.93241186068E+01  0.62391215058E+02  0.69818727819E+02  0.00000000000E+00 0. -1.
          1    1    1    2  502    0  0.50940933017E+02  0.51282239677E+02  0.28658346092E+03  0.29555866902E+03  0.00000000000E+00 0. -1.
         22    1    3    3    0    0 -0.25996066049E+02 -0.13088510943E+02 -0.24474221904E+02  0.38027517754E+02  0.00000000000E+00 0.  1.
         22    1    3    3    0    0  0.49725501984E+01 -0.28869610128E+02  0.12693615869E+03  0.13027267184E+03  0.00000000000E+00 0.  1.
</event>
<event>
 7    1  0.6520971E-006  0.5486271E+02  0.7818608E-02  0.1484613E+00
          2   -1    0    0  502    0  0.00000000000E+00  0.00000000000E+00  0.34384079303E+03  0.34384079303E+03  0.00000000000E+00 0. -1.
          1   -1    0    0  501    0 -0.00000000000E+00 -0.00000000000E+00 -0.19952943218E+04  0.19952943218E+04  0.00000000000E+00 0. -1.
         25    2    1    2    0    0 -0.23092322977E+02 -0.29872728063E+02 -0.53088403583E+03  0.54670682501E+03  0.12499943100E+03 0.  0.
          2    1    1    2  501    0  0.54328877998E+02  0.15641970958E+02 -0.14550716496E+04  0.14561695655E+04  0.00000000000E+00 0. -1.
          1    1    1    2  502    0 -0.31236555020E+02  0.14230757105E+02  0.33450215666E+03  0.33625872424E+03  0.00000000000E+00 0. -1.
         22    1    3    3    0    0  0.30373274317E+02  0.32138408666E+02 -0.12354592767E+03  0.13122122294E+03  0.00000000000E+00 0.  1.
         22    1    3    3    0    0 -0.53465597294E+02 -0.62011136728E+02 -0.40733810816E+03  0.41548560207E+03  0.00000000000E+00 0.  1.
</event>
<event>
 7    1  0.6520971E-006  0.3641996E+02  0.7818608E-02  0.1594655E+00
          2   -1    0    0  502    0  0.00000000000E+00  0.00000000000E+00  0.21125792155E+03  0.21125792155E+03  0.00000000000E+00 0. -1.
          1   -1    0    0  501    0 -0.00000000000E+00 -0.00000000000E+00 -0.16428365954E+03  0.16428365954E+03  0.00000000000E+00 0. -1.
         25    2    1    2    0    0 -0.16105126212E+01  0.23711581847E+02  0.65419441298E+02  0.14307481014E+03  0.12500346049E+03 0.  0.
          2    1    1    2  501    0  0.26783512022E+02 -0.25406654926E+02 -0.12118038692E+03  0.12667888856E+03  0.00000000000E+00 0. -1.
          1    1    1    2  502    0 -0.25172999401E+02  0.16950730798E+01  0.10273520764E+03  0.10578788239E+03  0.00000000000E+00 0. -1.
         22    1    3    3    0    0  0.29845260076E+02  0.67213545199E+02  0.36637334519E+02  0.82162610036E+02  0.00000000000E+00 0. -1.
         22    1    3    3    0    0 -0.31455772697E+02 -0.43501963352E+02  0.28782106779E+02  0.60912200109E+02  0.00000000000E+00 0. -1.
</event>
<event>
 7    1  0.6520971E-006  0.4628589E+02  0.7818608E-02  0.1553702E+00
          2   -1    0    0  502    0  0.00000000000E+00  0.00000000000E+00  0.31247423405E+03  0.31247423405E+03  0.00000000000E+00 0. -1.
          1   -1    0    0  501    0 -0.00000000000E+00 -0.00000000000E+00 -0.32833800979E+04  0.32833800979E+04  0.00000000000E+00 0. -1.
         25    2    1    2    0    0  0.90541754496E+01 -0.43847197862E+02 -0.25589932903E+03  0.28829518903E+03  0.12500037825E+03 0.  0.
          2    1    1    2  501    0 -0.32361239354E+02  0.33223624245E+02 -0.30105502843E+04  0.30109075166E+04  0.00000000000E+00 0. -1.
          1    1    1    2  502    0  0.23307063904E+02  0.10623573617E+02  0.29554374950E+03  0.29665162635E+03  0.00000000000E+00 0. -1.
         22    1    3    3    0    0  0.87192492079E+01 -0.28435286790E+02 -0.26740836056E+03  0.26905728412E+03  0.00000000000E+00 0.  1.
         22    1    3    3    0    0  0.33492624165E+00 -0.15411911072E+02  0.11509031526E+02  0.19237904905E+02  0.00000000000E+00 0.  1.
</event>
<event>
 7    1  0.6520971E-006  0.5534212E+02  0.7818608E-02  0.1438521E+00
          2   -1    0    0  502    0  0.00000000000E+00  0.00000000000E+00  0.17698369633E+04  0.17698369633E+04  0.00000000000E+00 0. -1.
          1   -1    0    0  501    0 -0.00000000000E+00 -0.00000000000E+00 -0.97242107891E+03  0.97242107891E+03  0.00000000000E+00 0. -1.
         25    2    1    2    0    0  0.64081527339E+02  0.26932120418E+02  0.10831936278E+04  0.10925939298E+04  0.12498511412E+03 0.  0.
          2    1    1    2  501    0 -0.12002380584E+02 -0.45988610456E+02 -0.96600825444E+03  0.96717679722E+03  0.00000000000E+00 0. -1.
          1    1    1    2  502    0 -0.52079146755E+02  0.19056490037E+02  0.68023051098E+03  0.68248731520E+03  0.00000000000E+00 0. -1.
         22    1    3    3    0    0  0.22501103808E+02 -0.36371413991E+02  0.14056574827E+03  0.14692824444E+03  0.00000000000E+00 0.  1.
         22    1    3    3    0    0  0.41580423531E+02  0.63303534409E+02  0.94262787954E+03  0.94566568531E+03  0.00000000000E+00 0.  1.
</event>
<event>
 7    1  0.6520971E-006  0.9030350E+02  0.7818608E-02  0.1337174E+00
          2   -1    0    0  502    0  0.00000000000E+00  0.00000000000E+00  0.15294621377E+03  0.15294621377E+03  0.00000000000E+00 0. -1.
          1   -1    0    0  501    0 -0.00000000000E+00 -0.00000000000E+00 -0.35507754062E+03  0.35507754062E+03  0.00000000000E+00 0. -1.
         25    2    1    2    0    0 -0.71178823928E+02  0.42445524590E+02  0.73746707808E+02  0.16712733534E+03  0.12499968709E+03 0.  0.
          2    1    1    2  501    0 -0.54386395215E+02 -0.37404634364E+02 -0.14572285312E+03  0.15997542492E+03  0.00000000000E+00 0. -1.
          1    1    1    2  502    0  0.12556521914E+03 -0.50408902257E+01 -0.13015518154E+03  0.18092099412E+03  0.00000000000E+00 0. -1.
         22    1    3    3    0    0 -0.81714624820E+01  0.65645300453E+02  0.74957611015E+02  0.99973605115E+02  0.00000000000E+00 0. -1.
         22    1    3    3    0    0 -0.63007361446E+02 -0.23199775863E+02 -0.12109032063E+01  0.67153730225E+02  0.00000000000E+00 0. -1.
</event>
<event>
 7    1  0.6520971E-006  0.3747063E+02  0.7818608E-02  0.1592701E+00
          2   -1    0    0  502    0  0.00000000000E+00  0.00000000000E+00  0.21012069237E+04  0.21012069237E+04  0.00000000000E+00 0. -1.
          1   -1    0    0  501    0 -0.00000000000E+00 -0.00000000000E+00 -0.49244952168E+02  0.49244952168E+02  0.00000000000E+00 0. -1.
         25    2    1    2    0    0 -0.41943879514E+01 -0.40298132398E+02  0.75307910070E+03  0.76445917173E+03  0.12501264318E+03 0.  0.
          2    1    1    2  501    0  0.23511382741E+02  0.79367918850E+01 -0.39733549481E+02  0.46845840137E+02  0.00000000000E+00 0. -1.
          1    1    1    2  502    0 -0.19316994789E+02  0.32361340513E+02  0.13386164203E+04  0.13391468640E+04  0.00000000000E+00 0. -1.
         22    1    3    3    0    0  0.31678222845E+02  0.25664943442E+02  0.11571131826E+03  0.12268377357E+03  0.00000000000E+00 0.  1.
         22    1    3    3    0    0 -0.35872610796E+02 -0.65963075840E+02  0.63736778244E+03  0.64177539815E+03  0.00000000000E+00 0.  1.
</event>
<event>
 7    1  0.6520971E-006  0.1370849E+03  0.7818608E-02  0.1251068E+00
          2   -1    0    0  502    0  0.00000000000E+00  0.00000000000E+00  0.11867465686E+04  0.11867465686E+04  0.00000000000E+00 0. -1.
          1   -1    0    0  501    0 -0.00000000000E+00 -0.00000000000E+00 -0.17164336138E+03  0.17164336138E+03  0.00000000000E+00 0. -1.
         25    2    1    2    0    0 -0.83578615994E+02 -0.94357160211E+00  0.31753321136E+02  0.15368740853E+03  0.12500108303E+03 0.  0.
          2    1    1    2  501    0  0.18041905924E+03 -0.40172071876E+01 -0.33239126309E+02  0.18349935806E+03  0.00000000000E+00 0. -1.
          1    1    1    2  502    0 -0.96840443246E+02  0.49607787897E+01  0.10165890124E+04  0.10212031634E+04  0.00000000000E+00 0. -1.
         22    1    3    3    0    0 -0.51012678954E+02  0.49383804257E+02 -0.20782191606E+02  0.73979409466E+02  0.00000000000E+00 0. -1.
         22    1    3    3    0    0 -0.32565937039E+02 -0.50327375859E+02  0.52535512742E+02  0.79707999067E+02  0.00000000000E+00 0. -1.
</event>
<event>
 7    1  0.6520971E-006  0.2258545E+03  0.7818608E-02  0.1204237E+00
          2   -1    0    0  502    0  0.00000000000E+00  0.00000000000E+00  0.92373583209E+03  0.92373583209E+03  0.00000000000E+00 0. -1.
          1   -1    0    0  501    0 -0.00000000000E+00 -0.00000000000E+00 -0.17871395545E+04  0.17871395545E+04  0.00000000000E+00 0. -1.
         25    2    1    2    0    0 -0.28808106098E+03  0.58714016798E+01 -0.94493655345E+03  0.99576856713E+03  0.12499911270E+03 0.  0.
          2    1    1    2  501    0  0.19514423731E+03 -0.28478286430E+02 -0.80226496716E+03  0.82614851189E+03  0.00000000000E+00 0. -1.
          1    1    1    2  502    0  0.92936823669E+02  0.22606884750E+02  0.88379779822E+03  0.88895830755E+03  0.00000000000E+00 0. -1.
         22    1    3    3    0    0 -0.26044088959E+03  0.32595888047E+02 -0.89531322390E+03  0.93299395377E+03  0.00000000000E+00 0.  1.
         22    1    3    3    0    0 -0.27640171388E+02 -0.26724486367E+02 -0.49623329556E+02  0.62774613357E+02  0.00000000000E+00 0.  1.
</event>
<event>
 7    1  0.6520971E-006  0.4627205E+02  0.7818608E-02  0.1467202E+00
          2   -1    0    0  502    0  0.00000000000E+00  0.00000000000E+00  0.32697990494E+04  0.32697990494E+04  0.00000000000E+00 0. -1.
          1   -1    0    0  501    0 -0.00000000000E+00 -0.00000000000E+00 -0.15455700545E+04  0.15455700545E+04  0.00000000000E+00 0. -1.
         25    2    1    2    0    0  0.51521019203E+01 -0.64870133464E+00 -0.56745880260E+02  0.13737536795E+03  0.12499972730E+03 0.  0.
          2    1    1    2  501    0  0.57701502062E+01  0.45693772196E+02 -0.14479769585E+04  0.14487092489E+04  0.00000000000E+00 0. -1.
          1    1    1    2  502    0 -0.10922252126E+02 -0.45045070861E+02  0.32289518336E+04  0.32292844870E+04  0.00000000000E+00 0. -1.
         22    1    3    3    0    0 -0.63438288635E+01  0.32674269234E+02  0.29328691705E+02  0.44362418687E+02  0.00000000000E+00 0. -1.
         22    1    3    3    0    0  0.11495930784E+02 -0.33322970569E+02 -0.86074571964E+02  0.93012949265E+02  0.00000000000E+00 0. -1.
</event>
<event>
 7    1  0.6520971E-006  0.1816782E+03  0.7818608E-02  0.1257021E+00
          2   -1    0    0  502    0  0.00000000000E+00  0.00000000000E+00  0.24498533905E+04  0.24498533905E+04  0.00000000000E+00 0. -1.
          1   -1    0    0  501    0 -0.00000000000E+00 -0.00000000000E+00 -0.18663425337E+04  0.18663425337E+04  0.00000000000E+00 0. -1.
         25    2    1    2    0    0 -0.16670116620E+03  0.96092109674E+02 -0.54368482072E+03  0.59011941316E+03  0.12499906060E+03 0.  0.
          2    1    1    2  501    0  0.17925216900E+03 -0.28273993341E+02 -0.12926111079E+04  0.13052870317E+04  0.00000000000E+00 0. -1.
          1    1    1    2  502    0 -0.12551002800E+02 -0.67818116333E+02  0.24198067855E+04  0.24207894794E+04  0.00000000000E+00 0. -1.
         22    1    3    3    0    0 -0.15526310470E+03  0.10188337667E+03 -0.35179852959E+03  0.39780530357E+03  0.00000000000E+00 0. -1.
         22    1    3    3    0    0 -0.11438061494E+02 -0.57912669975E+01 -0.19188629113E+03  0.19231410959E+03  0.00000000000E+00 0. -1.
</event>
<event>
 7    1  0.6520971E-006  0.7378991E+02  0.7818608E-02  0.1448306E+00
          2   -1    0    0  502    0  0.00000000000E+00  0.00000000000E+00  0.70987291670E+03  0.70987291670E+03  0.00000000000E+00 0. -1.
          1   -1    0    0  501    0 -0.00000000000E+00 -0.00000000000E+00 -0.55940346380E+02  0.55940346380E+02  0.00000000000E+00 0. -1.
         25    2    1    2    0    0  0.18300218367E+02 -0.79885730400E+02  0.98837894347E+02  0.17919407326E+03  0.12499983447E+03 0.  0.
          2    1    1    2  501    0 -0.32277692981E+02  0.75321079606E+01  0.73633738198E+01  0.33952929012E+02  0.00000000000E+00 0. -1.
          1    1    1    2  502    0  0.13977474614E+02  0.72353622440E+02  0.54773130216E+03  0.55266626081E+03  0.00000000000E+00 0. -1.
         22    1    3    3    0    0 -0.12950414519E+02  0.24633754426E+02  0.54968772999E+02  0.61612507645E+02  0.00000000000E+00 0. -1.
         22    1    3    3    0    0  0.31250632886E+02 -0.10451948483E+03  0.43869121348E+02  0.11758156561E+03  0.00000000000E+00 0. -1.
</event>
<event>
 7    1  0.6520971E-006  0.8526163E+02  0.7818608E-02  0.1340201E+00
          2   -1    0    0  502    0  0.00000000000E+00  0.00000000000E+00  0.10628705467E+03  0.10628705467E+03  0.00000000000E+00 0. -1.
          1   -1    0    0  501    0 -0.00000000000E+00 -0.00000000000E+00 -0.69831730756E+03  0.69831730756E+03  0.00000000000E+00 0. -1.
         25    2    1    2    0    0  0.84535679542E+02 -0.11660253814E+03 -0.16488228327E+03  0.25209868804E+03  0.12500059262E+03 0.  0.
          2    1    1    2  501    0 -0.28650577226E+02  0.61777278161E+02 -0.46187030032E+03  0.46686342970E+03  0.00000000000E+00 0. -1.
          1    1    1    2  502    0 -0.55885102317E+02  0.54825259978E+02  0.34722330704E+02  0.85642244495E+02  0.00000000000E+00 0. -1.
         22    1    3    3    0    0  0.97041770808E+02 -0.27700971675E+02 -0.86109409716E+02  0.13266227631E+03  0.00000000000E+00 0.  1.
         22    1    3    3    0    0 -0.12506091266E+02 -0.88901566464E+02 -0.78772873558E+02  0.11943641173E+03  0.00000000000E+00 0.  1.
</event>
<event>
 7    1  0.6520971E-006  0.1070760E+03  0.7818608E-02  0.1374371E+00
          2   -1    0    0  502    0  0.00000000000E+00  0.00000000000E+00  0.69375439865E+03  0.69375439865E+03  0.00000000000E+00 0. -1.
          1   -1    0    0  501    0 -0.00000000000E+00 -0.00000000000E+00 -0.12656733592E+03  0.12656733592E+03  0.00000000000E+00 0. -1.
         25    2    1    2    0    0  0.78900638319E+02 -0.11292506930E+03  0.87854860657E+02  0.20572138629E+03  0.12500172092E+03 0.  0.
          2    1    1    2  501    0 -0.36871043400E+02  0.17093203779E+02 -0.55968532649E+02  0.69167391911E+02  0.00000000000E+00 0. -1.
          1    1    1    2  502    0 -0.42029594919E+02  0.95831865523E+02  0.53530073472E+03  0.54543295637E+03  0.00000000000E+00 0. -1.
         22    1    3    3    0    0 -0.29535669029E+02 -0.55786526519E+02  0.24145060852E+02  0.67583106244E+02  0.00000000000E+00 0.  1.
         22    1    3    3    0    0  0.10843630735E+03 -0.57138542783E+02  0.63709799805E+02  0.13813828005E+03  0.00000000000E+00 0.  1.
</event>
<event>
 7    1  0.6520971E-006  0.6825566E+02  0.7818608E-02  0.1367639E+00
          2   -1    0    0  502    0  0.00000000000E+00  0.00000000000E+00  0.10542485315E+04  0.10542485315E+04  0.00000000000E+00 0. -1.
          1   -1    0    0  501    0 -0.00000000000E+00 -0.00000000000E+00 -0.50629310748E+02  0.50629310748E+02  0.00000000000E+00 0. -1.
         25    2    1    2    0    0 -0.30239424006E+01 -0.11477129079E+02  0.16401181074E+03  0.20655542202E+03  0.12499759832E+03 0.  0.
          2    1    1    2  501    0 -0.68247043156E+02  0.10846813845E+01  0.14122531712E+02  0.69701372549E+02  0.00000000000E+00 0. -1.
          1    1    1    2  502    0  0.71270985556E+02  0.10392447695E+02  0.82548487831E+03  0.82862104768E+03  0.00000000000E+00 0. -1.
         22    1    3    3    0    0  0.45270081318E+02  0.99038136794E+01  0.15392156296E+02  0.48830157314E+02  0.00000000000E+00 0.  1.
         22    1    3    3    0    0 -0.48294023718E+02 -0.21380942759E+02  0.14861965444E+03  0.15772526471E+03  0.00000000000E+00 0.  1.
</event>
<event>
 7    1  0.9521305E-006  0.3595097E+02  0.7818608E-02  0.1628372E+00
          2   -1    0    0  502    0  0.00000000000E+00  0.00000000000E+00  0.15440187580E+04  0.15440187580E+04  0.00000000000E+00 0. -1.
          1   -1    0    0  501    0 -0.00000000000E+00 -0.00000000000E+00 -0.15397517241E+04  0.15397517241E+04  0.00000000000E+00 0. -1.
         25    2    1    2    0    0  0.17399350302E+02  0.12523935243E+02 -0.53335164910E+03  0.54822283635E+03  0.12499884141E+03 0.  0.
          2    1    1    2  501    0  0.18459688113E+02 -0.98601612138E+01 -0.99864447018E+03  0.99886373480E+03  0.00000000000E+00 0. -1.
          1    1    1    2  502    0 -0.35859038415E+02 -0.26637740289E+01  0.15362631532E+04  0.15366839110E+04  0.00000000000E+00 0. -1.
         22    1    3    3    0    0  0.45057712634E+02  0.58025502554E+02 -0.32043208775E+03  0.32874591902E+03  0.00000000000E+00 0.  1.
         22    1    3    3    0    0 -0.27658362332E+02 -0.45501567311E+02 -0.21291956135E+03  0.21947691733E+03  0.00000000000E+00 0.  1.
</event>
<event>
 7    1  0.6520971E-006  0.1868019E+03  0.7818608E-02  0.1310712E+00
          2   -1    0    0  502    0  0.00000000000E+00  0.00000000000E+00  0.16076558791E+04  0.16076558791E+04  0.00000000000E+00 0. -1.
          1   -1    0    0  501    0 -0.00000000000E+00 -0.00000000000E+00 -0.16659605573E+04  0.16659605573E+04  0.00000000000E+00 0. -1.
         25    2    1    2    0    0 -0.14616364562E+03  0.19155405524E+02  0.12036779452E+04  0.12190967891E+04  0.12500257869E+03 0.  0.
          2    1    1    2  501    0  0.18634425630E+03 -0.15334246739E+02 -0.16519356848E+04  0.16624833315E+04  0.00000000000E+00 0. -1.
          1    1    1    2  502    0 -0.40180610675E+02 -0.38211587846E+01  0.38995306145E+03  0.39203631575E+03  0.00000000000E+00 0. -1.
         22    1    3    3    0    0 -0.16402831884E+03  0.36866097736E+02  0.10488666147E+04  0.10622549477E+04  0.00000000000E+00 0. -1.
         22    1    3    3    0    0  0.17864673210E+02 -0.17710692212E+02  0.15481133052E+03  0.15684184143E+03  0.00000000000E+00 0. -1.
</event>
<event>
 7    1  0.6520971E-006  0.8703503E+02  0.7818608E-02  0.1430796E+00
          2   -1    0    0  502    0  0.00000000000E+00  0.00000000000E+00  0.98704896994E+03  0.98704896994E+03  0.00000000000E+00 0. -1.
          1   -1    0    0  501    0 -0.00000000000E+00 -0.00000000000E+00 -0.14155222922E+03  0.14155222922E+03  0.00000000000E+00 0. -1.
         25    2    1    2    0    0  0.23078423698E+02  0.51433202179E+02  0.33022616901E+03  0.35756419481E+03  0.12499937113E+03 0.  0.
          2    1    1    2  501    0 -0.35606840210E+02 -0.80913476384E+02 -0.11214838661E+03  0.14280090458E+03  0.00000000000E+00 0. -1.
          1    1    1    2  502    0  0.12528416513E+02  0.29480274205E+02  0.62741895832E+03  0.62823609976E+03  0.00000000000E+00 0. -1.
         22    1    3    3    0    0 -0.39431680407E+02  0.60355164770E+02  0.20522497292E+03  0.21751986770E+03  0.00000000000E+00 0.  1.
         22    1    3    3    0    0  0.62510104105E+02 -0.89219625912E+01  0.12500119609E+03  0.14004432711E+03  0.00000000000E+00 0.  1.
</event>
<event>
 7    1  0.6520971E-006  0.8782320E+02  0.7818608E-02  0.1386658E+00
          2   -1    0    0  502    0  0.00000000000E+00  0.00000000000E+00  0.11312162858E+04  0.11312162858E+04  0.00000000000E+00 0. -1.
          1   -1    0    0  501    0 -0.00000000000E+00 -0.00000000000E+00 -0.29217393307E+02  0.29217393307E+02  0.00000000000E+00 0. -1.
         25    2    1    2    0    0  0.50589115474E+02  0.20186955070E+02  0.45245531773E+03  0.47255373592E+03  0.12499778809E+03 0.  0.
          2    1    1    2  501    0 -0.82713191235E+02 -0.51454649785E+02  0.11185553799E+03  0.14832637786E+03  0.00000000000E+00 0. -1.
          1    1    1    2  502    0  0.32124075761E+02  0.31267694715E+02  0.53768803674E+03  0.53955356531E+03  0.00000000000E+00 0. -1.
         22    1    3    3    0    0  0.68437357238E+00  0.67431473083E+02  0.23669726275E+03  0.24611596072E+03  0.00000000000E+00 0.  1.
         22    1    3    3    0    0  0.49904741901E+02 -0.47244518013E+02  0.21575805498E+03  0.22643777520E+03  0.00000000000E+00 0.  1.
</event>
<event>
 7    1  0.6520971E-006  0.8388198E+02  0.7818608E-02  0.1365419E+00
          2   -1    0    0  502    0  0.00000000000E+00  0.00000000000E+00  0.12274105564E+04  0.12274105564E+04  0.00000000000E+00 0. -1.
          1   -1    0    0  501    0 -0.00000000000E+00 -0.00000000000E+00 -0.20445173236E+04  0.20445173236E+04  0.00000000000E+00 0. -1.
         25    2    1    2    0    0  0.97521321693E+02 -0.97800178845E+02 -0.21405154868E+02  0.18750411721E+03  0.12499732057E+03 0.  0.
          2    1    1    2  501    0 -0.52569662123E+02  0.64623516646E+02 -0.19384856719E+04  0.19402748435E+04  0.00000000000E+00 0. -1.
          1    1    1    2  502    0 -0.44951659570E+02  0.33176662199E+02  0.11427840595E+04  0.11441489192E+04  0.00000000000E+00 0. -1.
         22    1    3    3    0    0  0.27427398121E+02 -0.42826946748E+02 -0.69616979320E+02  0.86214461346E+02  0.00000000000E+00 0. -1.
         22    1    3    3    0    0  0.70093923572E+02 -0.54973232097E+02  0.48211824452E+02  0.10128965587E+03  0.00000000000E+00 0. -1.
</event>
<event>
 7    1  0.1116421E-005  0.1016101E+03  0.7818608E-02  0.1448944E+00
          2   -1    0    0  502    0  0.00000000000E+00  0.00000000000E+00  0.19771176039E+04  0.19771176039E+04  0.00000000000E+00 0. -1.
          1   -1    0    0  501    0 -0.00000000000E+00 -0.00000000000E+00 -0.10295526870E+04  0.10295526870E+04  0.00000000000E+00 0. -1.
         25    2    1    2    0    0 -0.79264436710E+02 -0.22890536929E+02 -0.51764767002E+03  0.53887894156E+03  0.12499830310E+03 0.  0.
          2    1    1    2  501    0 -0.21616498852E+02  0.10327567847E+02 -0.49968835480E+03  0.50026231480E+03  0.00000000000E+00 0. -1.
          1    1    1    2  502    0  0.10088093556E+03  0.12562969081E+02  0.19649009416E+04  0.19675290346E+04  0.00000000000E+00 0. -1.
         22    1    3    3    0    0  0.25580252076E+01 -0.17377223327E+02 -0.36646907182E+03  0.36688975453E+03  0.00000000000E+00 0. -1.
         22    1    3    3    0    0 -0.81822461917E+02 -0.55133136016E+01 -0.15117859820E+03  0.17198918703E+03  0.00000000000E+00 0. -1.
</event>
<event>
 7    1  0.6520971E-006  0.3512603E+02  0.7818608E-02  0.1552467E+00
          2   -1    0    0  502    0  0.00000000000E+00  0.00000000000E+00  0.15948687449E+04  0.15948687449E+04  0.00000000000E+00 0. -1.
          1   -1    0    0  501    0 -0.00000000000E+00 -0.00000000000E+00 -0.11331945601E+04  0.11331945601E+04  0.00000000000E+00 0. -1.
         25    2    1    2    0    0  0.21981725341E+02  0.36186374032E+02 -0.41493394071E+02  0.13834262167E+03  0.12499731719E+03 0.  0.
          2    1    1    2  501    0 -0.34862254212E+02 -0.46993692667E+01 -0.10427928339E+04  0.10433860050E+04  0.00000000000E+00 0. -1.
          1    1    1    2  502    0  0.12880528871E+02 -0.31487004766E+02  0.15459604128E+04  0.15463346784E+04  0.00000000000E+00 0. -1.
         22    1    3    3    0    0  0.59776128818E+02 -0.19913721269E+02 -0.10257305072E+02  0.63835367772E+02  0.00000000000E+00 0.  1.
         22    1    3    3    0    0 -0.37794403477E+02  0.56100095302E+02 -0.31236089000E+02  0.74507253896E+02  0.00000000000E+00 0.  1.
</event>
<event>
 7    1  0.6520971E-006  0.1036417E+03  0.7818608E-02  0.1313247E+00
          2   -1    0    0  502    0  0.00000000000E+00  0.00000000000E+00  0.98872626398E+02  0.98872626398E+02  0.00000000000E+00 0. -1.
          1   -1    0    0  501    0 -0.00000000000E+00 -0.00000000000E+00 -0.57777879681E+03  0.57777879681E+03  0.00000000000E+00 0. -1.
         25    2    1    2    0    0  0.87272392478E+02  0.92057122640E+02 -0.10964757630E+03  0.20913783023E+03  0.12500022691E+03 0.  0.
          2    1    1    2  501    0 -0.70704454598E+02  0.74706541752E+01 -0.35914025153E+03  0.36611016217E+03  0.00000000000E+00 0. -1.
          1    1    1    2  502    0 -0.16567937880E+02 -0.99527776815E+02 -0.10118342582E+02  0.10140343081E+03  0.00000000000E+00 0. -1.
         22    1    3    3    0    0  0.30147923992E+02 -0.21308877073E+02  0.60122940270E+01  0.37404722197E+02  0.00000000000E+00 0.  1.
         22    1    3    3    0    0  0.57124468486E+02  0.11336599971E+03 -0.11565987033E+03  0.17173310803E+03  0.00000000000E+00 0.  1.
</event>
<event>
 7    1  0.6520971E-006  0.4383206E+02  0.7818608E-02  0.1549427E+00
          2   -1    0    0  502    0  0.00000000000E+00  0.00000000000E+00  0.36197086555E+03  0.36197086555E+03  0.00000000000E+00 0. -1.
          1   -1    0    0  501    0 -0.00000000000E+00 -0.00000000000E+00 -0.29474031610E+03  0.29474031610E+03  0.00000000000E+00 0. -1.
         25    2    1    2    0    0  0.57098818956E+02  0.44964155936E+01 -0.10253907061E+03  0.17152181548E+03  0.12499991722E+03 0.  0.
          2    1    1    2  501    0 -0.20227317523E+02  0.19069974144E+02 -0.15500594588E+03  0.15747905114E+03  0.00000000000E+00 0. -1.
          1    1    1    2  502    0 -0.36871501434E+02 -0.23566389738E+02  0.32477556595E+03  0.32771031504E+03  0.00000000000E+00 0. -1.
         22    1    3    3    0    0  0.91554227839E+02 -0.40217946705E+01 -0.10044267351E+03  0.13596720976E+03  0.00000000000E+00 0.  1.
         22    1    3    3    0    0 -0.34455408882E+02  0.85182102641E+01 -0.20963971012E+01  0.35554605723E+02  0.00000000000E+00 0.  1.
</event>
<event>
 7    1  0.6520971E-006  0.5012846E+02  0.7818608E-02  0.1519045E+00
          2   -1    0    0  502    0  0.00000000000E+00  0.00000000000E+00  0.16543055985E+04  0.16543055985E+04  0.00000000000E+00 0. -1.
          1   -1    0    0  501    0 -0.00000000000E+00 -0.00000000000E+00 -0.64358658085E+03  0.64358658085E+03  0.00000000000E+00 0. -1.
         25    2    1    2    0    0  0.25146926342E+02 -0.12192294583E+02  0.97026485944E+03  0.97868314080E+03  0.12500309064E+03 0.  0.
          2    1    1    2  501    0 -0.27804633720E+02  0.41742081688E+02 -0.63806919569E+03  0.64003734073E+03  0.00000000000E+00 0. -1.
          1    1    1    2  502    0  0.26577073780E+01 -0.29549787105E+02  0.67852335386E+03  0.67917169777E+03  0.00000000000E+00 0. -1.
         22    1    3    3    0    0 -0.19081960827E+02 -0.37839136625E+02  0.12728667114E+03  0.13415594709E+03  0.00000000000E+00 0.  1.
         22    1    3    3    0    0  0.44228887169E+02  0.25646842042E+02  0.84297818830E+03  0.84452719371E+03  0.00000000000E+00 0.  1.
</event>
<event>
 7    1  0.6520971E-006  0.1155515E+03  0.7818608E-02  0.1266416E+00
          2   -1    0    0  502    0  0.00000000000E+00  0.00000000000E+00  0.38813378812E+03  0.38813378812E+03  0.00000000000E+00 0. -1.
          1   -1    0    0  501    0 -0.00000000000E+00 -0.00000000000E+00 -0.12165018845E+04  0.12165018845E+04  0.00000000000E+00 0. -1.
         25    2    1    2    0    0  0.67833827925E+02  0.14785262785E+02 -0.12403290312E+03  0.18928423094E+03  0.12499730724E+03 0.  0.
          2    1    1    2  501    0  0.20444457594E+02 -0.96764638383E+02 -0.10472398474E+04  0.10518995527E+04  0.00000000000E+00 0. -1.
          1    1    1    2  502    0 -0.88278285518E+02  0.81979375598E+02  0.34290465415E+03  0.36345188892E+03  0.00000000000E+00 0. -1.
         22    1    3    3    0    0 -0.15059589840E+02 -0.28463411241E+01  0.18153069000E+02  0.23757668616E+02  0.00000000000E+00 0.  1.
         22    1    3    3    0    0  0.82893417764E+02  0.17631603909E+02 -0.14218597213E+03  0.16552656232E+03  0.00000000000E+00 0.  1.
</event>
<event>
 7    1  0.6520971E-006  0.6099862E+02  0.7818608E-02  0.1530982E+00
          2   -1    0    0  502    0  0.00000000000E+00  0.00000000000E+00  0.20034543295E+03  0.20034543295E+03  0.00000000000E+00 0. -1.
          1   -1    0    0  501    0 -0.00000000000E+00 -0.00000000000E+00 -0.12501458998E+04  0.12501458998E+04  0.00000000000E+00 0. -1.
         25    2    1    2    0    0  0.53055824582E+02  0.70686208639E+01 -0.21512420961E+03  0.25449424170E+03  0.12499603023E+03 0.  0.
          2    1    1    2  501    0 -0.59802714596E+02  0.14420614132E+02 -0.10136985764E+04  0.10155634508E+04  0.00000000000E+00 0. -1.
          1    1    1    2  502    0  0.67468900138E+01 -0.21489234996E+02  0.17902231921E+03  0.18043364021E+03  0.00000000000E+00 0. -1.
         22    1    3    3    0    0  0.82332675872E+02 -0.29430901075E+02 -0.11988915089E+03  0.14838549779E+03  0.00000000000E+00 0. -1.
         22    1    3    3    0    0 -0.29276851289E+02  0.36499521939E+02 -0.95235058726E+02  0.10610874391E+03  0.00000000000E+00 0. -1.
</event>
<event>
 7    1  0.6520971E-006  0.1026601E+03  0.7818608E-02  0.1410553E+00
          2   -1    0    0  502    0  0.00000000000E+00  0.00000000000E+00  0.82303915448E+03  0.82303915448E+03  0.00000000000E+00 0. -1.
          1   -1    0    0  501    0 -0.00000000000E+00 -0.00000000000E+00 -0.65807753810E+02  0.65807753810E+02  0.00000000000E+00 0. -1.
         25    2    1    2    0    0  0.37878076910E+02 -0.93628874422E+02  0.93594961487E+02  0.18597898568E+03  0.12500820558E+03 0.  0.
          2    1    1    2  501    0 -0.88758091405E+01  0.10649129135E+03  0.12997267916E+03  0.16826191622E+03  0.00000000000E+00 0. -1.
          1    1    1    2  502    0 -0.29002267769E+02 -0.12862416932E+02  0.53366376002E+03  0.53460600639E+03  0.00000000000E+00 0. -1.
         22    1    3    3    0    0 -0.30557196804E+02  0.91528600197E+01  0.14942981746E+01  0.31933525488E+02  0.00000000000E+00 0. -1.
         22    1    3    3    0    0  0.68435273714E+02 -0.10278173444E+03  0.92100663312E+02  0.15404546019E+03  0.00000000000E+00 0. -1.
</event>
<event>
 7    1  0.6520971E-006  0.8822481E+02  0.7818608E-02  0.1403237E+00
          2   -1    0    0  502    0  0.00000000000E+00  0.00000000000E+00  0.33455129560E+03  0.33455129560E+03  0.00000000000E+00 0. -1.
          1   -1    0    0  501    0 -0.00000000000E+00 -0.00000000000E+00 -0.28077536530E+04  0.28077536530E+04  0.00000000000E+00 0. -1.
         25    2    1    2    0    0 -0.12035934114E+02 -0.50709001556E+02 -0.73149912054E+02  0.15392389588E+03  0.12500155815E+03 0.  0.
          2    1    1    2  501    0 -0.18529068476E+02 -0.34427199690E+02 -0.26871172513E+04  0.26874016597E+04  0.00000000000E+00 0. -1.
          1    1    1    2  502    0  0.30565002590E+02  0.85136201246E+02  0.28706480599E+03  0.30097939296E+03  0.00000000000E+00 0. -1.
         22    1    3    3    0    0  0.40580659544E+02 -0.36124899385E+02 -0.82246220122E+02  0.98570984619E+02  0.00000000000E+00 0. -1.
         22    1    3    3    0    0 -0.52616593657E+02 -0.14584102171E+02  0.90963080678E+01  0.55352911258E+02  0.00000000000E+00 0. -1.
</event>
<event>
 7    1  0.6520971E-006  0.4589159E+02  0.7818608E-02  0.1534957E+00
          2   -1    0    0  502    0  0.00000000000E+00  0.00000000000E+00  0.52224580810E+03  0.52224580810E+03  0.00000000000E+00 0. -1.
          1   -1    0    0  501    0 -0.00000000000E+00 -0.00000000000E+00 -0.32272136837E+03  0.32272136837E+03  0.00000000000E+00 0. -1.
         25    2    1    2    0    0  0.13979001668E+02 -0.52452933242E+02  0.41367694908E+03  0.43554679968E+03  0.12500269521E+03 0.  0.
          2    1    1    2  501    0  0.18800845085E+02  0.22297843056E+02 -0.30597682393E+03  0.30736376228E+03  0.00000000000E+00 0. -1.
          1    1    1    2  502    0 -0.32779846753E+02  0.30155090186E+02  0.91824314577E+02  0.10205661451E+03  0.00000000000E+00 0. -1.
         22    1    3    3    0    0 -0.36406011499E+02  0.24085134163E+02  0.15913206036E+03  0.16501061783E+03  0.00000000000E+00 0.  1.
         22    1    3    3    0    0  0.50385013167E+02 -0.76538067405E+02  0.25454488873E+03  0.27053618185E+03  0.00000000000E+00 0.  1.
</event>
<event>
 7    1  0.6520971E-006  0.8149630E+02  0.7818608E-02  0.1373026E+00
          2   -1    0    0  502    0  0.00000000000E+00  0.00000000000E+00  0.12952010531E+04  0.12952010531E+04  0.00000000000E+00 0. -1.
          1   -1    0    0  501    0 -0.00000000000E+00 -0.00000000000E+00 -0.40672356051E+02  0.40672356051E+02  0.00000000000E+00 0. -1.
         25    2    1    2    0    0  0.10311386169E+03 -0.34127283129E+02  0.55935228969E+03  0.58335023347E+03  0.12500148392E+03 0.  0.
          2    1    1    2  501    0 -0.25847406702E+02  0.47402118026E+02  0.10684676709E+01  0.54001767098E+02  0.00000000000E+00 0. -1.
          1    1    1    2  502    0 -0.77266454993E+02 -0.13274834896E+02  0.69410793971E+03  0.69852140860E+03  0.00000000000E+00 0. -1.
         22    1    3    3    0    0  0.12063208600E+03 -0.42439491754E+02  0.54339105023E+03  0.55823565284E+03  0.00000000000E+00 0.  1.
         22    1    3    3    0    0 -0.17518224306E+02  0.83122086245E+01  0.15961239455E+02  0.25114580625E+02  0.00000000000E+00 0.  1.
</event>
<event>
 7    1  0.6520971E-006  0.4639501E+02  0.7818608E-02  0.1575665E+00
          2   -1    0    0  502    0  0.00000000000E+00  0.00000000000E+00  0.17985167535E+03  0.17985167535E+03  0.00000000000E+00 0. -1.
          1   -1    0    0  501    0 -0.00000000000E+00 -0.00000000000E+00 -0.12469319482E+04  0.12469319482E+04  0.00000000000E+00 0. -1.
         25    2    1    2    0    0 -0.27949996789E+01  0.68432907902E+02  0.10275180964E+03  0.17571372098E+03  0.12500600965E+03 0.  0.
          2    1    1    2  501    0  0.27823205788E+00 -0.46323793993E+02 -0.12069254217E+04  0.12078141185E+04  0.00000000000E+00 0. -1.
          1    1    1    2  502    0  0.25167676210E+01 -0.22109113909E+02  0.37093339241E+02  0.43255784043E+02  0.00000000000E+00 0. -1.
         22    1    3    3    0    0  0.51074702845E+01 -0.27786437818E+02 -0.74365417950E+01  0.29214286457E+02  0.00000000000E+00 0.  1.
         22    1    3    3    0    0 -0.79024699635E+01  0.96219345720E+02  0.11018835144E+03  0.14649943452E+03  0.00000000000E+00 0.  1.
</event>
<event>
 7    1  0.6520971E-006  0.8884829E+02  0.7818608E-02  0.1371835E+00
          2   -1    0    0  502    0  0.00000000000E+00  0.00000000000E+00  0.11044925264E+04  0.11044925264E+04  0.00000000000E+00 0. -1.
          1   -1    0    0  501    0 -0.00000000000E+00 -0.00000000000E+00 -0.81959160416E+02  0.81959160416E+02  0.00000000000E+00 0. -1.
         25    2    1    2    0    0  0.42264591752E+02 -0.59414293359E+02  0.44371589329E+03  0.46670801389E+03  0.12496488426E+03 0.  0.
          2    1    1    2  501    0  0.45825242695E+02  0.20031712096E+02 -0.57468358507E+02  0.76182902196E+02  0.00000000000E+00 0. -1.
          1    1    1    2  502    0 -0.88089834447E+02  0.39382581263E+02  0.63628583125E+03  0.64356077078E+03  0.00000000000E+00 0. -1.
         22    1    3    3    0    0  0.29917320113E+00  0.18345680775E+02  0.28057727011E+03  0.28117656021E+03  0.00000000000E+00 0.  1.
         22    1    3    3    0    0  0.41965418550E+02 -0.77759974134E+02  0.16313862318E+03  0.18553145368E+03  0.00000000000E+00 0.  1.
</event>
<event>
 7    1  0.6520971E-006  0.7239758E+02  0.7818608E-02  0.1402075E+00
          2   -1    0    0  502    0  0.00000000000E+00  0.00000000000E+00  0.74374633310E+03  0.74374633310E+03  0.00000000000E+00 0. -1.
          1   -1    0    0  501    0 -0.00000000000E+00 -0.00000000000E+00 -0.70226152181E+03  0.70226152181E+03  0.00000000000E+00 0. -1.
         25    2    1    2    0    0 -0.92263755057E+02 -0.17852305760E+02 -0.43462216329E+02  0.16231388875E+03  0.12500211564E+03 0.  0.
          2    1    1    2  501    0  0.54301785548E+02  0.47361575263E+02 -0.59635760642E+03  0.60069476230E+03  0.00000000000E+00 0. -1.
          1    1    1    2  502    0  0.37961969509E+02 -0.29509269503E+02  0.68130463404E+03  0.68299920386E+03  0.00000000000E+00 0. -1.
         22    1    3    3    0    0 -0.10020225088E+03  0.19776297215E+02 -0.62148355909E+02  0.11955756419E+03  0.00000000000E+00 0.  1.
         22    1    3    3    0    0  0.79384958211E+01 -0.37628602976E+02  0.18686139580E+02  0.42756324564E+02  0.00000000000E+00 0.  1.
</event>
<event>
 7    1  0.6520971E-006  0.5325495E+02  0.7818608E-02  0.1480825E+00
          2   -1    0    0  502    0  0.00000000000E+00  0.00000000000E+00  0.24953621421E+03  0.24953621421E+03  0.00000000000E+00 0. -1.
          1   -1    0    0  501    0 -0.00000000000E+00 -0.00000000000E+00 -0.30304170621E+03  0.30304170621E+03  0.00000000000E+00 0. -1.
         25    2    1    2    0    0  0.27368119753E+02 -0.15716215657E+02  0.13705597924E+03  0.18816606117E+03  0.12500444680E+03 0.  0.
          2    1    1    2  501    0 -0.17714486086E+02  0.50726693206E+02 -0.27093643461E+03  0.27621287446E+03  0.00000000000E+00 0. -1.
          1    1    1    2  502    0 -0.96536336665E+01 -0.35010477549E+02  0.80374963371E+02  0.88198984790E+02  0.00000000000E+00 0. -1.
         22    1    3    3    0    0  0.50025029950E+02  0.39515876193E+02  0.97711249595E+02  0.11666831785E+03  0.00000000000E+00 0. -1.
         22    1    3    3    0    0 -0.22656910197E+02 -0.55232091850E+02  0.39344729643E+02  0.71497743324E+02  0.00000000000E+00 0. -1.
</event>
<event>
 7    1  0.6520971E-006  0.1839088E+03  0.7818608E-02  0.1243889E+00
          2   -1    0    0  502    0  0.00000000000E+00  0.00000000000E+00  0.54252540188E+03  0.54252540188E+03  0.00000000000E+00 0. -1.
          1   -1    0    0  501    0 -0.00000000000E+00 -0.00000000000E+00 -0.37911227855E+03  0.37911227855E+03  0.00000000000E+00 0. -1.
         25    2    1    2    0    0 -0.37769783621E+02 -0.59131976266E+02  0.36046423864E+03  0.38791900165E+03  0.12499414918E+03 0.  0.
          2    1    1    2  501    0 -0.16065662061E+03  0.89509175222E+02 -0.26432327669E+03  0.32200813156E+03  0.00000000000E+00 0. -1.
          1    1    1    2  502    0  0.19842640423E+03 -0.30377198956E+02  0.67272161368E+02  0.21171054722E+03  0.00000000000E+00 0. -1.
         22    1    3    3    0    0 -0.33017361678E+02 -0.65347503569E+02  0.84346909180E+02  0.11169083885E+03  0.00000000000E+00 0. -1.
         22    1    3    3    0    0 -0.47524219425E+01  0.62155273024E+01  0.27611732946E+03  0.27622816280E+03  0.00000000000E+00 0. -1.
</event>
<event>
 7    1  0.6520971E-006  0.6889474E+02  0.7818608E-02  0.1370956E+00
          2   -1    0    0  502    0  0.00000000000E+00  0.00000000000E+00  0.28636304505E+04  0.28636304505E+04  0.00000000000E+00 0. -1.
          1   -1    0    0  501    0 -0.00000000000E+00 -0.00000000000E+00 -0.22021164829E+03  0.22021164829E+03  0.00000000000E+00 0. -1.
         25    2    1    2    0    0 -0.78695377463E+02  0.10074634515E+03 -0.39212656823E+02  0.18303941432E+03  0.12499202473E+03 0.  0.
          2    1    1    2  501    0  0.22787216942E+02 -0.60839460380E+02 -0.98950968249E+02  0.11837225736E+03  0.00000000000E+00 0. -1.
          1    1    1    2  502    0  0.55908160521E+02 -0.39906884772E+02  0.27815824273E+04  0.27824304271E+04  0.00000000000E+00 0. -1.
         22    1    3    3    0    0 -0.43850612995E+02 -0.16132441857E+02 -0.39335371957E+02  0.61077028638E+02  0.00000000000E+00 0. -1.
         22    1    3    3    0    0 -0.34844764468E+02  0.11687878701E+03  0.12271513376E+00  0.12196238569E+03  0.00000000000E+00 0. -1.
</event>
<event>
 7    1  0.6520971E-006  0.9281681E+02  0.7818608E-02  0.1341110E+00
          2   -1    0    0  502    0  0.00000000000E+00  0.00000000000E+00  0.94283738317E+03  0.94283738317E+03  0.00000000000E+00 0. -1.
          1   -1    0    0  501    0 -0.00000000000E+00 -0.00000000000E+00 -0.10457715806E+03  0.10457715806E+03  0.00000000000E+00 0. -1.
         25    2    1    2    0    0  0.46426911737E+02  0.20005970393E+02  0.32534908920E+03  0.35218226866E+03  0.12499849410E+03 0.  0.
          2    1    1    2  501    0 -0.51552642172E+02 -0.81858725150E+02 -0.63351446792E+02  0.11563706849E+03  0.00000000000E+00 0. -1.
          1    1    1    2  502    0  0.51257304348E+01  0.61852754757E+02  0.57626258270E+03  0.57959520409E+03  0.00000000000E+00 0. -1.
         22    1    3    3    0    0  0.82084975836E+02 -0.16573680116E+02  0.20009449162E+03  0.21691112399E+03  0.00000000000E+00 0. -1.
         22    1    3    3    0    0 -0.35658064099E+02  0.36579650509E+02  0.12525459758E+03  0.13527114467E+03  0.00000000000E+00 0. -1.
</event>
<event>
 7    1  0.6520971E-006  0.6506843E+02  0.7818608E-02  0.1388787E+00
          2   -1    0    0  502    0  0.00000000000E+00  0.00000000000E+00  0.11983456468E+04  0.11983456468E+04  0.00000000000E+00 0. -1.
          1   -1    0    0  501    0 -0.00000000000E+00 -0.00000000000E+00 -0.14649712349E+03  0.14649712349E+03  0.00000000000E+00 0. -1.
         25    2    1    2    0    0 -0.26201498236E+02  0.11768979707E+03  0.11148361191E+03  0.20637564079E+03  0.12499961018E+03 0.  0.
          2    1    1    2  501    0  0.19316055302E+02 -0.58613576677E+02 -0.88495333334E+02  0.10788922738E+03  0.00000000000E+00 0. -1.
          1    1    1    2  502    0  0.68854429339E+01 -0.59076220390E+02  0.10288602447E+04  0.10305779021E+04  0.00000000000E+00 0. -1.
         22    1    3    3    0    0 -0.20612114783E+02  0.22983478732E+02  0.10703712555E+03  0.11140038517E+03  0.00000000000E+00 0.  1.
         22    1    3    3    0    0 -0.55893834526E+01  0.94706318335E+02  0.44464863609E+01  0.94975255625E+02  0.00000000000E+00 0.  1.
</event>
<event>
 7    1  0.6520971E-006  0.9843245E+02  0.7818608E-02  0.1408243E+00
          2   -1    0    0  502    0  0.00000000000E+00  0.00000000000E+00  0.10595003493E+04  0.10595003493E+04  0.00000000000E+00 0. -1.
          1   -1    0    0  501    0 -0.00000000000E+00 -0.00000000000E+00 -0.22950980657E+04  0.22950980657E+04  0.00000000000E+00 0. -1.
         25    2    1    2    0    0  0.58847396459E+02 -0.76602001327E+02  0.75024131696E+03  0.76669246839E+03  0.12499769893E+03 0.  0.
          2    1    1    2  501    0 -0.82931409243E+02  0.53041609824E+02 -0.22848666055E+04  0.22869863218E+04  0.00000000000E+00 0. -1.
          1    1    1    2  502    0  0.24084012784E+02  0.23560391503E+02  0.29902757218E+03  0.30091962489E+03  0.00000000000E+00 0. -1.
         22    1    3    3    0    0  0.54700795533E+02 -0.96778769001E+02  0.38125941079E+03  0.39713605411E+03  0.00000000000E+00 0. -1.
         22    1    3    3    0    0  0.41466009265E+01  0.20176767674E+02  0.36898190617E+03  0.36955641428E+03  0.00000000000E+00 0. -1.
</event>
<event>
 7    1  0.6520971E-006  0.1179202E+03  0.7818608E-02  0.1267116E+00
          2   -1    0    0  502    0  0.00000000000E+00  0.00000000000E+00  0.20546266336E+04  0.20546266336E+04  0.00000000000E+00 0. -1.
          1   -1    0    0  501    0 -0.00000000000E+00 -0.00000000000E+00 -0.24556568691E+03  0.24556568691E+03  0.00000000000E+00 0. -1.
         25    2    1    2    0    0  0.36092174148E+02 -0.19312995251E+03  0.46244399959E+03  0.51776469417E+03  0.12499600866E+03 0.  0.
          2    1    1    2  501    0 -0.51371654883E+02  0.81402393466E+02 -0.20512846559E+03  0.22659012332E+03  0.00000000000E+00 0. -1.
          1    1    1    2  502    0  0.15279480734E+02  0.11172755905E+03  0.15517454127E+04  0.15558375031E+04  0.00000000000E+00 0. -1.
         22    1    3    3    0    0 -0.21601576946E+02  0.90112964031E+00  0.14020473337E+02  0.25768465879E+02  0.00000000000E+00 0.  1.
         22    1    3    3    0    0  0.57693751095E+02 -0.19403108215E+03  0.44842352625E+03  0.49199622829E+03  0.00000000000E+00 0.  1.
</event>
<event>
 7    1  0.6520971E-006  0.3356230E+03  0.7818608E-02  0.1253003E+00
          2   -1    0    0  502    0  0.00000000000E+00  0.00000000000E+00  0.21403789902E+03  0.21403789902E+03  0.00000000000E+00 0. -1.
          1   -1    0    0  501    0 -0.00000000000E+00 -0.00000000000E+00 -0.17691907605E+04  0.17691907605E+04  0.00000000000E+00 0. -1.
         25    2    1    2    0    0  0.33089083998E+03  0.58344914129E+02 -0.31620048700E+03  0.47800994390E+03  0.12497152275E+03 0.  0.
          2    1    1    2  501    0 -0.87402942912E+01  0.37854769476E+02 -0.11589799002E+04  0.11596308833E+04  0.00000000000E+00 0. -1.
          1    1    1    2  502    0 -0.32215054569E+03 -0.96199683605E+02 -0.79972474224E+02  0.34558783232E+03  0.00000000000E+00 0. -1.
         22    1    3    3    0    0  0.24063966451E+02 -0.20463237104E+02 -0.70014584600E+02  0.76810550127E+02  0.00000000000E+00 0. -1.
         22    1    3    3    0    0  0.30682687353E+03  0.78808151233E+02 -0.24618590240E+03  0.40119939377E+03  0.00000000000E+00 0. -1.
</event>
<event>
 7    1  0.6520971E-006  0.7921196E+02  0.7818608E-02  0.1344332E+00
          2   -1    0    0  502    0  0.00000000000E+00  0.00000000000E+00  0.22991669601E+04  0.22991669601E+04  0.00000000000E+00 0. -1.
          1   -1    0    0  501    0 -0.00000000000E+00 -0.00000000000E+00 -0.25351574105E+03  0.25351574105E+03  0.00000000000E+00 0. -1.
         25    2    1    2    0    0  0.93128382656E+01 -0.72865039554E+02  0.39080269000E+03  0.41683176727E+03  0.12500374694E+03 0.  0.
          2    1    1    2  501    0 -0.68671531631E+02  0.16943725790E+02 -0.23440199507E+03  0.24484110029E+03  0.00000000000E+00 0. -1.
          1    1    1    2  502    0  0.59358693365E+02  0.55921313764E+02  0.18892505241E+04  0.18910098336E+04  0.00000000000E+00 0. -1.
         22    1    3    3    0    0  0.96769064734E+01 -0.87645209866E+02  0.13909238293E+03  0.16468763257E+03  0.00000000000E+00 0. -1.
         22    1    3    3    0    0 -0.36406820786E+00  0.14780170313E+02  0.25171030707E+03  0.25214413470E+03  0.00000000000E+00 0. -1.
</event>
<event>
 7    1  0.6520971E-006  0.9157794E+02  0.7818608E-02  0.1400276E+00
          2   -1    0    0  502    0  0.00000000000E+00  0.00000000000E+00  0.15628064178E+03  0.15628064178E+03  0.00000000000E+00 0. -1.
          1   -1    0    0  501    0 -0.00000000000E+00 -0.00000000000E+00 -0.36713449740E+03  0.36713449740E+03  0.00000000000E+00 0. -1.
         25    2    1    2    0    0 -0.52016874957E+02 -0.66578956028E+02 -0.52938625557E+02  0.15988771239E+03  0.12499227909E+03 0.  0.
          2    1    1    2  501    0  0.29359380659E+02 -0.24992107475E+02 -0.23719267588E+03  0.24030593867E+03  0.00000000000E+00 0. -1.
          1    1    1    2  502    0  0.22657494297E+02  0.91571063503E+02  0.79277445813E+02  0.12322148812E+03  0.00000000000E+00 0. -1.
         22    1    3    3    0    0 -0.52352785672E+02  0.70837688081E+01 -0.66557526348E+02  0.84975868702E+02  0.00000000000E+00 0. -1.
         22    1    3    3    0    0  0.33591071558E+00 -0.73662724836E+02  0.13618900791E+02  0.74911843690E+02  0.00000000000E+00 0. -1.
</event>
<event>
 7    1  0.6520971E-006  0.1742913E+03  0.7818608E-02  0.1255531E+00
          2   -1    0    0  502    0  0.00000000000E+00  0.00000000000E+00  0.12235016914E+04  0.12235016914E+04  0.00000000000E+00 0. -1.
          1   -1    0    0  501    0 -0.00000000000E+00 -0.00000000000E+00 -0.85117912890E+03  0.85117912890E+03  0.00000000000E+00 0. -1.
         25    2    1    2    0    0  0.20133231546E+03 -0.13716435790E+03  0.30153257765E+03  0.40730299439E+03  0.12500028612E+03 0.  0.
          2    1    1    2  501    0 -0.13441593580E+03  0.10808947860E+03 -0.78741088961E+03  0.80608119210E+03  0.00000000000E+00 0. -1.
          1    1    1    2  502    0 -0.66916379663E+02  0.29074879300E+02  0.85820087447E+03  0.86129663381E+03  0.00000000000E+00 0. -1.
         22    1    3    3    0    0 -0.14337543419E+02 -0.98540142680E+01  0.30363060989E+01  0.17660291708E+02  0.00000000000E+00 0.  1.
         22    1    3    3    0    0  0.21566985888E+03 -0.12731034363E+03  0.29849627155E+03  0.38964270268E+03  0.00000000000E+00 0.  1.
</event>
<event>
 7    1  0.6520971E-006  0.1607819E+03  0.7818608E-02  0.1198666E+00
          2   -1    0    0  502    0  0.00000000000E+00  0.00000000000E+00  0.11847527837E+04  0.11847527837E+04  0.00000000000E+00 0. -1.
          1   -1    0    0  501    0 -0.00000000000E+00 -0.00000000000E+00 -0.56469128009E+03  0.56469128009E+03  0.00000000000E+00 0. -1.
         25    2    1    2    0    0  0.16294505996E+03 -0.45731504330E+01  0.86325645724E+02  0.22282100138E+03  0.12500030112E+03 0.  0.
          2    1    1    2  501    0 -0.55602904035E+02  0.13143995783E+03 -0.47927429723E+03  0.50007199225E+03  0.00000000000E+00 0. -1.
          1    1    1    2  502    0 -0.10734215592E+03 -0.12686680739E+03  0.10130101551E+04  0.10265510702E+04  0.00000000000E+00 0. -1.
         22    1    3    3    0    0  0.43598695914E+02  0.51623684356E+02  0.47884687028E+01  0.67740538117E+02  0.00000000000E+00 0. -1.
         22    1    3    3    0    0  0.11934636404E+03 -0.56196834789E+02  0.81537177021E+02  0.15508046327E+03  0.00000000000E+00 0. -1.
</event>
<event>
 7    1  0.6520971E-006  0.1395703E+03  0.7818608E-02  0.1225386E+00
          2   -1    0    0  502    0  0.00000000000E+00  0.00000000000E+00  0.53130743181E+03  0.53130743181E+03  0.00000000000E+00 0. -1.
          1   -1    0    0  501    0 -0.00000000000E+00 -0.00000000000E+00 -0.35909595358E+04  0.35909595358E+04  0.00000000000E+00 0. -1.
         25    2    1    2    0    0  0.17343929103E+03 -0.15758637282E+03 -0.14537777217E+04  0.14778395403E+04  0.12500156171E+03 0.  0.
          2    1    1    2  501    0 -0.40404823679E+02  0.11693290047E+03 -0.21139935618E+04  0.21176105950E+04  0.00000000000E+00 0. -1.
          1    1    1    2  502    0 -0.13303446735E+03  0.40653472357E+02  0.50811917939E+03  0.52681683228E+03  0.00000000000E+00 0. -1.
         22    1    3    3    0    0  0.18286080089E+03 -0.10525035659E+03 -0.12180373511E+04  0.12361758365E+04  0.00000000000E+00 0.  1.
         22    1    3    3    0    0 -0.94215098676E+01 -0.52336016236E+02 -0.23574037053E+03  0.24166370381E+03  0.00000000000E+00 0.  1.
</event>
<event>
 7    1  0.1271715E-005  0.9181087E+02  0.7818608E-02  0.1407130E+00
          2   -1    0    0  502    0  0.00000000000E+00  0.00000000000E+00  0.18386768414E+04  0.18386768414E+04  0.00000000000E+00 0. -1.
          1   -1    0    0  501    0 -0.00000000000E+00 -0.00000000000E+00 -0.78354978015E+03  0.78354978015E+03  0.00000000000E+00 0. -1.
         25    2    1    2    0    0 -0.51958671427E+02  0.35236068859E+02 -0.26104647227E+03  0.29615947025E+03  0.12499554810E+03 0.  0.
          2    1    1    2  501    0 -0.35674608492E+02 -0.74178337305E+01 -0.50312705344E+03  0.50444477780E+03  0.00000000000E+00 0. -1.
          1    1    1    2  502    0  0.87633279919E+02 -0.27818235129E+02  0.18193005869E+04  0.18216223735E+04  0.00000000000E+00 0. -1.
         22    1    3    3    0    0  0.21109458744E+02 -0.28579027040E+02 -0.33657228562E+02  0.48940566705E+02  0.00000000000E+00 0.  1.
         22    1    3    3    0    0 -0.73068130170E+02  0.63815095899E+02 -0.22738924371E+03  0.24721890354E+03  0.00000000000E+00 0.  1.
</event>
<event>
 7    1  0.6520971E-006  0.1465317E+03  0.7818608E-02  0.1341164E+00
          2   -1    0    0  502    0  0.00000000000E+00  0.00000000000E+00  0.24377075434E+04  0.24377075434E+04  0.00000000000E+00 0. -1.
          1   -1    0    0  501    0 -0.00000000000E+00 -0.00000000000E+00 -0.27551258511E+04  0.27551258511E+04  0.00000000000E+00 0. -1.
         25    2    1    2    0    0 -0.98054860117E+02  0.57708355152E+02  0.66018455355E+02  0.18146155331E+03  0.12499939614E+03 0.  0.
          2    1    1    2  501    0 -0.39210512406E+02 -0.25743566059E+01 -0.26948968496E+04  0.26951833187E+04  0.00000000000E+00 0. -1.
          1    1    1    2  502    0  0.13726537252E+03 -0.55133998546E+02  0.23114600865E+04  0.23161885225E+04  0.00000000000E+00 0. -1.
         22    1    3    3    0    0 -0.40978922032E+01 -0.58581071876E+01  0.67633378948E+02  0.68010176358E+02  0.00000000000E+00 0. -1.
         22    1    3    3    0    0 -0.93956967914E+02  0.63566462339E+02 -0.16149235932E+01  0.11345137695E+03  0.00000000000E+00 0. -1.
</event>
<event>
 7    1  0.6520971E-006  0.6421203E+02  0.7818608E-02  0.1460889E+00
          2   -1    0    0  502    0  0.00000000000E+00  0.00000000000E+00  0.10380332311E+04  0.10380332311E+04  0.00000000000E+00 0. -1.
          1   -1    0    0  501    0 -0.00000000000E+00 -0.00000000000E+00 -0.54004713002E+03  0.54004713002E+03  0.00000000000E+00 0. -1.
         25    2    1    2    0    0 -0.30923132673E+02  0.15350216370E+02  0.33052917716E+02  0.13382442114E+03  0.12499844418E+03 0.  0.
          2    1    1    2  501    0  0.64652534641E+02 -0.70432676730E+01 -0.48718381519E+03  0.49150547061E+03  0.00000000000E+00 0. -1.
          1    1    1    2  502    0 -0.33729401968E+02 -0.83069486975E+01  0.95211699851E+03  0.95275046933E+03  0.00000000000E+00 0. -1.
         22    1    3    3    0    0  0.35868684209E+02  0.35943526445E+02 -0.99722508075E+01  0.51748868455E+02  0.00000000000E+00 0. -1.
         22    1    3    3    0    0 -0.66791816882E+02 -0.20593310074E+02  0.43025168524E+02  0.82075552686E+02  0.00000000000E+00 0. -1.
</event>
<event>
 7    1  0.6520971E-006  0.7144856E+02  0.7818608E-02  0.1408894E+00
          2   -1    0    0  502    0  0.00000000000E+00  0.00000000000E+00  0.10768902009E+04  0.10768902009E+04  0.00000000000E+00 0. -1.
          1   -1    0    0  501    0 -0.00000000000E+00 -0.00000000000E+00 -0.70314644505E+02  0.70314644505E+02  0.00000000000E+00 0. -1.
         25    2    1    2    0    0  0.22737967200E+02  0.36259823620E+02  0.12241856180E+03  0.18011539026E+03  0.12499383814E+03 0.  0.
          2    1    1    2  501    0  0.45304707853E+02 -0.89497843170E+01 -0.26661976065E+02  0.53324254900E+02  0.00000000000E+00 0. -1.
          1    1    1    2  502    0 -0.68042675053E+02 -0.27310039303E+02  0.91081897061E+03  0.91376520020E+03  0.00000000000E+00 0. -1.
         22    1    3    3    0    0 -0.20870793221E+02  0.44401659185E+02  0.12638723972E+03  0.13557592600E+03  0.00000000000E+00 0. -1.
         22    1    3    3    0    0  0.43608760421E+02 -0.81418355653E+01 -0.39686779135E+01  0.44539464256E+02  0.00000000000E+00 0. -1.
</event>
<event>
 7    1  0.6520971E-006  0.9188461E+02  0.7818608E-02  0.1454029E+00
          2   -1    0    0  502    0  0.00000000000E+00  0.00000000000E+00  0.22293354870E+03  0.22293354870E+03  0.00000000000E+00 0. -1.
          1   -1    0    0  501    0 -0.00000000000E+00 -0.00000000000E+00 -0.24390817578E+03  0.24390817578E+03  0.00000000000E+00 0. -1.
         25    2    1    2    0    0 -0.55750156401E+02 -0.83690918974E+02 -0.35218013819E+02  0.16424508998E+03  0.12499556483E+03 0.  0.
          2    1    1    2  501    0  0.67035842717E+02  0.60801451897E+02 -0.12873214245E+03  0.15736132073E+03  0.00000000000E+00 0. -1.
          1    1    1    2  502    0 -0.11285686316E+02  0.22889467077E+02  0.14297552919E+03  0.14523531377E+03  0.00000000000E+00 0. -1.
         22    1    3    3    0    0  0.11979717085E+02 -0.73058123722E+02 -0.55750052303E+02  0.92677243134E+02  0.00000000000E+00 0.  1.
         22    1    3    3    0    0 -0.67729873486E+02 -0.10632795252E+02  0.20532038484E+02  0.71567846842E+02  0.00000000000E+00 0.  1.
</event>
<event>
 7    1  0.6520971E-006  0.1580577E+03  0.7818608E-02  0.1317236E+00
          2   -1    0    0  502    0  0.00000000000E+00  0.00000000000E+00  0.94133663675E+03  0.94133663675E+03  0.00000000000E+00 0. -1.
          1   -1    0    0  501    0 -0.00000000000E+00 -0.00000000000E+00 -0.10489406899E+04  0.10489406899E+04  0.00000000000E+00 0. -1.
         25    2    1    2    0    0  0.14684058160E+03  0.12141716423E+03 -0.13092775916E+03  0.26281163984E+03  0.12499438286E+03 0.  0.
          2    1    1    2  501    0 -0.13345446234E+03 -0.78478802713E+02 -0.84445121415E+03  0.85852598625E+03  0.00000000000E+00 0. -1.
          1    1    1    2  502    0 -0.13386119255E+02 -0.42938361514E+02  0.86777492018E+03  0.86893970054E+03  0.00000000000E+00 0. -1.
         22    1    3    3    0    0  0.89517482742E+01  0.81078271331E+02 -0.67012577115E+02  0.10556753938E+03  0.00000000000E+00 0.  1.
         22    1    3    3    0    0  0.13788883332E+03  0.40338892897E+02 -0.63915182042E+02  0.15724410047E+03  0.00000000000E+00 0.  1.
</event>
<event>
 7    1  0.6538123E-006  0.1002852E+03  0.7818608E-02  0.1361320E+00
          2   -1    0    0  502    0  0.00000000000E+00  0.00000000000E+00  0.13421000993E+04  0.13421000993E+04  0.00000000000E+00 0. -1.
          1   -1    0    0  501    0 -0.00000000000E+00 -0.00000000000E+00 -0.26542998360E+04  0.26542998360E+04  0.00000000000E+00 0. -1.
         25    2    1    2    0    0  0.43396792801E+02 -0.14037138274E+03 -0.20487921316E+03  0.28140389052E+03  0.12500100359E+03 0.  0.
          2    1    1    2  501    0 -0.22964290655E+02  0.42559791936E+02 -0.24090007858E+04  0.24094861445E+04  0.00000000000E+00 0. -1.
          1    1    1    2  502    0 -0.20432502146E+02  0.97811590809E+02  0.13016802623E+04  0.13055099003E+04  0.00000000000E+00 0. -1.
         22    1    3    3    0    0  0.53334493555E+02 -0.32945447784E+02 -0.17333039978E+02  0.65041563691E+02  0.00000000000E+00 0.  1.
         22    1    3    3    0    0 -0.99377007541E+01 -0.10742593496E+03 -0.18754617318E+03  0.21636232683E+03  0.00000000000E+00 0.  1.
</event>
<event>
 7    1  0.6520971E-006  0.1062253E+03  0.7818608E-02  0.1399245E+00
          2   -1    0    0  502    0  0.00000000000E+00  0.00000000000E+00  0.15106595025E+03  0.15106595025E+03  0.00000000000E+00 0. -1.
          1   -1    0    0  501    0 -0.00000000000E+00 -0.00000000000E+00 -0.16271321491E+04  0.16271321491E+04  0.00000000000E+00 0. -1.
         25    2    1    2    0    0 -0.81204223935E+02  0.20856784765E+02 -0.44769133490E+02  0.15702714473E+03  0.12499646960E+03 0.  0.
          2    1    1    2  501    0  0.93590942026E+02 -0.51996014303E+02 -0.15213354191E+04  0.15250981304E+04  0.00000000000E+00 0. -1.
          1    1    1    2  502    0 -0.12386718091E+02  0.31139229537E+02  0.90038353766E+02  0.96072824202E+02  0.00000000000E+00 0. -1.
         22    1    3    3    0    0 -0.11196372595E+03  0.71819227820E+01 -0.17176052905E+02  0.11350098121E+03  0.00000000000E+00 0. -1.
         22    1    3    3    0    0  0.30759502011E+02  0.13674861983E+02 -0.27593080584E+02  0.43526163515E+02  0.00000000000E+00 0. -1.
</event>
<event>
 7    1  0.6520971E-006  0.6567261E+02  0.7818608E-02  0.1381053E+00
          2   -1    0    0  502    0  0.00000000000E+00  0.00000000000E+00  0.28134164554E+03  0.28134164554E+03  0.00000000000E+00 0. -1.
          1   -1    0    0  501    0 -0.00000000000E+00 -0.00000000000E+00 -0.97610583767E+02  0.97610583767E+02  0.00000000000E+00 0. -1.
         25    2    1    2    0    0  0.33819131894E+02 -0.64843575922E+02  0.18405820474E+03  0.23420305134E+03  0.12500089401E+03 0.  0.
          2    1    1    2  501    0 -0.65546311890E+02  0.40709303322E+01 -0.27242565247E+02  0.71098866639E+02  0.00000000000E+00 0. -1.
          1    1    1    2  502    0  0.31727179996E+02  0.60772645590E+02  0.26915422280E+02  0.73650311330E+02  0.00000000000E+00 0. -1.
         22    1    3    3    0    0 -0.39343258467E+02 -0.52926231041E+02  0.57308621148E+02  0.87369079066E+02  0.00000000000E+00 0. -1.
         22    1    3    3    0    0  0.73162390361E+02 -0.11917344882E+02  0.12674958359E+03  0.14683397227E+03  0.00000000000E+00 0. -1.
</event>
<event>
 7    1  0.6520971E-006  0.4173955E+02  0.7818608E-02  0.1540920E+00
          2   -1    0    0  502    0  0.00000000000E+00  0.00000000000E+00  0.91937484070E+03  0.91937484070E+03  0.00000000000E+00 0. -1.
          1   -1    0    0  501    0 -0.00000000000E+00 -0.00000000000E+00 -0.47198540930E+02  0.47198540930E+02  0.00000000000E+00 0. -1.
         25    2    1    2    0    0  0.49510895202E+01 -0.47228105572E+02  0.33300659050E+03  0.35885020702E+03  0.12500029807E+03 0.  0.
          2    1    1    2  501    0  0.23299406773E+02  0.34849509938E+02 -0.20874351425E+02  0.46830430772E+02  0.00000000000E+00 0. -1.
          1    1    1    2  502    0 -0.28250496293E+02  0.12378595633E+02  0.56004406070E+03  0.56089274384E+03  0.00000000000E+00 0. -1.
         22    1    3    3    0    0 -0.32967051703E+02 -0.24152535139E+02  0.30188652660E+03  0.30464019169E+03  0.00000000000E+00 0. -1.
         22    1    3    3    0    0  0.37918141223E+02 -0.23075570432E+02  0.31120063900E+02  0.54210015327E+02  0.00000000000E+00 0. -1.
</event>
<event>
 7    1  0.6520971E-006  0.3376546E+03  0.7818608E-02  0.1160617E+00
          2   -1    0    0  502    0  0.00000000000E+00  0.00000000000E+00  0.18315259893E+04  0.18315259893E+04  0.00000000000E+00 0. -1.
          1   -1    0    0  501    0 -0.00000000000E+00 -0.00000000000E+00 -0.69273459919E+03  0.69273459919E+03  0.00000000000E+00 0. -1.
         25    2    1    2    0    0  0.23459243474E+03  0.14967938115E+03 -0.22156339457E+03  0.37702711904E+03  0.12498633164E+03 0.  0.
          2    1    1    2  501    0  0.91842178438E+02 -0.49353669432E+02 -0.36953244448E+03  0.38395963062E+03  0.00000000000E+00 0. -1.
          1    1    1    2  502    0 -0.32643461318E+03 -0.10032571172E+03  0.17298872291E+04  0.17632738388E+04  0.00000000000E+00 0. -1.
         22    1    3    3    0    0  0.82813511624E+02  0.24089279193E+02 -0.13865548963E+03  0.16329028105E+03  0.00000000000E+00 0.  1.
         22    1    3    3    0    0  0.15177892312E+03  0.12559010196E+03 -0.82907904935E+02  0.21373683799E+03  0.00000000000E+00 0.  1.
</event>
<event>
 7    1  0.6520971E-006  0.7300713E+02  0.7818608E-02  0.1419741E+00
          2   -1    0    0  502    0  0.00000000000E+00  0.00000000000E+00  0.11375681408E+03  0.11375681408E+03  0.00000000000E+00 0. -1.
          1   -1    0    0  501    0 -0.00000000000E+00 -0.00000000000E+00 -0.17182264269E+04  0.17182264269E+04  0.00000000000E+00 0. -1.
         25    2    1    2    0    0  0.70621945875E+02 -0.56757246456E+02 -0.21964122814E+03  0.26847071343E+03  0.12500164241E+03 0.  0.
          2    1    1    2  501    0 -0.71091094848E+02  0.15211353702E+02 -0.14683915005E+04  0.14701900992E+04  0.00000000000E+00 0. -1.
          1    1    1    2  502    0  0.46914897347E+00  0.41545892754E+02  0.83563115828E+02  0.93322428346E+02  0.00000000000E+00 0. -1.
         22    1    3    3    0    0  0.77481802877E+02 -0.86542562671E+02 -0.20243751704E+03  0.23339664358E+03  0.00000000000E+00 0. -1.
         22    1    3    3    0    0 -0.68598570021E+01  0.29785316215E+02 -0.17203711105E+02  0.35074069851E+02  0.00000000000E+00 0. -1.
</event>
<event>
 7    1  0.6520971E-006  0.3926369E+02  0.7818608E-02  0.1603626E+00
          2   -1    0    0  502    0  0.00000000000E+00  0.00000000000E+00  0.14933875759E+04  0.14933875759E+04  0.00000000000E+00 0. -1.
          1   -1    0    0  501    0 -0.00000000000E+00 -0.00000000000E+00 -0.38569034661E+03  0.38569034661E+03  0.00000000000E+00 0. -1.
         25    2    1    2    0    0 -0.42287570683E+02  0.31789792695E+02  0.19232685288E+03  0.23539993155E+03  0.12499871953E+03 0.  0.
          2    1    1    2  501    0  0.20191331437E+02 -0.33617781182E+02 -0.36300163453E+03  0.36511372441E+03  0.00000000000E+00 0. -1.
          1    1    1    2  502    0  0.22096239246E+02  0.18279884863E+01  0.12783720109E+04  0.12785642665E+04  0.00000000000E+00 0. -1.
         22    1    3    3    0    0  0.28703660983E+02  0.53817922778E+02  0.77658282189E+02  0.98747545582E+02  0.00000000000E+00 0. -1.
         22    1    3    3    0    0 -0.70991231666E+02 -0.22028130083E+02  0.11466857069E+03  0.13665238597E+03  0.00000000000E+00 0. -1.
</event>
<event>
 7    1  0.6520971E-006  0.1712108E+03  0.7818608E-02  0.1243950E+00
          2   -1    0    0  502    0  0.00000000000E+00  0.00000000000E+00  0.53456653381E+03  0.53456653381E+03  0.00000000000E+00 0. -1.
          1   -1    0    0  501    0 -0.00000000000E+00 -0.00000000000E+00 -0.44844876146E+04  0.44844876146E+04  0.00000000000E+00 0. -1.
         25    2    1    2    0    0  0.10342422490E+03 -0.12757537744E+03 -0.62252835482E+03  0.65584958963E+03  0.12500033772E+03 0.  0.
          2    1    1    2  501    0 -0.32312756817E+02  0.17112184228E+03 -0.38399560251E+04  0.38439028440E+04  0.00000000000E+00 0. -1.
          1    1    1    2  502    0 -0.71111468082E+02 -0.43546464836E+02  0.51256329909E+03  0.51930171487E+03  0.00000000000E+00 0. -1.
         22    1    3    3    0    0  0.39249541232E+02 -0.78250237900E+02 -0.13008316350E+03  0.15679686108E+03  0.00000000000E+00 0.  1.
         22    1    3    3    0    0  0.64174683667E+02 -0.49325139543E+02 -0.49244519132E+03  0.49905272855E+03  0.00000000000E+00 0.  1.
</event>
<event>
 7    1  0.6520971E-006  0.7167111E+02  0.7818608E-02  0.1478778E+00
          2   -1    0    0  502    0  0.00000000000E+00  0.00000000000E+00  0.75140055214E+03  0.75140055214E+03  0.00000000000E+00 0. -1.
          1   -1    0    0  501    0 -0.00000000000E+00 -0.00000000000E+00 -0.95869290392E+02  0.95869290392E+02  0.00000000000E+00 0. -1.
         25    2    1    2    0    0  0.50293297584E+02  0.89487777079E+01  0.35154862730E+03  0.37659231198E+03  0.12500334269E+03 0.  0.
          2    1    1    2  501    0  0.27375791268E+02  0.37258183112E+00 -0.77012606293E+02  0.81734413149E+02  0.00000000000E+00 0. -1.
          1    1    1    2  502    0 -0.77669088853E+02 -0.93213595390E+01  0.38099524074E+03  0.38894311740E+03  0.00000000000E+00 0. -1.
         22    1    3    3    0    0  0.24723686899E+02  0.64235721476E+02  0.13355120735E+03  0.15024451268E+03  0.00000000000E+00 0.  1.
         22    1    3    3    0    0  0.25569610685E+02 -0.55286943768E+02  0.21799741995E+03  0.22634779930E+03  0.00000000000E+00 0.  1.
</event>
<event>
 7    1  0.6520971E-006  0.1442548E+03  0.7818608E-02  0.1307070E+00
          2   -1    0    0  502    0  0.00000000000E+00  0.00000000000E+00  0.90462206247E+03  0.90462206247E+03  0.00000000000E+00 0. -1.
          1   -1    0    0  501    0 -0.00000000000E+00 -0.00000000000E+00 -0.14295932975E+03  0.14295932975E+03  0.00000000000E+00 0. -1.
         25    2    1    2    0    0 -0.65733569182E+02 -0.68403099920E+02  0.51536999747E+01  0.15701117293E+03  0.12500424635E+03 0.  0.
          2    1    1    2  501    0 -0.41423713362E+02 -0.34682108194E+02 -0.48101331250E+02  0.72336095592E+02  0.00000000000E+00 0. -1.
          1    1    1    2  502    0  0.10715728254E+03  0.10308520811E+03  0.80461036400E+03  0.81823412370E+03  0.00000000000E+00 0. -1.
         22    1    3    3    0    0 -0.15217185893E+02 -0.54133241758E+02  0.59213217338E+02  0.81658898580E+02  0.00000000000E+00 0. -1.
         22    1    3    3    0    0 -0.50516383289E+02 -0.14269858162E+02 -0.54059517363E+02  0.75352274352E+02  0.00000000000E+00 0. -1.
</event>
<event>
 7    1  0.6520971E-006  0.4503960E+03  0.7818608E-02  0.1118182E+00
          2   -1    0    0  502    0  0.00000000000E+00  0.00000000000E+00  0.95529893515E+03  0.95529893515E+03  0.00000000000E+00 0. -1.
          1   -1    0    0  501    0 -0.00000000000E+00 -0.00000000000E+00 -0.93919558582E+03  0.93919558582E+03  0.00000000000E+00 0. -1.
         25    2    1    2    0    0 -0.18077585945E+03  0.44771243606E+03  0.28431095896E+03  0.57409248487E+03  0.12499249191E+03 0.  0.
          2    1    1    2  501    0 -0.83303469934E+02 -0.10044521576E+03 -0.69674845795E+03  0.70886326123E+03  0.00000000000E+00 0. -1.
          1    1    1    2  502    0  0.26407932938E+03 -0.34726722030E+03  0.42854084831E+03  0.61153877487E+03  0.00000000000E+00 0. -1.
         22    1    3    3    0    0  0.94505027395E+01  0.98625624538E+02  0.36270733099E+02  0.10550778122E+03  0.00000000000E+00 0.  1.
         22    1    3    3    0    0 -0.19022636219E+03  0.34908681152E+03  0.24804022587E+03  0.46858470365E+03  0.00000000000E+00 0.  1.
</event>
<event>
 7    1  0.6520971E-006  0.1256101E+03  0.7818608E-02  0.1244373E+00
          2   -1    0    0  502    0  0.00000000000E+00  0.00000000000E+00  0.15852570149E+04  0.15852570149E+04  0.00000000000E+00 0. -1.
          1   -1    0    0  501    0 -0.00000000000E+00 -0.00000000000E+00 -0.54033048586E+02  0.54033048586E+02  0.00000000000E+00 0. -1.
         25    2    1    2    0    0 -0.36686275492E+02 -0.26371454717E+02  0.39984479781E+03  0.42135682197E+03  0.12499749058E+03 0.  0.
          2    1    1    2  501    0 -0.11565403439E+03  0.49010742107E+02  0.66793686359E+02  0.14226491152E+03  0.00000000000E+00 0. -1.
          1    1    1    2  502    0  0.15234030989E+03 -0.22639287391E+02  0.10645854821E+04  0.10756683299E+04  0.00000000000E+00 0. -1.
         22    1    3    3    0    0 -0.45211915181E+02  0.42832043162E+02  0.21332180220E+03  0.22222711916E+03  0.00000000000E+00 0. -1.
         22    1    3    3    0    0  0.85256396884E+01 -0.69203497879E+02  0.18652299561E+03  0.19912970281E+03  0.00000000000E+00 0. -1.
</event>
<event>
 7    1  0.6520971E-006  0.7944226E+02  0.7818608E-02  0.1391543E+00
          2   -1    0    0  502    0  0.00000000000E+00  0.00000000000E+00  0.41696277690E+03  0.41696277690E+03  0.00000000000E+00 0. -1.
          1   -1    0    0  501    0 -0.00000000000E+00 -0.00000000000E+00 -0.90511985800E+03  0.90511985800E+03  0.00000000000E+00 0. -1.
         25    2    1    2    0    0 -0.90240052732E+02 -0.62943819975E+02  0.20604434041E+02  0.16779386344E+03  0.12500018526E+03 0.  0.
          2    1    1    2  501    0  0.47592366903E+02 -0.23068346650E+01 -0.82612203331E+03  0.82749499623E+03  0.00000000000E+00 0. -1.
          1    1    1    2  502    0  0.42647685830E+02  0.65250654640E+02  0.31736051817E+03  0.32679377523E+03  0.00000000000E+00 0. -1.
         22    1    3    3    0    0  0.18074737924E+02 -0.18225327034E+02  0.41466765550E+02  0.48768343643E+02  0.00000000000E+00 0.  1.
         22    1    3    3    0    0 -0.10831479066E+03 -0.44718492941E+02 -0.20862331509E+02  0.11902551979E+03  0.00000000000E+00 0.  1.
</event>
<event>
 7    1  0.6520971E-006  0.1087431E+03  0.7818608E-02  0.1372556E+00
          2   -1    0    0  502    0  0.00000000000E+00  0.00000000000E+00  0.33100009041E+03  0.33100009041E+03  0.00000000000E+00 0. -1.
          1   -1    0    0  501    0 -0.00000000000E+00 -0.00000000000E+00 -0.46405033121E+03  0.46405033121E+03  0.00000000000E+00 0. -1.
         25    2    1    2    0    0  0.26616811242E+02  0.91240514207E+02  0.16087307088E+03  0.22480759263E+03  0.12500009079E+03 0.  0.
          2    1    1    2  501    0  0.38752666643E+02  0.12174267637E+02 -0.40377860685E+03  0.40581664001E+03  0.00000000000E+00 0. -1.
          1    1    1    2  502    0 -0.65369477886E+02 -0.10341478184E+03  0.10985529517E+03  0.16442618897E+03  0.00000000000E+00 0. -1.
         22    1    3    3    0    0  0.44861512856E+02 -0.14048971626E+02  0.71143878941E+02  0.85272389730E+02  0.00000000000E+00 0.  1.
         22    1    3    3    0    0 -0.18244701613E+02  0.10528948583E+03  0.89729191937E+02  0.13953520290E+03  0.00000000000E+00 0.  1.
</event>
<event>
 7    1  0.6520971E-006  0.3973490E+02  0.7818608E-02  0.1552173E+00
          2   -1    0    0  502    0  0.00000000000E+00  0.00000000000E+00  0.80421028170E+03  0.80421028170E+03  0.00000000000E+00 0. -1.
          1   -1    0    0  501    0 -0.00000000000E+00 -0.00000000000E+00 -0.81127802337E+02  0.81127802337E+02  0.00000000000E+00 0. -1.
         25    2    1    2    0    0 -0.17487139085E+02  0.10119719864E+02  0.81096347378E+02  0.15036463193E+03  0.12499878485E+03 0.  0.
          2    1    1    2  501    0  0.82498737382E+01  0.28978911133E+02 -0.40959045448E+02  0.50847626407E+02  0.00000000000E+00 0. -1.
          1    1    1    2  502    0  0.92372653469E+01 -0.39098630997E+02  0.68294517743E+03  0.68412582570E+03  0.00000000000E+00 0. -1.
         22    1    3    3    0    0  0.49882950322E+02 -0.49809519814E+01  0.97281289513E+01  0.51066183609E+02  0.00000000000E+00 0.  1.
         22    1    3    3    0    0 -0.67370089407E+02  0.15100671846E+02  0.71368218427E+02  0.99298448318E+02  0.00000000000E+00 0.  1.
</event>
<event>
 7    1  0.6520971E-006  0.6086956E+02  0.7818608E-02  0.1397293E+00
          2   -1    0    0  502    0  0.00000000000E+00  0.00000000000E+00  0.53207539276E+03  0.53207539276E+03  0.00000000000E+00 0. -1.
          1   -1    0    0  501    0 -0.00000000000E+00 -0.00000000000E+00 -0.31913377693E+03  0.31913377693E+03  0.00000000000E+00 0. -1.
         25    2    1    2    0    0 -0.20919053793E+01  0.14190523538E+02  0.13427529937E+02  0.12652831691E+03  0.12499347741E+03 0.  0.
          2    1    1    2  501    0  0.57003465047E+02  0.16690742821E+02 -0.25703348249E+03  0.26380710196E+03  0.00000000000E+00 0. -1.
          1    1    1    2  502    0 -0.54911559668E+02 -0.30881266359E+02  0.45654756838E+03  0.46087375081E+03  0.00000000000E+00 0. -1.
         22    1    3    3    0    0  0.11077558635E+02 -0.54176049288E+02  0.13431628902E+02  0.56904879199E+02  0.00000000000E+00 0. -1.
         22    1    3    3    0    0 -0.13169464015E+02  0.68366572825E+02 -0.40989646265E-02  0.69623437714E+02  0.00000000000E+00 0. -1.
</event>
<event>
 7    1  0.6520971E-006  0.1148483E+03  0.7818608E-02  0.1320419E+00
          2   -1    0    0  502    0  0.00000000000E+00  0.00000000000E+00  0.48537748704E+03  0.48537748704E+03  0.00000000000E+00 0. -1.
          1   -1    0    0  501    0 -0.00000000000E+00 -0.00000000000E+00 -0.11599447518E+03  0.11599447518E+03  0.00000000000E+00 0. -1.
         25    2    1    2    0    0  0.64497222662E+02  0.64864439223E+02  0.18547387248E+03  0.24166042434E+03  0.12502766139E+03 0.  0.
          2    1    1    2  501    0  0.58062521698E+02 -0.15745030648E+02 -0.58349219310E+02  0.83808077237E+02  0.00000000000E+00 0. -1.
          1    1    1    2  502    0 -0.12255974436E+03 -0.49119408575E+02  0.24225835869E+03  0.27590346064E+03  0.00000000000E+00 0. -1.
         22    1    3    3    0    0  0.29011448812E+01  0.67011390036E+02  0.28236986367E+02  0.72775479629E+02  0.00000000000E+00 0.  1.
         22    1    3    3    0    0  0.61596077780E+02 -0.21469508124E+01  0.15723688611E+03  0.16888494471E+03  0.00000000000E+00 0.  1.
</event>
<event>
 7    1  0.6520971E-006  0.8273728E+02  0.7818608E-02  0.1425311E+00
          2   -1    0    0  502    0  0.00000000000E+00  0.00000000000E+00  0.95284708387E+02  0.95284708387E+02  0.00000000000E+00 0. -1.
          1   -1    0    0  501    0 -0.00000000000E+00 -0.00000000000E+00 -0.23300809366E+04  0.23300809366E+04  0.00000000000E+00 0. -1.
         25    2    1    2    0    0 -0.12686797316E+02  0.10565266925E+03 -0.44557561718E+03  0.47485406971E+03  0.12500126220E+03 0.  0.
          2    1    1    2  501    0  0.24938319287E+02 -0.24743321300E+02 -0.18488973641E+04  0.18492310874E+04  0.00000000000E+00 0. -1.
          1    1    1    2  502    0 -0.12251521971E+02 -0.80909347947E+02  0.59676753026E+02  0.10128048789E+03  0.00000000000E+00 0. -1.
         22    1    3    3    0    0  0.16374652338E+02  0.11872076050E+03 -0.25655428412E+03  0.28316576226E+03  0.00000000000E+00 0.  1.
         22    1    3    3    0    0 -0.29061449654E+02 -0.13068091250E+02 -0.18902133305E+03  0.19168830745E+03  0.00000000000E+00 0.  1.
</event>
<event>
 7    1  0.6520971E-006  0.1067114E+03  0.7818608E-02  0.1314761E+00
          2   -1    0    0  502    0  0.00000000000E+00  0.00000000000E+00  0.16478648544E+04  0.16478648544E+04  0.00000000000E+00 0. -1.
          1   -1    0    0  501    0 -0.00000000000E+00 -0.00000000000E+00 -0.34243485613E+03  0.34243485613E+03  0.00000000000E+00 0. -1.
         25    2    1    2    0    0 -0.15637559409E+03 -0.27212758422E+02  0.97374693822E+03  0.99448634312E+03  0.12500450517E+03 0.  0.
          2    1    1    2  501    0  0.67853813349E+02  0.59747901766E+01 -0.32540063936E+03  0.33245362714E+03  0.00000000000E+00 0. -1.
          1    1    1    2  502    0  0.88521780741E+02  0.21237968246E+02  0.65708369946E+03  0.66335974030E+03  0.00000000000E+00 0. -1.
         22    1    3    3    0    0  0.10815326291E+02  0.23864988505E+02  0.16433163372E+03  0.16640731595E+03  0.00000000000E+00 0. -1.
         22    1    3    3    0    0 -0.16719092038E+03 -0.51077746927E+02  0.80941530450E+03  0.82807902717E+03  0.00000000000E+00 0. -1.
</event>
<event>
 7    1  0.6520971E-006  0.1903341E+03  0.7818608E-02  0.1335765E+00
          2   -1    0    0  502    0  0.00000000000E+00  0.00000000000E+00  0.11916095306E+03  0.11916095306E+03  0.00000000000E+00 0. -1.
          1   -1    0    0  501    0 -0.00000000000E+00 -0.00000000000E+00 -0.12188576947E+04  0.12188576947E+04  0.00000000000E+00 0. -1.
         25    2    1    2    0    0 -0.19130138071E+03 -0.28796585857E+02 -0.44890575491E+03  0.50454676383E+03  0.12500239390E+03 0.  0.
          2    1    1    2  501    0  0.18973718598E+03 -0.28686032652E+01 -0.72677482108E+03  0.75113918097E+03  0.00000000000E+00 0. -1.
          1    1    1    2  502    0  0.15641947389E+01  0.31665189122E+02  0.75983834305E+02  0.82332702998E+02  0.00000000000E+00 0. -1.
         22    1    3    3    0    0 -0.18354900095E+03 -0.10875377687E+02 -0.44881658224E+03  0.48502044708E+03  0.00000000000E+00 0. -1.
         22    1    3    3    0    0 -0.77523797628E+01 -0.17921208169E+02 -0.89172671458E-01  0.19526316755E+02  0.00000000000E+00 0. -1.
</event>
<event>
 7    1  0.6520971E-006  0.1839673E+03  0.7818608E-02  0.1248005E+00
          2   -1    0    0  502    0  0.00000000000E+00  0.00000000000E+00  0.12250052272E+04  0.12250052272E+04  0.00000000000E+00 0. -1.
          1   -1    0    0  501    0 -0.00000000000E+00 -0.00000000000E+00 -0.20731571342E+04  0.20731571342E+04  0.00000000000E+00 0. -1.
         25    2    1    2    0    0 -0.80820892025E+02  0.20541618499E+03  0.14178488038E+03  0.29061005295E+03  0.12499369957E+03 0.  0.
          2    1    1    2  501    0  0.11773958497E+03 -0.14070325717E+03 -0.19931501500E+04  0.20015762631E+04  0.00000000000E+00 0. -1.
          1    1    1    2  502    0 -0.36918692949E+02 -0.64712927818E+02  0.10032133626E+04  0.10059760453E+04  0.00000000000E+00 0. -1.
         22    1    3    3    0    0 -0.72713270129E+01  0.18319668801E+02 -0.23272508078E+02  0.30497411263E+02  0.00000000000E+00 0. -1.
         22    1    3    3    0    0 -0.73549565012E+02  0.18709651619E+03  0.16505738846E+03  0.26011264169E+03  0.00000000000E+00 0. -1.
</event>
<event>
 7    1  0.6520971E-006  0.7620155E+02  0.7818608E-02  0.1357080E+00
          2   -1    0    0  502    0  0.00000000000E+00  0.00000000000E+00  0.29651205294E+04  0.29651205294E+04  0.00000000000E+00 0. -1.
          1   -1    0    0  501    0 -0.00000000000E+00 -0.00000000000E+00 -0.35671614822E+03  0.35671614822E+03  0.00000000000E+00 0. -1.
         25    2    1    2    0    0 -0.73328794100E+02 -0.69400718564E+02  0.11271592654E+04  0.11385546738E+04  0.12500065559E+03 0.  0.
          2    1    1    2  501    0  0.76119670269E+02  0.35041314660E+01 -0.34628107558E+03  0.35456602550E+03  0.00000000000E+00 0. -1.
          1    1    1    2  502    0 -0.27908761689E+01  0.65896587098E+02  0.18275261914E+04  0.18287159783E+04  0.00000000000E+00 0. -1.
         22    1    3    3    0    0 -0.19156024902E+02  0.12096440705E+02  0.69848748656E+03  0.69885481042E+03  0.00000000000E+00 0. -1.
         22    1    3    3    0    0 -0.54172769198E+02 -0.81497159269E+02  0.42867177884E+03  0.43969986339E+03  0.00000000000E+00 0. -1.
</event>
<event>
 7    1  0.6520971E-006  0.5191393E+02  0.7818608E-02  0.1458671E+00
          2   -1    0    0  502    0  0.00000000000E+00  0.00000000000E+00  0.33071592057E+03  0.33071592057E+03  0.00000000000E+00 0. -1.
          1   -1    0    0  501    0 -0.00000000000E+00 -0.00000000000E+00 -0.53505310599E+02  0.53505310599E+02  0.00000000000E+00 0. -1.
         25    2    1    2    0    0 -0.77136925788E+01  0.11803176695E+02  0.87146750876E+02  0.15303227996E+03  0.12500202594E+03 0.  0.
          2    1    1    2  501    0  0.23096899323E+02  0.46492890703E+02  0.15017914216E+03  0.15889880548E+03  0.00000000000E+00 0. -1.
          1    1    1    2  502    0 -0.15383206744E+02 -0.58296067398E+02  0.39884716937E+02  0.72290145725E+02  0.00000000000E+00 0. -1.
         22    1    3    3    0    0  0.22017039064E+02  0.52797304206E+02  0.84860235037E+02  0.10234043595E+03  0.00000000000E+00 0.  1.
         22    1    3    3    0    0 -0.29730731643E+02 -0.40994127511E+02  0.22865158391E+01  0.50691844010E+02  0.00000000000E+00 0.  1.
</event>
<event>
 7    1  0.6520971E-006  0.7328109E+02  0.7818608E-02  0.1362764E+00
          2   -1    0    0  502    0  0.00000000000E+00  0.00000000000E+00  0.15028663626E+04  0.15028663626E+04  0.00000000000E+00 0. -1.
          1   -1    0    0  501    0 -0.00000000000E+00 -0.00000000000E+00 -0.72392181333E+03  0.72392181333E+03  0.00000000000E+00 0. -1.
         25    2    1    2    0    0 -0.56140701999E+02  0.15688146183E+02  0.29199614009E+02  0.14098155904E+03  0.12500114471E+03 0.  0.
          2    1    1    2  501    0  0.12914154007E+01 -0.65372045516E+02 -0.66546175185E+03  0.66866622112E+03  0.00000000000E+00 0. -1.
          1    1    1    2  502    0  0.54849286598E+02  0.49683899333E+02  0.14152066871E+04  0.14171403958E+04  0.00000000000E+00 0. -1.
         22    1    3    3    0    0 -0.26212044864E+02  0.68555944880E+02 -0.41300625365E+00  0.73397271397E+02  0.00000000000E+00 0.  1.
         22    1    3    3    0    0 -0.29928657135E+02 -0.52867798697E+02  0.29612620263E+02  0.67584287640E+02  0.00000000000E+00 0.  1.
</event>
<event>
 7    1  0.6520971E-006  0.1768628E+03  0.7818608E-02  0.1247883E+00
          2   -1    0    0  502    0  0.00000000000E+00  0.00000000000E+00  0.72681898250E+03  0.72681898250E+03  0.00000000000E+00 0. -1.
          1   -1    0    0  501    0 -0.00000000000E+00 -0.00000000000E+00 -0.18650401339E+03  0.18650401339E+03  0.00000000000E+00 0. -1.
         25    2    1    2    0    0  0.15162644016E+03  0.18041349993E+03  0.45061129242E+03  0.52365551135E+03  0.12499979760E+03 0.  0.
          2    1    1    2  501    0 -0.13551960031E+03 -0.10451314826E+03 -0.90409814955E+02  0.19355230525E+03  0.00000000000E+00 0. -1.
          1    1    1    2  502    0 -0.16106839848E+02 -0.75900351672E+02  0.18011349164E+03  0.19611517928E+03  0.00000000000E+00 0. -1.
         22    1    3    3    0    0  0.11667783109E+03  0.72599723001E+02  0.15545223856E+03  0.20748454044E+03  0.00000000000E+00 0. -1.
         22    1    3    3    0    0  0.34948609068E+02  0.10781377693E+03  0.29515905386E+03  0.31617097092E+03  0.00000000000E+00 0. -1.
</event>
<event>
 7    1  0.6520971E-006  0.6857860E+02  0.7818608E-02  0.1439292E+00
          2   -1    0    0  502    0  0.00000000000E+00  0.00000000000E+00  0.16246013064E+04  0.16246013064E+04  0.00000000000E+00 0. -1.
          1   -1    0    0  501    0 -0.00000000000E+00 -0.00000000000E+00 -0.78640670233E+03  0.78640670233E+03  0.00000000000E+00 0. -1.
         25    2    1    2    0    0 -0.25108836120E+02 -0.10131084037E+03  0.15170722000E+03  0.22256308453E+03  0.12499962385E+03 0.  0.
          2    1    1    2  501    0  0.17330688707E+02  0.33969167501E+02 -0.74969464510E+03  0.75066391815E+03  0.00000000000E+00 0. -1.
          1    1    1    2  502    0  0.77781474125E+01  0.67341672874E+02  0.14361820291E+04  0.14377810060E+04  0.00000000000E+00 0. -1.
         22    1    3    3    0    0  0.16566130865E+02 -0.11607648716E+03  0.12251303321E+03  0.16958075029E+03  0.00000000000E+00 0.  1.
         22    1    3    3    0    0 -0.41674966984E+02  0.14765646786E+02  0.29194186798E+02  0.52982334235E+02  0.00000000000E+00 0.  1.
</event>
<event>
 7    1  0.6520971E-006  0.8212994E+02  0.7818608E-02  0.1376128E+00
          2   -1    0    0  502    0  0.00000000000E+00  0.00000000000E+00  0.68155498104E+03  0.68155498104E+03  0.00000000000E+00 0. -1.
          1   -1    0    0  501    0 -0.00000000000E+00 -0.00000000000E+00 -0.46830950393E+02  0.46830950393E+02  0.00000000000E+00 0. -1.
         25    2    1    2    0    0 -0.19568102809E+02 -0.34111264196E+02  0.32642385824E+03  0.35174326700E+03  0.12499720662E+03 0.  0.
          2    1    1    2  501    0  0.29765104304E+02  0.85331845484E+02  0.32653849417E+02  0.96092451159E+02  0.00000000000E+00 0. -1.
          1    1    1    2  502    0 -0.10197001495E+02 -0.51220581288E+02  0.27564632300E+03  0.28055021328E+03  0.00000000000E+00 0. -1.
         22    1    3    3    0    0 -0.18705238092E+02  0.45904096161E+02  0.15106682573E+03  0.15899137653E+03  0.00000000000E+00 0.  1.
         22    1    3    3    0    0 -0.86286471748E+00 -0.80015360358E+02  0.17535703251E+03  0.19275189047E+03  0.00000000000E+00 0.  1.
</event>
<event>
 7    1  0.6520971E-006  0.4134629E+02  0.7818608E-02  0.1598980E+00
          2   -1    0    0  502    0  0.00000000000E+00  0.00000000000E+00  0.30145862239E+03  0.30145862239E+03  0.00000000000E+00 0. -1.
          1   -1    0    0  501    0 -0.00000000000E+00 -0.00000000000E+00 -0.59466512519E+03  0.59466512519E+03  0.00000000000E+00 0. -1.
         25    2    1    2    0    0  0.16787375251E+02  0.18635904882E+02 -0.79735666578E+01  0.12773716718E+03  0.12499637273E+03 0.  0.
          2    1    1    2  501    0 -0.12156970162E+02 -0.39785726552E+02 -0.52550093261E+03  0.52714507124E+03  0.00000000000E+00 0. -1.
          1    1    1    2  502    0 -0.46304050890E+01  0.21149821670E+02  0.24026799647E+03  0.24124150915E+03  0.00000000000E+00 0. -1.
         22    1    3    3    0    0  0.57779679242E+02  0.48017403511E+02 -0.15597431929E+02  0.76729669985E+02  0.00000000000E+00 0. -1.
         22    1    3    3    0    0 -0.40992303991E+02 -0.29381498629E+02  0.76238652714E+01  0.51007497193E+02  0.00000000000E+00 0. -1.
</event>
<event>
 7    1  0.6520971E-006  0.1218891E+03  0.7818608E-02  0.1297858E+00
          2   -1    0    0  502    0  0.00000000000E+00  0.00000000000E+00  0.57486723561E+03  0.57486723561E+03  0.00000000000E+00 0. -1.
          1   -1    0    0  501    0 -0.00000000000E+00 -0.00000000000E+00 -0.36063775396E+03  0.36063775396E+03  0.00000000000E+00 0. -1.
         25    2    1    2    0    0 -0.92762901012E+02  0.88945424680E+02  0.40712237992E+03  0.44484771108E+03  0.12499843777E+03 0.  0.
          2    1    1    2  501    0  0.62220771575E+02  0.31149754498E+02 -0.31146879747E+03  0.31914658610E+03  0.00000000000E+00 0. -1.
          1    1    1    2  502    0  0.30542129437E+02 -0.12009517918E+03  0.11857589921E+03  0.17151069239E+03  0.00000000000E+00 0. -1.
         22    1    3    3    0    0 -0.11470959235E+03  0.56750759713E+02  0.22730377569E+03  0.26085617829E+03  0.00000000000E+00 0.  1.
         22    1    3    3    0    0  0.21946691342E+02  0.32194664967E+02  0.17981860423E+03  0.18399153279E+03  0.00000000000E+00 0.  1.
</event>
<event>
 7    1  0.6520971E-006  0.7567128E+02  0.7818608E-02  0.1388971E+00
          2   -1    0    0  502    0  0.00000000000E+00  0.00000000000E+00  0.42714177637E+03  0.42714177637E+03  0.00000000000E+00 0. -1.
          1   -1    0    0  501    0 -0.00000000000E+00 -0.00000000000E+00 -0.24009935948E+03  0.24009935948E+03  0.00000000000E+00 0. -1.
         25    2    1    2    0    0  0.63084536784E+02 -0.69326932698E+02  0.14252298487E+02  0.15688814116E+03  0.12499951379E+03 0.  0.
          2    1    1    2  501    0 -0.50810886084E+02 -0.51055783637E+01 -0.16060575367E+03  0.16852899213E+03  0.00000000000E+00 0. -1.
          1    1    1    2  502    0 -0.12273650700E+02  0.74432511061E+02  0.33339587208E+03  0.34182400256E+03  0.00000000000E+00 0. -1.
         22    1    3    3    0    0  0.38775185836E+02 -0.12608670584E+02 -0.52177606298E+02  0.66219303904E+02  0.00000000000E+00 0.  1.
         22    1    3    3    0    0  0.24309350948E+02 -0.56718262113E+02  0.66429904784E+02  0.90668837261E+02  0.00000000000E+00 0.  1.
</event>
<event>
 7    1  0.6520971E-006  0.1248971E+03  0.7818608E-02  0.1336105E+00
          2   -1    0    0  502    0  0.00000000000E+00  0.00000000000E+00  0.26637557681E+03  0.26637557681E+03  0.00000000000E+00 0. -1.
          1   -1    0    0  501    0 -0.00000000000E+00 -0.00000000000E+00 -0.88664440684E+03  0.88664440684E+03  0.00000000000E+00 0. -1.
         25    2    1    2    0    0 -0.73515009659E+02  0.28816382770E+02  0.47034102122E+02  0.15515661937E+03  0.12500611669E+03 0.  0.
          2    1    1    2  501    0  0.11898501233E+03 -0.44720440458E+02 -0.82409390086E+03  0.83383937805E+03  0.00000000000E+00 0. -1.
          1    1    1    2  502    0 -0.45470002668E+02  0.15904057689E+02  0.15679096870E+03  0.16402398623E+03  0.00000000000E+00 0. -1.
         22    1    3    3    0    0 -0.69052914445E+02  0.30845457599E+02  0.86779264131E+02  0.11511032938E+03  0.00000000000E+00 0. -1.
         22    1    3    3    0    0 -0.44620952132E+01 -0.20290748292E+01 -0.39745162009E+02  0.40046289984E+02  0.00000000000E+00 0. -1.
</event>
<event>
 7    1  0.6520971E-006  0.8960652E+02  0.7818608E-02  0.1333055E+00
          2   -1    0    0  502    0  0.00000000000E+00  0.00000000000E+00  0.53601687672E+03  0.53601687672E+03  0.00000000000E+00 0. -1.
          1   -1    0    0  501    0 -0.00000000000E+00 -0.00000000000E+00 -0.34114372157E+03  0.34114372157E+03  0.00000000000E+00 0. -1.
         25    2    1    2    0    0 -0.38176631394E+02 -0.11088046548E+02 -0.22953271611E+02  0.13316677526E+03  0.12500454950E+03 0.  0.
          2    1    1    2  501    0  0.65529814966E+02  0.74386457391E+02 -0.25113332518E+03  0.26999157155E+03  0.00000000000E+00 0. -1.
          1    1    1    2  502    0 -0.27353183572E+02 -0.63298410842E+02  0.46895975194E+03  0.47400225148E+03  0.00000000000E+00 0. -1.
         22    1    3    3    0    0 -0.28836960129E+02 -0.54657711788E+02 -0.51332831022E+02  0.80337384001E+02  0.00000000000E+00 0. -1.
         22    1    3    3    0    0 -0.93396712652E+01  0.43569665239E+02  0.28379559412E+02  0.52829391259E+02  0.00000000000E+00 0. -1.
</event>
<event>
 7    1  0.6520971E-006  0.8337944E+02  0.7818608E-02  0.1379779E+00
          2   -1    0    0  502    0  0.00000000000E+00  0.00000000000E+00  0.22356797352E+03  0.22356797352E+03  0.00000000000E+00 0. -1.
          1   -1    0    0  501    0 -0.00000000000E+00 -0.00000000000E+00 -0.19950845330E+03  0.19950845330E+03  0.00000000000E+00 0. -1.
         25    2    1    2    0    0 -0.28133547648E+02 -0.12258481740E+03 -0.74907649082E+02  0.19249705182E+03  0.12500170042E+03 0.  0.
          2    1    1    2  501    0 -0.53050824690E+01  0.49646744667E+02 -0.44055314292E+02  0.66586889651E+02  0.00000000000E+00 0. -1.
          1    1    1    2  502    0  0.33438630117E+02  0.72938072737E+02  0.14302248359E+03  0.16399248535E+03  0.00000000000E+00 0. -1.
         22    1    3    3    0    0 -0.71967394773E+02 -0.11044272567E+03 -0.56902220453E+02  0.14357842546E+03  0.00000000000E+00 0.  1.
         22    1    3    3    0    0  0.43833847125E+02 -0.12142091733E+02 -0.18005428628E+02  0.48918626365E+02  0.00000000000E+00 0.  1.
</event>
<event>
 7    1  0.6520971E-006  0.6609155E+02  0.7818608E-02  0.1417352E+00
          2   -1    0    0  502    0  0.00000000000E+00  0.00000000000E+00  0.43978580192E+03  0.43978580192E+03  0.00000000000E+00 0. -1.
          1   -1    0    0  501    0 -0.00000000000E+00 -0.00000000000E+00 -0.25668580878E+03  0.25668580878E+03  0.00000000000E+00 0. -1.
         25    2    1    2    0    0  0.68463696766E+02  0.65022710489E+02  0.13567213715E+03  0.20723778474E+03  0.12500135987E+03 0.  0.
          2    1    1    2  501    0 -0.21824136601E+02 -0.61825649305E+02 -0.21391781890E+03  0.22373988713E+03  0.00000000000E+00 0. -1.
          1    1    1    2  502    0 -0.46639560165E+02 -0.31970611844E+01  0.26134567489E+03  0.26549393883E+03  0.00000000000E+00 0. -1.
         22    1    3    3    0    0 -0.26571666016E+02  0.15238888856E+02  0.81469429731E+02  0.87037607671E+02  0.00000000000E+00 0.  1.
         22    1    3    3    0    0  0.95035362782E+02  0.49783821633E+02  0.54202707417E+02  0.12020017707E+03  0.00000000000E+00 0.  1.
</event>
<event>
 7    1  0.6520971E-006  0.5744384E+02  0.7818608E-02  0.1418786E+00
          2   -1    0    0  502    0  0.00000000000E+00  0.00000000000E+00  0.50077683596E+03  0.50077683596E+03  0.00000000000E+00 0. -1.
          1   -1    0    0  501    0 -0.00000000000E+00 -0.00000000000E+00 -0.68879934987E+02  0.68879934987E+02  0.00000000000E+00 0. -1.
         25    2    1    2    0    0  0.98555871155E+00 -0.92329321378E+01  0.10475285318E+03  0.16335381084E+03  0.12500035562E+03 0.  0.
          2    1    1    2  501    0 -0.57419520994E+02 -0.16713623952E+01 -0.14995632278E+02  0.59368879313E+02  0.00000000000E+00 0. -1.
          1    1    1    2  502    0  0.56433962282E+02  0.10904294533E+02  0.34213968007E+03  0.34693408079E+03  0.00000000000E+00 0. -1.
         22    1    3    3    0    0 -0.58483982707E+02 -0.17931273038E+02  0.73455556128E+02  0.95590927981E+02  0.00000000000E+00 0. -1.
         22    1    3    3    0    0  0.59469541419E+02  0.86983409004E+01  0.31297297055E+02  0.67762882863E+02  0.00000000000E+00 0. -1.
</event>
<event>
 7    1  0.6520971E-006  0.7284281E+02  0.7818608E-02  0.1499489E+00
          2   -1    0    0  502    0  0.00000000000E+00  0.00000000000E+00  0.72395748372E+03  0.72395748372E+03  0.00000000000E+00 0. -1.
          1   -1    0    0  501    0 -0.00000000000E+00 -0.00000000000E+00 -0.34214824784E+03  0.34214824784E+03  0.00000000000E+00 0. -1.
         25    2    1    2    0    0 -0.59374407038E+02  0.13307044249E+02  0.24443759524E+02  0.14115957575E+03  0.12500452315E+03 0.  0.
          2    1    1    2  501    0  0.64221306988E+02 -0.36112132895E+02 -0.27879109124E+03  0.28836250617E+03  0.00000000000E+00 0. -1.
          1    1    1    2  502    0 -0.48468999499E+01  0.22805088646E+02  0.63615656759E+03  0.63658364964E+03  0.00000000000E+00 0. -1.
         22    1    3    3    0    0 -0.38592457642E+02 -0.54903290494E+02  0.18462211398E+02  0.69603177683E+02  0.00000000000E+00 0. -1.
         22    1    3    3    0    0 -0.20781949396E+02  0.68210334743E+02  0.59815481264E+01  0.71556398068E+02  0.00000000000E+00 0. -1.
</event>
<event>
 7    1  0.6520971E-006  0.6387299E+02  0.7818608E-02  0.1401476E+00
          2   -1    0    0  502    0  0.00000000000E+00  0.00000000000E+00  0.59020276611E+03  0.59020276611E+03  0.00000000000E+00 0. -1.
          1   -1    0    0  501    0 -0.00000000000E+00 -0.00000000000E+00 -0.12762605560E+04  0.12762605560E+04  0.00000000000E+00 0. -1.
         25    2    1    2    0    0 -0.17083363170E+02 -0.96463367550E+02  0.24271232746E+03  0.29005474071E+03  0.12500182450E+03 0.  0.
          2    1    1    2  501    0  0.42243420680E+02  0.47828084359E+02 -0.12494543959E+04  0.12510828589E+04  0.00000000000E+00 0. -1.
          1    1    1    2  502    0 -0.25160057510E+02  0.48635283191E+02  0.32068427854E+03  0.32532572257E+03  0.00000000000E+00 0. -1.
         22    1    3    3    0    0 -0.32685498823E+02 -0.93897635512E+02  0.25256132423E+03  0.27142647307E+03  0.00000000000E+00 0.  1.
         22    1    3    3    0    0  0.15602135653E+02 -0.25657320382E+01 -0.98489967651E+01  0.18628267636E+02  0.00000000000E+00 0.  1.
</event>
<event>
 7    1  0.6520971E-006  0.5626028E+02  0.7818608E-02  0.1452559E+00
          2   -1    0    0  502    0  0.00000000000E+00  0.00000000000E+00  0.34459013089E+03  0.34459013089E+03  0.00000000000E+00 0. -1.
          1   -1    0    0  501    0 -0.00000000000E+00 -0.00000000000E+00 -0.96015889202E+03  0.96015889202E+03  0.00000000000E+00 0. -1.
         25    2    1    2    0    0  0.52681428002E+02 -0.15134590448E+02  0.50089047919E+02  0.14538944214E+03  0.12499915392E+03 0.  0.
          2    1    1    2  501    0 -0.27763252578E+02  0.49107879354E+02 -0.90983096067E+03  0.91157816944E+03  0.00000000000E+00 0. -1.
          1    1    1    2  502    0 -0.24918175424E+02 -0.33973288906E+02  0.24417315162E+03  0.24778141132E+03  0.00000000000E+00 0. -1.
         22    1    3    3    0    0 -0.24143715173E+02  0.36519973820E+02  0.19101988509E+02  0.47765190623E+02  0.00000000000E+00 0. -1.
         22    1    3    3    0    0  0.76825143175E+02 -0.51654564268E+02  0.30987059409E+02  0.97624251518E+02  0.00000000000E+00 0. -1.
</event>
<event>
 7    1  0.6520971E-006  0.1603143E+03  0.7818608E-02  0.1343350E+00
          2   -1    0    0  502    0  0.00000000000E+00  0.00000000000E+00  0.98154035840E+03  0.98154035840E+03  0.00000000000E+00 0. -1.
          1   -1    0    0  501    0 -0.00000000000E+00 -0.00000000000E+00 -0.19477475560E+03  0.19477475560E+03  0.00000000000E+00 0. -1.
         25    2    1    2    0    0  0.13887510540E+03  0.38981671934E+02  0.14186792954E+03  0.23781687886E+03  0.12499797115E+03 0.  0.
          2    1    1    2  501    0  0.72523501220E+01  0.34490868506E+02 -0.13608372247E+03  0.14057381020E+03  0.00000000000E+00 0. -1.
          1    1    1    2  502    0 -0.14612745552E+03 -0.73472540440E+02  0.78098139572E+03  0.79792442494E+03  0.00000000000E+00 0. -1.
         22    1    3    3    0    0  0.15979748402E+03  0.28690420010E+02  0.14008121594E+03  0.21443209452E+03  0.00000000000E+00 0.  1.
         22    1    3    3    0    0 -0.20922378621E+02  0.10291251924E+02  0.17867136042E+01  0.23384784344E+02  0.00000000000E+00 0.  1.
</event>
<event>
 7    1  0.6520971E-006  0.2133915E+03  0.7818608E-02  0.1230956E+00
          2   -1    0    0  502    0  0.00000000000E+00  0.00000000000E+00  0.24382219502E+04  0.24382219502E+04  0.00000000000E+00 0. -1.
          1   -1    0    0  501    0 -0.00000000000E+00 -0.00000000000E+00 -0.35900014315E+03  0.35900014315E+03  0.00000000000E+00 0. -1.
         25    2    1    2    0    0  0.54445824338E+00  0.20019428527E+03  0.52595814617E+03  0.57648214451E+03  0.12498657181E+03 0.  0.
          2    1    1    2  501    0  0.75831765688E+02 -0.20118342959E+03 -0.29824193634E+03  0.36765946421E+03  0.00000000000E+00 0. -1.
          1    1    1    2  502    0 -0.76376223932E+02  0.98914432594E+00  0.18515055972E+04  0.18530804847E+04  0.00000000000E+00 0. -1.
         22    1    3    3    0    0  0.54978193849E+02  0.83880294811E+02  0.30320681902E+03  0.31936324265E+03  0.00000000000E+00 0.  1.
         22    1    3    3    0    0 -0.54433735605E+02  0.11631399046E+03  0.22275132715E+03  0.25711890186E+03  0.00000000000E+00 0.  1.
</event>
<event>
 7    1  0.6520971E-006  0.7005844E+02  0.7818608E-02  0.1412767E+00
          2   -1    0    0  502    0  0.00000000000E+00  0.00000000000E+00  0.52633456263E+03  0.52633456263E+03  0.00000000000E+00 0. -1.
          1   -1    0    0  501    0 -0.00000000000E+00 -0.00000000000E+00 -0.18379050453E+04  0.18379050453E+04  0.00000000000E+00 0. -1.
         25    2    1    2    0    0 -0.22487505768E+02 -0.20570065542E+02 -0.46164097638E+03  0.47923191483E+03  0.12498808588E+03 0.  0.
          2    1    1    2  501    0  0.41756564250E+02  0.62004718188E+02 -0.13654355352E+04  0.13674803094E+04  0.00000000000E+00 0. -1.
          1    1    1    2  502    0 -0.19269058483E+02 -0.41434652646E+02  0.51550602891E+03  0.51752738372E+03  0.00000000000E+00 0. -1.
         22    1    3    3    0    0  0.39133626091E+02 -0.37176712108E+02 -0.31069541135E+03  0.31534930989E+03  0.00000000000E+00 0. -1.
         22    1    3    3    0    0 -0.61621131859E+02  0.16606646565E+02 -0.15094556502E+03  0.16388260494E+03  0.00000000000E+00 0. -1.
</event>
<event>
 7    1  0.6520971E-006  0.9500611E+02  0.7818608E-02  0.1414927E+00
          2   -1    0    0  502    0  0.00000000000E+00  0.00000000000E+00  0.32278611886E+04  0.32278611886E+04  0.00000000000E+00 0. -1.
          1   -1    0    0  501    0 -0.00000000000E+00 -0.00000000000E+00 -0.24194373833E+04  0.24194373833E+04  0.00000000000E+00 0. -1.
         25    2    1    2    0    0  0.11306752376E+03  0.33152675388E+02  0.37386157368E+03  0.41143892243E+03  0.12500458312E+03 0.  0.
          2    1    1    2  501    0 -0.19093924717E+02 -0.27082725739E+02 -0.23997523487E+04  0.23999811222E+04  0.00000000000E+00 0. -1.
          1    1    1    2  502    0 -0.93973599039E+02 -0.60699496491E+01  0.28343145802E+04  0.28358785272E+04  0.00000000000E+00 0. -1.
         22    1    3    3    0    0  0.49719574048E+02  0.78711273758E+02  0.22114251802E+03  0.23994064670E+03  0.00000000000E+00 0. -1.
         22    1    3    3    0    0  0.63347949708E+02 -0.45558598370E+02  0.15271905566E+03  0.17149827573E+03  0.00000000000E+00 0. -1.
</event>
<event>
 7    1  0.6520971E-006  0.1703014E+03  0.7818608E-02  0.1280487E+00
          2   -1    0    0  502    0  0.00000000000E+00  0.00000000000E+00  0.26623176858E+03  0.26623176858E+03  0.00000000000E+00 0. -1.
          1   -1    0    0  501    0 -0.00000000000E+00 -0.00000000000E+00 -0.44500936084E+03  0.44500936084E+03  0.00000000000E+00 0. -1.
         25    2    1    2    0    0  0.10691012280E+03  0.10192554811E+03 -0.18901868627E+03  0.27050236436E+03  0.12499949460E+03 0.  0.
          2    1    1    2  501    0 -0.11598938095E+03 -0.15983067133E+03 -0.16412765498E+03  0.25678252884E+03  0.00000000000E+00 0. -1.
          1    1    1    2  502    0  0.90792581539E+01  0.57905123222E+02  0.17436874898E+03  0.18395623622E+03  0.00000000000E+00 0. -1.
         22    1    3    3    0    0  0.13022596994E+03  0.10343637074E+03 -0.18099365373E+03  0.24579786153E+03  0.00000000000E+00 0.  1.
         22    1    3    3    0    0 -0.23315847142E+02 -0.15108226376E+01 -0.80250325363E+01  0.24704502832E+02  0.00000000000E+00 0.  1.
</event>
<event>
 7    1  0.6520971E-006  0.1463915E+03  0.7818608E-02  0.1240094E+00
          2   -1    0    0  502    0  0.00000000000E+00  0.00000000000E+00  0.74129475920E+03  0.74129475920E+03  0.00000000000E+00 0. -1.
          1   -1    0    0  501    0 -0.00000000000E+00 -0.00000000000E+00 -0.57182630182E+03  0.57182630182E+03  0.00000000000E+00 0. -1.
         25    2    1    2    0    0 -0.68716941941E+02 -0.16818457154E+03  0.15006320171E+03  0.26674214768E+03  0.12499736248E+03 0.  0.
          2    1    1    2  501    0  0.12126495168E+03  0.81457393380E+02 -0.49807532835E+03  0.51905638244E+03  0.00000000000E+00 0. -1.
          1    1    1    2  502    0 -0.52548009736E+02  0.86727178156E+02  0.51748058401E+03  0.52732253089E+03  0.00000000000E+00 0. -1.
         22    1    3    3    0    0 -0.88051079161E+02 -0.70249441350E+02  0.11490293142E+03  0.16090574944E+03  0.00000000000E+00 0. -1.
         22    1    3    3    0    0  0.19334137219E+02 -0.97935130186E+02  0.35160270289E+02  0.10583639824E+03  0.00000000000E+00 0. -1.
</event>
<event>
 7    1  0.6520971E-006  0.9362209E+02  0.7818608E-02  0.1325592E+00
          2   -1    0    0  502    0  0.00000000000E+00  0.00000000000E+00  0.85959604947E+03  0.85959604947E+03  0.00000000000E+00 0. -1.
          1   -1    0    0  501    0 -0.00000000000E+00 -0.00000000000E+00 -0.38351448062E+03  0.38351448062E+03  0.00000000000E+00 0. -1.
         25    2    1    2    0    0 -0.13688596478E+02 -0.10625370877E+03 -0.45084472721E+01  0.16468755691E+03  0.12499774799E+03 0.  0.
          2    1    1    2  501    0 -0.51440506493E+02  0.79313387601E+02 -0.28979306879E+03  0.30482250881E+03  0.00000000000E+00 0. -1.
          1    1    1    2  502    0  0.65129102971E+02  0.26940321164E+02  0.77038308491E+03  0.77360046437E+03  0.00000000000E+00 0. -1.
         22    1    3    3    0    0  0.52975391859E+02 -0.48136337396E+02 -0.21271524535E+02  0.74672463978E+02  0.00000000000E+00 0.  1.
         22    1    3    3    0    0 -0.66663988337E+02 -0.58117371369E+02  0.16763077263E+02  0.90015092930E+02  0.00000000000E+00 0.  1.
</event>
<event>
 7    1  0.6520971E-006  0.8378344E+02  0.7818608E-02  0.1420019E+00
          2   -1    0    0  502    0  0.00000000000E+00  0.00000000000E+00  0.21712459241E+04  0.21712459241E+04  0.00000000000E+00 0. -1.
          1   -1    0    0  501    0 -0.00000000000E+00 -0.00000000000E+00 -0.53640517242E+03  0.53640517242E+03  0.00000000000E+00 0. -1.
         25    2    1    2    0    0  0.64946863682E+02 -0.23686570242E+02 -0.42561039878E+03  0.44894255409E+03  0.12500422635E+03 0.  0.
          2    1    1    2  501    0  0.18556547228E+02  0.30997258536E+02 -0.94995167372E+02  0.10163295384E+03  0.00000000000E+00 0. -1.
          1    1    1    2  502    0 -0.83503410910E+02 -0.73106882943E+01  0.21554463178E+04  0.21570755886E+04  0.00000000000E+00 0. -1.
         22    1    3    3    0    0  0.24527649336E+02 -0.16262519514E+02 -0.39877915005E+03  0.39986358378E+03  0.00000000000E+00 0. -1.
         22    1    3    3    0    0  0.40419214346E+02 -0.74240507276E+01 -0.26831248738E+02  0.49078970307E+02  0.00000000000E+00 0. -1.
</event>
<event>
 7    1  0.6520971E-006  0.1473089E+03  0.7818608E-02  0.1401551E+00
          2   -1    0    0  502    0  0.00000000000E+00  0.00000000000E+00  0.39324277724E+03  0.39324277724E+03  0.00000000000E+00 0. -1.
          1   -1    0    0  501    0 -0.00000000000E+00 -0.00000000000E+00 -0.32720243075E+03  0.32720243075E+03  0.00000000000E+00 0. -1.
         25    2    1    2    0    0 -0.12017097289E+03 -0.10694911605E+03 -0.10436323015E+03  0.22890123475E+03  0.12499966125E+03 0.  0.
          2    1    1    2  501    0  0.11258977504E+03  0.84463836157E+02 -0.12916651849E+03  0.19103556360E+03  0.00000000000E+00 0. -1.
          1    1    1    2  502    0  0.75811978542E+01  0.22485279894E+02  0.29957009513E+03  0.30050840964E+03  0.00000000000E+00 0. -1.
         22    1    3    3    0    0 -0.95220300911E+02 -0.10761780091E+03 -0.12952773154E+03  0.19345782490E+03  0.00000000000E+00 0. -1.
         22    1    3    3    0    0 -0.24950671979E+02  0.66868485467E+00  0.25164501391E+02  0.35443409851E+02  0.00000000000E+00 0. -1.
</event>
<event>
 7    1  0.6520971E-006  0.9787691E+02  0.7818608E-02  0.1335853E+00
          2   -1    0    0  502    0  0.00000000000E+00  0.00000000000E+00  0.45406516774E+02  0.45406516774E+02  0.00000000000E+00 0. -1.
          1   -1    0    0  501    0 -0.00000000000E+00 -0.00000000000E+00 -0.16897564834E+04  0.16897564834E+04  0.00000000000E+00 0. -1.
         25    2    1    2    0    0 -0.77475893119E+02  0.13250873123E+03 -0.22762409647E+03  0.30165668345E+03  0.12499178976E+03 0.  0.
          2    1    1    2  501    0  0.61151186745E+02 -0.73106550918E+02 -0.12799904023E+04  0.12835339751E+04  0.00000000000E+00 0. -1.
          1    1    1    2  502    0  0.16324706374E+02 -0.59402180317E+02 -0.13673546792E+03  0.14997234162E+03  0.00000000000E+00 0. -1.
         22    1    3    3    0    0  0.26944586961E+02  0.71105276215E+02 -0.10095840153E+03  0.12639054518E+03  0.00000000000E+00 0.  1.
         22    1    3    3    0    0 -0.10442048008E+03  0.61403455020E+02 -0.12666569495E+03  0.17526613827E+03  0.00000000000E+00 0.  1.
</event>
<event>
 7    1  0.6520971E-006  0.8236434E+02  0.7818608E-02  0.1431879E+00
          2   -1    0    0  502    0  0.00000000000E+00  0.00000000000E+00  0.10019147973E+04  0.10019147973E+04  0.00000000000E+00 0. -1.
          1   -1    0    0  501    0 -0.00000000000E+00 -0.00000000000E+00 -0.11905070908E+04  0.11905070908E+04  0.00000000000E+00 0. -1.
         25    2    1    2    0    0  0.98526520381E+02 -0.57179721083E+02  0.34522875997E+03  0.38442668863E+03  0.12499594592E+03 0.  0.
          2    1    1    2  501    0 -0.75399536388E+02  0.32843798060E+02 -0.11690201534E+04  0.11719095205E+04  0.00000000000E+00 0. -1.
          1    1    1    2  502    0 -0.23126983993E+02  0.24335923022E+02  0.63519909988E+03  0.63608567900E+03  0.00000000000E+00 0. -1.
         22    1    3    3    0    0  0.10083900589E+03 -0.51315603517E+01  0.13951899578E+03  0.17222191558E+03  0.00000000000E+00 0. -1.
         22    1    3    3    0    0 -0.23124855063E+01 -0.52048160731E+02  0.20570976419E+03  0.21220477305E+03  0.00000000000E+00 0. -1.
</event>
<event>
 7    1  0.6520971E-006  0.4293485E+03  0.7818608E-02  0.1193287E+00
          2   -1    0    0  502    0  0.00000000000E+00  0.00000000000E+00  0.27984224612E+04  0.27984224612E+04  0.00000000000E+00 0. -1.
          1   -1    0    0  501    0 -0.00000000000E+00 -0.00000000000E+00 -0.90588385033E+02  0.90588385033E+02  0.00000000000E+00 0. -1.
         25    2    1    2    0    0  0.39709441310E+03 -0.97433422534E+02  0.12521820608E+04  0.13231634446E+04  0.12499737117E+03 0.  0.
          2    1    1    2  501    0 -0.44069084332E+03  0.61209182898E+02  0.86722791582E+03  0.97469956471E+03  0.00000000000E+00 0. -1.
          1    1    1    2  502    0  0.43596430220E+02  0.36224239636E+02  0.58842409947E+03  0.59114783693E+03  0.00000000000E+00 0. -1.
         22    1    3    3    0    0  0.40574216722E+03 -0.91402522691E+02  0.12030875528E+04  0.12729496404E+04  0.00000000000E+00 0. -1.
         22    1    3    3    0    0 -0.86477541158E+01 -0.60308998431E+01  0.49094508064E+02  0.50213804140E+02  0.00000000000E+00 0. -1.
</event>
<event>
 7    1  0.6520971E-006  0.7220982E+02  0.7818608E-02  0.1407465E+00
          2   -1    0    0  502    0  0.00000000000E+00  0.00000000000E+00  0.10426158022E+03  0.10426158022E+03  0.00000000000E+00 0. -1.
          1   -1    0    0  501    0 -0.00000000000E+00 -0.00000000000E+00 -0.12034082118E+04  0.12034082118E+04  0.00000000000E+00 0. -1.
         25    2    1    2    0    0 -0.77716773991E+02 -0.33363080913E+02 -0.94399369779E+02  0.17801317323E+03  0.12499782678E+03 0.  0.
          2    1    1    2  501    0  0.37741720258E+02 -0.26658453269E+02 -0.10457028260E+04  0.10467232255E+04  0.00000000000E+00 0. -1.
          1    1    1    2  502    0  0.39975053732E+02  0.60021534182E+02  0.40955564171E+02  0.82933393293E+02  0.00000000000E+00 0. -1.
         22    1    3    3    0    0 -0.96640944124E+02  0.11481006634E+02 -0.40562054987E+02  0.10543512650E+03  0.00000000000E+00 0.  1.
         22    1    3    3    0    0  0.18924170133E+02 -0.44844087547E+02 -0.53837314792E+02  0.72578046730E+02  0.00000000000E+00 0.  1.
</event>
