<event>
 7    1  0.5931885E-006  0.5112639E+02  0.7818608E-02  0.1453401E+00
          2   -1    0    0  502    0  0.00000000000E+00  0.00000000000E+00  0.20786670168E+04  0.20786670168E+04  0.00000000000E+00 0. -1.
          1   -1    0    0  501    0 -0.00000000000E+00 -0.00000000000E+00 -0.41867262793E+03  0.41867262793E+03  0.00000000000E+00 0. -1.
         25    2    1    2    0    0  0.19462188286E+02  0.79198901627E+02  0.14352567398E+03  0.20706951490E+03  0.12500768823E+03 0.  0.
          2    1    1    2  501    0  0.15050669300E+02 -0.48670993773E+02 -0.38494335353E+03  0.38829985025E+03  0.00000000000E+00 0. -1.
          1    1    1    2  502    0 -0.34512857586E+02 -0.30527907854E+02  0.19014120684E+04  0.19019702795E+04  0.00000000000E+00 0. -1.
         22    1    3    3    0    0  0.60122529038E+02  0.85487632336E+02  0.12196569555E+03  0.16061906696E+03  0.00000000000E+00 0. -1.
         22    1    3    3    0    0 -0.40660340752E+02 -0.62887307086E+01  0.21559978435E+02  0.46450447943E+02  0.00000000000E+00 0. -1.
</event>
<event>
 7    1  0.5931885E-006  0.8467763E+02  0.7818608E-02  0.1362855E+00
          2   -1    0    0  502    0  0.00000000000E+00  0.00000000000E+00  0.23406599572E+04  0.23406599572E+04  0.00000000000E+00 0. -1.
          1   -1    0    0  501    0 -0.00000000000E+00 -0.00000000000E+00 -0.18172487853E+04  0.18172487853E+04  0.00000000000E+00 0. -1.
         25    2    1    2    0    0  0.26175170070E+02  0.63065071264E+02  0.70208718352E+03  0.71638825141E+03  0.12499348283E+03 0.  0.
          2    1    1    2  501    0  0.52810928057E+02 -0.20199024744E+02 -0.18084184473E+04  0.18093021515E+04  0.00000000000E+00 0. -1.
          1    1    1    2  502    0 -0.78986098126E+02 -0.42866046520E+02  0.16297424357E+04  0.16322183397E+04  0.00000000000E+00 0. -1.
         22    1    3    3    0    0  0.55932532104E+02 -0.13814130301E+02  0.22670489594E+03  0.23391106897E+03  0.00000000000E+00 0.  1.
         22    1    3    3    0    0 -0.29757362035E+02  0.76879201565E+02  0.47538228758E+03  0.48247718244E+03  0.00000000000E+00 0.  1.
</event>
<event>
 7    1  0.5931885E-006  0.4546750E+02  0.7818608E-02  0.1482169E+00
          2   -1    0    0  502    0  0.00000000000E+00  0.00000000000E+00  0.97335327416E+02  0.97335327416E+02  0.00000000000E+00 0. -1.
          1   -1    0    0  501    0 -0.00000000000E+00 -0.00000000000E+00 -0.34040661486E+03  0.34040661486E+03  0.00000000000E+00 0. -1.
         25    2    1    2    0    0 -0.19564280719E+02  0.52076654739E+02  0.12156733700E+02  0.13735848758E+03  0.12499931555E+03 0.  0.
          2    1    1    2  501    0 -0.23633798290E+02 -0.34884081312E+02 -0.25008084646E+03  0.25360576751E+03  0.00000000000E+00 0. -1.
          1    1    1    2  502    0  0.43198079009E+02 -0.17192573427E+02 -0.51471746870E+01  0.46777687185E+02  0.00000000000E+00 0. -1.
         22    1    3    3    0    0 -0.55928447699E+02 -0.11363971615E+02 -0.15566150452E+02  0.59156032260E+02  0.00000000000E+00 0.  1.
         22    1    3    3    0    0  0.36364166980E+02  0.63440626354E+02  0.27722884152E+02  0.78202455319E+02  0.00000000000E+00 0.  1.
</event>
<event>
 7    1  0.5931885E-006  0.8201931E+02  0.7818608E-02  0.1329934E+00
          2   -1    0    0  502    0  0.00000000000E+00  0.00000000000E+00  0.22437238423E+04  0.22437238423E+04  0.00000000000E+00 0. -1.
          1   -1    0    0  501    0 -0.00000000000E+00 -0.00000000000E+00 -0.45172351008E+02  0.45172351008E+02  0.00000000000E+00 0. -1.
         25    2    1    2    0    0  0.23747119615E+02  0.37434724224E+01  0.25273278566E+03  0.28299027741E+03  0.12502678466E+03 0.  0.
          2    1    1    2  501    0 -0.10098536866E+03  0.16476418268E+01  0.57935639272E+02  0.11643580937E+03  0.00000000000E+00 0. -1.
          1    1    1    2  502    0  0.77238249042E+02 -0.53911142493E+01  0.18878830663E+04  0.18894701065E+04  0.00000000000E+00 0. -1.
         22    1    3    3    0    0 -0.51002337552E+02  0.11132900283E+02  0.10363289815E+03  0.11603860342E+03  0.00000000000E+00 0.  1.
         22    1    3    3    0    0  0.74749457167E+02 -0.73894278603E+01  0.14909988751E+03  0.16695167399E+03  0.00000000000E+00 0.  1.
</event>
<event>
 7    1  0.5931885E-006  0.6166645E+02  0.7818608E-02  0.1410750E+00
          2   -1    0    0  502    0  0.00000000000E+00  0.00000000000E+00  0.23047802041E+04  0.23047802041E+04  0.00000000000E+00 0. -1.
          1   -1    0    0  501    0 -0.00000000000E+00 -0.00000000000E+00 -0.58336912939E+03  0.58336912939E+03  0.00000000000E+00 0. -1.
         25    2    1    2    0    0 -0.65085855771E+02  0.78587512116E+02  0.20830912598E+03  0.26349738219E+03  0.12500405102E+03 0.  0.
          2    1    1    2  501    0  0.10138864206E+02 -0.51752490351E+02 -0.55407085048E+03  0.55657490437E+03  0.00000000000E+00 0. -1.
          1    1    1    2  502    0  0.54946991565E+02 -0.26835021766E+02  0.20671727992E+04  0.20680770469E+04  0.00000000000E+00 0. -1.
         22    1    3    3    0    0  0.50681598112E+00 -0.31403375581E+02  0.58605564180E+02  0.66490909252E+02  0.00000000000E+00 0.  1.
         22    1    3    3    0    0 -0.65592671752E+02  0.10999088770E+03  0.14970356180E+03  0.19700647294E+03  0.00000000000E+00 0.  1.
</event>
<event>
 7    1  0.5931885E-006  0.1060318E+03  0.7818608E-02  0.1316341E+00
          2   -1    0    0  502    0  0.00000000000E+00  0.00000000000E+00  0.22177893862E+03  0.22177893862E+03  0.00000000000E+00 0. -1.
          1   -1    0    0  501    0 -0.00000000000E+00 -0.00000000000E+00 -0.89865229068E+03  0.89865229068E+03  0.00000000000E+00 0. -1.
         25    2    1    2    0    0 -0.11155452930E+03 -0.11903073099E+03 -0.88900187630E+02  0.22391652504E+03  0.12499055523E+03 0.  0.
          2    1    1    2  501    0  0.30097480742E+02  0.60513938076E+02 -0.72420089865E+03  0.72734774122E+03  0.00000000000E+00 0. -1.
          1    1    1    2  502    0  0.81457048556E+02  0.58516792916E+02  0.13622773423E+03  0.16916696304E+03  0.00000000000E+00 0. -1.
         22    1    3    3    0    0  0.24994830515E+02 -0.40083628778E+02 -0.27489436116E+02  0.54654441232E+02  0.00000000000E+00 0. -1.
         22    1    3    3    0    0 -0.13654935981E+03 -0.78947102214E+02 -0.61410751515E+02  0.16926208381E+03  0.00000000000E+00 0. -1.
</event>
<event>
 7    1  0.5931885E-006  0.5126301E+02  0.7818608E-02  0.1439223E+00
          2   -1    0    0  502    0  0.00000000000E+00  0.00000000000E+00  0.12518698415E+04  0.12518698415E+04  0.00000000000E+00 0. -1.
          1   -1    0    0  501    0 -0.00000000000E+00 -0.00000000000E+00 -0.53603979422E+02  0.53603979422E+02  0.00000000000E+00 0. -1.
         25    2    1    2    0    0  0.16627954445E+02 -0.11163429930E+02  0.26208903308E+03  0.29106152443E+03  0.12500015482E+03 0.  0.
          2    1    1    2  501    0  0.14040754572E+02  0.52240510493E+02 -0.19395060634E+02  0.57466356266E+02  0.00000000000E+00 0. -1.
          1    1    1    2  502    0 -0.30668709017E+02 -0.41077080563E+02  0.95557188959E+03  0.95694594019E+03  0.00000000000E+00 0. -1.
         22    1    3    3    0    0  0.64513158173E+01  0.52133278182E+02  0.63673006909E+02  0.82545441901E+02  0.00000000000E+00 0.  1.
         22    1    3    3    0    0  0.10176638628E+02 -0.63296708112E+02  0.19841602617E+03  0.20851608253E+03  0.00000000000E+00 0.  1.
</event>
<event>
 7    1  0.5931885E-006  0.1067620E+03  0.7818608E-02  0.1337765E+00
          2   -1    0    0  502    0  0.00000000000E+00  0.00000000000E+00  0.23684461030E+03  0.23684461030E+03  0.00000000000E+00 0. -1.
          1   -1    0    0  501    0 -0.00000000000E+00 -0.00000000000E+00 -0.21422356023E+04  0.21422356023E+04  0.00000000000E+00 0. -1.
         25    2    1    2    0    0  0.24988999374E+02  0.24116546778E+02  0.12980114529E+03  0.18351845787E+03  0.12499851656E+03 0.  0.
          2    1    1    2  501    0  0.75897981442E+02 -0.75084082400E+02 -0.20734768729E+04  0.20762236068E+04  0.00000000000E+00 0. -1.
          1    1    1    2  502    0 -0.10088698082E+03  0.50967535622E+02  0.38284735551E+02  0.11933814797E+03  0.00000000000E+00 0. -1.
         22    1    3    3    0    0 -0.32292610419E+02 -0.71178948304E+01 -0.52984378066E+01  0.33489558935E+02  0.00000000000E+00 0. -1.
         22    1    3    3    0    0  0.57281609792E+02  0.31234441609E+02  0.13509958309E+03  0.15002889893E+03  0.00000000000E+00 0. -1.
</event>
<event>
 7    1  0.5931885E-006  0.1927182E+03  0.7818608E-02  0.1332205E+00
          2   -1    0    0  502    0  0.00000000000E+00  0.00000000000E+00  0.11683939065E+04  0.11683939065E+04  0.00000000000E+00 0. -1.
          1   -1    0    0  501    0 -0.00000000000E+00 -0.00000000000E+00 -0.68445057058E+03  0.68445057058E+03  0.00000000000E+00 0. -1.
         25    2    1    2    0    0  0.75811340934E+02  0.18141877019E+03  0.13965025686E+03  0.27163794534E+03  0.12499939806E+03 0.  0.
          2    1    1    2  501    0 -0.44087766215E+02 -0.18750103666E+03 -0.60317766608E+03  0.63318533364E+03  0.00000000000E+00 0. -1.
          1    1    1    2  502    0 -0.31723574719E+02  0.60822664626E+01  0.94747074513E+03  0.94802119810E+03  0.00000000000E+00 0. -1.
         22    1    3    3    0    0  0.10265658421E+03  0.14759749668E+03  0.77078430155E+02  0.19561308674E+03  0.00000000000E+00 0. -1.
         22    1    3    3    0    0 -0.26845243275E+02  0.33821273512E+02  0.62571826700E+02  0.76024858600E+02  0.00000000000E+00 0. -1.
</event>
<event>
 7    1  0.5931885E-006  0.9223585E+02  0.7818608E-02  0.1398233E+00
          2   -1    0    0  502    0  0.00000000000E+00  0.00000000000E+00  0.53227709599E+03  0.53227709599E+03  0.00000000000E+00 0. -1.
          1   -1    0    0  501    0 -0.00000000000E+00 -0.00000000000E+00 -0.42953095629E+03  0.42953095629E+03  0.00000000000E+00 0. -1.
         25    2    1    2    0    0  0.11700813346E+02  0.91718948289E+02  0.41414032168E+02  0.16090052151E+03  0.12499832501E+03 0.  0.
          2    1    1    2  501    0 -0.38797022945E+02 -0.29108321691E+01 -0.36373900883E+03  0.36581381669E+03  0.00000000000E+00 0. -1.
          1    1    1    2  502    0  0.27096209599E+02 -0.88808116120E+02  0.42507111637E+03  0.43509371408E+03  0.00000000000E+00 0. -1.
         22    1    3    3    0    0  0.34215872725E+02 -0.19877620640E+02 -0.53027219140E+00  0.39574321690E+02  0.00000000000E+00 0.  1.
         22    1    3    3    0    0 -0.22515059379E+02  0.11159656893E+03  0.41944304360E+02  0.12132619982E+03  0.00000000000E+00 0.  1.
</event>
<event>
 7    1  0.5931885E-006  0.4449044E+02  0.7818608E-02  0.1545934E+00
          2   -1    0    0  502    0  0.00000000000E+00  0.00000000000E+00  0.32478656042E+04  0.32478656042E+04  0.00000000000E+00 0. -1.
          1   -1    0    0  501    0 -0.00000000000E+00 -0.00000000000E+00 -0.54412076450E+02  0.54412076450E+02  0.00000000000E+00 0. -1.
         25    2    1    2    0    0  0.22878945589E+02  0.27976621162E+02  0.23821622829E+04  0.23857134235E+04  0.12500103808E+03 0.  0.
          2    1    1    2  501    0 -0.43608410000E+02 -0.91370045603E+01 -0.42936915699E+02  0.61876950513E+02  0.00000000000E+00 0. -1.
          1    1    1    2  502    0  0.20729464410E+02 -0.18839616602E+02  0.85422816052E+03  0.85468730661E+03  0.00000000000E+00 0. -1.
         22    1    3    3    0    0  0.62271828849E+01 -0.34150761455E+02  0.23137743810E+03  0.23396703010E+03  0.00000000000E+00 0. -1.
         22    1    3    3    0    0  0.16651762704E+02  0.62127382617E+02  0.21507848448E+04  0.21517463934E+04  0.00000000000E+00 0. -1.
</event>
<event>
 7    1  0.5931885E-006  0.7465093E+02  0.7818608E-02  0.1421202E+00
          2   -1    0    0  502    0  0.00000000000E+00  0.00000000000E+00  0.26112245260E+04  0.26112245260E+04  0.00000000000E+00 0. -1.
          1   -1    0    0  501    0 -0.00000000000E+00 -0.00000000000E+00 -0.28759830759E+03  0.28759830759E+03  0.00000000000E+00 0. -1.
         25    2    1    2    0    0  0.49584677274E+02  0.10028985400E+03  0.49712409445E+03  0.52466633384E+03  0.12500280616E+03 0.  0.
          2    1    1    2  501    0 -0.10205266616E+02 -0.38862452962E+02 -0.27171564587E+03  0.27467040235E+03  0.00000000000E+00 0. -1.
          1    1    1    2  502    0 -0.39379410659E+02 -0.61427401039E+02  0.20982177698E+04  0.20994860974E+04  0.00000000000E+00 0. -1.
         22    1    3    3    0    0  0.12377298370E+02  0.12096137752E+03  0.41082527766E+03  0.42844166596E+03  0.00000000000E+00 0. -1.
         22    1    3    3    0    0  0.37207378904E+02 -0.20671523521E+02  0.86298816794E+02  0.96224667885E+02  0.00000000000E+00 0. -1.
</event>
<event>
 7    1  0.5931885E-006  0.6047613E+02  0.7818608E-02  0.1488715E+00
          2   -1    0    0  502    0  0.00000000000E+00  0.00000000000E+00  0.32477109546E+04  0.32477109546E+04  0.00000000000E+00 0. -1.
          1   -1    0    0  501    0 -0.00000000000E+00 -0.00000000000E+00 -0.20103117270E+04  0.20103117270E+04  0.00000000000E+00 0. -1.
         25    2    1    2    0    0  0.33889434471E+02 -0.51648450077E+02  0.99777048127E+03  0.10074659020E+04  0.12500221719E+03 0.  0.
          2    1    1    2  501    0 -0.28857006476E+02 -0.91009917368E+01 -0.20049360682E+04  0.20051643804E+04  0.00000000000E+00 0. -1.
          1    1    1    2  502    0 -0.50324279943E+01  0.60749441814E+02  0.22445648144E+04  0.22453923992E+04  0.00000000000E+00 0. -1.
         22    1    3    3    0    0 -0.14729112115E+02 -0.56680529897E+02  0.20529732869E+03  0.21348682016E+03  0.00000000000E+00 0.  1.
         22    1    3    3    0    0  0.48618546586E+02  0.50320798196E+01  0.79247315258E+03  0.79397908188E+03  0.00000000000E+00 0.  1.
</event>
<event>
 7    1  0.5931885E-006  0.1046419E+03  0.7818608E-02  0.1330434E+00
          2   -1    0    0  502    0  0.00000000000E+00  0.00000000000E+00  0.16394178578E+04  0.16394178578E+04  0.00000000000E+00 0. -1.
          1   -1    0    0  501    0 -0.00000000000E+00 -0.00000000000E+00 -0.15788694546E+03  0.15788694546E+03  0.00000000000E+00 0. -1.
         25    2    1    2    0    0 -0.46106786599E+02  0.14237657886E+03  0.63120912255E+03  0.66064143988E+03  0.12500091884E+03 0.  0.
          2    1    1    2  501    0 -0.68038937622E+01 -0.60037161222E+02 -0.13425971201E+03  0.14722915461E+03  0.00000000000E+00 0. -1.
          1    1    1    2  502    0  0.52910680362E+02 -0.82339417633E+02  0.98458150176E+03  0.98943420872E+03  0.00000000000E+00 0. -1.
         22    1    3    3    0    0 -0.73481112898E+02  0.38592823998E+02  0.34838406054E+03  0.35813451894E+03  0.00000000000E+00 0.  1.
         22    1    3    3    0    0  0.27374326299E+02  0.10378375486E+03  0.28282506201E+03  0.30250692094E+03  0.00000000000E+00 0.  1.
</event>
<event>
 7    1  0.5931885E-006  0.8016554E+02  0.7818608E-02  0.1414814E+00
          2   -1    0    0  502    0  0.00000000000E+00  0.00000000000E+00  0.14628047246E+04  0.14628047246E+04  0.00000000000E+00 0. -1.
          1   -1    0    0  501    0 -0.00000000000E+00 -0.00000000000E+00 -0.43063929058E+02  0.43063929058E+02  0.00000000000E+00 0. -1.
         25    2    1    2    0    0  0.26226616732E+01  0.10616334795E+03  0.75096417996E+03  0.76866750114E+03  0.12499997170E+03 0.  0.
          2    1    1    2  501    0  0.22190503971E+02 -0.75680092426E+02  0.12621546071E+02  0.79869883444E+02  0.00000000000E+00 0. -1.
          1    1    1    2  502    0 -0.24813165644E+02 -0.30483255526E+02  0.65615506952E+03  0.65733126908E+03  0.00000000000E+00 0. -1.
         22    1    3    3    0    0 -0.28650994754E+02  0.45313345941E+02  0.94502977162E+02  0.10865077778E+03  0.00000000000E+00 0.  1.
         22    1    3    3    0    0  0.31273656427E+02  0.60850002011E+02  0.65646120280E+03  0.66001672336E+03  0.00000000000E+00 0.  1.
</event>
<event>
 7    1  0.1116198E-005  0.3863995E+02  0.7818608E-02  0.1602583E+00
          2   -1    0    0  502    0  0.00000000000E+00  0.00000000000E+00  0.19909041404E+04  0.19909041404E+04  0.00000000000E+00 0. -1.
          1   -1    0    0  501    0 -0.00000000000E+00 -0.00000000000E+00 -0.90184914449E+03  0.90184914449E+03  0.00000000000E+00 0. -1.
         25    2    1    2    0    0  0.26808472008E+01  0.60037453050E+02 -0.53515113094E+03  0.55283228222E+03  0.12500046645E+03 0.  0.
          2    1    1    2  501    0 -0.68050420488E+01 -0.21625454009E+02 -0.35730990539E+03  0.35802840299E+03  0.00000000000E+00 0. -1.
          1    1    1    2  502    0  0.41241948480E+01 -0.38411999041E+02  0.19815160322E+04  0.19818925997E+04  0.00000000000E+00 0. -1.
         22    1    3    3    0    0  0.72080345789E+01  0.28770100493E+02 -0.17952068470E+02  0.34669167963E+02  0.00000000000E+00 0. -1.
         22    1    3    3    0    0 -0.45271873781E+01  0.31267352556E+02 -0.51719906247E+03  0.51816311426E+03  0.00000000000E+00 0. -1.
</event>
<event>
 7    1  0.5931885E-006  0.5734532E+02  0.7818608E-02  0.1411867E+00
          2   -1    0    0  502    0  0.00000000000E+00  0.00000000000E+00  0.21006228699E+04  0.21006228699E+04  0.00000000000E+00 0. -1.
          1   -1    0    0  501    0 -0.00000000000E+00 -0.00000000000E+00 -0.47957725942E+02  0.47957725942E+02  0.00000000000E+00 0. -1.
         25    2    1    2    0    0  0.41568889772E+01 -0.56296863251E+02  0.32491300061E+03  0.35267629830E+03  0.12500198752E+03 0.  0.
          2    1    1    2  501    0 -0.52403253241E+02  0.25300505977E+02 -0.84096223652E+01  0.58795733699E+02  0.00000000000E+00 0. -1.
          1    1    1    2  502    0  0.48246364264E+02  0.30996357274E+02  0.17361617657E+04  0.17371085638E+04  0.00000000000E+00 0. -1.
         22    1    3    3    0    0 -0.15347626898E+02 -0.84251756046E+02  0.29548249686E+03  0.30764234754E+03  0.00000000000E+00 0. -1.
         22    1    3    3    0    0  0.19504515875E+02  0.27954892795E+02  0.29430503743E+02  0.45033950763E+02  0.00000000000E+00 0. -1.
</event>
<event>
 7    1  0.1804364E-005  0.8737833E+02  0.7818608E-02  0.1336681E+00
          2   -1    0    0  502    0  0.00000000000E+00  0.00000000000E+00  0.23704506308E+04  0.23704506308E+04  0.00000000000E+00 0. -1.
          1   -1    0    0  501    0 -0.00000000000E+00 -0.00000000000E+00 -0.14985238698E+04  0.14985238698E+04  0.00000000000E+00 0. -1.
         25    2    1    2    0    0 -0.17284573695E+02 -0.50909771666E+02 -0.27832945571E+03  0.30981325312E+03  0.12500561809E+03 0.  0.
          2    1    1    2  501    0  0.64640094846E+02 -0.22700739292E+02 -0.12026639119E+04  0.12046136935E+04  0.00000000000E+00 0. -1.
          1    1    1    2  502    0 -0.47355521151E+02  0.73610510958E+02  0.23529201286E+04  0.23545475540E+04  0.00000000000E+00 0. -1.
         22    1    3    3    0    0 -0.51611839744E+02  0.12196062655E+02 -0.60549790565E+02  0.80491012439E+02  0.00000000000E+00 0.  1.
         22    1    3    3    0    0  0.34327266049E+02 -0.63105834321E+02 -0.21777966515E+03  0.22932224068E+03  0.00000000000E+00 0.  1.
</event>
<event>
 7    1  0.5931885E-006  0.6433127E+02  0.7818608E-02  0.1393261E+00
          2   -1    0    0  502    0  0.00000000000E+00  0.00000000000E+00  0.12787780401E+04  0.12787780401E+04  0.00000000000E+00 0. -1.
          1   -1    0    0  501    0 -0.00000000000E+00 -0.00000000000E+00 -0.59631943151E+03  0.59631943151E+03  0.00000000000E+00 0. -1.
         25    2    1    2    0    0  0.94348873723E+02 -0.29037430658E+02  0.16875816068E+03  0.23205530324E+03  0.12500185844E+03 0.  0.
          2    1    1    2  501    0 -0.40228741650E+02  0.49994942013E+02 -0.56206303452E+03  0.56571432778E+03  0.00000000000E+00 0. -1.
          1    1    1    2  502    0 -0.54120132073E+02 -0.20957511355E+02  0.10757634824E+04  0.10773278406E+04  0.00000000000E+00 0. -1.
         22    1    3    3    0    0  0.58733218349E+02  0.38844402526E+02  0.36814649613E+02  0.79459404550E+02  0.00000000000E+00 0. -1.
         22    1    3    3    0    0  0.35615655374E+02 -0.67881833184E+02  0.13194351107E+03  0.15259589869E+03  0.00000000000E+00 0. -1.
</event>
<event>
 7    1  0.5931885E-006  0.6217208E+02  0.7818608E-02  0.1437477E+00
          2   -1    0    0  502    0  0.00000000000E+00  0.00000000000E+00  0.11874068921E+04  0.11874068921E+04  0.00000000000E+00 0. -1.
          1   -1    0    0  501    0 -0.00000000000E+00 -0.00000000000E+00 -0.65281978401E+03  0.65281978401E+03  0.00000000000E+00 0. -1.
         25    2    1    2    0    0  0.19910529410E+02  0.18585214413E+02  0.16624958602E+02  0.12900925033E+03  0.12500063218E+03 0.  0.
          2    1    1    2  501    0 -0.48222604563E+01  0.42366349242E+02 -0.59497970142E+03  0.59650566371E+03  0.00000000000E+00 0. -1.
          1    1    1    2  502    0 -0.15088268954E+02 -0.60951563655E+02  0.11129418509E+04  0.11147117620E+04  0.00000000000E+00 0. -1.
         22    1    3    3    0    0  0.70268102773E+02 -0.49053143649E+01  0.20343493978E+02  0.73317979538E+02  0.00000000000E+00 0. -1.
         22    1    3    3    0    0 -0.50357573363E+02  0.23490528778E+02 -0.37185353752E+01  0.55691270794E+02  0.00000000000E+00 0. -1.
</event>
<event>
 7    1  0.5931885E-006  0.7457603E+02  0.7818608E-02  0.1388010E+00
          2   -1    0    0  502    0  0.00000000000E+00  0.00000000000E+00  0.14544868656E+04  0.14544868656E+04  0.00000000000E+00 0. -1.
          1   -1    0    0  501    0 -0.00000000000E+00 -0.00000000000E+00 -0.16004202446E+03  0.16004202446E+03  0.00000000000E+00 0. -1.
         25    2    1    2    0    0  0.75638544891E+01  0.11097175730E+03 -0.59412695340E+02  0.17753984110E+03  0.12497433336E+03 0.  0.
          2    1    1    2  501    0 -0.32445210500E+02 -0.40916322667E+02 -0.23757538836E+02  0.57369484890E+02  0.00000000000E+00 0. -1.
          1    1    1    2  502    0  0.24881356011E+02 -0.70055434631E+02  0.13776150754E+04  0.13796195641E+04  0.00000000000E+00 0. -1.
         22    1    3    3    0    0 -0.34807066839E+02  0.10443982214E+03 -0.76843415358E+01  0.11035514241E+03  0.00000000000E+00 0. -1.
         22    1    3    3    0    0  0.42370921329E+02  0.65319351551E+01 -0.51728353804E+02  0.67184698693E+02  0.00000000000E+00 0. -1.
</event>
<event>
 7    1  0.5931885E-006  0.7754917E+02  0.7818608E-02  0.1473645E+00
          2   -1    0    0  502    0  0.00000000000E+00  0.00000000000E+00  0.17507965084E+03  0.17507965084E+03  0.00000000000E+00 0. -1.
          1   -1    0    0  501    0 -0.00000000000E+00 -0.00000000000E+00 -0.11094865521E+04  0.11094865521E+04  0.00000000000E+00 0. -1.
         25    2    1    2    0    0  0.60260436866E+01  0.56128297272E+02 -0.20712894538E+03  0.24842330631E+03  0.12500016059E+03 0.  0.
          2    1    1    2  501    0 -0.23146106844E+02 -0.76017189816E+02 -0.87878983753E+03  0.88237516622E+03  0.00000000000E+00 0. -1.
          1    1    1    2  502    0  0.17120063157E+02  0.19888892544E+02  0.15151188169E+03  0.15376773037E+03  0.00000000000E+00 0. -1.
         22    1    3    3    0    0  0.19809486130E+02  0.87140832129E+02 -0.91427635714E+02  0.12784738142E+03  0.00000000000E+00 0. -1.
         22    1    3    3    0    0 -0.13783442443E+02 -0.31012534857E+02 -0.11570130967E+03  0.12057592489E+03  0.00000000000E+00 0. -1.
</event>
<event>
 7    1  0.5931885E-006  0.4257219E+02  0.7818608E-02  0.1593641E+00
          2   -1    0    0  502    0  0.00000000000E+00  0.00000000000E+00  0.46728820698E+03  0.46728820698E+03  0.00000000000E+00 0. -1.
          1   -1    0    0  501    0 -0.00000000000E+00 -0.00000000000E+00 -0.41555483401E+03  0.41555483401E+03  0.00000000000E+00 0. -1.
         25    2    1    2    0    0  0.21028573492E+02  0.31038967261E+01 -0.35729976855E+03  0.37913075715E+03  0.12500068533E+03 0.  0.
          2    1    1    2  501    0  0.20008164876E+02  0.84440612897E+01 -0.43793958875E+02  0.48882917944E+02  0.00000000000E+00 0. -1.
          1    1    1    2  502    0 -0.41036738368E+02 -0.11547958016E+02  0.45282710039E+03  0.45482936589E+03  0.00000000000E+00 0. -1.
         22    1    3    3    0    0 -0.37030872506E+02 -0.13449884199E+02 -0.40021989397E+02  0.56159990553E+02  0.00000000000E+00 0.  1.
         22    1    3    3    0    0  0.58059445998E+02  0.16553780926E+02 -0.31727777915E+03  0.32297076660E+03  0.00000000000E+00 0.  1.
</event>
<event>
 7    1  0.5931885E-006  0.2170424E+03  0.7818608E-02  0.1240901E+00
          2   -1    0    0  502    0  0.00000000000E+00  0.00000000000E+00  0.12406241905E+04  0.12406241905E+04  0.00000000000E+00 0. -1.
          1   -1    0    0  501    0 -0.00000000000E+00 -0.00000000000E+00 -0.97933478472E+03  0.97933478472E+03  0.00000000000E+00 0. -1.
         25    2    1    2    0    0 -0.17180364930E+03 -0.29679256266E+02  0.15123612365E+03  0.26247795303E+03  0.12499983427E+03 0.  0.
          2    1    1    2  501    0 -0.39066584168E+02 -0.55459809783E+02 -0.90992952504E+03  0.91245478191E+03  0.00000000000E+00 0. -1.
          1    1    1    2  502    0  0.21087023347E+03  0.85139066049E+02  0.10199828072E+04  0.10450262403E+04  0.00000000000E+00 0. -1.
         22    1    3    3    0    0 -0.12755154638E+03 -0.73276371833E+02  0.13146715278E+03  0.19728769833E+03  0.00000000000E+00 0. -1.
         22    1    3    3    0    0 -0.44252102928E+02  0.43597115566E+02  0.19768970865E+02  0.65190254704E+02  0.00000000000E+00 0. -1.
</event>
<event>
 7    1  0.5931885E-006  0.8290108E+02  0.7818608E-02  0.1455122E+00
          2   -1    0    0  502    0  0.00000000000E+00  0.00000000000E+00  0.18616306128E+03  0.18616306128E+03  0.00000000000E+00 0. -1.
          1   -1    0    0  501    0 -0.00000000000E+00 -0.00000000000E+00 -0.22785983469E+04  0.22785983469E+04  0.00000000000E+00 0. -1.
         25    2    1    2    0    0  0.76946096555E+02 -0.14434725353E+02 -0.10034554390E+03  0.17840149241E+03  0.12501520404E+03 0.  0.
          2    1    1    2  501    0 -0.82041177628E+02 -0.13159507900E+02 -0.21370722249E+04  0.21386868919E+04  0.00000000000E+00 0. -1.
          1    1    1    2  502    0  0.50950810732E+01  0.27594233254E+02  0.14498248312E+03  0.14767302384E+03  0.00000000000E+00 0. -1.
         22    1    3    3    0    0  0.36796109515E+01  0.43839878231E+02 -0.41774473069E+01  0.44191916977E+02  0.00000000000E+00 0.  1.
         22    1    3    3    0    0  0.73266485603E+02 -0.58274603585E+02 -0.96168096588E+02  0.13420957543E+03  0.00000000000E+00 0.  1.
</event>
<event>
 7    1  0.5931885E-006  0.1157953E+03  0.7818608E-02  0.1447352E+00
          2   -1    0    0  502    0  0.00000000000E+00  0.00000000000E+00  0.91452726114E+02  0.91452726114E+02  0.00000000000E+00 0. -1.
          1   -1    0    0  501    0 -0.00000000000E+00 -0.00000000000E+00 -0.11651205758E+04  0.11651205758E+04  0.00000000000E+00 0. -1.
         25    2    1    2    0    0  0.28838104710E+02 -0.97311363519E+02 -0.12389786339E+03  0.20316830560E+03  0.12500216835E+03 0.  0.
          2    1    1    2  501    0  0.11217533883E+02 -0.18072435945E+02 -0.92932321452E+03  0.92956661034E+03  0.00000000000E+00 0. -1.
          1    1    1    2  502    0 -0.40055638593E+02  0.11538379946E+03 -0.20446771750E+02  0.12383838596E+03  0.00000000000E+00 0. -1.
         22    1    3    3    0    0  0.92581751760E+01 -0.11102055161E+03 -0.44014153055E+02  0.11978531779E+03  0.00000000000E+00 0.  1.
         22    1    3    3    0    0  0.19579929534E+02  0.13709188092E+02 -0.79883710339E+02  0.83382987811E+02  0.00000000000E+00 0.  1.
</event>
<event>
 7    1  0.5931885E-006  0.1155121E+03  0.7818608E-02  0.1322443E+00
          2   -1    0    0  502    0  0.00000000000E+00  0.00000000000E+00  0.89508087752E+03  0.89508087752E+03  0.00000000000E+00 0. -1.
          1   -1    0    0  501    0 -0.00000000000E+00 -0.00000000000E+00 -0.13495538369E+04  0.13495538369E+04  0.00000000000E+00 0. -1.
         25    2    1    2    0    0  0.88071801713E+02  0.33059881659E+01 -0.16328817423E+01  0.15295320776E+03  0.12499778256E+03 0.  0.
          2    1    1    2  501    0 -0.99768009373E+02 -0.60874258271E+02 -0.12685181827E+04  0.12738907767E+04  0.00000000000E+00 0. -1.
          1    1    1    2  502    0  0.11696207660E+02  0.57568270105E+02  0.81567810506E+03  0.81779073000E+03  0.00000000000E+00 0. -1.
         22    1    3    3    0    0  0.21660783947E+02  0.18069373442E+01  0.59085404272E+02  0.62956648432E+02  0.00000000000E+00 0. -1.
         22    1    3    3    0    0  0.66411017766E+02  0.14990508217E+01 -0.60718286014E+02  0.89996559326E+02  0.00000000000E+00 0. -1.
</event>
<event>
 7    1  0.5931885E-006  0.9261786E+02  0.7818608E-02  0.1308264E+00
          2   -1    0    0  502    0  0.00000000000E+00  0.00000000000E+00  0.92322121812E+03  0.92322121812E+03  0.00000000000E+00 0. -1.
          1   -1    0    0  501    0 -0.00000000000E+00 -0.00000000000E+00 -0.13697995610E+04  0.13697995610E+04  0.00000000000E+00 0. -1.
         25    2    1    2    0    0 -0.17839298996E+02  0.29800919794E+01  0.45511860756E+03  0.47231704142E+03  0.12499327634E+03 0.  0.
          2    1    1    2  501    0  0.43117869020E+02 -0.82285262308E+02 -0.13558283841E+04  0.13590072193E+04  0.00000000000E+00 0. -1.
          1    1    1    2  502    0 -0.25278570024E+02  0.79305170329E+02  0.45413143361E+03  0.46169651843E+03  0.00000000000E+00 0. -1.
         22    1    3    3    0    0 -0.49540059288E+02 -0.38007626904E+02  0.14460882952E+03  0.15751352562E+03  0.00000000000E+00 0.  1.
         22    1    3    3    0    0  0.31700760292E+02  0.40987718883E+02  0.31050977804E+03  0.31480351580E+03  0.00000000000E+00 0.  1.
</event>
<event>
 7    1  0.5931885E-006  0.1563803E+03  0.7818608E-02  0.1216069E+00
          2   -1    0    0  502    0  0.00000000000E+00  0.00000000000E+00  0.14448134941E+04  0.14448134941E+04  0.00000000000E+00 0. -1.
          1   -1    0    0  501    0 -0.00000000000E+00 -0.00000000000E+00 -0.14031729202E+04  0.14031729202E+04  0.00000000000E+00 0. -1.
         25    2    1    2    0    0 -0.52318854090E+02  0.21425881045E+02 -0.11009188669E+03  0.17590218864E+03  0.12500010232E+03 0.  0.
          2    1    1    2  501    0 -0.10047139002E+03 -0.68764767104E+02 -0.12526847182E+04  0.12585873417E+04  0.00000000000E+00 0. -1.
          1    1    1    2  502    0  0.15279024411E+03  0.47338886059E+02  0.14044171789E+04  0.14134968840E+04  0.00000000000E+00 0. -1.
         22    1    3    3    0    0  0.16309004687E+02  0.55261630458E+02 -0.29344228317E+02  0.64659996677E+02  0.00000000000E+00 0.  1.
         22    1    3    3    0    0 -0.68627858776E+02 -0.33835749413E+02 -0.80747658378E+02  0.11124219196E+03  0.00000000000E+00 0.  1.
</event>
<event>
 7    1  0.5931885E-006  0.9194755E+02  0.7818608E-02  0.1445297E+00
          2   -1    0    0  502    0  0.00000000000E+00  0.00000000000E+00  0.65664079155E+03  0.65664079155E+03  0.00000000000E+00 0. -1.
          1   -1    0    0  501    0 -0.00000000000E+00 -0.00000000000E+00 -0.95038927969E+02  0.95038927969E+02  0.00000000000E+00 0. -1.
         25    2    1    2    0    0 -0.59582289304E+02 -0.37510951514E+02  0.17038613919E+03  0.22274152154E+03  0.12500091321E+03 0.  0.
          2    1    1    2  501    0 -0.26762291796E+02 -0.48506147079E+01 -0.60904535836E+02  0.66701658230E+02  0.00000000000E+00 0. -1.
          1    1    1    2  502    0  0.86344581100E+02  0.42361566222E+02  0.45212026022E+03  0.46223653975E+03  0.00000000000E+00 0. -1.
         22    1    3    3    0    0 -0.34419550616E+02 -0.51032236474E+02  0.13165618589E+02  0.62947026435E+02  0.00000000000E+00 0. -1.
         22    1    3    3    0    0 -0.25162738688E+02  0.13521284961E+02  0.15722052060E+03  0.15979449510E+03  0.00000000000E+00 0. -1.
</event>
<event>
 7    1  0.5931885E-006  0.6113348E+02  0.7818608E-02  0.1405720E+00
          2   -1    0    0  502    0  0.00000000000E+00  0.00000000000E+00  0.17366742510E+03  0.17366742510E+03  0.00000000000E+00 0. -1.
          1   -1    0    0  501    0 -0.00000000000E+00 -0.00000000000E+00 -0.82750159263E+03  0.82750159263E+03  0.00000000000E+00 0. -1.
         25    2    1    2    0    0 -0.37712559197E+02  0.28439404292E+02  0.91046804200E+02  0.16167064527E+03  0.12496735634E+03 0.  0.
          2    1    1    2  501    0  0.56829349205E+02  0.23484104784E+02 -0.77436474660E+03  0.77680231648E+03  0.00000000000E+00 0. -1.
          1    1    1    2  502    0 -0.19116790007E+02 -0.51923509076E+02  0.29483774869E+02  0.62696055981E+02  0.00000000000E+00 0. -1.
         22    1    3    3    0    0 -0.15527954599E+01 -0.96327826563E+01  0.10649258874E+03  0.10693864191E+03  0.00000000000E+00 0. -1.
         22    1    3    3    0    0 -0.36159763738E+02  0.38072186948E+02 -0.15445784544E+02  0.54732003369E+02  0.00000000000E+00 0. -1.
</event>
<event>
 7    1  0.5931885E-006  0.6937129E+02  0.7818608E-02  0.1380555E+00
          2   -1    0    0  502    0  0.00000000000E+00  0.00000000000E+00  0.57588903151E+02  0.57588903151E+02  0.00000000000E+00 0. -1.
          1   -1    0    0  501    0 -0.00000000000E+00 -0.00000000000E+00 -0.26178003198E+04  0.26178003198E+04  0.00000000000E+00 0. -1.
         25    2    1    2    0    0 -0.95663116607E+02  0.74452184118E+02 -0.17434716878E+04  0.17521440647E+04  0.12498295038E+03 0.  0.
          2    1    1    2  501    0  0.31042036300E+02 -0.50916697725E+02 -0.84629245707E+03  0.84839085392E+03  0.00000000000E+00 0. -1.
          1    1    1    2  502    0  0.64621080307E+02 -0.23535486393E+02  0.29552728143E+02  0.74854304355E+02  0.00000000000E+00 0. -1.
         22    1    3    3    0    0 -0.12546088474E+03  0.57720459152E+02 -0.14884234963E+04  0.14948165738E+04  0.00000000000E+00 0. -1.
         22    1    3    3    0    0  0.29797768132E+02  0.16731724966E+02 -0.25504819150E+03  0.25732749094E+03  0.00000000000E+00 0. -1.
</event>
<event>
 7    1  0.5931885E-006  0.8074718E+02  0.7818608E-02  0.1446575E+00
          2   -1    0    0  502    0  0.00000000000E+00  0.00000000000E+00  0.10824543345E+04  0.10824543345E+04  0.00000000000E+00 0. -1.
          1   -1    0    0  501    0 -0.00000000000E+00 -0.00000000000E+00 -0.13612283209E+03  0.13612283209E+03  0.00000000000E+00 0. -1.
         25    2    1    2    0    0 -0.91542376725E+02 -0.23251233460E+02  0.67235575830E+03  0.69036540917E+03  0.12498602263E+03 0.  0.
          2    1    1    2  501    0  0.80398193173E+02 -0.53322512183E+01 -0.11368254776E+03  0.13934139383E+03  0.00000000000E+00 0. -1.
          1    1    1    2  502    0  0.11144183551E+02  0.28583484679E+02  0.38765829187E+03  0.38887036359E+03  0.00000000000E+00 0. -1.
         22    1    3    3    0    0  0.27923963247E+02  0.33769288259E+01  0.65412303669E+02  0.71203376626E+02  0.00000000000E+00 0. -1.
         22    1    3    3    0    0 -0.11946633997E+03 -0.26628162286E+02  0.60694345464E+03  0.61916203254E+03  0.00000000000E+00 0. -1.
</event>
<event>
 7    1  0.5931885E-006  0.7884560E+02  0.7818608E-02  0.1372182E+00
          2   -1    0    0  502    0  0.00000000000E+00  0.00000000000E+00  0.22134170698E+04  0.22134170698E+04  0.00000000000E+00 0. -1.
          1   -1    0    0  501    0 -0.00000000000E+00 -0.00000000000E+00 -0.17704649549E+02  0.17704649549E+02  0.00000000000E+00 0. -1.
         25    2    1    2    0    0 -0.12478588787E+02  0.50987218297E+02  0.85297482039E+03  0.86368019162E+03  0.12498806977E+03 0.  0.
          2    1    1    2  501    0 -0.55870942961E+02  0.60335925984E+01  0.62247085231E+02  0.83860992879E+02  0.00000000000E+00 0. -1.
          1    1    1    2  502    0  0.68349531748E+02 -0.57020810896E+02  0.12804905146E+04  0.12835805349E+04  0.00000000000E+00 0. -1.
         22    1    3    3    0    0  0.40391908049E+01 -0.31626982337E+02  0.79876875865E+02  0.86005211308E+02  0.00000000000E+00 0.  1.
         22    1    3    3    0    0 -0.16517779592E+02  0.82614200634E+02  0.77309794452E+03  0.77767498032E+03  0.00000000000E+00 0.  1.
</event>
<event>
 7    1  0.5931885E-006  0.8216271E+02  0.7818608E-02  0.1452623E+00
          2   -1    0    0  502    0  0.00000000000E+00  0.00000000000E+00  0.13721649296E+04  0.13721649296E+04  0.00000000000E+00 0. -1.
          1   -1    0    0  501    0 -0.00000000000E+00 -0.00000000000E+00 -0.52190586129E+02  0.52190586129E+02  0.00000000000E+00 0. -1.
         25    2    1    2    0    0 -0.98736169763E+02  0.40973312136E+02  0.29094177794E+03  0.33421562226E+03  0.12500128193E+03 0.  0.
          2    1    1    2  501    0  0.73041321188E+02 -0.27885670389E+02  0.20007427918E+02  0.80702802837E+02  0.00000000000E+00 0. -1.
          1    1    1    2  502    0  0.25694848576E+02 -0.13087641747E+02  0.10090251377E+04  0.10094370907E+04  0.00000000000E+00 0. -1.
         22    1    3    3    0    0 -0.92575677938E+02  0.58054783914E+02  0.29586694682E+03  0.31540111652E+03  0.00000000000E+00 0.  1.
         22    1    3    3    0    0 -0.61604918249E+01 -0.17081471778E+02 -0.49251688818E+01  0.18814505738E+02  0.00000000000E+00 0.  1.
</event>
<event>
 7    1  0.5931885E-006  0.1015046E+03  0.7818608E-02  0.1331578E+00
          2   -1    0    0  502    0  0.00000000000E+00  0.00000000000E+00  0.19324114435E+04  0.19324114435E+04  0.00000000000E+00 0. -1.
          1   -1    0    0  501    0 -0.00000000000E+00 -0.00000000000E+00 -0.68490758785E+02  0.68490758785E+02  0.00000000000E+00 0. -1.
         25    2    1    2    0    0  0.91896741143E+02 -0.57519989726E+02  0.11831698763E+03  0.20342011166E+03  0.12500908774E+03 0.  0.
          2    1    1    2  501    0 -0.10415847360E+03 -0.29146348075E+01  0.81631450734E+02  0.13236758088E+03  0.00000000000E+00 0. -1.
          1    1    1    2  502    0  0.12261732458E+02  0.60434624533E+02  0.16639722463E+04  0.16651145097E+04  0.00000000000E+00 0. -1.
         22    1    3    3    0    0 -0.20382685344E+02  0.12348971894E+02  0.48125657733E+02  0.53703164719E+02  0.00000000000E+00 0.  1.
         22    1    3    3    0    0  0.11227942649E+03 -0.69868961619E+02  0.70191329897E+02  0.14971694695E+03  0.00000000000E+00 0.  1.
</event>
<event>
 7    1  0.5931885E-006  0.2663344E+02  0.7818608E-02  0.1680877E+00
          2   -1    0    0  502    0  0.00000000000E+00  0.00000000000E+00  0.22348569001E+03  0.22348569001E+03  0.00000000000E+00 0. -1.
          1   -1    0    0  501    0 -0.00000000000E+00 -0.00000000000E+00 -0.69037341444E+03  0.69037341444E+03  0.00000000000E+00 0. -1.
         25    2    1    2    0    0 -0.53688600259E+01 -0.58484995457E+01 -0.34643001919E+03  0.36837739303E+03  0.12500046358E+03 0.  0.
          2    1    1    2  501    0  0.66881789064E+01  0.26843120868E+02 -0.33187222595E+03  0.33302321125E+03  0.00000000000E+00 0. -1.
          1    1    1    2  502    0 -0.13193188805E+01 -0.20994621322E+02  0.21141452071E+03  0.21245850017E+03  0.00000000000E+00 0. -1.
         22    1    3    3    0    0  0.37650498743E+01 -0.60790395716E+02 -0.24712439680E+03  0.25451938100E+03  0.00000000000E+00 0. -1.
         22    1    3    3    0    0 -0.91339099002E+01  0.54941896171E+02 -0.99305622390E+02  0.11385801203E+03  0.00000000000E+00 0. -1.
</event>
<event>
 7    1  0.5931885E-006  0.7728433E+02  0.7818608E-02  0.1347205E+00
          2   -1    0    0  502    0  0.00000000000E+00  0.00000000000E+00  0.15695124039E+04  0.15695124039E+04  0.00000000000E+00 0. -1.
          1   -1    0    0  501    0 -0.00000000000E+00 -0.00000000000E+00 -0.23772540831E+03  0.23772540831E+03  0.00000000000E+00 0. -1.
         25    2    1    2    0    0  0.22646417856E+02  0.90720001914E+02  0.18438828517E+03  0.24158883705E+03  0.12499258974E+03 0.  0.
          2    1    1    2  501    0 -0.65786052644E+02 -0.25975035121E+02 -0.20199214757E+03  0.21401713681E+03  0.00000000000E+00 0. -1.
          1    1    1    2  502    0  0.43139634788E+02 -0.64744966793E+02  0.13493908580E+04  0.13516318384E+04  0.00000000000E+00 0. -1.
         22    1    3    3    0    0 -0.21090647094E+02  0.10177991989E+02 -0.10924755171E+02  0.25840998265E+02  0.00000000000E+00 0.  1.
         22    1    3    3    0    0  0.43737064950E+02  0.80542009925E+02  0.19531304034E+03  0.21574783878E+03  0.00000000000E+00 0.  1.
</event>
<event>
 7    1  0.5931885E-006  0.8328712E+02  0.7818608E-02  0.1489471E+00
          2   -1    0    0  502    0  0.00000000000E+00  0.00000000000E+00  0.13109952397E+03  0.13109952397E+03  0.00000000000E+00 0. -1.
          1   -1    0    0  501    0 -0.00000000000E+00 -0.00000000000E+00 -0.46124449550E+03  0.46124449550E+03  0.00000000000E+00 0. -1.
         25    2    1    2    0    0  0.36921673689E+02 -0.54531319521E+02 -0.31054565353E+03  0.34117585098E+03  0.12500193427E+03 0.  0.
          2    1    1    2  501    0 -0.15044958297E+01 -0.21803479430E+02 -0.11896570710E+03  0.12095658183E+03  0.00000000000E+00 0. -1.
          1    1    1    2  502    0 -0.35417177860E+02  0.76334798951E+02  0.99366389100E+02  0.13021158666E+03  0.00000000000E+00 0. -1.
         22    1    3    3    0    0  0.44885072190E+02 -0.30014860571E+02 -0.34823526505E+02  0.64251377875E+02  0.00000000000E+00 0. -1.
         22    1    3    3    0    0 -0.79633985009E+01 -0.24516458950E+02 -0.27572212702E+03  0.27692447310E+03  0.00000000000E+00 0. -1.
</event>
<event>
 7    1  0.5931885E-006  0.3755438E+02  0.7818608E-02  0.1620786E+00
          2   -1    0    0  502    0  0.00000000000E+00  0.00000000000E+00  0.79773614448E+01  0.79773614448E+01  0.00000000000E+00 0. -1.
          1   -1    0    0  501    0 -0.00000000000E+00 -0.00000000000E+00 -0.16488537025E+04  0.16488537025E+04  0.00000000000E+00 0. -1.
         25    2    1    2    0    0 -0.22661694498E+02  0.17184001715E+02 -0.61697486205E+03  0.63015219489E+03  0.12499986402E+03 0.  0.
          2    1    1    2  501    0  0.38238478658E+02 -0.31886112669E+01 -0.91370662964E+03  0.91451197562E+03  0.00000000000E+00 0. -1.
          1    1    1    2  502    0 -0.15576784160E+02 -0.13995390448E+02 -0.11019484931E+03  0.11216689339E+03  0.00000000000E+00 0. -1.
         22    1    3    3    0    0  0.36793216530E+02  0.48419634142E+02 -0.31170597622E+03  0.31758277246E+03  0.00000000000E+00 0.  1.
         22    1    3    3    0    0 -0.59454911029E+02 -0.31235632427E+02 -0.30526888584E+03  0.31256942243E+03  0.00000000000E+00 0.  1.
</event>
<event>
 7    1  0.5931885E-006  0.1081570E+03  0.7818608E-02  0.1340418E+00
          2   -1    0    0  502    0  0.00000000000E+00  0.00000000000E+00  0.38555684735E+03  0.38555684735E+03  0.00000000000E+00 0. -1.
          1   -1    0    0  501    0 -0.00000000000E+00 -0.00000000000E+00 -0.81738229696E+03  0.81738229696E+03  0.00000000000E+00 0. -1.
         25    2    1    2    0    0 -0.99905623065E+01  0.61872481578E+02  0.16415632751E+02  0.14079306895E+03  0.12500079981E+03 0.  0.
          2    1    1    2  501    0 -0.10693173427E+02  0.52503863129E+02 -0.74319123980E+03  0.74512027117E+03  0.00000000000E+00 0. -1.
          1    1    1    2  502    0  0.20683735733E+02 -0.11437634471E+03  0.29495015743E+03  0.31702580419E+03  0.00000000000E+00 0. -1.
         22    1    3    3    0    0 -0.53317319903E+02  0.44853006886E+01  0.38104416089E+02  0.65687145237E+02  0.00000000000E+00 0.  1.
         22    1    3    3    0    0  0.43326757597E+02  0.57387180889E+02 -0.21688783338E+02  0.75105923714E+02  0.00000000000E+00 0.  1.
</event>
<event>
 7    1  0.5931885E-006  0.2829701E+03  0.7818608E-02  0.1211999E+00
          2   -1    0    0  502    0  0.00000000000E+00  0.00000000000E+00  0.12268444063E+04  0.12268444063E+04  0.00000000000E+00 0. -1.
          1   -1    0    0  501    0 -0.00000000000E+00 -0.00000000000E+00 -0.11045403990E+04  0.11045403990E+04  0.00000000000E+00 0. -1.
         25    2    1    2    0    0 -0.40268083651E+02 -0.21289624061E+03 -0.41344422149E+03  0.48322539225E+03  0.12499731039E+03 0.  0.
          2    1    1    2  501    0 -0.28483729292E+02 -0.64217839519E+02 -0.63714947205E+03  0.64101068905E+03  0.00000000000E+00 0. -1.
          1    1    1    2  502    0  0.68751812943E+02  0.27711408012E+03  0.11728977009E+04  0.12071487240E+04  0.00000000000E+00 0. -1.
         22    1    3    3    0    0 -0.35106090906E+02 -0.16551607897E+03 -0.18854804084E+03  0.25333450953E+03  0.00000000000E+00 0.  1.
         22    1    3    3    0    0 -0.51619927447E+01 -0.47380161639E+02 -0.22489618064E+03  0.22989088271E+03  0.00000000000E+00 0.  1.
</event>
<event>
 7    1  0.5931885E-006  0.5463657E+02  0.7818608E-02  0.1495643E+00
          2   -1    0    0  502    0  0.00000000000E+00  0.00000000000E+00  0.24822765324E+04  0.24822765324E+04  0.00000000000E+00 0. -1.
          1   -1    0    0  501    0 -0.00000000000E+00 -0.00000000000E+00 -0.15482087321E+02  0.15482087321E+02  0.00000000000E+00 0. -1.
         25    2    1    2    0    0  0.47721657256E+02 -0.26874521103E+02  0.60859965951E+03  0.62371317764E+03  0.12499994379E+03 0.  0.
          2    1    1    2  501    0  0.72289409319E+01  0.31089212489E+02  0.26399748152E+02  0.41421533321E+02  0.00000000000E+00 0. -1.
          1    1    1    2  502    0 -0.54950598188E+02 -0.42146913856E+01  0.18317950375E+04  0.18326239088E+04  0.00000000000E+00 0. -1.
         22    1    3    3    0    0  0.11028633967E+02  0.19453708369E+02  0.14435144073E+02  0.26616741365E+02  0.00000000000E+00 0. -1.
         22    1    3    3    0    0  0.36693023290E+02 -0.46328229473E+02  0.59416451544E+03  0.59709643627E+03  0.00000000000E+00 0. -1.
</event>
<event>
 7    1  0.5931885E-006  0.6708166E+02  0.7818608E-02  0.1387158E+00
          2   -1    0    0  502    0  0.00000000000E+00  0.00000000000E+00  0.17649420813E+04  0.17649420813E+04  0.00000000000E+00 0. -1.
          1   -1    0    0  501    0 -0.00000000000E+00 -0.00000000000E+00 -0.21890075177E+02  0.21890075177E+02  0.00000000000E+00 0. -1.
         25    2    1    2    0    0 -0.26845046600E+02  0.72924725837E+01  0.81873629332E+03  0.82869056774E+03  0.12500040950E+03 0.  0.
          2    1    1    2  501    0 -0.17623121604E+02 -0.64725377835E+02  0.57687758715E+02  0.88475004699E+02  0.00000000000E+00 0. -1.
          1    1    1    2  502    0  0.44468168204E+02  0.57432905251E+02  0.86662795405E+03  0.86966658401E+03  0.00000000000E+00 0. -1.
         22    1    3    3    0    0 -0.14869430763E+02 -0.45183946121E+02  0.64631458225E+03  0.64806267304E+03  0.00000000000E+00 0.  1.
         22    1    3    3    0    0 -0.11975615838E+02  0.52476418704E+02  0.17242171107E+03  0.18062789470E+03  0.00000000000E+00 0.  1.
</event>
<event>
 7    1  0.5931885E-006  0.2275013E+03  0.7818608E-02  0.1267795E+00
          2   -1    0    0  502    0  0.00000000000E+00  0.00000000000E+00  0.14626398839E+04  0.14626398839E+04  0.00000000000E+00 0. -1.
          1   -1    0    0  501    0 -0.00000000000E+00 -0.00000000000E+00 -0.62756521527E+03  0.62756521527E+03  0.00000000000E+00 0. -1.
         25    2    1    2    0    0  0.11905062356E+03 -0.24576479228E+03  0.49086815516E+03  0.57545594849E+03  0.12499847523E+03 0.  0.
          2    1    1    2  501    0 -0.86425955259E+02  0.20845120949E+03 -0.56281835069E+03  0.60637104842E+03  0.00000000000E+00 0. -1.
          1    1    1    2  502    0 -0.32624668303E+02  0.37313582786E+02  0.90702486415E+03  0.90837810224E+03  0.00000000000E+00 0. -1.
         22    1    3    3    0    0 -0.18924570524E+02 -0.14500090301E+02  0.13580290190E+02  0.27437497515E+02  0.00000000000E+00 0.  1.
         22    1    3    3    0    0  0.13797519409E+03 -0.23126470198E+03  0.47728786497E+03  0.54801845097E+03  0.00000000000E+00 0.  1.
</event>
<event>
 7    1  0.5931885E-006  0.1085146E+03  0.7818608E-02  0.1346646E+00
          2   -1    0    0  502    0  0.00000000000E+00  0.00000000000E+00  0.34057997972E+03  0.34057997972E+03  0.00000000000E+00 0. -1.
          1   -1    0    0  501    0 -0.00000000000E+00 -0.00000000000E+00 -0.63787870781E+03  0.63787870781E+03  0.00000000000E+00 0. -1.
         25    2    1    2    0    0  0.76575863750E+02  0.41302423627E+02  0.69658687197E+02  0.16746738321E+03  0.12499295432E+03 0.  0.
          2    1    1    2  501    0 -0.62910810688E+02 -0.90037715266E+02 -0.58087432707E+03  0.59116794917E+03  0.00000000000E+00 0. -1.
          1    1    1    2  502    0 -0.13665053062E+02  0.48735291639E+02  0.21391691179E+03  0.21982335516E+03  0.00000000000E+00 0. -1.
         22    1    3    3    0    0  0.10383348666E+03  0.75772082096E+01  0.29118175712E+02  0.10810492678E+03  0.00000000000E+00 0. -1.
         22    1    3    3    0    0 -0.27257622914E+02  0.33725215417E+02  0.40540511485E+02  0.59362456429E+02  0.00000000000E+00 0. -1.
</event>
<event>
 7    1  0.5931885E-006  0.5214968E+02  0.7818608E-02  0.1527943E+00
          2   -1    0    0  502    0  0.00000000000E+00  0.00000000000E+00  0.13457554818E+04  0.13457554818E+04  0.00000000000E+00 0. -1.
          1   -1    0    0  501    0 -0.00000000000E+00 -0.00000000000E+00 -0.55609040825E+03  0.55609040825E+03  0.00000000000E+00 0. -1.
         25    2    1    2    0    0  0.75050371447E+02  0.23539402053E+02 -0.18742109526E+03  0.23862086731E+03  0.12500635850E+03 0.  0.
          2    1    1    2  501    0 -0.26442771049E+02 -0.48240648223E+01 -0.34202818270E+03  0.34308274440E+03  0.00000000000E+00 0. -1.
          1    1    1    2  502    0 -0.48607600398E+02 -0.18715337230E+02  0.13191143515E+04  0.13201422783E+04  0.00000000000E+00 0. -1.
         22    1    3    3    0    0  0.18249544826E+02 -0.50824567228E+02 -0.64063696498E+02  0.83787467615E+02  0.00000000000E+00 0.  1.
         22    1    3    3    0    0  0.56800826621E+02  0.74363969281E+02 -0.12335739876E+03  0.15483339970E+03  0.00000000000E+00 0.  1.
</event>
<event>
 7    1  0.5931885E-006  0.8360881E+02  0.7818608E-02  0.1331551E+00
          2   -1    0    0  502    0  0.00000000000E+00  0.00000000000E+00  0.75991441704E+03  0.75991441704E+03  0.00000000000E+00 0. -1.
          1   -1    0    0  501    0 -0.00000000000E+00 -0.00000000000E+00 -0.18034420483E+04  0.18034420483E+04  0.00000000000E+00 0. -1.
         25    2    1    2    0    0  0.91102133134E+02 -0.11579044275E+03  0.52781648897E+02  0.20029514294E+03  0.12500086613E+03 0.  0.
          2    1    1    2  501    0 -0.22648556839E+02  0.71375981760E+02 -0.17262420232E+04  0.17278654492E+04  0.00000000000E+00 0. -1.
          1    1    1    2  502    0 -0.68453576295E+02  0.44414460991E+02  0.62993274309E+03  0.63519587315E+03  0.00000000000E+00 0. -1.
         22    1    3    3    0    0  0.10609567065E+03 -0.52392679469E+02  0.63474304697E+02  0.13427684666E+03  0.00000000000E+00 0. -1.
         22    1    3    3    0    0 -0.14993537513E+02 -0.63397763281E+02 -0.10692655801E+02  0.66018296284E+02  0.00000000000E+00 0. -1.
</event>
<event>
 7    1  0.5931885E-006  0.9395653E+02  0.7818608E-02  0.1348994E+00
          2   -1    0    0  502    0  0.00000000000E+00  0.00000000000E+00  0.52405111733E+03  0.52405111733E+03  0.00000000000E+00 0. -1.
          1   -1    0    0  501    0 -0.00000000000E+00 -0.00000000000E+00 -0.53987765249E+03  0.53987765249E+03  0.00000000000E+00 0. -1.
         25    2    1    2    0    0  0.12996197167E+03  0.45400477001E+02 -0.25851353424E+03  0.31844296700E+03  0.12500143382E+03 0.  0.
          2    1    1    2  501    0 -0.36581013445E+02 -0.44095910882E+02 -0.24363339810E+03  0.25027954885E+03  0.00000000000E+00 0. -1.
          1    1    1    2  502    0 -0.93380958226E+02 -0.13045661197E+01  0.48632039719E+03  0.49520625397E+03  0.00000000000E+00 0. -1.
         22    1    3    3    0    0  0.96750375527E+02  0.64203322153E+02 -0.93519808283E+02  0.14909277743E+03  0.00000000000E+00 0.  1.
         22    1    3    3    0    0  0.33211596144E+02 -0.18802845152E+02 -0.16499372596E+03  0.16935018958E+03  0.00000000000E+00 0.  1.
</event>
<event>
 7    1  0.5931885E-006  0.9666316E+02  0.7818608E-02  0.1359082E+00
          2   -1    0    0  502    0  0.00000000000E+00  0.00000000000E+00  0.10930597651E+04  0.10930597651E+04  0.00000000000E+00 0. -1.
          1   -1    0    0  501    0 -0.00000000000E+00 -0.00000000000E+00 -0.15714561711E+03  0.15714561711E+03  0.00000000000E+00 0. -1.
         25    2    1    2    0    0  0.68867779825E+02  0.87336573086E+02  0.59444258422E+03  0.61754146913E+03  0.12500012828E+03 0.  0.
          2    1    1    2  501    0 -0.87965143603E+02 -0.39913176609E+02 -0.12803244658E+03  0.16038464868E+03  0.00000000000E+00 0. -1.
          1    1    1    2  502    0  0.19097363778E+02 -0.47423396478E+02  0.46950401039E+03  0.47227926443E+03  0.00000000000E+00 0. -1.
         22    1    3    3    0    0  0.68579458697E+02  0.85680586762E+02  0.60091495489E+03  0.61085439191E+03  0.00000000000E+00 0. -1.
         22    1    3    3    0    0  0.28832112776E+00  0.16559863243E+01 -0.64723706686E+01  0.66870772278E+01  0.00000000000E+00 0. -1.
</event>
<event>
 7    1  0.5931885E-006  0.8312097E+02  0.7818608E-02  0.1332586E+00
          2   -1    0    0  502    0  0.00000000000E+00  0.00000000000E+00  0.30066203378E+04  0.30066203378E+04  0.00000000000E+00 0. -1.
          1   -1    0    0  501    0 -0.00000000000E+00 -0.00000000000E+00 -0.16658954988E+03  0.16658954988E+03  0.00000000000E+00 0. -1.
         25    2    1    2    0    0 -0.76311734163E+01  0.67921251704E+02  0.14541992034E+04  0.14611608778E+04  0.12499702507E+03 0.  0.
          2    1    1    2  501    0  0.74536904718E+02  0.39604211896E+01 -0.15292136970E+03  0.17016574394E+03  0.00000000000E+00 0. -1.
          1    1    1    2  502    0 -0.66905731302E+02 -0.71881672893E+02  0.15387529542E+04  0.15418832659E+04  0.00000000000E+00 0. -1.
         22    1    3    3    0    0  0.51549552231E+02 -0.10569538109E+01  0.53707377902E+03  0.53954306371E+03  0.00000000000E+00 0. -1.
         22    1    3    3    0    0 -0.59180725648E+02  0.68978205515E+02  0.91712542438E+03  0.92161781405E+03  0.00000000000E+00 0. -1.
</event>
<event>
 7    1  0.5931885E-006  0.2142328E+03  0.7818608E-02  0.1249181E+00
          2   -1    0    0  502    0  0.00000000000E+00  0.00000000000E+00  0.36028837038E+03  0.36028837038E+03  0.00000000000E+00 0. -1.
          1   -1    0    0  501    0 -0.00000000000E+00 -0.00000000000E+00 -0.29560413722E+03  0.29560413722E+03  0.00000000000E+00 0. -1.
         25    2    1    2    0    0 -0.17505215535E+03  0.32276540239E+02 -0.18032273157E+00  0.21750931467E+03  0.12500094923E+03 0.  0.
          2    1    1    2  501    0  0.23586710052E+03 -0.49580352887E+02 -0.10065710431E+03  0.26119600523E+03  0.00000000000E+00 0. -1.
          1    1    1    2  502    0 -0.60814945166E+02  0.17303812648E+02  0.16552166021E+03  0.17718718770E+03  0.00000000000E+00 0. -1.
         22    1    3    3    0    0 -0.69918229693E+02  0.43253172004E+01  0.60835247511E+02  0.92780356498E+02  0.00000000000E+00 0. -1.
         22    1    3    3    0    0 -0.10513392566E+03  0.27951223039E+02 -0.61015570242E+02  0.12472895817E+03  0.00000000000E+00 0. -1.
</event>
<event>
 7    1  0.5931885E-006  0.1094750E+03  0.7818608E-02  0.1400259E+00
          2   -1    0    0  502    0  0.00000000000E+00  0.00000000000E+00  0.30975271409E+03  0.30975271409E+03  0.00000000000E+00 0. -1.
          1   -1    0    0  501    0 -0.00000000000E+00 -0.00000000000E+00 -0.12547580584E+04  0.12547580584E+04  0.00000000000E+00 0. -1.
         25    2    1    2    0    0 -0.54564935413E+02  0.11739952008E+03 -0.26555983053E+03  0.32079114338E+03  0.12499981835E+03 0.  0.
          2    1    1    2  501    0  0.63884424051E+02 -0.86517767869E+02 -0.95764053533E+03  0.96366069687E+03  0.00000000000E+00 0. -1.
          1    1    1    2  502    0 -0.93194886384E+01 -0.30881752208E+02  0.27819502157E+03  0.28005893221E+03  0.00000000000E+00 0. -1.
         22    1    3    3    0    0  0.52382320767E+01  0.89890342679E+02 -0.68820031869E+02  0.11333097356E+03  0.00000000000E+00 0. -1.
         22    1    3    3    0    0 -0.59803167489E+02  0.27509177399E+02 -0.19673979866E+03  0.20746016982E+03  0.00000000000E+00 0. -1.
</event>
<event>
 7    1  0.5931885E-006  0.2132281E+03  0.7818608E-02  0.1236625E+00
          2   -1    0    0  502    0  0.00000000000E+00  0.00000000000E+00  0.13248287959E+04  0.13248287959E+04  0.00000000000E+00 0. -1.
          1   -1    0    0  501    0 -0.00000000000E+00 -0.00000000000E+00 -0.96859927979E+03  0.96859927979E+03  0.00000000000E+00 0. -1.
         25    2    1    2    0    0 -0.16049833366E+03 -0.21435151251E+02 -0.88372095413E+01  0.20475135942E+03  0.12500336834E+03 0.  0.
          2    1    1    2  501    0  0.20772342680E+03  0.75945606185E+02 -0.84652476189E+03  0.87494052920E+03  0.00000000000E+00 0. -1.
          1    1    1    2  502    0 -0.47225093140E+02 -0.54510454934E+02  0.12115914875E+04  0.12137361871E+04  0.00000000000E+00 0. -1.
         22    1    3    3    0    0 -0.44814237331E+02 -0.18239377810E+01  0.55164185000E+02  0.71096623853E+02  0.00000000000E+00 0. -1.
         22    1    3    3    0    0 -0.11568409633E+03 -0.19611213470E+02 -0.64001394541E+02  0.13365473557E+03  0.00000000000E+00 0. -1.
</event>
<event>
 7    1  0.5931885E-006  0.2150805E+03  0.7818608E-02  0.1276199E+00
          2   -1    0    0  502    0  0.00000000000E+00  0.00000000000E+00  0.14607513189E+04  0.14607513189E+04  0.00000000000E+00 0. -1.
          1   -1    0    0  501    0 -0.00000000000E+00 -0.00000000000E+00 -0.36306972205E+03  0.36306972205E+03  0.00000000000E+00 0. -1.
         25    2    1    2    0    0  0.59976314143E+02  0.17954206133E+03  0.13728806989E+03  0.26513496772E+03  0.12496410257E+03 0.  0.
          2    1    1    2  501    0 -0.31460964519E+02 -0.21858537690E+03 -0.25784421992E+03  0.33948932389E+03  0.00000000000E+00 0. -1.
          1    1    1    2  502    0 -0.28515349625E+02  0.39043315578E+02  0.12182377469E+04  0.12191967493E+04  0.00000000000E+00 0. -1.
         22    1    3    3    0    0  0.79440033497E+02  0.16292685365E+03  0.72049123629E+02  0.19505628618E+03  0.00000000000E+00 0.  1.
         22    1    3    3    0    0 -0.19463719353E+02  0.16615207674E+02  0.65238946260E+02  0.70078681539E+02  0.00000000000E+00 0.  1.
</event>
<event>
 7    1  0.5931885E-006  0.7713870E+02  0.7818608E-02  0.1374240E+00
          2   -1    0    0  502    0  0.00000000000E+00  0.00000000000E+00  0.13888086832E+04  0.13888086832E+04  0.00000000000E+00 0. -1.
          1   -1    0    0  501    0 -0.00000000000E+00 -0.00000000000E+00 -0.74646128535E+03  0.74646128535E+03  0.00000000000E+00 0. -1.
         25    2    1    2    0    0 -0.82145548525E+02  0.99999995186E+02 -0.17368094971E+02  0.18076014661E+03  0.12499875880E+03 0.  0.
          2    1    1    2  501    0  0.22724639162E+02 -0.51699733213E+02 -0.64504088117E+03  0.64750830884E+03  0.00000000000E+00 0. -1.
          1    1    1    2  502    0  0.59420909363E+02 -0.48300261973E+02  0.13047563740E+04  0.13070015131E+04  0.00000000000E+00 0. -1.
         22    1    3    3    0    0 -0.16702950065E+02  0.98120496974E+02 -0.45578248951E+02  0.10947144488E+03  0.00000000000E+00 0.  1.
         22    1    3    3    0    0 -0.65442598460E+02  0.18794982123E+01  0.28210153979E+02  0.71288701730E+02  0.00000000000E+00 0.  1.
</event>
<event>
 7    1  0.5931885E-006  0.7199711E+02  0.7818608E-02  0.1420984E+00
          2   -1    0    0  502    0  0.00000000000E+00  0.00000000000E+00  0.48111287025E+03  0.48111287025E+03  0.00000000000E+00 0. -1.
          1   -1    0    0  501    0 -0.00000000000E+00 -0.00000000000E+00 -0.14045361010E+03  0.14045361010E+03  0.00000000000E+00 0. -1.
         25    2    1    2    0    0 -0.72807269316E+02  0.24093079513E+02  0.19176712252E+02  0.14790224140E+03  0.12500380704E+03 0.  0.
          2    1    1    2  501    0  0.26952755612E+02  0.31859252867E+02 -0.66765351245E+02  0.78734205751E+02  0.00000000000E+00 0. -1.
          1    1    1    2  502    0  0.45854513704E+02 -0.55952332380E+02  0.38824789914E+03  0.39493003319E+03  0.00000000000E+00 0. -1.
         22    1    3    3    0    0  0.30398658754E+02  0.20285170593E+02  0.25294211118E+02  0.44445064024E+02  0.00000000000E+00 0.  1.
         22    1    3    3    0    0 -0.10320592807E+03  0.38079089194E+01 -0.61174988661E+01  0.10345717738E+03  0.00000000000E+00 0.  1.
</event>
<event>
 7    1  0.5931885E-006  0.9568383E+02  0.7818608E-02  0.1337344E+00
          2   -1    0    0  502    0  0.00000000000E+00  0.00000000000E+00  0.48295414004E+03  0.48295414004E+03  0.00000000000E+00 0. -1.
          1   -1    0    0  501    0 -0.00000000000E+00 -0.00000000000E+00 -0.10996373625E+03  0.10996373625E+03  0.00000000000E+00 0. -1.
         25    2    1    2    0    0  0.57378206773E+02  0.77447335726E+02  0.48276044024E+02  0.16506382952E+03  0.12500057186E+03 0.  0.
          2    1    1    2  501    0 -0.58828538293E+02  0.20211534971E+02 -0.23276912328E+02  0.66416245837E+02  0.00000000000E+00 0. -1.
          1    1    1    2  502    0  0.14503315200E+01 -0.97658870697E+02  0.34799127210E+03  0.36143780094E+03  0.00000000000E+00 0. -1.
         22    1    3    3    0    0 -0.40761334725E+01  0.20948058228E+02 -0.38896559364E+02  0.44366410019E+02  0.00000000000E+00 0.  1.
         22    1    3    3    0    0  0.61454340246E+02  0.56499277497E+02  0.87172603387E+02  0.12069741950E+03  0.00000000000E+00 0.  1.
</event>
<event>
 7    1  0.5931885E-006  0.6463997E+02  0.7818608E-02  0.1505706E+00
          2   -1    0    0  502    0  0.00000000000E+00  0.00000000000E+00  0.15323843036E+04  0.15323843036E+04  0.00000000000E+00 0. -1.
          1   -1    0    0  501    0 -0.00000000000E+00 -0.00000000000E+00 -0.95379692479E+02  0.95379692479E+02  0.00000000000E+00 0. -1.
         25    2    1    2    0    0  0.21536842713E+01 -0.46038657094E+02  0.70192313291E+03  0.71445089311E+03  0.12497918967E+03 0.  0.
          2    1    1    2  501    0 -0.22402527128E+02  0.61002837669E+02 -0.77047156939E+02  0.10079426481E+03  0.00000000000E+00 0. -1.
          1    1    1    2  502    0  0.20248842857E+02 -0.14964180575E+02  0.81212863513E+03  0.81251883814E+03  0.00000000000E+00 0. -1.
         22    1    3    3    0    0  0.51561981432E+02  0.13244506574E+02  0.21757492003E+03  0.22399308184E+03  0.00000000000E+00 0. -1.
         22    1    3    3    0    0 -0.49408297161E+02 -0.59283163667E+02  0.48434821288E+03  0.49045781128E+03  0.00000000000E+00 0. -1.
</event>
<event>
 7    1  0.5931885E-006  0.1602639E+03  0.7818608E-02  0.1268305E+00
          2   -1    0    0  502    0  0.00000000000E+00  0.00000000000E+00  0.31436879042E+04  0.31436879042E+04  0.00000000000E+00 0. -1.
          1   -1    0    0  501    0 -0.00000000000E+00 -0.00000000000E+00 -0.28404985137E+04  0.28404985137E+04  0.00000000000E+00 0. -1.
         25    2    1    2    0    0 -0.17902327669E+03  0.10126534717E+03 -0.77964411449E+03  0.81594976907E+03  0.12500030496E+03 0.  0.
          2    1    1    2  501    0  0.22735011010E+02 -0.66218052465E+02 -0.20400486734E+04  0.20412496910E+04  0.00000000000E+00 0. -1.
          1    1    1    2  502    0  0.15628826568E+03 -0.35047294703E+02  0.31228821784E+04  0.31269869579E+04  0.00000000000E+00 0. -1.
         22    1    3    3    0    0 -0.14091283462E+03  0.12995763663E+03 -0.58797923605E+03  0.61843754438E+03  0.00000000000E+00 0.  1.
         22    1    3    3    0    0 -0.38110442068E+02 -0.28692289463E+02 -0.19166487845E+03  0.19751222468E+03  0.00000000000E+00 0.  1.
</event>
<event>
 7    1  0.5931885E-006  0.1704547E+03  0.7818608E-02  0.1371167E+00
          2   -1    0    0  502    0  0.00000000000E+00  0.00000000000E+00  0.59608194223E+03  0.59608194223E+03  0.00000000000E+00 0. -1.
          1   -1    0    0  501    0 -0.00000000000E+00 -0.00000000000E+00 -0.36366305954E+03  0.36366305954E+03  0.00000000000E+00 0. -1.
         25    2    1    2    0    0 -0.10284656942E+03  0.13544551893E+03 -0.21327904736E+03  0.30005444989E+03  0.12498726102E+03 0.  0.
          2    1    1    2  501    0  0.12386380214E+03 -0.11978073788E+03 -0.37038653016E+02  0.17624281110E+03  0.00000000000E+00 0. -1.
          1    1    1    2  502    0 -0.21017232720E+02 -0.15664781048E+02  0.48273658306E+03  0.48344774077E+03  0.00000000000E+00 0. -1.
         22    1    3    3    0    0 -0.12378903369E+03  0.10899322627E+03 -0.12937618355E+03  0.20962214841E+03  0.00000000000E+00 0.  1.
         22    1    3    3    0    0  0.20942464261E+02  0.26452292654E+02 -0.83902863808E+02  0.90432301481E+02  0.00000000000E+00 0.  1.
</event>
<event>
 7    1  0.5931885E-006  0.1288747E+03  0.7818608E-02  0.1383416E+00
          2   -1    0    0  502    0  0.00000000000E+00  0.00000000000E+00  0.22196569486E+03  0.22196569486E+03  0.00000000000E+00 0. -1.
          1   -1    0    0  501    0 -0.00000000000E+00 -0.00000000000E+00 -0.98014524196E+03  0.98014524196E+03  0.00000000000E+00 0. -1.
         25    2    1    2    0    0 -0.11246924283E+03  0.45127577199E+02 -0.44519802137E+03  0.47802930889E+03  0.12499965249E+03 0.  0.
          2    1    1    2  501    0  0.11013086331E+03 -0.76401648906E+02 -0.50859970906E+03  0.52596547707E+03  0.00000000000E+00 0. -1.
          1    1    1    2  502    0  0.23383795207E+01  0.31274071707E+02  0.19561818333E+03  0.19811615086E+03  0.00000000000E+00 0. -1.
         22    1    3    3    0    0 -0.12348405568E+03  0.26729234095E+02 -0.43728665110E+03  0.45517291131E+03  0.00000000000E+00 0.  1.
         22    1    3    3    0    0  0.11014812843E+02  0.18398343104E+02 -0.79113702735E+01  0.22856397585E+02  0.00000000000E+00 0.  1.
</event>
<event>
 7    1  0.5931885E-006  0.9334314E+02  0.7818608E-02  0.1374262E+00
          2   -1    0    0  502    0  0.00000000000E+00  0.00000000000E+00  0.23621560604E+04  0.23621560604E+04  0.00000000000E+00 0. -1.
          1   -1    0    0  501    0 -0.00000000000E+00 -0.00000000000E+00 -0.56000734208E+02  0.56000734208E+02  0.00000000000E+00 0. -1.
         25    2    1    2    0    0  0.64925982925E+01  0.74377335351E+02  0.95670589309E+02  0.17422686813E+03  0.12501199172E+03 0.  0.
          2    1    1    2  501    0  0.46544189508E+02  0.33091265881E+01  0.18926574359E+02  0.50354017841E+02  0.00000000000E+00 0. -1.
          1    1    1    2  502    0 -0.53036787801E+02 -0.77686461939E+02  0.21915581625E+04  0.21935759086E+04  0.00000000000E+00 0. -1.
         22    1    3    3    0    0 -0.33754692275E+02  0.81273143418E+02  0.23145895160E+02  0.90996898598E+02  0.00000000000E+00 0. -1.
         22    1    3    3    0    0  0.40247290568E+02 -0.68958080675E+01  0.72524694149E+02  0.83229969532E+02  0.00000000000E+00 0. -1.
</event>
<event>
 7    1  0.5931885E-006  0.2685232E+03  0.7818608E-02  0.1256443E+00
          2   -1    0    0  502    0  0.00000000000E+00  0.00000000000E+00  0.22312903131E+04  0.22312903131E+04  0.00000000000E+00 0. -1.
          1   -1    0    0  501    0 -0.00000000000E+00 -0.00000000000E+00 -0.13544099293E+03  0.13544099293E+03  0.00000000000E+00 0. -1.
         25    2    1    2    0    0 -0.63342037548E+02 -0.23254954528E+03  0.42539915330E+03  0.50465897736E+03  0.12499895628E+03 0.  0.
          2    1    1    2  501    0  0.98960608895E+02  0.26310827485E+03  0.11148960371E+03  0.30240551937E+03  0.00000000000E+00 0. -1.
          1    1    1    2  502    0 -0.35618571347E+02 -0.30558729571E+02  0.15589605631E+04  0.15596668093E+04  0.00000000000E+00 0. -1.
         22    1    3    3    0    0 -0.37961927673E+02 -0.13407658472E+03  0.12387121094E+03  0.18644493938E+03  0.00000000000E+00 0.  1.
         22    1    3    3    0    0 -0.25380109875E+02 -0.98472960562E+02  0.30152794237E+03  0.31821403798E+03  0.00000000000E+00 0.  1.
</event>
<event>
 7    1  0.5931885E-006  0.3217408E+02  0.7818608E-02  0.1600690E+00
          2   -1    0    0  502    0  0.00000000000E+00  0.00000000000E+00  0.19754774790E+04  0.19754774790E+04  0.00000000000E+00 0. -1.
          1   -1    0    0  501    0 -0.00000000000E+00 -0.00000000000E+00 -0.18576831063E+03  0.18576831063E+03  0.00000000000E+00 0. -1.
         25    2    1    2    0    0  0.19164761150E+02  0.40506506479E+02  0.31763001213E+03  0.34427093903E+03  0.12500235887E+03 0.  0.
          2    1    1    2  501    0  0.94409641412E+01 -0.25869228469E+02 -0.17119038550E+03  0.17339116723E+03  0.00000000000E+00 0. -1.
          1    1    1    2  502    0 -0.28605725291E+02 -0.14637278010E+02  0.16432695417E+04  0.16435836834E+04  0.00000000000E+00 0. -1.
         22    1    3    3    0    0 -0.18041960398E+02 -0.38876176778E+02  0.13592671448E+03  0.14252347584E+03  0.00000000000E+00 0.  1.
         22    1    3    3    0    0  0.37206721548E+02  0.79382683257E+02  0.18170329764E+03  0.20174746319E+03  0.00000000000E+00 0.  1.
</event>
<event>
 7    1  0.5931885E-006  0.5077276E+02  0.7818608E-02  0.1474413E+00
          2   -1    0    0  502    0  0.00000000000E+00  0.00000000000E+00  0.13336973216E+03  0.13336973216E+03  0.00000000000E+00 0. -1.
          1   -1    0    0  501    0 -0.00000000000E+00 -0.00000000000E+00 -0.32147850527E+03  0.32147850527E+03  0.00000000000E+00 0. -1.
         25    2    1    2    0    0 -0.12575508580E+02  0.17534787170E+01  0.81259703594E+02  0.14963325456E+03  0.12500301332E+03 0.  0.
          2    1    1    2  501    0  0.45919095649E+02 -0.23600625911E+02 -0.25890311004E+03  0.26400070696E+03  0.00000000000E+00 0. -1.
          1    1    1    2  502    0 -0.33343587069E+02  0.21847147194E+02 -0.10465366661E+02  0.41214275907E+02  0.00000000000E+00 0. -1.
         22    1    3    3    0    0 -0.65977396021E+02  0.18369169632E+02  0.55051709620E+02  0.87869982991E+02  0.00000000000E+00 0. -1.
         22    1    3    3    0    0  0.53401887441E+02 -0.16615690915E+02  0.26207993973E+02  0.61763271570E+02  0.00000000000E+00 0. -1.
</event>
<event>
 7    1  0.5931885E-006  0.1409235E+03  0.7818608E-02  0.1314705E+00
          2   -1    0    0  502    0  0.00000000000E+00  0.00000000000E+00  0.10776418989E+04  0.10776418989E+04  0.00000000000E+00 0. -1.
          1   -1    0    0  501    0 -0.00000000000E+00 -0.00000000000E+00 -0.28970185124E+03  0.28970185124E+03  0.00000000000E+00 0. -1.
         25    2    1    2    0    0 -0.14055269686E+03  0.52364713291E+02  0.45564622808E+03  0.49571773542E+03  0.12500185701E+03 0.  0.
          2    1    1    2  501    0  0.14091120100E+03 -0.75992952838E+00 -0.25003832694E+03  0.28701168791E+03  0.00000000000E+00 0. -1.
          1    1    1    2  502    0 -0.35850413440E+00 -0.51604783763E+02  0.58233214653E+03  0.58461432682E+03  0.00000000000E+00 0. -1.
         22    1    3    3    0    0 -0.50520521668E+02  0.61219647312E+02  0.94492952614E+02  0.12340618469E+03  0.00000000000E+00 0. -1.
         22    1    3    3    0    0 -0.90032175197E+02 -0.88549340212E+01  0.36115327546E+03  0.37231155073E+03  0.00000000000E+00 0. -1.
</event>
<event>
 7    1  0.5931885E-006  0.3277717E+02  0.7818608E-02  0.1583012E+00
          2   -1    0    0  502    0  0.00000000000E+00  0.00000000000E+00  0.16182288860E+03  0.16182288860E+03  0.00000000000E+00 0. -1.
          1   -1    0    0  501    0 -0.00000000000E+00 -0.00000000000E+00 -0.72865253597E+03  0.72865253597E+03  0.00000000000E+00 0. -1.
         25    2    1    2    0    0 -0.72911047618E+01 -0.36255278606E+01 -0.21077642449E+02  0.12702464150E+03  0.12499875150E+03 0.  0.
          2    1    1    2  501    0  0.32905736957E+01 -0.29918442594E+02 -0.65162455940E+03  0.65231932939E+03  0.00000000000E+00 0. -1.
          1    1    1    2  502    0  0.40005310661E+01  0.33543970454E+02  0.10587255448E+03  0.11113145367E+03  0.00000000000E+00 0. -1.
         22    1    3    3    0    0 -0.45736106535E+02  0.43579333100E+02 -0.19242833037E+01  0.63203264003E+02  0.00000000000E+00 0. -1.
         22    1    3    3    0    0  0.38445001773E+02 -0.47204860960E+02 -0.19153359145E+02  0.63821377501E+02  0.00000000000E+00 0. -1.
</event>
<event>
 7    1  0.5931885E-006  0.1144548E+03  0.7818608E-02  0.1353114E+00
          2   -1    0    0  502    0  0.00000000000E+00  0.00000000000E+00  0.25936746542E+03  0.25936746542E+03  0.00000000000E+00 0. -1.
          1   -1    0    0  501    0 -0.00000000000E+00 -0.00000000000E+00 -0.16894122138E+04  0.16894122138E+04  0.00000000000E+00 0. -1.
         25    2    1    2    0    0  0.86637173426E+02  0.52509409905E+01  0.13538143603E+02  0.15278060257E+03  0.12500023595E+03 0.  0.
          2    1    1    2  501    0  0.31112621308E+02  0.33078635423E+02 -0.15976726872E+04  0.15983179304E+04  0.00000000000E+00 0. -1.
          1    1    1    2  502    0 -0.11774979473E+03 -0.38329576414E+02  0.15408979521E+03  0.19768114623E+03  0.00000000000E+00 0. -1.
         22    1    3    3    0    0  0.21302364567E+02 -0.48380242521E+02 -0.26633400794E+02  0.59192707663E+02  0.00000000000E+00 0. -1.
         22    1    3    3    0    0  0.65334808858E+02  0.53631183512E+02  0.40171544397E+02  0.93587894905E+02  0.00000000000E+00 0. -1.
</event>
<event>
 7    1  0.5931885E-006  0.7936138E+02  0.7818608E-02  0.1440398E+00
          2   -1    0    0  502    0  0.00000000000E+00  0.00000000000E+00  0.13519740225E+03  0.13519740225E+03  0.00000000000E+00 0. -1.
          1   -1    0    0  501    0 -0.00000000000E+00 -0.00000000000E+00 -0.10195052049E+04  0.10195052049E+04  0.00000000000E+00 0. -1.
         25    2    1    2    0    0 -0.37722161162E+02  0.33734998614E+02 -0.73642065376E+02  0.15365361761E+03  0.12500107534E+03 0.  0.
          2    1    1    2  501    0  0.48284757597E+02 -0.64663087143E+02 -0.90119494605E+03  0.90480111817E+03  0.00000000000E+00 0. -1.
          1    1    1    2  502    0 -0.10562596435E+02  0.30928088529E+02  0.90529208776E+02  0.96247871380E+02  0.00000000000E+00 0. -1.
         22    1    3    3    0    0  0.44632666095E+02  0.30351462342E+01 -0.38414699970E+02  0.58965889879E+02  0.00000000000E+00 0. -1.
         22    1    3    3    0    0 -0.82354827257E+02  0.30699852380E+02 -0.35227365406E+02  0.94687727727E+02  0.00000000000E+00 0. -1.
</event>
<event>
 7    1  0.5931885E-006  0.1018961E+03  0.7818608E-02  0.1333186E+00
          2   -1    0    0  502    0  0.00000000000E+00  0.00000000000E+00  0.12347789506E+04  0.12347789506E+04  0.00000000000E+00 0. -1.
          1   -1    0    0  501    0 -0.00000000000E+00 -0.00000000000E+00 -0.58562725740E+03  0.58562725740E+03  0.00000000000E+00 0. -1.
         25    2    1    2    0    0 -0.54959637252E+02  0.19640732631E+02  0.29451881083E+03  0.32522702755E+03  0.12499987765E+03 0.  0.
          2    1    1    2  501    0  0.10068694609E+03  0.20078957278E+02 -0.56464740349E+03  0.57390566813E+03  0.00000000000E+00 0. -1.
          1    1    1    2  502    0 -0.45727308842E+02 -0.39719689909E+02  0.91928028585E+03  0.92127351231E+03  0.00000000000E+00 0. -1.
         22    1    3    3    0    0 -0.81439987259E+02  0.49824957760E+02  0.23256505751E+03  0.25139909291E+03  0.00000000000E+00 0.  1.
         22    1    3    3    0    0  0.26480350007E+02 -0.30184225128E+02  0.61953753317E+02  0.73827934640E+02  0.00000000000E+00 0.  1.
</event>
<event>
 7    1  0.5931885E-006  0.1228841E+03  0.7818608E-02  0.1410596E+00
          2   -1    0    0  502    0  0.00000000000E+00  0.00000000000E+00  0.12733570984E+04  0.12733570984E+04  0.00000000000E+00 0. -1.
          1   -1    0    0  501    0 -0.00000000000E+00 -0.00000000000E+00 -0.85496309904E+03  0.85496309904E+03  0.00000000000E+00 0. -1.
         25    2    1    2    0    0 -0.14024191507E+03  0.84704752499E+00  0.11192451219E+03  0.21867674935E+03  0.12499564811E+03 0.  0.
          2    1    1    2  501    0  0.12117201919E+03  0.17548331261E+02 -0.79675169560E+03  0.80610412889E+03  0.00000000000E+00 0. -1.
          1    1    1    2  502    0  0.19069895881E+02 -0.18395378786E+02  0.11032211828E+04  0.11035393192E+04  0.00000000000E+00 0. -1.
         22    1    3    3    0    0 -0.14094285053E+01 -0.41878080256E+02  0.17397642845E+02  0.45370012907E+02  0.00000000000E+00 0. -1.
         22    1    3    3    0    0 -0.13883248656E+03  0.42725127781E+02  0.94526869348E+02  0.17330673645E+03  0.00000000000E+00 0. -1.
</event>
<event>
 7    1  0.5931885E-006  0.3271646E+02  0.7818608E-02  0.1574045E+00
          2   -1    0    0  502    0  0.00000000000E+00  0.00000000000E+00  0.63624028730E+03  0.63624028730E+03  0.00000000000E+00 0. -1.
          1   -1    0    0  501    0 -0.00000000000E+00 -0.00000000000E+00 -0.61055437583E+03  0.61055437583E+03  0.00000000000E+00 0. -1.
         25    2    1    2    0    0  0.62540030525E+02 -0.14807470560E+02  0.13093619764E+03  0.19208720723E+03  0.12499076257E+03 0.  0.
          2    1    1    2  501    0 -0.32268520992E+02  0.48257544615E+01 -0.57898401428E+03  0.57990260746E+03  0.00000000000E+00 0. -1.
          1    1    1    2  502    0 -0.30271509533E+02  0.99817160985E+01  0.47373372811E+03  0.47480484844E+03  0.00000000000E+00 0. -1.
         22    1    3    3    0    0  0.29102756313E+02  0.21778927817E+02  0.13737842432E+03  0.14210602940E+03  0.00000000000E+00 0.  1.
         22    1    3    3    0    0  0.33437274212E+02 -0.36586398377E+02 -0.64422266854E+01  0.49981177833E+02  0.00000000000E+00 0.  1.
</event>
<event>
 7    1  0.8217589E-006  0.4845322E+02  0.7818608E-02  0.1504598E+00
          2   -1    0    0  502    0  0.00000000000E+00  0.00000000000E+00  0.18371599258E+04  0.18371599258E+04  0.00000000000E+00 0. -1.
          1   -1    0    0  501    0 -0.00000000000E+00 -0.00000000000E+00 -0.87385672316E+03  0.87385672316E+03  0.00000000000E+00 0. -1.
         25    2    1    2    0    0  0.33647984462E+02  0.28100601663E+02 -0.20276014299E+03  0.24219066853E+03  0.12499125436E+03 0.  0.
          2    1    1    2  501    0 -0.49146338506E+02  0.19867380564E+01 -0.65029491871E+03  0.65215242928E+03  0.00000000000E+00 0. -1.
          1    1    1    2  502    0  0.15498354043E+02 -0.30087339720E+02  0.18163582643E+04  0.18166735511E+04  0.00000000000E+00 0. -1.
         22    1    3    3    0    0 -0.10548955363E+02  0.70396226711E+02 -0.10434970385E+03  0.12631615054E+03  0.00000000000E+00 0. -1.
         22    1    3    3    0    0  0.44196939825E+02 -0.42295625048E+02 -0.98410439139E+02  0.11587451799E+03  0.00000000000E+00 0. -1.
</event>
<event>
 7    1  0.5931885E-006  0.4019455E+02  0.7818608E-02  0.1518079E+00
          2   -1    0    0  502    0  0.00000000000E+00  0.00000000000E+00  0.91732561929E+02  0.91732561929E+02  0.00000000000E+00 0. -1.
          1   -1    0    0  501    0 -0.00000000000E+00 -0.00000000000E+00 -0.88986215594E+03  0.88986215594E+03  0.00000000000E+00 0. -1.
         25    2    1    2    0    0  0.48751543946E+02 -0.20004033591E+02 -0.90750654696E+02  0.16320945794E+03  0.12499908575E+03 0.  0.
          2    1    1    2  501    0 -0.33071725825E+02 -0.17123197828E+02 -0.75504595713E+03  0.75596384856E+03  0.00000000000E+00 0. -1.
          1    1    1    2  502    0 -0.15679818122E+02  0.37127231418E+02  0.47667017817E+02  0.62421411364E+02  0.00000000000E+00 0. -1.
         22    1    3    3    0    0  0.85984669122E+01 -0.70413688769E+02 -0.42410878281E+02  0.82648071942E+02  0.00000000000E+00 0. -1.
         22    1    3    3    0    0  0.40153077034E+02  0.50409655178E+02 -0.48339776415E+02  0.80561386000E+02  0.00000000000E+00 0. -1.
</event>
<event>
 7    1  0.5931885E-006  0.4289831E+02  0.7818608E-02  0.1541437E+00
          2   -1    0    0  502    0  0.00000000000E+00  0.00000000000E+00  0.14104262760E+04  0.14104262760E+04  0.00000000000E+00 0. -1.
          1   -1    0    0  501    0 -0.00000000000E+00 -0.00000000000E+00 -0.60426132202E+03  0.60426132202E+03  0.00000000000E+00 0. -1.
         25    2    1    2    0    0 -0.10916374730E+02  0.50598220303E+02  0.83115850585E+03  0.84209783872E+03  0.12499984394E+03 0.  0.
          2    1    1    2  501    0 -0.20620820112E+02 -0.21664958182E+02 -0.59761906704E+03  0.59836705953E+03  0.00000000000E+00 0. -1.
          1    1    1    2  502    0  0.31537194842E+02 -0.28933262121E+02  0.57262551514E+03  0.57422269975E+03  0.00000000000E+00 0. -1.
         22    1    3    3    0    0  0.12235429800E+02  0.76926347422E+02  0.30558431446E+03  0.31535558013E+03  0.00000000000E+00 0.  1.
         22    1    3    3    0    0 -0.23151804530E+02 -0.26328127119E+02  0.52557419139E+03  0.52674225859E+03  0.00000000000E+00 0.  1.
</event>
<event>
 7    1  0.5931885E-006  0.2833073E+02  0.7818608E-02  0.1617634E+00
          2   -1    0    0  502    0  0.00000000000E+00  0.00000000000E+00  0.18289175551E+04  0.18289175551E+04  0.00000000000E+00 0. -1.
          1   -1    0    0  501    0 -0.00000000000E+00 -0.00000000000E+00 -0.88632634306E+02  0.88632634306E+02  0.00000000000E+00 0. -1.
         25    2    1    2    0    0  0.31984646995E+02 -0.78137924194E+01  0.29866250289E+03  0.32544666423E+03  0.12502866724E+03 0.  0.
          2    1    1    2  501    0 -0.21577628628E+02 -0.18478032019E+02 -0.72422322062E+02  0.77794758547E+02  0.00000000000E+00 0. -1.
          1    1    1    2  502    0 -0.10407018367E+02  0.26291824438E+02  0.15140447400E+04  0.15143087666E+04  0.00000000000E+00 0. -1.
         22    1    3    3    0    0  0.41957999862E+01  0.57258990399E+02  0.11278506617E+03  0.12655697479E+03  0.00000000000E+00 0.  1.
         22    1    3    3    0    0  0.27788847008E+02 -0.65072782818E+02  0.18587743673E+03  0.19888968944E+03  0.00000000000E+00 0.  1.
</event>
<event>
 7    1  0.5931885E-006  0.1840379E+03  0.7818608E-02  0.1192802E+00
          2   -1    0    0  502    0  0.00000000000E+00  0.00000000000E+00  0.69273404659E+03  0.69273404659E+03  0.00000000000E+00 0. -1.
          1   -1    0    0  501    0 -0.00000000000E+00 -0.00000000000E+00 -0.57692969940E+03  0.57692969940E+03  0.00000000000E+00 0. -1.
         25    2    1    2    0    0 -0.52913538088E+02 -0.23807566758E+02  0.33914016388E+03  0.36607078566E+03  0.12500050646E+03 0.  0.
          2    1    1    2  501    0  0.18329725906E+03  0.49766320203E+02 -0.53341262690E+03  0.56621868774E+03  0.00000000000E+00 0. -1.
          1    1    1    2  502    0 -0.13038372097E+03 -0.25958753445E+02  0.31007681021E+03  0.33737427259E+03  0.00000000000E+00 0. -1.
         22    1    3    3    0    0 -0.81193365248E+02 -0.47232610502E+02  0.28927305656E+03  0.30414171583E+03  0.00000000000E+00 0. -1.
         22    1    3    3    0    0  0.28279827160E+02  0.23425043744E+02  0.49867107317E+02  0.61929069836E+02  0.00000000000E+00 0. -1.
</event>
<event>
 7    1  0.5931885E-006  0.9492924E+02  0.7818608E-02  0.1302726E+00
          2   -1    0    0  502    0  0.00000000000E+00  0.00000000000E+00  0.33645512128E+04  0.33645512128E+04  0.00000000000E+00 0. -1.
          1   -1    0    0  501    0 -0.00000000000E+00 -0.00000000000E+00 -0.15119251149E+03  0.15119251149E+03  0.00000000000E+00 0. -1.
         25    2    1    2    0    0  0.35195580367E+02  0.50629104987E+02  0.43433481001E+02  0.14599366517E+03  0.12500259136E+03 0.  0.
          2    1    1    2  501    0  0.27392189783E+02 -0.10876907837E+03 -0.67690323810E+02  0.13100772652E+03  0.00000000000E+00 0. -1.
          1    1    1    2  502    0 -0.62587770150E+02  0.58139973379E+02  0.32376155441E+04  0.32387423326E+04  0.00000000000E+00 0. -1.
         22    1    3    3    0    0  0.40706499544E+02 -0.80794213826E+01 -0.30443346940E+02  0.51469345516E+02  0.00000000000E+00 0.  1.
         22    1    3    3    0    0 -0.55109191764E+01  0.58708526370E+02  0.73876827940E+02  0.94524319649E+02  0.00000000000E+00 0.  1.
</event>
<event>
 7    1  0.5931885E-006  0.1366422E+03  0.7818608E-02  0.1390694E+00
          2   -1    0    0  502    0  0.00000000000E+00  0.00000000000E+00  0.82784515427E+02  0.82784515427E+02  0.00000000000E+00 0. -1.
          1   -1    0    0  501    0 -0.00000000000E+00 -0.00000000000E+00 -0.96678545947E+03  0.96678545947E+03  0.00000000000E+00 0. -1.
         25    2    1    2    0    0  0.11039128942E+03 -0.11639811485E+03 -0.16738830526E+03  0.26340111953E+03  0.12500618830E+03 0.  0.
          2    1    1    2  501    0 -0.97149441779E+02  0.91850555696E+02 -0.73863136005E+03  0.75063361546E+03  0.00000000000E+00 0. -1.
          1    1    1    2  502    0 -0.13241847637E+02  0.24547559151E+02  0.22018721263E+02  0.35535239906E+02  0.00000000000E+00 0. -1.
         22    1    3    3    0    0  0.47143125999E+02 -0.12875026936E+03 -0.12975856486E+03  0.18877603487E+03  0.00000000000E+00 0.  1.
         22    1    3    3    0    0  0.63248163417E+02  0.12352154514E+02 -0.37629740407E+02  0.74625084656E+02  0.00000000000E+00 0.  1.
</event>
<event>
 7    1  0.5931885E-006  0.6253369E+02  0.7818608E-02  0.1458839E+00
          2   -1    0    0  502    0  0.00000000000E+00  0.00000000000E+00  0.15610804766E+04  0.15610804766E+04  0.00000000000E+00 0. -1.
          1   -1    0    0  501    0 -0.00000000000E+00 -0.00000000000E+00 -0.16556678601E+03  0.16556678601E+03  0.00000000000E+00 0. -1.
         25    2    1    2    0    0 -0.71601236158E+02 -0.16565806674E+02  0.46676600356E+02  0.15232946177E+03  0.12499758770E+03 0.  0.
          2    1    1    2  501    0  0.25521815861E+02 -0.25679426829E+02 -0.10914652234E+03  0.11499460590E+03  0.00000000000E+00 0. -1.
          1    1    1    2  502    0  0.46079420297E+02  0.42245233504E+02  0.14579836125E+04  0.14593231949E+04  0.00000000000E+00 0. -1.
         22    1    3    3    0    0 -0.34741093192E+02  0.54681011869E+02  0.21125869752E+02  0.68141463060E+02  0.00000000000E+00 0. -1.
         22    1    3    3    0    0 -0.36860142966E+02 -0.71246818543E+02  0.25550730604E+02  0.84187998708E+02  0.00000000000E+00 0. -1.
</event>
<event>
 7    1  0.5931885E-006  0.5964733E+02  0.7818608E-02  0.1458906E+00
          2   -1    0    0  502    0  0.00000000000E+00  0.00000000000E+00  0.22879885075E+03  0.22879885075E+03  0.00000000000E+00 0. -1.
          1   -1    0    0  501    0 -0.00000000000E+00 -0.00000000000E+00 -0.65834480589E+03  0.65834480589E+03  0.00000000000E+00 0. -1.
         25    2    1    2    0    0  0.33532826763E+02 -0.83683898675E+02 -0.10059237004E+03  0.18404065085E+03  0.12499876354E+03 0.  0.
          2    1    1    2  501    0 -0.28419563312E+02  0.25132569251E+02 -0.51069090069E+03  0.51209814847E+03  0.00000000000E+00 0. -1.
          1    1    1    2  502    0 -0.51132634506E+01  0.58551329424E+02  0.18173731560E+03  0.19100485732E+03  0.00000000000E+00 0. -1.
         22    1    3    3    0    0 -0.13911354199E+01  0.59947054308E+01 -0.86566546056E+02  0.86785013954E+02  0.00000000000E+00 0. -1.
         22    1    3    3    0    0  0.34923962183E+02 -0.89678604106E+02 -0.14025823986E+02  0.97255636893E+02  0.00000000000E+00 0. -1.
</event>
<event>
 7    1  0.5931885E-006  0.1178547E+03  0.7818608E-02  0.1409456E+00
          2   -1    0    0  502    0  0.00000000000E+00  0.00000000000E+00  0.12127129493E+04  0.12127129493E+04  0.00000000000E+00 0. -1.
          1   -1    0    0  501    0 -0.00000000000E+00 -0.00000000000E+00 -0.97291852584E+03  0.97291852584E+03  0.00000000000E+00 0. -1.
         25    2    1    2    0    0 -0.15959564738E+02 -0.12556607103E+03  0.12995886446E+03  0.22030885070E+03  0.12500054938E+03 0.  0.
          2    1    1    2  501    0 -0.10644193671E+02  0.11724840691E+03 -0.92381989888E+03  0.93129141162E+03  0.00000000000E+00 0. -1.
          1    1    1    2  502    0  0.26603758410E+02  0.83176641232E+01  0.10336554579E+04  0.10340312128E+04  0.00000000000E+00 0. -1.
         22    1    3    3    0    0 -0.53088752441E+01 -0.49683141463E+02 -0.18467691217E+02  0.53269637889E+02  0.00000000000E+00 0. -1.
         22    1    3    3    0    0 -0.10650689494E+02 -0.75882929570E+02  0.14842655568E+03  0.16703921281E+03  0.00000000000E+00 0. -1.
</event>
<event>
 7    1  0.5931885E-006  0.4018642E+02  0.7818608E-02  0.1553870E+00
          2   -1    0    0  502    0  0.00000000000E+00  0.00000000000E+00  0.22126041392E+04  0.22126041392E+04  0.00000000000E+00 0. -1.
          1   -1    0    0  501    0 -0.00000000000E+00 -0.00000000000E+00 -0.15439407036E+04  0.15439407036E+04  0.00000000000E+00 0. -1.
         25    2    1    2    0    0  0.28396774644E+02  0.42822173523E+02  0.31612488985E+02  0.13879756650E+03  0.12500119860E+03 0.  0.
          2    1    1    2  501    0 -0.37373838771E+02 -0.14752539425E+02 -0.14899752569E+04  0.14905169262E+04  0.00000000000E+00 0. -1.
          1    1    1    2  502    0  0.89770641266E+01 -0.28069634098E+02  0.21270262035E+04  0.21272303501E+04  0.00000000000E+00 0. -1.
         22    1    3    3    0    0 -0.44411542953E+02 -0.56303805473E+01 -0.27050458599E+01  0.44848674514E+02  0.00000000000E+00 0. -1.
         22    1    3    3    0    0  0.72808317597E+02  0.48452554070E+02  0.34317534844E+02  0.93948891984E+02  0.00000000000E+00 0. -1.
</event>
<event>
 7    1  0.5931885E-006  0.1353686E+03  0.7818608E-02  0.1376045E+00
          2   -1    0    0  502    0  0.00000000000E+00  0.00000000000E+00  0.45148506468E+03  0.45148506468E+03  0.00000000000E+00 0. -1.
          1   -1    0    0  501    0 -0.00000000000E+00 -0.00000000000E+00 -0.59348542405E+03  0.59348542405E+03  0.00000000000E+00 0. -1.
         25    2    1    2    0    0  0.55285987687E+02 -0.92822280897E+02 -0.44441320921E+02  0.17109289362E+03  0.12500092390E+03 0.  0.
          2    1    1    2  501    0 -0.70023959747E+02  0.12089640137E+03 -0.47499318636E+03  0.49511394839E+03  0.00000000000E+00 0. -1.
          1    1    1    2  502    0  0.14737972060E+02 -0.28074120469E+02  0.37743414791E+03  0.37876364671E+03  0.00000000000E+00 0. -1.
         22    1    3    3    0    0  0.69104908262E+02 -0.37327215194E+02 -0.72947804359E+02  0.10719231083E+03  0.00000000000E+00 0. -1.
         22    1    3    3    0    0 -0.13818920575E+02 -0.55495065702E+02  0.28506483438E+02  0.63900582792E+02  0.00000000000E+00 0. -1.
</event>
<event>
 7    1  0.5931885E-006  0.2735395E+02  0.7818608E-02  0.1664880E+00
          2   -1    0    0  502    0  0.00000000000E+00  0.00000000000E+00  0.10991787884E+02  0.10991787884E+02  0.00000000000E+00 0. -1.
          1   -1    0    0  501    0 -0.00000000000E+00 -0.00000000000E+00 -0.13677975605E+04  0.13677975605E+04  0.00000000000E+00 0. -1.
         25    2    1    2    0    0 -0.99176685553E+01 -0.46123698005E+01 -0.77873313234E+03  0.78877767976E+03  0.12500121033E+03 0.  0.
          2    1    1    2  501    0  0.27104081259E+02 -0.96938444123E+01 -0.56135307375E+03  0.56209062904E+03  0.00000000000E+00 0. -1.
          1    1    1    2  502    0 -0.17186412704E+02  0.14306214213E+02 -0.16719566526E+02  0.27921039586E+02  0.00000000000E+00 0. -1.
         22    1    3    3    0    0 -0.36226351822E+02 -0.17547324500E+02 -0.73515481335E+03  0.73625597230E+03  0.00000000000E+00 0. -1.
         22    1    3    3    0    0  0.26308683266E+02  0.12934954700E+02 -0.43578318990E+02  0.52521707458E+02  0.00000000000E+00 0. -1.
</event>
<event>
 7    1  0.5931885E-006  0.1200220E+03  0.7818608E-02  0.1419591E+00
          2   -1    0    0  502    0  0.00000000000E+00  0.00000000000E+00  0.13055464394E+04  0.13055464394E+04  0.00000000000E+00 0. -1.
          1   -1    0    0  501    0 -0.00000000000E+00 -0.00000000000E+00 -0.87944081335E+03  0.87944081335E+03  0.00000000000E+00 0. -1.
         25    2    1    2    0    0 -0.10912314068E+03 -0.89060304518E+02  0.15854906765E+03  0.24617877553E+03  0.12500633983E+03 0.  0.
          2    1    1    2  501    0  0.10751374624E+02  0.22904468347E+02 -0.83224835070E+03  0.83263288668E+03  0.00000000000E+00 0. -1.
          1    1    1    2  502    0  0.98371766056E+02  0.66155836171E+02  0.10998049091E+04  0.11061755906E+04  0.00000000000E+00 0. -1.
         22    1    3    3    0    0 -0.79414002248E+02 -0.38081023326E+02  0.16478633735E+03  0.18684561827E+03  0.00000000000E+00 0. -1.
         22    1    3    3    0    0 -0.29709138432E+02 -0.50979281191E+02 -0.62372696989E+01  0.59333157260E+02  0.00000000000E+00 0. -1.
</event>
<event>
 7    1  0.5931885E-006  0.5987546E+02  0.7818608E-02  0.1402772E+00
          2   -1    0    0  502    0  0.00000000000E+00  0.00000000000E+00  0.20320960266E+04  0.20320960266E+04  0.00000000000E+00 0. -1.
          1   -1    0    0  501    0 -0.00000000000E+00 -0.00000000000E+00 -0.24969695740E+03  0.24969695740E+03  0.00000000000E+00 0. -1.
         25    2    1    2    0    0 -0.11650844412E+03 -0.67793013423E+01  0.25485425016E+03  0.30691307134E+03  0.12499907222E+03 0.  0.
          2    1    1    2  501    0  0.58689299273E+02  0.68430278776E+01 -0.21927857849E+03  0.22709988081E+03  0.00000000000E+00 0. -1.
          1    1    1    2  502    0  0.57819144852E+02 -0.63726535295E-01  0.17468233975E+04  0.17477800318E+04  0.00000000000E+00 0. -1.
         22    1    3    3    0    0 -0.86184860987E+02 -0.40533365452E+02  0.24151916036E+03  0.25961950774E+03  0.00000000000E+00 0. -1.
         22    1    3    3    0    0 -0.30323583138E+02  0.33754064110E+02  0.13335089805E+02  0.47293563604E+02  0.00000000000E+00 0. -1.
</event>
<event>
 7    1  0.9054507E-006  0.1582328E+03  0.7818608E-02  0.1375101E+00
          2   -1    0    0  502    0  0.00000000000E+00  0.00000000000E+00  0.15288733023E+04  0.15288733023E+04  0.00000000000E+00 0. -1.
          1   -1    0    0  501    0 -0.00000000000E+00 -0.00000000000E+00 -0.17416508931E+04  0.17416508931E+04  0.00000000000E+00 0. -1.
         25    2    1    2    0    0 -0.11754201875E+03 -0.74371192317E+02 -0.36210479682E+03  0.40753748168E+03  0.12497885690E+03 0.  0.
          2    1    1    2  501    0 -0.26218938145E+02  0.77376072376E+01 -0.13525238191E+04  0.13528000534E+04  0.00000000000E+00 0. -1.
          1    1    1    2  502    0  0.14376095689E+03  0.66633585079E+02  0.15018510252E+04  0.15101866604E+04  0.00000000000E+00 0. -1.
         22    1    3    3    0    0 -0.11686407658E+03 -0.10110495578E+03 -0.33751371289E+03  0.37120739603E+03  0.00000000000E+00 0. -1.
         22    1    3    3    0    0 -0.67794216928E+00  0.26733763459E+02 -0.24591083929E+02  0.36330085646E+02  0.00000000000E+00 0. -1.
</event>
<event>
 7    1  0.5931885E-006  0.1208817E+03  0.7818608E-02  0.1299986E+00
          2   -1    0    0  502    0  0.00000000000E+00  0.00000000000E+00  0.11437061330E+04  0.11437061330E+04  0.00000000000E+00 0. -1.
          1   -1    0    0  501    0 -0.00000000000E+00 -0.00000000000E+00 -0.17896171805E+04  0.17896171805E+04  0.00000000000E+00 0. -1.
         25    2    1    2    0    0  0.25883143459E+02 -0.15119937167E+03  0.12684398154E+03  0.23505310513E+03  0.12501751665E+03 0.  0.
          2    1    1    2  501    0  0.33234447936E+02  0.11601147111E+03 -0.17321815785E+04  0.17363802034E+04  0.00000000000E+00 0. -1.
          1    1    1    2  502    0 -0.59117591395E+02  0.35187900565E+02  0.95942654941E+03  0.96189000497E+03  0.00000000000E+00 0. -1.
         22    1    3    3    0    0  0.71396797624E+02 -0.11366933829E+03  0.11043476517E+03  0.17382191616E+03  0.00000000000E+00 0.  1.
         22    1    3    3    0    0 -0.45513654164E+02 -0.37530033386E+02  0.16409216364E+02  0.61231188973E+02  0.00000000000E+00 0.  1.
</event>
<event>
 7    1  0.5931885E-006  0.6915855E+02  0.7818608E-02  0.1455433E+00
          2   -1    0    0  502    0  0.00000000000E+00  0.00000000000E+00  0.22694192975E+03  0.22694192975E+03  0.00000000000E+00 0. -1.
          1   -1    0    0  501    0 -0.00000000000E+00 -0.00000000000E+00 -0.31404773070E+03  0.31404773070E+03  0.00000000000E+00 0. -1.
         25    2    1    2    0    0 -0.20596612153E+02 -0.34543132543E+02  0.93721206453E+02  0.16132298736E+03  0.12499597303E+03 0.  0.
          2    1    1    2  501    0  0.17634540962E+02  0.67972313430E+02 -0.27283609303E+03  0.28172814217E+03  0.00000000000E+00 0. -1.
          1    1    1    2  502    0  0.29620711910E+01 -0.33429180887E+02  0.92009085630E+02  0.97938530921E+02  0.00000000000E+00 0. -1.
         22    1    3    3    0    0  0.43956845052E+02  0.11087806403E+02  0.10487277495E+02  0.46530921622E+02  0.00000000000E+00 0.  1.
         22    1    3    3    0    0 -0.64553457205E+02 -0.45630938946E+02  0.83233928958E+02  0.11479206574E+03  0.00000000000E+00 0.  1.
</event>
<event>
 7    1  0.5931885E-006  0.1476156E+03  0.7818608E-02  0.1219846E+00
          2   -1    0    0  502    0  0.00000000000E+00  0.00000000000E+00  0.82464423638E+03  0.82464423638E+03  0.00000000000E+00 0. -1.
          1   -1    0    0  501    0 -0.00000000000E+00 -0.00000000000E+00 -0.62344387476E+03  0.62344387476E+03  0.00000000000E+00 0. -1.
         25    2    1    2    0    0 -0.83980962240E+02  0.94381986635E+02  0.35935476130E+03  0.40090747925E+03  0.12502080238E+03 0.  0.
          2    1    1    2  501    0  0.82579088499E+02  0.92433198946E+02 -0.57615191203E+03  0.58933371519E+03  0.00000000000E+00 0. -1.
          1    1    1    2  502    0  0.14018737408E+01 -0.18681518558E+03  0.41799751234E+03  0.45784691670E+03  0.00000000000E+00 0. -1.
         22    1    3    3    0    0 -0.13501914907E+02 -0.23988634527E+02  0.13385043347E+03  0.13665172824E+03  0.00000000000E+00 0. -1.
         22    1    3    3    0    0 -0.70479047333E+02  0.11837062116E+03  0.22550432783E+03  0.26425575100E+03  0.00000000000E+00 0. -1.
</event>
<event>
 7    1  0.5931885E-006  0.9526818E+02  0.7818608E-02  0.1333461E+00
          2   -1    0    0  502    0  0.00000000000E+00  0.00000000000E+00  0.15033136311E+04  0.15033136311E+04  0.00000000000E+00 0. -1.
          1   -1    0    0  501    0 -0.00000000000E+00 -0.00000000000E+00 -0.16987939743E+04  0.16987939743E+04  0.00000000000E+00 0. -1.
         25    2    1    2    0    0  0.15279064175E+03 -0.35628535857E+02  0.86695812826E+03  0.88986179486E+03  0.12499297992E+03 0.  0.
          2    1    1    2  501    0 -0.88163346320E+02  0.35858940793E+02 -0.16843241077E+04  0.16870110666E+04  0.00000000000E+00 0. -1.
          1    1    1    2  502    0 -0.64627295426E+02 -0.23040493551E+00  0.62188563627E+03  0.62523474392E+03  0.00000000000E+00 0. -1.
         22    1    3    3    0    0  0.89177970597E+02 -0.66061521189E+02  0.32703387133E+03  0.34535197700E+03  0.00000000000E+00 0.  1.
         22    1    3    3    0    0  0.63612671150E+02  0.30432985331E+02  0.53992425693E+03  0.54450981786E+03  0.00000000000E+00 0.  1.
</event>
<event>
 7    1  0.5931885E-006  0.6174619E+02  0.7818608E-02  0.1402581E+00
          2   -1    0    0  502    0  0.00000000000E+00  0.00000000000E+00  0.90530897653E+03  0.90530897653E+03  0.00000000000E+00 0. -1.
          1   -1    0    0  501    0 -0.00000000000E+00 -0.00000000000E+00 -0.28552389306E+03  0.28552389306E+03  0.00000000000E+00 0. -1.
         25    2    1    2    0    0 -0.48815379274E+02  0.10650880446E+03  0.29722040869E+03  0.34306517340E+03  0.12500670052E+03 0.  0.
          2    1    1    2  501    0  0.27834574848E+02 -0.54423509474E+02 -0.25767031935E+03  0.26482196929E+03  0.00000000000E+00 0. -1.
          1    1    1    2  502    0  0.20980804425E+02 -0.52085294990E+02  0.58023499413E+03  0.58294572691E+03  0.00000000000E+00 0. -1.
         22    1    3    3    0    0  0.33034526111E+02 -0.37235713624E+01  0.71826260667E+02  0.79146425190E+02  0.00000000000E+00 0. -1.
         22    1    3    3    0    0 -0.81849905384E+02  0.11023237583E+03  0.22539414802E+03  0.26391874821E+03  0.00000000000E+00 0. -1.
</event>
<event>
 7    1  0.5931885E-006  0.8417787E+02  0.7818608E-02  0.1378013E+00
          2   -1    0    0  502    0  0.00000000000E+00  0.00000000000E+00  0.43138632416E+03  0.43138632416E+03  0.00000000000E+00 0. -1.
          1   -1    0    0  501    0 -0.00000000000E+00 -0.00000000000E+00 -0.30092993995E+04  0.30092993995E+04  0.00000000000E+00 0. -1.
         25    2    1    2    0    0 -0.27269652179E+02 -0.75739669604E+02 -0.49135558633E+03  0.51335722388E+03  0.12500078244E+03 0.  0.
          2    1    1    2  501    0  0.49870836606E+02 -0.55083103804E+01 -0.25024595117E+04  0.25029624547E+04  0.00000000000E+00 0. -1.
          1    1    1    2  502    0 -0.22601184427E+02  0.81247979985E+02  0.41590202267E+03  0.42436604512E+03  0.00000000000E+00 0. -1.
         22    1    3    3    0    0  0.21333419616E+02 -0.75216780995E+02 -0.15597890391E+03  0.17447663855E+03  0.00000000000E+00 0.  1.
         22    1    3    3    0    0 -0.48603071795E+02 -0.52288860909E+00 -0.33537668242E+03  0.33888058533E+03  0.00000000000E+00 0.  1.
</event>
<event>
 7    1  0.5931885E-006  0.2893261E+02  0.7818608E-02  0.1621070E+00
          2   -1    0    0  502    0  0.00000000000E+00  0.00000000000E+00  0.66578714818E+03  0.66578714818E+03  0.00000000000E+00 0. -1.
          1   -1    0    0  501    0 -0.00000000000E+00 -0.00000000000E+00 -0.13787440010E+04  0.13787440010E+04  0.00000000000E+00 0. -1.
         25    2    1    2    0    0 -0.54054474738E+02  0.14697095750E+02 -0.87286400924E+03  0.88354639821E+03  0.12499907321E+03 0.  0.
          2    1    1    2  501    0  0.26447061886E+02 -0.60737527844E+01 -0.49985396139E+03  0.50058997220E+03  0.00000000000E+00 0. -1.
          1    1    1    2  502    0  0.27607412852E+02 -0.86233429658E+01  0.65976111780E+03  0.66039477878E+03  0.00000000000E+00 0. -1.
         22    1    3    3    0    0 -0.35082872438E+02  0.32437089800E+02 -0.84136110521E+03  0.84271672708E+03  0.00000000000E+00 0. -1.
         22    1    3    3    0    0 -0.18971602299E+02 -0.17739994050E+02 -0.31502904027E+02  0.40829671133E+02  0.00000000000E+00 0. -1.
</event>
<event>
 7    1  0.5931885E-006  0.8822373E+02  0.7818608E-02  0.1341961E+00
          2   -1    0    0  502    0  0.00000000000E+00  0.00000000000E+00  0.28574750291E+04  0.28574750291E+04  0.00000000000E+00 0. -1.
          1   -1    0    0  501    0 -0.00000000000E+00 -0.00000000000E+00 -0.12151345134E+04  0.12151345134E+04  0.00000000000E+00 0. -1.
         25    2    1    2    0    0 -0.22060379029E+02 -0.68108772615E+02 -0.89738585140E+03  0.90887414029E+03  0.12500148543E+03 0.  0.
          2    1    1    2  501    0  0.49371508075E+01  0.13062318851E+03 -0.29792702971E+03  0.32534183233E+03  0.00000000000E+00 0. -1.
          1    1    1    2  502    0  0.17123228221E+02 -0.62514415895E+02  0.28376533968E+04  0.28383935699E+04  0.00000000000E+00 0. -1.
         22    1    3    3    0    0 -0.50087945407E+02  0.15020250483E+02 -0.44490911305E+03  0.44797157172E+03  0.00000000000E+00 0.  1.
         22    1    3    3    0    0  0.28027566378E+02 -0.83129023098E+02 -0.45247673835E+03  0.46090256856E+03  0.00000000000E+00 0.  1.
</event>
<event>
 7    1  0.5931885E-006  0.1114330E+03  0.7818608E-02  0.1312426E+00
          2   -1    0    0  502    0  0.00000000000E+00  0.00000000000E+00  0.54799754512E+03  0.54799754512E+03  0.00000000000E+00 0. -1.
          1   -1    0    0  501    0 -0.00000000000E+00 -0.00000000000E+00 -0.72381606454E+03  0.72381606454E+03  0.00000000000E+00 0. -1.
         25    2    1    2    0    0 -0.43728844944E+02  0.10186512331E+03 -0.46780807661E+03  0.49674698471E+03  0.12499782019E+03 0.  0.
          2    1    1    2  501    0  0.66191820093E+02  0.75327540910E+01 -0.23093363970E+03  0.24035067168E+03  0.00000000000E+00 0. -1.
          1    1    1    2  502    0 -0.22462975149E+02 -0.10939787741E+03  0.52292319689E+03  0.53471595327E+03  0.00000000000E+00 0. -1.
         22    1    3    3    0    0 -0.34215004367E+02  0.44200461740E+01 -0.30368657760E+03  0.30563988736E+03  0.00000000000E+00 0. -1.
         22    1    3    3    0    0 -0.95138405767E+01  0.97445077141E+02 -0.16412149901E+03  0.19110709735E+03  0.00000000000E+00 0. -1.
</event>
<event>
 7    1  0.5931885E-006  0.1531416E+03  0.7818608E-02  0.1315346E+00
          2   -1    0    0  502    0  0.00000000000E+00  0.00000000000E+00  0.20210359144E+03  0.20210359144E+03  0.00000000000E+00 0. -1.
          1   -1    0    0  501    0 -0.00000000000E+00 -0.00000000000E+00 -0.69699433936E+03  0.69699433936E+03  0.00000000000E+00 0. -1.
         25    2    1    2    0    0  0.79360339947E+02 -0.11594751648E+03  0.20435035358E+02  0.18916974666E+03  0.12500284896E+03 0.  0.
          2    1    1    2  501    0 -0.12193498809E+03  0.95534501755E+02 -0.59635593013E+03  0.61614558162E+03  0.00000000000E+00 0. -1.
          1    1    1    2  502    0  0.42574648147E+02  0.20413014721E+02  0.81030146859E+02  0.93782602516E+02  0.00000000000E+00 0. -1.
         22    1    3    3    0    0  0.93580543394E+02 -0.66182336327E+02 -0.28319887650E+02  0.11806538773E+03  0.00000000000E+00 0.  1.
         22    1    3    3    0    0 -0.14220203446E+02 -0.49765180149E+02  0.48754923009E+02  0.71104358930E+02  0.00000000000E+00 0.  1.
</event>
<event>
 7    1  0.5931885E-006  0.6991789E+02  0.7818608E-02  0.1467167E+00
          2   -1    0    0  502    0  0.00000000000E+00  0.00000000000E+00  0.37112353947E+03  0.37112353947E+03  0.00000000000E+00 0. -1.
          1   -1    0    0  501    0 -0.00000000000E+00 -0.00000000000E+00 -0.22636460906E+04  0.22636460906E+04  0.00000000000E+00 0. -1.
         25    2    1    2    0    0 -0.92998124697E+02 -0.92024289690E+01 -0.10570937042E+04  0.10685529365E+04  0.12499977051E+03 0.  0.
          2    1    1    2  501    0  0.63831909988E+02  0.18082663015E+02 -0.11992683581E+04  0.12011020315E+04  0.00000000000E+00 0. -1.
          1    1    1    2  502    0  0.29166214709E+02 -0.88802340456E+01  0.36383951113E+03  0.36511466213E+03  0.00000000000E+00 0. -1.
         22    1    3    3    0    0 -0.46216582151E+02  0.44947171833E+02 -0.76928497193E+03  0.77198159871E+03  0.00000000000E+00 0. -1.
         22    1    3    3    0    0 -0.46781542546E+02 -0.54149600802E+02 -0.28780873229E+03  0.29657133774E+03  0.00000000000E+00 0. -1.
</event>
<event>
 7    1  0.5931885E-006  0.9076268E+02  0.7818608E-02  0.1315948E+00
          2   -1    0    0  502    0  0.00000000000E+00  0.00000000000E+00  0.11294810798E+04  0.11294810798E+04  0.00000000000E+00 0. -1.
          1   -1    0    0  501    0 -0.00000000000E+00 -0.00000000000E+00 -0.16992622648E+04  0.16992622648E+04  0.00000000000E+00 0. -1.
         25    2    1    2    0    0  0.16975543880E+02 -0.80589427958E+01  0.11578629709E+03  0.17141828320E+03  0.12499858229E+03 0.  0.
          2    1    1    2  501    0  0.54658537637E+02 -0.57363561042E+02 -0.16681170341E+04  0.16699977764E+04  0.00000000000E+00 0. -1.
          1    1    1    2  502    0 -0.71634081517E+02  0.65422503837E+02  0.98254955192E+03  0.98732728495E+03  0.00000000000E+00 0. -1.
         22    1    3    3    0    0 -0.31648524340E+00  0.40267472388E+02  0.11306196877E+03  0.12001907464E+03  0.00000000000E+00 0.  1.
         22    1    3    3    0    0  0.17292029123E+02 -0.48326415183E+02  0.27243283127E+01  0.51399208558E+02  0.00000000000E+00 0.  1.
</event>
<event>
 7    1  0.5931885E-006  0.8181159E+02  0.7818608E-02  0.1339191E+00
          2   -1    0    0  502    0  0.00000000000E+00  0.00000000000E+00  0.19811932944E+04  0.19811932944E+04  0.00000000000E+00 0. -1.
          1   -1    0    0  501    0 -0.00000000000E+00 -0.00000000000E+00 -0.14481423455E+03  0.14481423455E+03  0.00000000000E+00 0. -1.
         25    2    1    2    0    0 -0.13444770984E+03  0.37344680252E+02  0.27117489840E+03  0.32959281443E+03  0.12499914392E+03 0.  0.
          2    1    1    2  501    0  0.63620578893E+02 -0.47792251843E+02 -0.10105249495E+03  0.12862069869E+03  0.00000000000E+00 0. -1.
          1    1    1    2  502    0  0.70827130951E+02  0.10447571592E+02  0.16662566564E+04  0.16677940159E+04  0.00000000000E+00 0. -1.
         22    1    3    3    0    0 -0.82043778749E+02  0.83258017311E+02  0.18412798018E+03  0.21809674955E+03  0.00000000000E+00 0.  1.
         22    1    3    3    0    0 -0.52403931095E+02 -0.45913337059E+02  0.87046918220E+02  0.11149606489E+03  0.00000000000E+00 0.  1.
</event>
<event>
 7    1  0.5931885E-006  0.8271459E+02  0.7818608E-02  0.1381570E+00
          2   -1    0    0  502    0  0.00000000000E+00  0.00000000000E+00  0.22376220318E+04  0.22376220318E+04  0.00000000000E+00 0. -1.
          1   -1    0    0  501    0 -0.00000000000E+00 -0.00000000000E+00 -0.69044292044E+03  0.69044292044E+03  0.00000000000E+00 0. -1.
         25    2    1    2    0    0  0.14115221835E+02 -0.12489780270E+03  0.56416413008E+03  0.59136081194E+03  0.12501097404E+03 0.  0.
          2    1    1    2  501    0 -0.28557765817E+02  0.77445448858E+02 -0.67395549200E+03  0.67899142022E+03  0.00000000000E+00 0. -1.
          1    1    1    2  502    0  0.14442543983E+02  0.47452353847E+02  0.16569704732E+04  0.16577127200E+04  0.00000000000E+00 0. -1.
         22    1    3    3    0    0 -0.24565034982E+02 -0.39875592915E+02  0.48945362718E+02  0.67743282956E+02  0.00000000000E+00 0.  1.
         22    1    3    3    0    0  0.38680256817E+02 -0.85022209790E+02  0.51521876736E+03  0.52361752899E+03  0.00000000000E+00 0.  1.
</event>
<event>
 7    1  0.5931885E-006  0.1120294E+03  0.7818608E-02  0.1330094E+00
          2   -1    0    0  502    0  0.00000000000E+00  0.00000000000E+00  0.56718676680E+03  0.56718676680E+03  0.00000000000E+00 0. -1.
          1   -1    0    0  501    0 -0.00000000000E+00 -0.00000000000E+00 -0.57922064126E+02  0.57922064126E+02  0.00000000000E+00 0. -1.
         25    2    1    2    0    0 -0.10070685448E+02 -0.73972885592E+02  0.34784475661E+03  0.37708632670E+03  0.12499886629E+03 0.  0.
          2    1    1    2  501    0 -0.18413590243E+02  0.12288991270E+03  0.76358982103E+02  0.14584815768E+03  0.00000000000E+00 0. -1.
          1    1    1    2  502    0  0.28484275691E+02 -0.48917027111E+02  0.85060963964E+02  0.10217434655E+03  0.00000000000E+00 0. -1.
         22    1    3    3    0    0 -0.13493419164E+02  0.14346821155E+02  0.16244774738E+01  0.19762149808E+02  0.00000000000E+00 0.  1.
         22    1    3    3    0    0  0.34227337159E+01 -0.88319706747E+02  0.34622027913E+03  0.35732417689E+03  0.00000000000E+00 0.  1.
</event>
<event>
 7    1  0.5931885E-006  0.6975856E+02  0.7818608E-02  0.1466116E+00
          2   -1    0    0  502    0  0.00000000000E+00  0.00000000000E+00  0.85425106943E+03  0.85425106943E+03  0.00000000000E+00 0. -1.
          1   -1    0    0  501    0 -0.00000000000E+00 -0.00000000000E+00 -0.82583817229E+02  0.82583817229E+02  0.00000000000E+00 0. -1.
         25    2    1    2    0    0 -0.15285350147E+02 -0.54618149758E+02  0.78848626881E+03  0.80034491855E+03  0.12499843335E+03 0.  0.
          2    1    1    2  501    0 -0.11859114659E+02  0.69150451707E+02 -0.53768206622E+02  0.88393685380E+02  0.00000000000E+00 0. -1.
          1    1    1    2  502    0  0.27144464806E+02 -0.14532301949E+02  0.36949190021E+02  0.48096282733E+02  0.00000000000E+00 0. -1.
         22    1    3    3    0    0  0.17501320639E+02 -0.84735171137E+01  0.65580259392E+03  0.65609080081E+03  0.00000000000E+00 0.  1.
         22    1    3    3    0    0 -0.32786670787E+02 -0.46144632644E+02  0.13268367489E+03  0.14425411774E+03  0.00000000000E+00 0.  1.
</event>
<event>
 7    1  0.5998072E-006  0.7954314E+02  0.7818608E-02  0.1418552E+00
          2   -1    0    0  502    0  0.00000000000E+00  0.00000000000E+00  0.12715737499E+04  0.12715737499E+04  0.00000000000E+00 0. -1.
          1   -1    0    0  501    0 -0.00000000000E+00 -0.00000000000E+00 -0.70612731833E+03  0.70612731833E+03  0.00000000000E+00 0. -1.
         25    2    1    2    0    0 -0.75975601621E+02 -0.77923169568E+02 -0.11927202446E+03  0.20419183767E+03  0.12499671338E+03 0.  0.
          2    1    1    2  501    0  0.66358542256E+02  0.40658980854E+02 -0.54131055847E+03  0.54687633846E+03  0.00000000000E+00 0. -1.
          1    1    1    2  502    0  0.96170593654E+01  0.37264188714E+02  0.12260290145E+04  0.12266328921E+04  0.00000000000E+00 0. -1.
         22    1    3    3    0    0 -0.57035463483E+02 -0.11250177469E+03 -0.94817767357E+02  0.15779766288E+03  0.00000000000E+00 0.  1.
         22    1    3    3    0    0 -0.18940138138E+02  0.34578605119E+02 -0.24454257103E+02  0.46394174797E+02  0.00000000000E+00 0.  1.
</event>
<event>
 7    1  0.5931885E-006  0.1750930E+03  0.7818608E-02  0.1230356E+00
          2   -1    0    0  502    0  0.00000000000E+00  0.00000000000E+00  0.96083312355E+03  0.96083312355E+03  0.00000000000E+00 0. -1.
          1   -1    0    0  501    0 -0.00000000000E+00 -0.00000000000E+00 -0.79865962985E+02  0.79865962985E+02  0.00000000000E+00 0. -1.
         25    2    1    2    0    0 -0.36710659987E+02 -0.32612397262E+02  0.11458837749E+03  0.17653833874E+03  0.12499619106E+03 0.  0.
          2    1    1    2  501    0  0.99636147657E+02  0.19600739851E+03  0.36267743070E+03  0.42412401598E+03  0.00000000000E+00 0. -1.
          1    1    1    2  502    0 -0.62925487670E+02 -0.16339500125E+03  0.40370135238E+03  0.44003673182E+03  0.00000000000E+00 0. -1.
         22    1    3    3    0    0 -0.35380231769E+02 -0.71263683345E+02  0.11252126760E+03  0.13780895844E+03  0.00000000000E+00 0.  1.
         22    1    3    3    0    0 -0.13304282186E+01  0.38651286083E+02  0.20671098814E+01  0.38729380299E+02  0.00000000000E+00 0.  1.
</event>
<event>
 7    1  0.5931885E-006  0.1841673E+03  0.7818608E-02  0.1290261E+00
          2   -1    0    0  502    0  0.00000000000E+00  0.00000000000E+00  0.22457779406E+03  0.22457779406E+03  0.00000000000E+00 0. -1.
          1   -1    0    0  501    0 -0.00000000000E+00 -0.00000000000E+00 -0.22628358314E+04  0.22628358314E+04  0.00000000000E+00 0. -1.
         25    2    1    2    0    0  0.13658133485E+03 -0.20845168037E+02 -0.62661317106E+03  0.65372618757E+03  0.12499952042E+03 0.  0.
          2    1    1    2  501    0  0.49425479611E+02  0.82141058780E-01 -0.15807036583E+04  0.15814761902E+04  0.00000000000E+00 0. -1.
          1    1    1    2  502    0 -0.18600681446E+03  0.20763026978E+02  0.16905879202E+03  0.25221124771E+03  0.00000000000E+00 0. -1.
         22    1    3    3    0    0  0.13096739780E+03 -0.29545704269E+02 -0.62894260063E+03  0.64311290052E+03  0.00000000000E+00 0.  1.
         22    1    3    3    0    0  0.56139370495E+01  0.87005362318E+01  0.23294295674E+01  0.10613287051E+02  0.00000000000E+00 0.  1.
</event>
<event>
 7    1  0.6455204E-006  0.9016339E+02  0.7818608E-02  0.1332654E+00
          2   -1    0    0  502    0  0.00000000000E+00  0.00000000000E+00  0.39010966864E+04  0.39010966864E+04  0.00000000000E+00 0. -1.
          1   -1    0    0  501    0 -0.00000000000E+00 -0.00000000000E+00 -0.73886355355E+03  0.73886355355E+03  0.00000000000E+00 0. -1.
         25    2    1    2    0    0 -0.12084137035E+03 -0.95529165027E+02 -0.33279430226E+03  0.38743468947E+03  0.12500053130E+03 0.  0.
          2    1    1    2  501    0  0.63712163962E+02  0.25888205886E+02 -0.37509893576E+03  0.38135108581E+03  0.00000000000E+00 0. -1.
          1    1    1    2  502    0  0.57129206387E+02  0.69640959141E+02  0.38701263708E+04  0.38711744646E+04  0.00000000000E+00 0. -1.
         22    1    3    3    0    0 -0.87039836505E+02 -0.45548796012E+02 -0.30606085411E+03  0.32144030920E+03  0.00000000000E+00 0.  1.
         22    1    3    3    0    0 -0.33801533845E+02 -0.49980369015E+02 -0.26733448148E+02  0.65994380268E+02  0.00000000000E+00 0.  1.
</event>
<event>
 7    1  0.5931885E-006  0.6935958E+02  0.7818608E-02  0.1403957E+00
          2   -1    0    0  502    0  0.00000000000E+00  0.00000000000E+00  0.26453447168E+04  0.26453447168E+04  0.00000000000E+00 0. -1.
          1   -1    0    0  501    0 -0.00000000000E+00 -0.00000000000E+00 -0.15488291201E+04  0.15488291201E+04  0.00000000000E+00 0. -1.
         25    2    1    2    0    0 -0.22029544684E+02 -0.93372147115E+02  0.61311374106E+03  0.63303654555E+03  0.12499259909E+03 0.  0.
          2    1    1    2  501    0  0.41041244583E+02  0.27583823067E+02 -0.15378904675E+04  0.15386852638E+04  0.00000000000E+00 0. -1.
          1    1    1    2  502    0 -0.19011699900E+02  0.65788324048E+02  0.20212923231E+04  0.20224520275E+04  0.00000000000E+00 0. -1.
         22    1    3    3    0    0 -0.25767859206E+02  0.24477644468E+02  0.21175481580E+03  0.21471664971E+03  0.00000000000E+00 0. -1.
         22    1    3    3    0    0  0.37383145226E+01 -0.11784979158E+03  0.40135892526E+03  0.41831989584E+03  0.00000000000E+00 0. -1.
</event>
<event>
 7    1  0.5931885E-006  0.5070909E+02  0.7818608E-02  0.1444399E+00
          2   -1    0    0  502    0  0.00000000000E+00  0.00000000000E+00  0.20299047258E+04  0.20299047258E+04  0.00000000000E+00 0. -1.
          1   -1    0    0  501    0 -0.00000000000E+00 -0.00000000000E+00 -0.10089262411E+02  0.10089262411E+02  0.00000000000E+00 0. -1.
         25    2    1    2    0    0 -0.30205486304E+02  0.25889249485E+02  0.71704983850E+03  0.72894172254E+03  0.12495174797E+03 0.  0.
          2    1    1    2  501    0  0.41722247533E+02  0.26908189988E+02  0.17267613986E+03  0.17967149442E+03  0.00000000000E+00 0. -1.
          1    1    1    2  502    0 -0.11516761229E+02 -0.52797439473E+02  0.11300894850E+04  0.11313807713E+04  0.00000000000E+00 0. -1.
         22    1    3    3    0    0  0.20552778080E+02  0.57077190172E+02  0.50669326733E+03  0.51031195310E+03  0.00000000000E+00 0. -1.
         22    1    3    3    0    0 -0.50758264384E+02 -0.31187940687E+02  0.21035657117E+03  0.21862976943E+03  0.00000000000E+00 0. -1.
</event>
<event>
 7    1  0.5931885E-006  0.4101912E+02  0.7818608E-02  0.1603115E+00
          2   -1    0    0  502    0  0.00000000000E+00  0.00000000000E+00  0.12575011739E+04  0.12575011739E+04  0.00000000000E+00 0. -1.
          1   -1    0    0  501    0 -0.00000000000E+00 -0.00000000000E+00 -0.73255557876E+03  0.73255557876E+03  0.00000000000E+00 0. -1.
         25    2    1    2    0    0  0.21991949917E+02 -0.55462446956E+02 -0.10311274549E+03  0.17268033267E+03  0.12500612035E+03 0.  0.
          2    1    1    2  501    0 -0.15021711001E+02  0.15083791624E+02 -0.59412506143E+03  0.59450631720E+03  0.00000000000E+00 0. -1.
          1    1    1    2  502    0 -0.69702389166E+01  0.40378655333E+02  0.12221834020E+04  0.12228701028E+04  0.00000000000E+00 0. -1.
         22    1    3    3    0    0  0.66936266815E+02 -0.24299076243E+02 -0.21404843017E+02  0.74357758344E+02  0.00000000000E+00 0. -1.
         22    1    3    3    0    0 -0.44944316898E+02 -0.31163370713E+02 -0.81707902469E+02  0.98322574323E+02  0.00000000000E+00 0. -1.
</event>
<event>
 7    1  0.5931885E-006  0.6655538E+02  0.7818608E-02  0.1513086E+00
          2   -1    0    0  502    0  0.00000000000E+00  0.00000000000E+00  0.18371776710E+04  0.18371776710E+04  0.00000000000E+00 0. -1.
          1   -1    0    0  501    0 -0.00000000000E+00 -0.00000000000E+00 -0.36667424725E+03  0.36667424725E+03  0.00000000000E+00 0. -1.
         25    2    1    2    0    0  0.56312221896E+02 -0.65742570216E+02  0.42061079407E+03  0.44724935337E+03  0.12500156847E+03 0.  0.
          2    1    1    2  501    0 -0.50412589597E+02  0.43243647590E+02 -0.35013640200E+03  0.35638033371E+03  0.00000000000E+00 0. -1.
          1    1    1    2  502    0 -0.58996322990E+01  0.22498922626E+02  0.14000290316E+04  0.14002222311E+04  0.00000000000E+00 0. -1.
         22    1    3    3    0    0  0.17686847945E+02 -0.91550441167E+02  0.35376614138E+03  0.36584804312E+03  0.00000000000E+00 0.  1.
         22    1    3    3    0    0  0.38625373951E+02  0.25807870951E+02  0.66844652695E+02  0.81401310246E+02  0.00000000000E+00 0.  1.
</event>
<event>
 7    1  0.5931885E-006  0.8415995E+02  0.7818608E-02  0.1344046E+00
          2   -1    0    0  502    0  0.00000000000E+00  0.00000000000E+00  0.11942645543E+04  0.11942645543E+04  0.00000000000E+00 0. -1.
          1   -1    0    0  501    0 -0.00000000000E+00 -0.00000000000E+00 -0.54026819927E+02  0.54026819927E+02  0.00000000000E+00 0. -1.
         25    2    1    2    0    0 -0.41166819374E+02 -0.11710139084E+03  0.27846441563E+03  0.32950607128E+03  0.12499750991E+03 0.  0.
          2    1    1    2  501    0 -0.21009133020E+02  0.63343378664E+02  0.15477938739E+02  0.68507911064E+02  0.00000000000E+00 0. -1.
          1    1    1    2  502    0  0.62175952394E+02  0.53758012174E+02  0.84629537996E+03  0.85027739184E+03  0.00000000000E+00 0. -1.
         22    1    3    3    0    0 -0.42773760913E+02 -0.10161924955E+03  0.95451073902E+02  0.14583200613E+03  0.00000000000E+00 0.  1.
         22    1    3    3    0    0  0.16069415392E+01 -0.15482141289E+02  0.18301334173E+03  0.18367406516E+03  0.00000000000E+00 0.  1.
</event>
<event>
 7    1  0.5931885E-006  0.5684416E+02  0.7818608E-02  0.1493201E+00
          2   -1    0    0  502    0  0.00000000000E+00  0.00000000000E+00  0.94468475774E+03  0.94468475774E+03  0.00000000000E+00 0. -1.
          1   -1    0    0  501    0 -0.00000000000E+00 -0.00000000000E+00 -0.82277094516E+03  0.82277094516E+03  0.00000000000E+00 0. -1.
         25    2    1    2    0    0 -0.52137123388E+02 -0.18527626018E+02  0.74915741529E+02  0.15586895655E+03  0.12498484199E+03 0.  0.
          2    1    1    2  501    0  0.35210735000E+02  0.44739824238E+02 -0.78096420482E+03  0.78303674048E+03  0.00000000000E+00 0. -1.
          1    1    1    2  502    0  0.16926388388E+02 -0.26212198221E+02  0.82796227587E+03  0.82855000586E+03  0.00000000000E+00 0. -1.
         22    1    3    3    0    0 -0.83278711794E+02 -0.37329080205E+02  0.77037217705E+02  0.11943005057E+03  0.00000000000E+00 0.  1.
         22    1    3    3    0    0  0.31141588406E+02  0.18801454188E+02 -0.21214761759E+01  0.36438905982E+02  0.00000000000E+00 0.  1.
</event>
<event>
 7    1  0.5931885E-006  0.5401796E+02  0.7818608E-02  0.1444347E+00
          2   -1    0    0  502    0  0.00000000000E+00  0.00000000000E+00  0.44841089112E+03  0.44841089112E+03  0.00000000000E+00 0. -1.
          1   -1    0    0  501    0 -0.00000000000E+00 -0.00000000000E+00 -0.13140844040E+04  0.13140844040E+04  0.00000000000E+00 0. -1.
         25    2    1    2    0    0 -0.70568865363E+02  0.37233193521E+02  0.10379684623E+03  0.18101024815E+03  0.12499859675E+03 0.  0.
          2    1    1    2  501    0  0.45587061033E+02  0.97764662128E+01 -0.12727323226E+04  0.12735860098E+04  0.00000000000E+00 0. -1.
          1    1    1    2  502    0  0.24981804330E+02 -0.47009659734E+02  0.30326196343E+03  0.30789903721E+03  0.00000000000E+00 0. -1.
         22    1    3    3    0    0 -0.42441955938E+02  0.83105952973E+02  0.76542561887E+02  0.12069251354E+03  0.00000000000E+00 0.  1.
         22    1    3    3    0    0 -0.28126909425E+02 -0.45872759452E+02  0.27254284341E+02  0.60317734610E+02  0.00000000000E+00 0.  1.
</event>
<event>
 7    1  0.5931885E-006  0.7692402E+02  0.7818608E-02  0.1369763E+00
          2   -1    0    0  502    0  0.00000000000E+00  0.00000000000E+00  0.53574598593E+03  0.53574598593E+03  0.00000000000E+00 0. -1.
          1   -1    0    0  501    0 -0.00000000000E+00 -0.00000000000E+00 -0.31945053765E+03  0.31945053765E+03  0.00000000000E+00 0. -1.
         25    2    1    2    0    0  0.10155397068E+03  0.84967458182E+02  0.47058136834E+02  0.18807452292E+03  0.12499952008E+03 0.  0.
          2    1    1    2  501    0 -0.60984324449E+02 -0.42456097918E+02 -0.24125792548E+03  0.25244206204E+03  0.00000000000E+00 0. -1.
          1    1    1    2  502    0 -0.40569646227E+02 -0.42511360264E+02  0.41049523693E+03  0.41467993862E+03  0.00000000000E+00 0. -1.
         22    1    3    3    0    0  0.32481733104E+02  0.10923798180E+02 -0.41312893171E+02  0.53676321542E+02  0.00000000000E+00 0. -1.
         22    1    3    3    0    0  0.69072237573E+02  0.74043660002E+02  0.88371030005E+02  0.13439820138E+03  0.00000000000E+00 0. -1.
</event>
<event>
 7    1  0.5931885E-006  0.7257874E+02  0.7818608E-02  0.1444905E+00
          2   -1    0    0  502    0  0.00000000000E+00  0.00000000000E+00  0.13154553881E+04  0.13154553881E+04  0.00000000000E+00 0. -1.
          1   -1    0    0  501    0 -0.00000000000E+00 -0.00000000000E+00 -0.12411843853E+03  0.12411843853E+03  0.00000000000E+00 0. -1.
         25    2    1    2    0    0 -0.25597551473E+02 -0.38165491409E+02  0.37031191134E+02  0.13823341714E+03  0.12500131648E+03 0.  0.
          2    1    1    2  501    0  0.53823874454E+02  0.58102161484E+02 -0.51866546378E+02  0.94673170769E+02  0.00000000000E+00 0. -1.
          1    1    1    2  502    0 -0.28226322981E+02 -0.19936670075E+02  0.12061723048E+04  0.12066672387E+04  0.00000000000E+00 0. -1.
         22    1    3    3    0    0 -0.38433909238E+01  0.84437281972E+01 -0.42509874719E+02  0.43510431488E+02  0.00000000000E+00 0. -1.
         22    1    3    3    0    0 -0.21754160549E+02 -0.46609219606E+02  0.79541065853E+02  0.94722985650E+02  0.00000000000E+00 0. -1.
</event>
<event>
 7    1  0.5931885E-006  0.7353381E+02  0.7818608E-02  0.1475718E+00
          2   -1    0    0  502    0  0.00000000000E+00  0.00000000000E+00  0.46874136466E+03  0.46874136466E+03  0.00000000000E+00 0. -1.
          1   -1    0    0  501    0 -0.00000000000E+00 -0.00000000000E+00 -0.91481864360E+03  0.91481864360E+03  0.00000000000E+00 0. -1.
         25    2    1    2    0    0  0.53588516579E+02 -0.58002613376E+02  0.32509216946E+01  0.14789176301E+03  0.12500149122E+03 0.  0.
          2    1    1    2  501    0 -0.28179556554E+02  0.67904324348E+02 -0.84041863347E+03  0.84362821441E+03  0.00000000000E+00 0. -1.
          1    1    1    2  502    0 -0.25408960025E+02 -0.99017109721E+01  0.39109043283E+03  0.39204003084E+03  0.00000000000E+00 0. -1.
         22    1    3    3    0    0  0.19014699148E+02 -0.89769062761E+02  0.26484117277E+02  0.95506292361E+02  0.00000000000E+00 0.  1.
         22    1    3    3    0    0  0.34573817431E+02  0.31766449385E+02 -0.23233195583E+02  0.52385470650E+02  0.00000000000E+00 0.  1.
</event>
<event>
 7    1  0.5931885E-006  0.4390401E+02  0.7818608E-02  0.1557240E+00
          2   -1    0    0  502    0  0.00000000000E+00  0.00000000000E+00  0.41806825860E+03  0.41806825860E+03  0.00000000000E+00 0. -1.
          1   -1    0    0  501    0 -0.00000000000E+00 -0.00000000000E+00 -0.51172901338E+03  0.51172901338E+03  0.00000000000E+00 0. -1.
         25    2    1    2    0    0  0.18687096084E+02 -0.11169845798E+02 -0.60961593999E+02  0.14076681796E+03  0.12500003232E+03 0.  0.
          2    1    1    2  501    0 -0.25401329264E+02  0.36703148585E+02 -0.40918887153E+03  0.41161618193E+03  0.00000000000E+00 0. -1.
          1    1    1    2  502    0  0.67142331796E+01 -0.25533302787E+02  0.37648971075E+03  0.37741427209E+03  0.00000000000E+00 0. -1.
         22    1    3    3    0    0  0.70082372186E+02 -0.10421127169E+02 -0.53596725201E+02  0.88841137627E+02  0.00000000000E+00 0. -1.
         22    1    3    3    0    0 -0.51395276101E+02 -0.74871862826E+00 -0.73648687983E+01  0.51925680328E+02  0.00000000000E+00 0. -1.
</event>
<event>
 7    1  0.5931885E-006  0.6925592E+02  0.7818608E-02  0.1398731E+00
          2   -1    0    0  502    0  0.00000000000E+00  0.00000000000E+00  0.39128833763E+03  0.39128833763E+03  0.00000000000E+00 0. -1.
          1   -1    0    0  501    0 -0.00000000000E+00 -0.00000000000E+00 -0.48689444065E+03  0.48689444065E+03  0.00000000000E+00 0. -1.
         25    2    1    2    0    0  0.43848810317E+02  0.55069551160E+01  0.92258235575E+02  0.16151980078E+03  0.12499607711E+03 0.  0.
          2    1    1    2  501    0 -0.40764313735E+02 -0.57026285921E+02 -0.44698712359E+03  0.45245023507E+03  0.00000000000E+00 0. -1.
          1    1    1    2  502    0 -0.30844965822E+01  0.51519330805E+02  0.25912278499E+03  0.26421274244E+03  0.00000000000E+00 0. -1.
         22    1    3    3    0    0 -0.12274145859E+02  0.30197854290E+02 -0.16600947608E+02  0.36580821776E+02  0.00000000000E+00 0. -1.
         22    1    3    3    0    0  0.56122956177E+02 -0.24690899174E+02  0.10885918318E+03  0.12493897901E+03  0.00000000000E+00 0. -1.
</event>
<event>
 7    1  0.5931885E-006  0.1816950E+03  0.7818608E-02  0.1284356E+00
          2   -1    0    0  502    0  0.00000000000E+00  0.00000000000E+00  0.32677032859E+04  0.32677032859E+04  0.00000000000E+00 0. -1.
          1   -1    0    0  501    0 -0.00000000000E+00 -0.00000000000E+00 -0.76120795444E+03  0.76120795444E+03  0.00000000000E+00 0. -1.
         25    2    1    2    0    0 -0.11260748717E+03  0.68587441788E+02  0.18636105882E+03  0.26026435859E+03  0.12498963466E+03 0.  0.
          2    1    1    2  501    0  0.15283295845E+03 -0.10303464862E+03 -0.71229413181E+03  0.73575606163E+03  0.00000000000E+00 0. -1.
          1    1    1    2  502    0 -0.40225471283E+02  0.34447206829E+02  0.30324284045E+04  0.30328908201E+04  0.00000000000E+00 0. -1.
         22    1    3    3    0    0  0.27471525204E+02  0.14137176266E+02  0.39334060314E+02  0.50017124574E+02  0.00000000000E+00 0.  1.
         22    1    3    3    0    0 -0.14007901238E+03  0.54450265522E+02  0.14702699851E+03  0.21024723402E+03  0.00000000000E+00 0.  1.
</event>
<event>
 7    1  0.5931885E-006  0.6045149E+02  0.7818608E-02  0.1511469E+00
          2   -1    0    0  502    0  0.00000000000E+00  0.00000000000E+00  0.11010239104E+04  0.11010239104E+04  0.00000000000E+00 0. -1.
          1   -1    0    0  501    0 -0.00000000000E+00 -0.00000000000E+00 -0.11246976013E+04  0.11246976013E+04  0.00000000000E+00 0. -1.
         25    2    1    2    0    0  0.33254318991E+02  0.28470449558E+02 -0.42690806429E+03  0.44698088763E+03  0.12500000929E+03 0.  0.
          2    1    1    2  501    0 -0.32211039196E+02 -0.54338864316E+02 -0.68614853463E+03  0.68905012503E+03  0.00000000000E+00 0. -1.
          1    1    1    2  502    0 -0.10432797956E+01  0.25868414758E+02  0.10893829081E+04  0.10896904990E+04  0.00000000000E+00 0. -1.
         22    1    3    3    0    0  0.33520597722E+02 -0.10107050907E+02 -0.39600912007E+03  0.39755377766E+03  0.00000000000E+00 0. -1.
         22    1    3    3    0    0 -0.26627873063E+00  0.38577500465E+02 -0.30898944218E+02  0.49427109973E+02  0.00000000000E+00 0. -1.
</event>
<event>
 7    1  0.5931885E-006  0.4497987E+02  0.7818608E-02  0.1481063E+00
          2   -1    0    0  502    0  0.00000000000E+00  0.00000000000E+00  0.27252392678E+04  0.27252392678E+04  0.00000000000E+00 0. -1.
          1   -1    0    0  501    0 -0.00000000000E+00 -0.00000000000E+00 -0.93802161298E+02  0.93802161298E+02  0.00000000000E+00 0. -1.
         25    2    1    2    0    0 -0.49272411525E+01  0.13841598167E+02  0.12674716383E+04  0.12737052346E+04  0.12499921227E+03 0.  0.
          2    1    1    2  501    0 -0.42754253427E+02 -0.13973631534E+02 -0.84691391585E+02  0.95894840179E+02  0.00000000000E+00 0. -1.
          1    1    1    2  502    0  0.47681494580E+02  0.13203336723E+00  0.14486568598E+04  0.14494413543E+04  0.00000000000E+00 0. -1.
         22    1    3    3    0    0 -0.62531249006E+02  0.64232714922E+01  0.83305634782E+03  0.83542461908E+03  0.00000000000E+00 0. -1.
         22    1    3    3    0    0  0.57604007853E+02  0.74183266750E+01  0.43441529050E+03  0.43828061548E+03  0.00000000000E+00 0. -1.
</event>
<event>
 7    1  0.5931885E-006  0.5184711E+02  0.7818608E-02  0.1525643E+00
          2   -1    0    0  502    0  0.00000000000E+00  0.00000000000E+00  0.91408462722E+03  0.91408462722E+03  0.00000000000E+00 0. -1.
          1   -1    0    0  501    0 -0.00000000000E+00 -0.00000000000E+00 -0.66573491177E+03  0.66573491177E+03  0.00000000000E+00 0. -1.
         25    2    1    2    0    0 -0.43533868428E+02 -0.66095138990E+02  0.56767129455E+03  0.58663432453E+03  0.12500146785E+03 0.  0.
          2    1    1    2  501    0  0.30101214676E+02  0.42154899996E+02 -0.65466954223E+03  0.65671556114E+03  0.00000000000E+00 0. -1.
          1    1    1    2  502    0  0.13432653752E+02  0.23940238994E+02  0.33534796313E+03  0.33646965332E+03  0.00000000000E+00 0. -1.
         22    1    3    3    0    0 -0.77140747042E+02 -0.21990900541E+02  0.44278064907E+03  0.44998777511E+03  0.00000000000E+00 0. -1.
         22    1    3    3    0    0  0.33606878614E+02 -0.44104238449E+02  0.12489064548E+03  0.13664654942E+03  0.00000000000E+00 0. -1.
</event>
<event>
 7    1  0.5931885E-006  0.7694654E+02  0.7818608E-02  0.1396103E+00
          2   -1    0    0  502    0  0.00000000000E+00  0.00000000000E+00  0.48196960596E+03  0.48196960596E+03  0.00000000000E+00 0. -1.
          1   -1    0    0  501    0 -0.00000000000E+00 -0.00000000000E+00 -0.42339540163E+03  0.42339540163E+03  0.00000000000E+00 0. -1.
         25    2    1    2    0    0  0.32916591897E+02 -0.23597099784E+02  0.14036806500E+03  0.19227346305E+03  0.12500226310E+03 0.  0.
          2    1    1    2  501    0  0.21190734879E+02 -0.42436620668E+02 -0.39020783961E+03  0.39308023623E+03  0.00000000000E+00 0. -1.
          1    1    1    2  502    0 -0.54107326776E+02  0.66033720452E+02  0.30841397894E+03  0.32001130832E+03  0.00000000000E+00 0. -1.
         22    1    3    3    0    0  0.31360321273E+02  0.51863042080E+01  0.15618975717E+03  0.15939136660E+03  0.00000000000E+00 0.  1.
         22    1    3    3    0    0  0.15562706239E+01 -0.28783403992E+02 -0.15821692172E+02  0.32882096448E+02  0.00000000000E+00 0.  1.
</event>
<event>
 7    1  0.5931885E-006  0.8960783E+02  0.7818608E-02  0.1371489E+00
          2   -1    0    0  502    0  0.00000000000E+00  0.00000000000E+00  0.20967467089E+03  0.20967467089E+03  0.00000000000E+00 0. -1.
          1   -1    0    0  501    0 -0.00000000000E+00 -0.00000000000E+00 -0.79156017380E+03  0.79156017380E+03  0.00000000000E+00 0. -1.
         25    2    1    2    0    0  0.11060942898E+03 -0.37772853576E+02 -0.14215830894E+03  0.22248304624E+03  0.12501394650E+03 0.  0.
          2    1    1    2  501    0 -0.44893758953E+02 -0.21392939687E+02 -0.59660233072E+03  0.59867140276E+03  0.00000000000E+00 0. -1.
          1    1    1    2  502    0 -0.65715670027E+02  0.59165793263E+02  0.15687513675E+03  0.18008039569E+03  0.00000000000E+00 0. -1.
         22    1    3    3    0    0  0.92445958280E+02 -0.80696087708E+02 -0.87846526179E+02  0.15091429997E+03  0.00000000000E+00 0. -1.
         22    1    3    3    0    0  0.18163470699E+02  0.42923234133E+02 -0.54311782764E+02  0.71568746274E+02  0.00000000000E+00 0. -1.
</event>
<event>
 7    1  0.5931885E-006  0.7745205E+02  0.7818608E-02  0.1416976E+00
          2   -1    0    0  502    0  0.00000000000E+00  0.00000000000E+00  0.10185387609E+03  0.10185387609E+03  0.00000000000E+00 0. -1.
          1   -1    0    0  501    0 -0.00000000000E+00 -0.00000000000E+00 -0.97302882400E+03  0.97302882400E+03  0.00000000000E+00 0. -1.
         25    2    1    2    0    0  0.47088800668E+02 -0.32052271451E+02 -0.41852948396E+03  0.44049630506E+03  0.12500145030E+03 0.  0.
          2    1    1    2  501    0 -0.45015140429E+02  0.72006462615E+02 -0.53559890147E+03  0.54228910812E+03  0.00000000000E+00 0. -1.
          1    1    1    2  502    0 -0.20736602393E+01 -0.39954191164E+02  0.82953437526E+02  0.92097286907E+02  0.00000000000E+00 0. -1.
         22    1    3    3    0    0 -0.40407188156E+02 -0.13395364890E+02 -0.83466180248E+02  0.93695143419E+02  0.00000000000E+00 0.  1.
         22    1    3    3    0    0  0.87495988825E+02 -0.18656906561E+02 -0.33506330371E+03  0.34680116164E+03  0.00000000000E+00 0.  1.
</event>
<event>
 7    1  0.5931885E-006  0.1328736E+03  0.7818608E-02  0.1381324E+00
          2   -1    0    0  502    0  0.00000000000E+00  0.00000000000E+00  0.17503398918E+04  0.17503398918E+04  0.00000000000E+00 0. -1.
          1   -1    0    0  501    0 -0.00000000000E+00 -0.00000000000E+00 -0.17197955603E+03  0.17197955603E+03  0.00000000000E+00 0. -1.
         25    2    1    2    0    0 -0.74657756027E+02 -0.11173707051E+03  0.52264299676E+02  0.19082123679E+03  0.12498893522E+03 0.  0.
          2    1    1    2  501    0  0.28159731828E+02 -0.12816623866E+02 -0.97590626116E+02  0.10237756907E+03  0.00000000000E+00 0. -1.
          1    1    1    2  502    0  0.46498024199E+02  0.12455369438E+03  0.16236866622E+04  0.16291206420E+04  0.00000000000E+00 0. -1.
         22    1    3    3    0    0 -0.39459728280E+02 -0.97292187580E+02 -0.22098800180E+02  0.10729024601E+03  0.00000000000E+00 0. -1.
         22    1    3    3    0    0 -0.35198027747E+02 -0.14444882932E+02  0.74363099857E+02  0.83530990779E+02  0.00000000000E+00 0. -1.
</event>
<event>
 7    1  0.5931885E-006  0.1650395E+03  0.7818608E-02  0.1238064E+00
          2   -1    0    0  502    0  0.00000000000E+00  0.00000000000E+00  0.39838539862E+03  0.39838539862E+03  0.00000000000E+00 0. -1.
          1   -1    0    0  501    0 -0.00000000000E+00 -0.00000000000E+00 -0.75779882581E+03  0.75779882581E+03  0.00000000000E+00 0. -1.
         25    2    1    2    0    0  0.30760148200E+02 -0.24037906291E+03 -0.66044974145E+00  0.27268119365E+03  0.12500526618E+03 0.  0.
          2    1    1    2  501    0  0.11843059134E+02  0.15903770635E+03 -0.60238696768E+03  0.62313987909E+03  0.00000000000E+00 0. -1.
          1    1    1    2  502    0 -0.42603207334E+02  0.81341356561E+02  0.24363399023E+03  0.26036315169E+03  0.00000000000E+00 0. -1.
         22    1    3    3    0    0 -0.20397131651E+01  0.14621965421E+02 -0.48665431022E+01  0.15544952375E+02  0.00000000000E+00 0.  1.
         22    1    3    3    0    0  0.32799861365E+02 -0.25500102833E+03  0.42060933608E+01  0.25713624127E+03  0.00000000000E+00 0.  1.
</event>
<event>
 7    1  0.5931885E-006  0.6275431E+02  0.7818608E-02  0.1395702E+00
          2   -1    0    0  502    0  0.00000000000E+00  0.00000000000E+00  0.53216803965E+03  0.53216803965E+03  0.00000000000E+00 0. -1.
          1   -1    0    0  501    0 -0.00000000000E+00 -0.00000000000E+00 -0.14075412407E+03  0.14075412407E+03  0.00000000000E+00 0. -1.
         25    2    1    2    0    0  0.97640610159E+02  0.32826023276E+02  0.28700101334E+03  0.32955396364E+03  0.12499998695E+03 0.  0.
          2    1    1    2  501    0 -0.60775579078E+02  0.12398989360E+02 -0.10720390540E+03  0.12385508986E+03  0.00000000000E+00 0. -1.
          1    1    1    2  502    0 -0.36865031081E+02 -0.45225012636E+02  0.21161680764E+03  0.21951311023E+03  0.00000000000E+00 0. -1.
         22    1    3    3    0    0  0.77445047865E+02  0.39268940573E+01  0.55440289593E+02  0.95324611963E+02  0.00000000000E+00 0.  1.
         22    1    3    3    0    0  0.20195562294E+02  0.28899129219E+02  0.23156072375E+03  0.23422935168E+03  0.00000000000E+00 0.  1.
</event>
<event>
 7    1  0.5931885E-006  0.7629764E+02  0.7818608E-02  0.1399953E+00
          2   -1    0    0  502    0  0.00000000000E+00  0.00000000000E+00  0.34776366060E+03  0.34776366060E+03  0.00000000000E+00 0. -1.
          1   -1    0    0  501    0 -0.00000000000E+00 -0.00000000000E+00 -0.53502956815E+03  0.53502956815E+03  0.00000000000E+00 0. -1.
         25    2    1    2    0    0  0.72767521706E+02 -0.59740712561E+02 -0.96501705428E+02  0.18385221580E+03  0.12499997260E+03 0.  0.
          2    1    1    2  501    0  0.21269549214E+01  0.46347776746E+02 -0.38869233533E+03  0.39145162140E+03  0.00000000000E+00 0. -1.
          1    1    1    2  502    0 -0.74894476627E+02  0.13392935816E+02  0.29792813321E+03  0.30748939155E+03  0.00000000000E+00 0. -1.
         22    1    3    3    0    0 -0.27816500765E+02 -0.23721568297E+02  0.44940264174E+01  0.36832957941E+02  0.00000000000E+00 0.  1.
         22    1    3    3    0    0  0.10058402247E+03 -0.36019144264E+02 -0.10099573185E+03  0.14701925786E+03  0.00000000000E+00 0.  1.
</event>
<event>
 7    1  0.5931885E-006  0.4689205E+02  0.7818608E-02  0.1463860E+00
          2   -1    0    0  502    0  0.00000000000E+00  0.00000000000E+00  0.16610811928E+03  0.16610811928E+03  0.00000000000E+00 0. -1.
          1   -1    0    0  501    0 -0.00000000000E+00 -0.00000000000E+00 -0.12887449213E+03  0.12887449213E+03  0.00000000000E+00 0. -1.
         25    2    1    2    0    0  0.65851013859E+01  0.13694274923E+02  0.39858118540E+02  0.13207752843E+03  0.12499962870E+03 0.  0.
          2    1    1    2  501    0 -0.30440053057E+02  0.35668853155E+02 -0.64814898220E+02  0.79998968411E+02  0.00000000000E+00 0. -1.
          1    1    1    2  502    0  0.23854951671E+02 -0.49363128078E+02  0.62190406831E+02  0.82906114579E+02  0.00000000000E+00 0. -1.
         22    1    3    3    0    0  0.40651920328E+02 -0.45389642284E+01  0.71341211255E+02  0.82235936463E+02  0.00000000000E+00 0. -1.
         22    1    3    3    0    0 -0.34066818943E+02  0.18233239151E+02 -0.31483092714E+02  0.49841591966E+02  0.00000000000E+00 0. -1.
</event>
<event>
 7    1  0.5931885E-006  0.1593309E+03  0.7818608E-02  0.1255714E+00
          2   -1    0    0  502    0  0.00000000000E+00  0.00000000000E+00  0.38866980928E+04  0.38866980928E+04  0.00000000000E+00 0. -1.
          1   -1    0    0  501    0 -0.00000000000E+00 -0.00000000000E+00 -0.69989300468E+03  0.69989300468E+03  0.00000000000E+00 0. -1.
         25    2    1    2    0    0  0.68550691826E+02  0.21761330002E+03  0.11749166115E+04  0.12033740378E+04  0.12500114093E+03 0.  0.
          2    1    1    2  501    0 -0.32906440932E+02 -0.72552535009E+02 -0.68127352757E+03  0.68591568254E+03  0.00000000000E+00 0. -1.
          1    1    1    2  502    0 -0.35644250893E+02 -0.14506076501E+03  0.26931620042E+04  0.26973013772E+04  0.00000000000E+00 0. -1.
         22    1    3    3    0    0 -0.20597608871E+02  0.14106925993E+03  0.62845138980E+03  0.64441907710E+03  0.00000000000E+00 0.  1.
         22    1    3    3    0    0  0.89148300697E+02  0.76544040086E+02  0.54646522165E+03  0.55895496068E+03  0.00000000000E+00 0.  1.
</event>
<event>
 7    1  0.5931885E-006  0.8191465E+02  0.7818608E-02  0.1341368E+00
          2   -1    0    0  502    0  0.00000000000E+00  0.00000000000E+00  0.15721633677E+04  0.15721633677E+04  0.00000000000E+00 0. -1.
          1   -1    0    0  501    0 -0.00000000000E+00 -0.00000000000E+00 -0.47650786619E+03  0.47650786619E+03  0.00000000000E+00 0. -1.
         25    2    1    2    0    0  0.70535844997E+02 -0.91643823543E+02  0.27617298459E+02  0.17251495339E+03  0.12499919257E+03 0.  0.
          2    1    1    2  501    0 -0.78422195885E+02  0.21920107821E+02 -0.39910956122E+03  0.40733152811E+03  0.00000000000E+00 0. -1.
          1    1    1    2  502    0  0.78863508878E+01  0.69723715723E+02  0.14671477642E+04  0.14688247524E+04  0.00000000000E+00 0. -1.
         22    1    3    3    0    0 -0.32232332571E+02 -0.21023630162E+02 -0.14165602528E+02  0.41007079671E+02  0.00000000000E+00 0.  1.
         22    1    3    3    0    0  0.10276817757E+03 -0.70620193381E+02  0.41782900987E+02  0.13150787371E+03  0.00000000000E+00 0.  1.
</event>
<event>
 7    1  0.5931885E-006  0.8998972E+02  0.7818608E-02  0.1364434E+00
          2   -1    0    0  502    0  0.00000000000E+00  0.00000000000E+00  0.33486969195E+03  0.33486969195E+03  0.00000000000E+00 0. -1.
          1   -1    0    0  501    0 -0.00000000000E+00 -0.00000000000E+00 -0.48262502446E+03  0.48262502446E+03  0.00000000000E+00 0. -1.
         25    2    1    2    0    0  0.21761576131E+02 -0.37937232886E+02 -0.19380895075E+03  0.23473585786E+03  0.12500485486E+03 0.  0.
          2    1    1    2  501    0  0.47982964684E+02 -0.21320810947E+02 -0.25900199214E+03  0.26427064501E+03  0.00000000000E+00 0. -1.
          1    1    1    2  502    0 -0.69744540815E+02  0.59258043833E+02  0.30505561039E+03  0.31848821354E+03  0.00000000000E+00 0. -1.
         22    1    3    3    0    0 -0.40974196791E+02 -0.37028384374E+01 -0.13816387236E+03  0.14415911848E+03  0.00000000000E+00 0.  1.
         22    1    3    3    0    0  0.62735772922E+02 -0.34234394449E+02 -0.55645078396E+02  0.90576739382E+02  0.00000000000E+00 0.  1.
</event>
<event>
 7    1  0.9826509E-006  0.6538015E+02  0.7818608E-02  0.1427467E+00
          2   -1    0    0  502    0  0.00000000000E+00  0.00000000000E+00  0.17375234867E+04  0.17375234867E+04  0.00000000000E+00 0. -1.
          1   -1    0    0  501    0 -0.00000000000E+00 -0.00000000000E+00 -0.10434045280E+04  0.10434045280E+04  0.00000000000E+00 0. -1.
         25    2    1    2    0    0  0.20751935099E+02  0.24614574860E+02 -0.68095572451E+02  0.14593799236E+03  0.12499748206E+03 0.  0.
          2    1    1    2  501    0 -0.15730184224E+02  0.40805473168E+02 -0.93524298729E+03  0.93626490408E+03  0.00000000000E+00 0. -1.
          1    1    1    2  502    0 -0.50217508740E+01 -0.65420048028E+02  0.16974575184E+04  0.16987251183E+04  0.00000000000E+00 0. -1.
         22    1    3    3    0    0  0.41672712697E+02  0.83668759156E+01 -0.97499803472E+02  0.10636179424E+03  0.00000000000E+00 0.  1.
         22    1    3    3    0    0 -0.20920777598E+02  0.16247698944E+02  0.29404231021E+02  0.39576198127E+02  0.00000000000E+00 0.  1.
</event>
<event>
 7    1  0.5931885E-006  0.1597744E+03  0.7818608E-02  0.1347332E+00
          2   -1    0    0  502    0  0.00000000000E+00  0.00000000000E+00  0.63604256525E+03  0.63604256525E+03  0.00000000000E+00 0. -1.
          1   -1    0    0  501    0 -0.00000000000E+00 -0.00000000000E+00 -0.61194573808E+03  0.61194573808E+03  0.00000000000E+00 0. -1.
         25    2    1    2    0    0  0.15027641120E+03  0.18661523641E+02  0.15908714413E+03  0.25271360617E+03  0.12499678033E+03 0.  0.
          2    1    1    2  501    0 -0.15978824350E+03  0.14162722964E+02 -0.55303762421E+03  0.57583285706E+03  0.00000000000E+00 0. -1.
          1    1    1    2  502    0  0.95118323076E+01 -0.32824246606E+02  0.41804730725E+03  0.41944184009E+03  0.00000000000E+00 0. -1.
         22    1    3    3    0    0  0.75130170970E+02  0.49771892632E+02  0.14417826245E+03  0.17002692507E+03  0.00000000000E+00 0.  1.
         22    1    3    3    0    0  0.75146240227E+02 -0.31110368991E+02  0.14908881679E+02  0.82686681104E+02  0.00000000000E+00 0.  1.
</event>
<event>
 7    1  0.5931885E-006  0.1924686E+03  0.7818608E-02  0.1242946E+00
          2   -1    0    0  502    0  0.00000000000E+00  0.00000000000E+00  0.22507402130E+03  0.22507402130E+03  0.00000000000E+00 0. -1.
          1   -1    0    0  501    0 -0.00000000000E+00 -0.00000000000E+00 -0.11169098885E+04  0.11169098885E+04  0.00000000000E+00 0. -1.
         25    2    1    2    0    0  0.41256334990E+02 -0.11892231657E+03 -0.46514547224E+03  0.49782559226E+03  0.12500162965E+03 0.  0.
          2    1    1    2  501    0  0.42179497412E+02 -0.61932365943E+02 -0.58497169428E+03  0.58975131289E+03  0.00000000000E+00 0. -1.
          1    1    1    2  502    0 -0.83435832402E+02  0.18085468251E+03  0.15828129929E+03  0.25440700466E+03  0.00000000000E+00 0. -1.
         22    1    3    3    0    0  0.63531047211E+02 -0.73572675963E+02 -0.15059250625E+03  0.17924071956E+03  0.00000000000E+00 0. -1.
         22    1    3    3    0    0 -0.22274712221E+02 -0.45349640603E+02 -0.31455296599E+03  0.31858487271E+03  0.00000000000E+00 0. -1.
</event>
<event>
 7    1  0.5931885E-006  0.1121409E+03  0.7818608E-02  0.1334511E+00
          2   -1    0    0  502    0  0.00000000000E+00  0.00000000000E+00  0.28070652390E+03  0.28070652390E+03  0.00000000000E+00 0. -1.
          1   -1    0    0  501    0 -0.00000000000E+00 -0.00000000000E+00 -0.10837345111E+04  0.10837345111E+04  0.00000000000E+00 0. -1.
         25    2    1    2    0    0 -0.65945900589E+02  0.53005314068E+02 -0.30303361691E+03  0.33854494983E+03  0.12499953982E+03 0.  0.
          2    1    1    2  501    0  0.11656624614E+03 -0.33075944683E+02 -0.75524974407E+03  0.76490776162E+03  0.00000000000E+00 0. -1.
          1    1    1    2  502    0 -0.50620345554E+02 -0.19929369385E+02  0.25525537382E+03  0.26098832352E+03  0.00000000000E+00 0. -1.
         22    1    3    3    0    0 -0.35706403983E+02 -0.52846253961E+01 -0.89083906694E+01  0.37178407380E+02  0.00000000000E+00 0.  1.
         22    1    3    3    0    0 -0.30239496606E+02  0.58289939464E+02 -0.29412522624E+03  0.30136654245E+03  0.00000000000E+00 0.  1.
</event>
<event>
 7    1  0.5931885E-006  0.9161542E+02  0.7818608E-02  0.1316980E+00
          2   -1    0    0  502    0  0.00000000000E+00  0.00000000000E+00  0.13284096146E+04  0.13284096146E+04  0.00000000000E+00 0. -1.
          1   -1    0    0  501    0 -0.00000000000E+00 -0.00000000000E+00 -0.30274192509E+03  0.30274192509E+03  0.00000000000E+00 0. -1.
         25    2    1    2    0    0  0.31848342299E+02 -0.16056959271E+03  0.57826127275E+03  0.61384714140E+03  0.12500120974E+03 0.  0.
          2    1    1    2  501    0  0.24157247033E+01  0.90750633476E+02 -0.27557942921E+03  0.29014743667E+03  0.00000000000E+00 0. -1.
          1    1    1    2  502    0 -0.34264067003E+02  0.69818959233E+02  0.72298584592E+03  0.72715696157E+03  0.00000000000E+00 0. -1.
         22    1    3    3    0    0  0.53035383200E+02 -0.12044827810E+03  0.25057091470E+03  0.28303060411E+03  0.00000000000E+00 0.  1.
         22    1    3    3    0    0 -0.21187040900E+02 -0.40121314605E+02  0.32769035805E+03  0.33081653730E+03  0.00000000000E+00 0.  1.
</event>
<event>
 7    1  0.5931885E-006  0.6376445E+02  0.7818608E-02  0.1530688E+00
          2   -1    0    0  502    0  0.00000000000E+00  0.00000000000E+00  0.61092946691E+01  0.61092946691E+01  0.00000000000E+00 0. -1.
          1   -1    0    0  501    0 -0.00000000000E+00 -0.00000000000E+00 -0.23149314675E+04  0.23149314675E+04  0.00000000000E+00 0. -1.
         25    2    1    2    0    0  0.76858019991E+02  0.11718468526E+02 -0.15001044309E+04  0.15073098716E+04  0.12500107106E+03 0.  0.
          2    1    1    2  501    0 -0.56341583258E+02 -0.18436352752E+02 -0.71951525804E+03  0.72195323924E+03  0.00000000000E+00 0. -1.
          1    1    1    2  502    0 -0.20516436733E+02  0.67178842259E+01 -0.89202483948E+02  0.91777651349E+02  0.00000000000E+00 0. -1.
         22    1    3    3    0    0  0.39649656406E+02 -0.53245707359E+02 -0.92042949856E+03  0.92282049307E+03  0.00000000000E+00 0.  1.
         22    1    3    3    0    0  0.37208363585E+02  0.64964175885E+02 -0.57967493231E+03  0.58448937854E+03  0.00000000000E+00 0.  1.
</event>
<event>
 7    1  0.5931885E-006  0.5072993E+02  0.7818608E-02  0.1486094E+00
          2   -1    0    0  502    0  0.00000000000E+00  0.00000000000E+00  0.18556161647E+04  0.18556161647E+04  0.00000000000E+00 0. -1.
          1   -1    0    0  501    0 -0.00000000000E+00 -0.00000000000E+00 -0.36414745731E+02  0.36414745731E+02  0.00000000000E+00 0. -1.
         25    2    1    2    0    0  0.48736203394E+02  0.36987257051E+01  0.17515319858E+03  0.22066461271E+03  0.12500132094E+03 0.  0.
          2    1    1    2  501    0 -0.14251468619E+02  0.33861535917E+02  0.12184581130E+02  0.38706226757E+02  0.00000000000E+00 0. -1.
          1    1    1    2  502    0 -0.34484734775E+02 -0.37560261622E+02  0.16318636393E+04  0.16326600710E+04  0.00000000000E+00 0. -1.
         22    1    3    3    0    0  0.33740177789E+02 -0.58924809164E+02  0.10843163318E+03  0.12793729639E+03  0.00000000000E+00 0.  1.
         22    1    3    3    0    0  0.14996025605E+02  0.62623534869E+02  0.66721565397E+02  0.92727316324E+02  0.00000000000E+00 0.  1.
</event>
<event>
 7    1  0.5931885E-006  0.5333604E+02  0.7818608E-02  0.1437811E+00
          2   -1    0    0  502    0  0.00000000000E+00  0.00000000000E+00  0.47711920898E+03  0.47711920898E+03  0.00000000000E+00 0. -1.
          1   -1    0    0  501    0 -0.00000000000E+00 -0.00000000000E+00 -0.59450178166E+03  0.59450178166E+03  0.00000000000E+00 0. -1.
         25    2    1    2    0    0 -0.71821050364E+02  0.23568944567E+02 -0.17696802107E+03  0.22947038593E+03  0.12500087644E+03 0.  0.
          2    1    1    2  501    0  0.48888514223E+02  0.20388354774E+02 -0.38811514294E+03  0.39171307868E+03  0.00000000000E+00 0. -1.
          1    1    1    2  502    0  0.22932536141E+02 -0.43957299341E+02  0.44770059133E+03  0.45043752603E+03  0.00000000000E+00 0. -1.
         22    1    3    3    0    0 -0.94278874090E+02  0.53040270872E+02 -0.14211595118E+03  0.17860212769E+03  0.00000000000E+00 0. -1.
         22    1    3    3    0    0  0.22457823727E+02 -0.29471326305E+02 -0.34852069891E+02  0.50868258241E+02  0.00000000000E+00 0. -1.
</event>
<event>
 7    1  0.5931885E-006  0.3281662E+02  0.7818608E-02  0.1637349E+00
          2   -1    0    0  502    0  0.00000000000E+00  0.00000000000E+00  0.59637008208E+02  0.59637008208E+02  0.00000000000E+00 0. -1.
          1   -1    0    0  501    0 -0.00000000000E+00 -0.00000000000E+00 -0.37569481276E+03  0.37569481276E+03  0.00000000000E+00 0. -1.
         25    2    1    2    0    0  0.45144069329E+02 -0.73282492256E+01 -0.30306703253E+03  0.33100627513E+03  0.12499535086E+03 0.  0.
          2    1    1    2  501    0 -0.13884180899E+02  0.16767535789E+02 -0.50261589313E+02  0.54773607658E+02  0.00000000000E+00 0. -1.
          1    1    1    2  502    0 -0.31259888430E+02 -0.94392865636E+01  0.37270817293E+02  0.49551938178E+02  0.00000000000E+00 0. -1.
         22    1    3    3    0    0  0.61512935715E+02 -0.15716758281E+02 -0.60357221021E+02  0.87600524430E+02  0.00000000000E+00 0.  1.
         22    1    3    3    0    0 -0.16368866385E+02  0.83885090553E+01 -0.24270981151E+03  0.24340575070E+03  0.00000000000E+00 0.  1.
</event>
<event>
 7    1  0.5931885E-006  0.7051577E+02  0.7818608E-02  0.1391176E+00
          2   -1    0    0  502    0  0.00000000000E+00  0.00000000000E+00  0.22357401230E+02  0.22357401230E+02  0.00000000000E+00 0. -1.
          1   -1    0    0  501    0 -0.00000000000E+00 -0.00000000000E+00 -0.19199370937E+04  0.19199370937E+04  0.00000000000E+00 0. -1.
         25    2    1    2    0    0 -0.24986306983E+02  0.23454556213E+02 -0.36759358735E+03  0.38977528227E+03  0.12500117385E+03 0.  0.
          2    1    1    2  501    0 -0.45201243811E+02  0.29247182301E+02 -0.13613036943E+04  0.13623679012E+04  0.00000000000E+00 0. -1.
          1    1    1    2  502    0  0.70187550794E+02 -0.52701738514E+02 -0.16868241081E+03  0.19015131145E+03  0.00000000000E+00 0. -1.
         22    1    3    3    0    0 -0.66762517045E+02  0.18874436518E+02 -0.11977124917E+03  0.13841470357E+03  0.00000000000E+00 0. -1.
         22    1    3    3    0    0  0.41776210062E+02  0.45801196950E+01 -0.24782233818E+03  0.25136057870E+03  0.00000000000E+00 0. -1.
</event>
<event>
 7    1  0.5931885E-006  0.5544040E+02  0.7818608E-02  0.1458342E+00
          2   -1    0    0  502    0  0.00000000000E+00  0.00000000000E+00  0.85981826158E+02  0.85981826158E+02  0.00000000000E+00 0. -1.
          1   -1    0    0  501    0 -0.00000000000E+00 -0.00000000000E+00 -0.46556298764E+03  0.46556298764E+03  0.00000000000E+00 0. -1.
         25    2    1    2    0    0 -0.43804219766E+02 -0.62089723734E+02 -0.13040361758E+03  0.19596978491E+03  0.12500043863E+03 0.  0.
          2    1    1    2  501    0  0.50185086059E+02  0.21604441191E+02 -0.29154923429E+03  0.29662476423E+03  0.00000000000E+00 0. -1.
          1    1    1    2  502    0 -0.63808662922E+01  0.40485282543E+02  0.42371690384E+02  0.58950264658E+02  0.00000000000E+00 0. -1.
         22    1    3    3    0    0 -0.87799158180E+02 -0.47350329105E+02 -0.92842603274E+02  0.13627360282E+03  0.00000000000E+00 0.  1.
         22    1    3    3    0    0  0.43994938413E+02 -0.14739394629E+02 -0.37561014305E+02  0.59696182086E+02  0.00000000000E+00 0.  1.
</event>
<event>
 7    1  0.5931885E-006  0.2374164E+03  0.7818608E-02  0.1163487E+00
          2   -1    0    0  502    0  0.00000000000E+00  0.00000000000E+00  0.18268956454E+04  0.18268956454E+04  0.00000000000E+00 0. -1.
          1   -1    0    0  501    0 -0.00000000000E+00 -0.00000000000E+00 -0.33512671379E+03  0.33512671379E+03  0.00000000000E+00 0. -1.
         25    2    1    2    0    0 -0.68040195762E+02  0.19663682486E+03  0.66007377080E+02  0.25155037747E+03  0.12500043780E+03 0.  0.
          2    1    1    2  501    0 -0.63276069800E+02 -0.25432253742E+03 -0.16732858133E+03  0.31093836717E+03  0.00000000000E+00 0. -1.
          1    1    1    2  502    0  0.13131626556E+03  0.57685712568E+02  0.15930901358E+04  0.15995336145E+04  0.00000000000E+00 0. -1.
         22    1    3    3    0    0  0.21815793460E+02  0.45535592902E+01 -0.12345341279E+02  0.25476875747E+02  0.00000000000E+00 0.  1.
         22    1    3    3    0    0 -0.89855989223E+02  0.19208326557E+03  0.78352718359E+02  0.22607350173E+03  0.00000000000E+00 0.  1.
</event>
<event>
 7    1  0.5931885E-006  0.6058366E+02  0.7818608E-02  0.1419496E+00
          2   -1    0    0  502    0  0.00000000000E+00  0.00000000000E+00  0.12983746745E+04  0.12983746745E+04  0.00000000000E+00 0. -1.
          1   -1    0    0  501    0 -0.00000000000E+00 -0.00000000000E+00 -0.29394049342E+03  0.29394049342E+03  0.00000000000E+00 0. -1.
         25    2    1    2    0    0  0.69505311690E+02  0.85020511034E+02  0.46476566692E+02  0.17275550053E+03  0.12499966425E+03 0.  0.
          2    1    1    2  501    0 -0.28283884734E+02 -0.41428728428E+02 -0.22730767969E+03  0.23277692953E+03  0.00000000000E+00 0. -1.
          1    1    1    2  502    0 -0.41221426957E+02 -0.43591782605E+02  0.11852652941E+04  0.11867827379E+04  0.00000000000E+00 0. -1.
         22    1    3    3    0    0  0.43840513474E+01  0.96674123895E+02  0.44642813263E+02  0.10657432577E+03  0.00000000000E+00 0. -1.
         22    1    3    3    0    0  0.65121260343E+02 -0.11653612861E+02  0.18337534290E+01  0.66181174763E+02  0.00000000000E+00 0. -1.
</event>
<event>
 7    1  0.5931885E-006  0.4404947E+02  0.7818608E-02  0.1482805E+00
          2   -1    0    0  502    0  0.00000000000E+00  0.00000000000E+00  0.45399966623E+03  0.45399966623E+03  0.00000000000E+00 0. -1.
          1   -1    0    0  501    0 -0.00000000000E+00 -0.00000000000E+00 -0.41218183955E+03  0.41218183955E+03  0.00000000000E+00 0. -1.
         25    2    1    2    0    0 -0.56561289969E+02  0.22764827142E+02  0.95494024059E+02  0.16870508307E+03  0.12499951818E+03 0.  0.
          2    1    1    2  501    0  0.40463977806E+02  0.17429942071E+02 -0.37281726748E+03  0.37541157589E+03  0.00000000000E+00 0. -1.
          1    1    1    2  502    0  0.16097312164E+02 -0.40194769213E+02  0.31914107010E+03  0.32206484682E+03  0.00000000000E+00 0. -1.
         22    1    3    3    0    0 -0.20611959485E+02  0.26804152534E+02  0.12022142091E+03  0.12488597004E+03  0.00000000000E+00 0.  1.
         22    1    3    3    0    0 -0.35949330484E+02 -0.40393253926E+01 -0.24727396852E+02  0.43819113033E+02  0.00000000000E+00 0.  1.
</event>
<event>
 7    1  0.5931885E-006  0.5800846E+02  0.7818608E-02  0.1480190E+00
          2   -1    0    0  502    0  0.00000000000E+00  0.00000000000E+00  0.28202612519E+03  0.28202612519E+03  0.00000000000E+00 0. -1.
          1   -1    0    0  501    0 -0.00000000000E+00 -0.00000000000E+00 -0.23556731976E+04  0.23556731976E+04  0.00000000000E+00 0. -1.
         25    2    1    2    0    0 -0.58176719357E+02 -0.18763161750E+02 -0.45230620356E+03  0.47322489958E+03  0.12499726753E+03 0.  0.
          2    1    1    2  501    0  0.21162582915E+02 -0.25957255091E+02 -0.18896552376E+04  0.18899519970E+04  0.00000000000E+00 0. -1.
          1    1    1    2  502    0  0.37014136442E+02  0.44720416841E+02  0.26831436878E+03  0.27452242618E+03  0.00000000000E+00 0. -1.
         22    1    3    3    0    0 -0.59080175496E+02 -0.20640755343E+02 -0.83182538092E+02  0.10409535322E+03  0.00000000000E+00 0.  1.
         22    1    3    3    0    0  0.90345613899E+00  0.18775935931E+01 -0.36912366547E+03  0.36912954636E+03  0.00000000000E+00 0.  1.
</event>
<event>
 7    1  0.5931885E-006  0.9918488E+02  0.7818608E-02  0.1315573E+00
          2   -1    0    0  502    0  0.00000000000E+00  0.00000000000E+00  0.11381283732E+03  0.11381283732E+03  0.00000000000E+00 0. -1.
          1   -1    0    0  501    0 -0.00000000000E+00 -0.00000000000E+00 -0.23579542482E+04  0.23579542482E+04  0.00000000000E+00 0. -1.
         25    2    1    2    0    0 -0.79940158517E+02 -0.13167031544E+03 -0.20381042800E+03  0.28441387929E+03  0.12500025303E+03 0.  0.
          2    1    1    2  501    0  0.16213818687E+02  0.96574138883E+02 -0.20944135600E+04  0.20967016031E+04  0.00000000000E+00 0. -1.
          1    1    1    2  502    0  0.63726339830E+02  0.35096176560E+02  0.54082577129E+02  0.90651603109E+02  0.00000000000E+00 0. -1.
         22    1    3    3    0    0 -0.88716727462E+02 -0.32917454359E+02 -0.69181220667E+02  0.11721884587E+03  0.00000000000E+00 0. -1.
         22    1    3    3    0    0  0.87765689448E+01 -0.98752861083E+02 -0.13462920733E+03  0.16719503342E+03  0.00000000000E+00 0. -1.
</event>
<event>
 7    1  0.5931885E-006  0.1163347E+03  0.7818608E-02  0.1317502E+00
          2   -1    0    0  502    0  0.00000000000E+00  0.00000000000E+00  0.60882899657E+03  0.60882899657E+03  0.00000000000E+00 0. -1.
          1   -1    0    0  501    0 -0.00000000000E+00 -0.00000000000E+00 -0.33191671408E+03  0.33191671408E+03  0.00000000000E+00 0. -1.
         25    2    1    2    0    0  0.72336776250E+02  0.36050953070E+02  0.10551193601E+03  0.18245959497E+03  0.12500581883E+03 0.  0.
          2    1    1    2  501    0 -0.12011123258E+03  0.18161315672E+01 -0.27900916189E+03  0.30376984535E+03  0.00000000000E+00 0. -1.
          1    1    1    2  502    0  0.47774456327E+02 -0.37867084637E+02  0.45040950836E+03  0.45451627034E+03  0.00000000000E+00 0. -1.
         22    1    3    3    0    0  0.50859206137E+02 -0.38458212384E+02  0.19553326918E+02  0.66693519492E+02  0.00000000000E+00 0. -1.
         22    1    3    3    0    0  0.21477570113E+02  0.74509165455E+02  0.85958609091E+02  0.11576607548E+03  0.00000000000E+00 0. -1.
</event>
<event>
 7    1  0.5931885E-006  0.6953394E+02  0.7818608E-02  0.1365670E+00
          2   -1    0    0  502    0  0.00000000000E+00  0.00000000000E+00  0.36575388973E+03  0.36575388973E+03  0.00000000000E+00 0. -1.
          1   -1    0    0  501    0 -0.00000000000E+00 -0.00000000000E+00 -0.33951242475E+03  0.33951242475E+03  0.00000000000E+00 0. -1.
         25    2    1    2    0    0  0.15721099791E+02 -0.22128591740E+02  0.13414132481E+03  0.18535411236E+03  0.12500169757E+03 0.  0.
          2    1    1    2  501    0  0.41227543918E+02  0.57909435675E+02 -0.30420763495E+03  0.31240278213E+03  0.00000000000E+00 0. -1.
          1    1    1    2  502    0 -0.56948643709E+02 -0.35780843935E+02  0.19630777512E+03  0.20750942000E+03  0.00000000000E+00 0. -1.
         22    1    3    3    0    0 -0.80957367036E+01  0.40574776533E+02  0.75028347279E+01  0.42049327847E+02  0.00000000000E+00 0. -1.
         22    1    3    3    0    0  0.23816836494E+02 -0.62703368272E+02  0.12663849008E+03  0.14330478451E+03  0.00000000000E+00 0. -1.
</event>
<event>
 7    1  0.5931885E-006  0.1598601E+03  0.7818608E-02  0.1252491E+00
          2   -1    0    0  502    0  0.00000000000E+00  0.00000000000E+00  0.62360990629E+03  0.62360990629E+03  0.00000000000E+00 0. -1.
          1   -1    0    0  501    0 -0.00000000000E+00 -0.00000000000E+00 -0.14083856111E+03  0.14083856111E+03  0.00000000000E+00 0. -1.
         25    2    1    2    0    0 -0.11060241841E+03 -0.44125114712E+02  0.89851655241E+02  0.19462188040E+03  0.12499774268E+03 0.  0.
          2    1    1    2  501    0  0.19123017193E+03  0.29284561900E+02  0.27596816402E+02  0.19541788173E+03  0.00000000000E+00 0. -1.
          1    1    1    2  502    0 -0.80627753522E+02  0.14840552812E+02  0.36532287354E+03  0.37440870527E+03  0.00000000000E+00 0. -1.
         22    1    3    3    0    0 -0.12993004870E+03 -0.41717868914E+02  0.41718977143E+02  0.14269783178E+03  0.00000000000E+00 0.  1.
         22    1    3    3    0    0  0.19327630285E+02 -0.24072457974E+01  0.48132678098E+02  0.51924048625E+02  0.00000000000E+00 0.  1.
</event>
<event>
 7    1  0.5931885E-006  0.1405673E+03  0.7818608E-02  0.1372873E+00
          2   -1    0    0  502    0  0.00000000000E+00  0.00000000000E+00  0.19786658630E+04  0.19786658630E+04  0.00000000000E+00 0. -1.
          1   -1    0    0  501    0 -0.00000000000E+00 -0.00000000000E+00 -0.40218607188E+02  0.40218607188E+02  0.00000000000E+00 0. -1.
         25    2    1    2    0    0  0.79322201302E+02  0.13393264114E+03  0.88009602897E+03  0.90245402013E+03  0.12499709700E+03 0.  0.
          2    1    1    2  501    0  0.78466347254E+01 -0.30343682080E+02 -0.14879303873E+02  0.34694414571E+02  0.00000000000E+00 0. -1.
          1    1    1    2  502    0 -0.87168836028E+02 -0.10358895906E+03  0.10732305307E+04  0.10817360355E+04  0.00000000000E+00 0. -1.
         22    1    3    3    0    0  0.33695454562E+02  0.12779042605E+03  0.79301729858E+03  0.80395411094E+03  0.00000000000E+00 0. -1.
         22    1    3    3    0    0  0.45626746741E+02  0.61422150871E+01  0.87078730393E+02  0.98499909193E+02  0.00000000000E+00 0. -1.
</event>
<event>
 7    1  0.5931885E-006  0.7398999E+02  0.7818608E-02  0.1510017E+00
          2   -1    0    0  502    0  0.00000000000E+00  0.00000000000E+00  0.15795050817E+03  0.15795050817E+03  0.00000000000E+00 0. -1.
          1   -1    0    0  501    0 -0.00000000000E+00 -0.00000000000E+00 -0.20483623576E+04  0.20483623576E+04  0.00000000000E+00 0. -1.
         25    2    1    2    0    0 -0.28576286465E+02 -0.60920287961E+02 -0.28221563699E+02  0.14473755863E+03  0.12499847434E+03 0.  0.
          2    1    1    2  501    0  0.49212578281E+02  0.55402494415E+02 -0.19600302663E+04  0.19614305899E+04  0.00000000000E+00 0. -1.
          1    1    1    2  502    0 -0.20636291816E+02  0.55177935461E+01  0.97839980574E+02  0.10014471721E+03  0.00000000000E+00 0. -1.
         22    1    3    3    0    0 -0.21005568497E+02  0.35935987677E+02 -0.22739867534E+02  0.47431326080E+02  0.00000000000E+00 0.  1.
         22    1    3    3    0    0 -0.75707179677E+01 -0.96856275638E+02 -0.54816961653E+01  0.97306232554E+02  0.00000000000E+00 0.  1.
</event>
<event>
 7    1  0.5931885E-006  0.2757420E+02  0.7818608E-02  0.1630872E+00
          2   -1    0    0  502    0  0.00000000000E+00  0.00000000000E+00  0.37939209904E+03  0.37939209904E+03  0.00000000000E+00 0. -1.
          1   -1    0    0  501    0 -0.00000000000E+00 -0.00000000000E+00 -0.46980426797E+02  0.46980426797E+02  0.00000000000E+00 0. -1.
         25    2    1    2    0    0  0.43359057476E+02 -0.20617983198E+02  0.19133985460E+03  0.23354050560E+03  0.12500047480E+03 0.  0.
          2    1    1    2  501    0 -0.27025525138E+02 -0.74740128071E+00 -0.17362819365E+02  0.32131061513E+02  0.00000000000E+00 0. -1.
          1    1    1    2  502    0 -0.16333532338E+02  0.21365384479E+02  0.15843463700E+03  0.16070095873E+03  0.00000000000E+00 0. -1.
         22    1    3    3    0    0 -0.23369648754E+02  0.35884232191E+02  0.39152846678E+02  0.58023822744E+02  0.00000000000E+00 0. -1.
         22    1    3    3    0    0  0.66728706230E+02 -0.56502215389E+02  0.15218700792E+03  0.17551668285E+03  0.00000000000E+00 0. -1.
</event>
<event>
 7    1  0.5931885E-006  0.1111865E+03  0.7818608E-02  0.1405488E+00
          2   -1    0    0  502    0  0.00000000000E+00  0.00000000000E+00  0.83376759700E+02  0.83376759700E+02  0.00000000000E+00 0. -1.
          1   -1    0    0  501    0 -0.00000000000E+00 -0.00000000000E+00 -0.11137826900E+04  0.11137826900E+04  0.00000000000E+00 0. -1.
         25    2    1    2    0    0  0.97212971293E+02  0.96272370149E+02 -0.15673117748E+03  0.24271085686E+03  0.12500066801E+03 0.  0.
          2    1    1    2  501    0 -0.85408351247E+02 -0.68173299688E+02 -0.90451311764E+03  0.91109064600E+03  0.00000000000E+00 0. -1.
          1    1    1    2  502    0 -0.11804620046E+02 -0.28099070461E+02  0.30838364779E+02  0.43357946877E+02  0.00000000000E+00 0. -1.
         22    1    3    3    0    0 -0.63445346901E+01 -0.22485977019E+02 -0.41065485032E+02  0.47246654314E+02  0.00000000000E+00 0. -1.
         22    1    3    3    0    0  0.10355750598E+03  0.11875834717E+03 -0.11566569245E+03  0.19546420255E+03  0.00000000000E+00 0. -1.
</event>
<event>
 7    1  0.5931885E-006  0.9594583E+02  0.7818608E-02  0.1403298E+00
          2   -1    0    0  502    0  0.00000000000E+00  0.00000000000E+00  0.79694509361E+03  0.79694509361E+03  0.00000000000E+00 0. -1.
          1   -1    0    0  501    0 -0.00000000000E+00 -0.00000000000E+00 -0.68620968958E+03  0.68620968958E+03  0.00000000000E+00 0. -1.
         25    2    1    2    0    0 -0.74621470052E+02  0.69804556956E+02 -0.13493799317E+03  0.21041483949E+03  0.12500041085E+03 0.  0.
          2    1    1    2  501    0  0.32076236068E+02  0.16195988578E+02 -0.50986690986E+03  0.51113154935E+03  0.00000000000E+00 0. -1.
          1    1    1    2  502    0  0.42545233984E+02 -0.86000545533E+02  0.75554030705E+03  0.76160839435E+03  0.00000000000E+00 0. -1.
         22    1    3    3    0    0 -0.50055705191E+01  0.80771620464E+02 -0.35104034228E+02  0.88212264611E+02  0.00000000000E+00 0. -1.
         22    1    3    3    0    0 -0.69615899533E+02 -0.10967063509E+02 -0.99833958942E+02  0.12220257488E+03  0.00000000000E+00 0. -1.
</event>
<event>
 7    1  0.5931885E-006  0.7783873E+02  0.7818608E-02  0.1393553E+00
          2   -1    0    0  502    0  0.00000000000E+00  0.00000000000E+00  0.32470975546E+04  0.32470975546E+04  0.00000000000E+00 0. -1.
          1   -1    0    0  501    0 -0.00000000000E+00 -0.00000000000E+00 -0.64869381800E+02  0.64869381800E+02  0.00000000000E+00 0. -1.
         25    2    1    2    0    0  0.23477274079E+02  0.41010873580E+02  0.12029014772E+03  0.17980141428E+03  0.12500301911E+03 0.  0.
          2    1    1    2  501    0 -0.30100366366E+02  0.37201229342E+02 -0.18074344525E+02  0.51153156793E+02  0.00000000000E+00 0. -1.
          1    1    1    2  502    0  0.66230922870E+01 -0.78212102922E+02  0.30800123696E+04  0.30810123653E+04  0.00000000000E+00 0. -1.
         22    1    3    3    0    0  0.70232847289E+02 -0.13623211474E+01  0.69277297487E+02  0.98660289399E+02  0.00000000000E+00 0.  1.
         22    1    3    3    0    0 -0.46755573210E+02  0.42373194728E+02  0.51012850234E+02  0.81141124879E+02  0.00000000000E+00 0.  1.
</event>
<event>
 7    1  0.5931885E-006  0.9261641E+02  0.7818608E-02  0.1471060E+00
          2   -1    0    0  502    0  0.00000000000E+00  0.00000000000E+00  0.12738508560E+04  0.12738508560E+04  0.00000000000E+00 0. -1.
          1   -1    0    0  501    0 -0.00000000000E+00 -0.00000000000E+00 -0.35272483291E+02  0.35272483291E+02  0.00000000000E+00 0. -1.
         25    2    1    2    0    0  0.78151807849E+02  0.98925813282E+01  0.23971469769E+03  0.28159322752E+03  0.12500416498E+03 0.  0.
          2    1    1    2  501    0  0.15878875936E+02 -0.15774355627E+02 -0.17873406971E+01  0.22453587313E+02  0.00000000000E+00 0. -1.
          1    1    1    2  502    0 -0.94030683785E+02  0.58817742988E+01  0.10006510157E+04  0.10050765244E+04  0.00000000000E+00 0. -1.
         22    1    3    3    0    0 -0.64379248652E+00 -0.32479925022E+02  0.15505224138E+03  0.15841893054E+03  0.00000000000E+00 0.  1.
         22    1    3    3    0    0  0.78795600336E+02  0.42372506350E+02  0.84662456306E+02  0.12317429697E+03  0.00000000000E+00 0.  1.
</event>
<event>
 7    1  0.5931885E-006  0.1490946E+03  0.7818608E-02  0.1221104E+00
          2   -1    0    0  502    0  0.00000000000E+00  0.00000000000E+00  0.86434622417E+02  0.86434622417E+02  0.00000000000E+00 0. -1.
          1   -1    0    0  501    0 -0.00000000000E+00 -0.00000000000E+00 -0.11740146505E+04  0.11740146505E+04  0.00000000000E+00 0. -1.
         25    2    1    2    0    0 -0.71271103709E+02 -0.77206659096E+02 -0.25612162632E+03  0.30374451644E+03  0.12498802090E+03 0.  0.
          2    1    1    2  501    0  0.62332783277E+02 -0.10383707379E+03 -0.74695741803E+03  0.75671189901E+03  0.00000000000E+00 0. -1.
          1    1    1    2  502    0  0.89383204313E+01  0.18104373288E+03 -0.84500983763E+02  0.19999285748E+03  0.00000000000E+00 0. -1.
         22    1    3    3    0    0 -0.31368383840E+02 -0.95813578788E+02 -0.23330379357E+03  0.25415522319E+03  0.00000000000E+00 0.  1.
         22    1    3    3    0    0 -0.39902719868E+02  0.18606919692E+02 -0.22817832750E+02  0.49589293247E+02  0.00000000000E+00 0.  1.
</event>
<event>
 7    1  0.5931885E-006  0.8196254E+02  0.7818608E-02  0.1389971E+00
          2   -1    0    0  502    0  0.00000000000E+00  0.00000000000E+00  0.11695503326E+04  0.11695503326E+04  0.00000000000E+00 0. -1.
          1   -1    0    0  501    0 -0.00000000000E+00 -0.00000000000E+00 -0.53331014985E+02  0.53331014985E+02  0.00000000000E+00 0. -1.
         25    2    1    2    0    0 -0.11514649369E+03  0.22109806600E+02  0.81929561681E+03  0.83703094956E+03  0.12501177646E+03 0.  0.
          2    1    1    2  501    0  0.80080713118E+02  0.88379828569E+01 -0.46219157214E+01  0.80699396896E+02  0.00000000000E+00 0. -1.
          1    1    1    2  502    0  0.35065780568E+02 -0.30947789456E+02  0.30154561652E+03  0.30515100112E+03  0.00000000000E+00 0. -1.
         22    1    3    3    0    0 -0.88578795383E+02  0.26879395826E+02  0.79603437755E+03  0.80139842473E+03  0.00000000000E+00 0. -1.
         22    1    3    3    0    0 -0.26567698303E+02 -0.47695892261E+01  0.23261239254E+02  0.35632524835E+02  0.00000000000E+00 0. -1.
</event>
<event>
 7    1  0.5931885E-006  0.1169762E+03  0.7818608E-02  0.1381056E+00
          2   -1    0    0  502    0  0.00000000000E+00  0.00000000000E+00  0.48113965956E+03  0.48113965956E+03  0.00000000000E+00 0. -1.
          1   -1    0    0  501    0 -0.00000000000E+00 -0.00000000000E+00 -0.71998695455E+03  0.71998695455E+03  0.00000000000E+00 0. -1.
         25    2    1    2    0    0 -0.32111659322E+02  0.11669293255E+03 -0.38324580215E+03  0.42089423437E+03  0.12500484984E+03 0.  0.
          2    1    1    2  501    0  0.62279913263E+02 -0.98516926845E+02 -0.30652477932E+03  0.32793568395E+03  0.00000000000E+00 0. -1.
          1    1    1    2  502    0 -0.30168253941E+02 -0.18176005703E+02  0.45092328648E+03  0.45229669579E+03  0.00000000000E+00 0. -1.
         22    1    3    3    0    0  0.30130150925E+02  0.79664838657E+02 -0.29329405085E+03  0.30541072800E+03  0.00000000000E+00 0. -1.
         22    1    3    3    0    0 -0.62241810247E+02  0.37028093890E+02 -0.89951751300E+02  0.11548350636E+03  0.00000000000E+00 0. -1.
</event>
<event>
 7    1  0.5931885E-006  0.1118528E+03  0.7818608E-02  0.1317054E+00
          2   -1    0    0  502    0  0.00000000000E+00  0.00000000000E+00  0.30797967474E+03  0.30797967474E+03  0.00000000000E+00 0. -1.
          1   -1    0    0  501    0 -0.00000000000E+00 -0.00000000000E+00 -0.89492718885E+03  0.89492718885E+03  0.00000000000E+00 0. -1.
         25    2    1    2    0    0  0.36041367643E+02 -0.67733599702E+02 -0.15577084494E+03  0.21395956545E+03  0.12500927487E+03 0.  0.
          2    1    1    2  501    0  0.62938021014E+02  0.95579043308E+01 -0.69673299184E+03  0.69963519776E+03  0.00000000000E+00 0. -1.
          1    1    1    2  502    0 -0.98979388656E+02  0.58175695372E+02  0.26555632267E+03  0.28931210037E+03  0.00000000000E+00 0. -1.
         22    1    3    3    0    0 -0.13379399869E+02  0.11397517578E+02 -0.10747789500E+03  0.10890550795E+03  0.00000000000E+00 0. -1.
         22    1    3    3    0    0  0.49420767511E+02 -0.79131117280E+02 -0.48292949937E+02  0.10505405750E+03  0.00000000000E+00 0. -1.
</event>
<event>
 7    1  0.5931885E-006  0.1995147E+03  0.7818608E-02  0.1191057E+00
          2   -1    0    0  502    0  0.00000000000E+00  0.00000000000E+00  0.32029027715E+04  0.32029027715E+04  0.00000000000E+00 0. -1.
          1   -1    0    0  501    0 -0.00000000000E+00 -0.00000000000E+00 -0.56648636121E+03  0.56648636121E+03  0.00000000000E+00 0. -1.
         25    2    1    2    0    0  0.17144950634E+03 -0.26596704806E+03  0.46709484754E+03  0.57787080894E+03  0.12499468528E+03 0.  0.
          2    1    1    2  501    0 -0.58118213842E+02  0.11067737023E+03 -0.49994535123E+03  0.51533732765E+03  0.00000000000E+00 0. -1.
          1    1    1    2  502    0 -0.11333129250E+03  0.15528967783E+03  0.26692669140E+04  0.26761809962E+04  0.00000000000E+00 0. -1.
         22    1    3    3    0    0  0.11919666901E+03 -0.16681367122E+03  0.39373859739E+03  0.44391973360E+03  0.00000000000E+00 0. -1.
         22    1    3    3    0    0  0.52252837325E+02 -0.99153376838E+02  0.73356250151E+02  0.13395107533E+03  0.00000000000E+00 0. -1.
</event>
<event>
 7    1  0.5931885E-006  0.2284930E+03  0.7818608E-02  0.1127955E+00
          2   -1    0    0  502    0  0.00000000000E+00  0.00000000000E+00  0.22330837570E+03  0.22330837570E+03  0.00000000000E+00 0. -1.
          1   -1    0    0  501    0 -0.00000000000E+00 -0.00000000000E+00 -0.13587222325E+04  0.13587222325E+04  0.00000000000E+00 0. -1.
         25    2    1    2    0    0  0.16600906775E+03 -0.10719282778E+03 -0.86965294425E+02  0.24947424324E+03  0.12500049081E+03 0.  0.
          2    1    1    2  501    0 -0.11883609268E+03 -0.19433392158E+03 -0.99745078811E+03  0.10231303752E+04  0.00000000000E+00 0. -1.
          1    1    1    2  502    0 -0.47172975069E+02  0.30152674937E+03 -0.50997774299E+02  0.30942598977E+03  0.00000000000E+00 0. -1.
         22    1    3    3    0    0  0.57648525605E+02 -0.32422811588E+02  0.30685181959E+02  0.72912081355E+02  0.00000000000E+00 0. -1.
         22    1    3    3    0    0  0.10836054214E+03 -0.74770016196E+02 -0.11765047638E+03  0.17656216188E+03  0.00000000000E+00 0. -1.
</event>
<event>
 7    1  0.5931885E-006  0.8397944E+02  0.7818608E-02  0.1414953E+00
          2   -1    0    0  502    0  0.00000000000E+00  0.00000000000E+00  0.54499564890E+03  0.54499564890E+03  0.00000000000E+00 0. -1.
          1   -1    0    0  501    0 -0.00000000000E+00 -0.00000000000E+00 -0.66132127894E+03  0.66132127894E+03  0.00000000000E+00 0. -1.
         25    2    1    2    0    0  0.46484180271E+02 -0.37880444027E+02  0.13252350214E+03  0.19178829628E+03  0.12499825964E+03 0.  0.
          2    1    1    2  501    0  0.36751190814E+02  0.73565638642E+01 -0.62598824991E+03  0.62710928720E+03  0.00000000000E+00 0. -1.
          1    1    1    2  502    0 -0.83235371085E+02  0.30523880162E+02  0.37713911774E+03  0.38741934437E+03  0.00000000000E+00 0. -1.
         22    1    3    3    0    0  0.36970612970E+02 -0.74358063419E+02  0.40600641199E+02  0.92435706762E+02  0.00000000000E+00 0.  1.
         22    1    3    3    0    0  0.95135673012E+01  0.36477619392E+02  0.91922860942E+02  0.99352589514E+02  0.00000000000E+00 0.  1.
</event>
<event>
 7    1  0.5931885E-006  0.5660398E+02  0.7818608E-02  0.1451595E+00
          2   -1    0    0  502    0  0.00000000000E+00  0.00000000000E+00  0.20332078952E+02  0.20332078952E+02  0.00000000000E+00 0. -1.
          1   -1    0    0  501    0 -0.00000000000E+00 -0.00000000000E+00 -0.10579153652E+04  0.10579153652E+04  0.00000000000E+00 0. -1.
         25    2    1    2    0    0 -0.57415499365E+02  0.20950348364E+02 -0.48061500651E+03  0.50035295654E+03  0.12500735967E+03 0.  0.
          2    1    1    2  501    0  0.54068735050E+02  0.21090403044E+02 -0.51547218120E+03  0.51872902638E+03  0.00000000000E+00 0. -1.
          1    1    1    2  502    0  0.33467643146E+01 -0.42040751409E+02 -0.41496098556E+02  0.59165461257E+02  0.00000000000E+00 0. -1.
         22    1    3    3    0    0 -0.39065382050E+02  0.69845390465E+02 -0.36215287370E+03  0.37088972292E+03  0.00000000000E+00 0. -1.
         22    1    3    3    0    0 -0.18350117314E+02 -0.48895042100E+02 -0.11846213281E+03  0.12946323361E+03  0.00000000000E+00 0. -1.
</event>
<event>
 7    1  0.5931885E-006  0.9153062E+02  0.7818608E-02  0.1354763E+00
          2   -1    0    0  502    0  0.00000000000E+00  0.00000000000E+00  0.13244631747E+04  0.13244631747E+04  0.00000000000E+00 0. -1.
          1   -1    0    0  501    0 -0.00000000000E+00 -0.00000000000E+00 -0.23430315978E+03  0.23430315978E+03  0.00000000000E+00 0. -1.
         25    2    1    2    0    0 -0.46937868876E+02  0.10612949794E+03  0.18455828785E+03  0.25130515277E+03  0.12500353725E+03 0.  0.
          2    1    1    2  501    0 -0.68972331516E+01 -0.90724307631E+02 -0.18987763453E+03  0.21055162767E+03  0.00000000000E+00 0. -1.
          1    1    1    2  502    0  0.53835102028E+02 -0.15405190311E+02  0.10954793616E+04  0.10969095541E+04  0.00000000000E+00 0. -1.
         22    1    3    3    0    0  0.20627800525E+02 -0.19044209470E+02  0.35610054310E+02  0.45346047642E+02  0.00000000000E+00 0.  1.
         22    1    3    3    0    0 -0.67565669401E+02  0.12517370741E+03  0.14894823354E+03  0.20595910512E+03  0.00000000000E+00 0.  1.
</event>
<event>
 7    1  0.5931885E-006  0.9467834E+02  0.7818608E-02  0.1385952E+00
          2   -1    0    0  502    0  0.00000000000E+00  0.00000000000E+00  0.79999361246E+03  0.79999361246E+03  0.00000000000E+00 0. -1.
          1   -1    0    0  501    0 -0.00000000000E+00 -0.00000000000E+00 -0.57363676950E+03  0.57363676950E+03  0.00000000000E+00 0. -1.
         25    2    1    2    0    0 -0.89663208460E+02 -0.93481533105E+02  0.25872254691E+01  0.18002755901E+03  0.12499976114E+03 0.  0.
          2    1    1    2  501    0  0.50824191649E+02  0.77973279992E+02 -0.47982378463E+03  0.48876762899E+03  0.00000000000E+00 0. -1.
          1    1    1    2  502    0  0.38839016811E+02  0.15508253113E+02  0.70359340211E+03  0.70483519396E+03  0.00000000000E+00 0. -1.
         22    1    3    3    0    0  0.20964223058E+02 -0.26350511474E+01 -0.26562468208E+02  0.33941226558E+02  0.00000000000E+00 0.  1.
         22    1    3    3    0    0 -0.11062743152E+03 -0.90846481958E+02  0.29149693677E+02  0.14608633245E+03  0.00000000000E+00 0.  1.
</event>
<event>
 7    1  0.5931885E-006  0.1401735E+03  0.7818608E-02  0.1320490E+00
          2   -1    0    0  502    0  0.00000000000E+00  0.00000000000E+00  0.29440109758E+03  0.29440109758E+03  0.00000000000E+00 0. -1.
          1   -1    0    0  501    0 -0.00000000000E+00 -0.00000000000E+00 -0.20542792606E+04  0.20542792606E+04  0.00000000000E+00 0. -1.
         25    2    1    2    0    0 -0.75484671235E+02 -0.70399519452E+02 -0.10020711754E+03  0.19057890828E+03  0.12499930378E+03 0.  0.
          2    1    1    2  501    0  0.12472327861E+03  0.68978627567E+02 -0.19037619693E+04  0.19090897263E+04  0.00000000000E+00 0. -1.
          1    1    1    2  502    0 -0.49238607378E+02  0.14208918845E+01  0.24409092383E+03  0.24901172359E+03  0.00000000000E+00 0. -1.
         22    1    3    3    0    0 -0.25705216561E+02 -0.95553302331E+02 -0.90244095159E+02  0.13392232247E+03  0.00000000000E+00 0.  1.
         22    1    3    3    0    0 -0.49779454674E+02  0.25153782879E+02 -0.99630223860E+01  0.56656585812E+02  0.00000000000E+00 0.  1.
</event>
<event>
 7    1  0.5931885E-006  0.7795445E+02  0.7818608E-02  0.1403432E+00
          2   -1    0    0  502    0  0.00000000000E+00  0.00000000000E+00  0.74185439895E+03  0.74185439895E+03  0.00000000000E+00 0. -1.
          1   -1    0    0  501    0 -0.00000000000E+00 -0.00000000000E+00 -0.63856814261E+03  0.63856814261E+03  0.00000000000E+00 0. -1.
         25    2    1    2    0    0  0.34667014674E+02 -0.90248107894E+02  0.24220072303E+03  0.28919313687E+03  0.12499982918E+03 0.  0.
          2    1    1    2  501    0 -0.57554473890E+02  0.52459175621E+02 -0.61157272367E+03  0.61651089116E+03  0.00000000000E+00 0. -1.
          1    1    1    2  502    0  0.22887459216E+02  0.37788932273E+02  0.47265825699E+03  0.47471851353E+03  0.00000000000E+00 0. -1.
         22    1    3    3    0    0 -0.81374450072E+01 -0.45641436669E+02  0.21788215016E+03  0.22275993830E+03  0.00000000000E+00 0. -1.
         22    1    3    3    0    0  0.42804459681E+02 -0.44606671225E+02  0.24318572867E+02  0.66433198573E+02  0.00000000000E+00 0. -1.
</event>
<event>
 7    1  0.5931885E-006  0.2064150E+03  0.7818608E-02  0.1319968E+00
          2   -1    0    0  502    0  0.00000000000E+00  0.00000000000E+00  0.23414176746E+04  0.23414176746E+04  0.00000000000E+00 0. -1.
          1   -1    0    0  501    0 -0.00000000000E+00 -0.00000000000E+00 -0.22823222439E+04  0.22823222439E+04  0.00000000000E+00 0. -1.
         25    2    1    2    0    0  0.87878478350E+02 -0.21190657595E+03  0.50270537468E+03  0.56653883140E+03  0.12500611931E+03 0.  0.
          2    1    1    2  501    0  0.67760466516E+01  0.32917311136E+02 -0.22446067686E+04  0.22448583496E+04  0.00000000000E+00 0. -1.
          1    1    1    2  502    0 -0.94654525002E+02  0.17898926481E+03  0.18009968246E+04  0.18123427375E+04  0.00000000000E+00 0. -1.
         22    1    3    3    0    0  0.11605394502E+02 -0.17308873662E+03  0.30070979060E+03  0.34716102041E+03  0.00000000000E+00 0. -1.
         22    1    3    3    0    0  0.76273083848E+02 -0.38817839332E+02  0.20199558407E+03  0.21937781099E+03  0.00000000000E+00 0. -1.
</event>
<event>
 7    1  0.5931885E-006  0.6685339E+02  0.7818608E-02  0.1430760E+00
          2   -1    0    0  502    0  0.00000000000E+00  0.00000000000E+00  0.15563328705E+04  0.15563328705E+04  0.00000000000E+00 0. -1.
          1   -1    0    0  501    0 -0.00000000000E+00 -0.00000000000E+00 -0.29071797341E+03  0.29071797341E+03  0.00000000000E+00 0. -1.
         25    2    1    2    0    0  0.13215896486E+02 -0.40550669373E+02  0.42620015204E+02  0.13878577433E+03  0.12500403495E+03 0.  0.
          2    1    1    2  501    0 -0.54926422707E+02  0.41017085241E+02 -0.23748940547E+03  0.24718521578E+03  0.00000000000E+00 0. -1.
          1    1    1    2  502    0  0.41710526221E+02 -0.46641586840E+00  0.14604842874E+04  0.14610798538E+04  0.00000000000E+00 0. -1.
         22    1    3    3    0    0  0.35880904576E+02  0.70083785639E+01 -0.31221719983E+02  0.48076527349E+02  0.00000000000E+00 0.  1.
         22    1    3    3    0    0 -0.22665008089E+02 -0.47559047937E+02  0.73841735188E+02  0.90709246981E+02  0.00000000000E+00 0.  1.
</event>
<event>
 7    1  0.5931885E-006  0.4777759E+02  0.7818608E-02  0.1526976E+00
          2   -1    0    0  502    0  0.00000000000E+00  0.00000000000E+00  0.21780723350E+03  0.21780723350E+03  0.00000000000E+00 0. -1.
          1   -1    0    0  501    0 -0.00000000000E+00 -0.00000000000E+00 -0.12950226220E+04  0.12950226220E+04  0.00000000000E+00 0. -1.
         25    2    1    2    0    0  0.25459488202E+02  0.40249892272E+02 -0.68729688934E+03  0.70019326534E+03  0.12500142143E+03 0.  0.
          2    1    1    2  501    0 -0.28568869588E+02  0.74625520325E+01 -0.59820462809E+03  0.59893292367E+03  0.00000000000E+00 0. -1.
          1    1    1    2  502    0  0.31093813851E+01 -0.47712444304E+02  0.20828612890E+03  0.21370366652E+03  0.00000000000E+00 0. -1.
         22    1    3    3    0    0  0.30584849214E+02  0.78026519937E+02 -0.58595733930E+03  0.59192024319E+03  0.00000000000E+00 0.  1.
         22    1    3    3    0    0 -0.51253610111E+01 -0.37776627665E+02 -0.10133955004E+03  0.10827302215E+03  0.00000000000E+00 0.  1.
</event>
<event>
 7    1  0.5931885E-006  0.5263017E+02  0.7818608E-02  0.1456369E+00
          2   -1    0    0  502    0  0.00000000000E+00  0.00000000000E+00  0.53544290418E+02  0.53544290418E+02  0.00000000000E+00 0. -1.
          1   -1    0    0  501    0 -0.00000000000E+00 -0.00000000000E+00 -0.12759460324E+04  0.12759460324E+04  0.00000000000E+00 0. -1.
         25    2    1    2    0    0 -0.54075197651E+02 -0.67193081369E+02 -0.32226801019E+03  0.35625864747E+03  0.12499806527E+03 0.  0.
          2    1    1    2  501    0  0.90777240659E+01  0.42848131348E+02 -0.91799737681E+03  0.91904164827E+03  0.00000000000E+00 0. -1.
          1    1    1    2  502    0  0.44997473585E+02  0.24344950020E+02  0.17863645019E+02  0.54190027071E+02  0.00000000000E+00 0. -1.
         22    1    3    3    0    0  0.77765384521E+01 -0.80172983540E+02 -0.12147357398E+03  0.14575325388E+03  0.00000000000E+00 0.  1.
         22    1    3    3    0    0 -0.61851736103E+02  0.12979902172E+02 -0.20079443621E+03  0.21050539359E+03  0.00000000000E+00 0.  1.
</event>
<event>
 7    1  0.5931885E-006  0.5514560E+02  0.7818608E-02  0.1431969E+00
          2   -1    0    0  502    0  0.00000000000E+00  0.00000000000E+00  0.97773683431E+03  0.97773683431E+03  0.00000000000E+00 0. -1.
          1   -1    0    0  501    0 -0.00000000000E+00 -0.00000000000E+00 -0.68353605407E+02  0.68353605407E+02  0.00000000000E+00 0. -1.
         25    2    1    2    0    0 -0.88342709938E+02 -0.40071804991E+02  0.62152266897E+03  0.64134780929E+03  0.12500560180E+03 0.  0.
          2    1    1    2  501    0  0.38253394625E+02  0.38687324097E+02 -0.43473009317E+02  0.69641465990E+02  0.00000000000E+00 0. -1.
          1    1    1    2  502    0  0.50089315313E+02  0.13844808944E+01  0.33133356925E+03  0.33510116444E+03  0.00000000000E+00 0. -1.
         22    1    3    3    0    0 -0.22461739530E+02 -0.69049942567E+02  0.18163443925E+03  0.19561056677E+03  0.00000000000E+00 0.  1.
         22    1    3    3    0    0 -0.65880970408E+02  0.28978137576E+02  0.43988822972E+03  0.44573724252E+03  0.00000000000E+00 0.  1.
</event>
<event>
 7    1  0.5931885E-006  0.6015055E+02  0.7818608E-02  0.1398022E+00
          2   -1    0    0  502    0  0.00000000000E+00  0.00000000000E+00  0.48452440789E+03  0.48452440789E+03  0.00000000000E+00 0. -1.
          1   -1    0    0  501    0 -0.00000000000E+00 -0.00000000000E+00 -0.72618796320E+03  0.72618796320E+03  0.00000000000E+00 0. -1.
         25    2    1    2    0    0 -0.41452596824E+02  0.25425099069E+02  0.29741413048E+02  0.13742282926E+03  0.12504290826E+03 0.  0.
          2    1    1    2  501    0  0.47607301665E+02  0.36121000204E+02 -0.66862117031E+03  0.67128641519E+03  0.00000000000E+00 0. -1.
          1    1    1    2  502    0 -0.61547048410E+01 -0.61546099272E+02  0.39721620196E+03  0.40200312664E+03  0.00000000000E+00 0. -1.
         22    1    3    3    0    0 -0.23923974061E+02 -0.38628639351E+02  0.50416414034E+02  0.67870045801E+02  0.00000000000E+00 0. -1.
         22    1    3    3    0    0 -0.17528622764E+02  0.64053738420E+02 -0.20675000986E+02  0.69552783462E+02  0.00000000000E+00 0. -1.
</event>
<event>
 7    1  0.5931885E-006  0.1174387E+03  0.7818608E-02  0.1345646E+00
          2   -1    0    0  502    0  0.00000000000E+00  0.00000000000E+00  0.26308119815E+04  0.26308119815E+04  0.00000000000E+00 0. -1.
          1   -1    0    0  501    0 -0.00000000000E+00 -0.00000000000E+00 -0.20361466299E+02  0.20361466299E+02  0.00000000000E+00 0. -1.
         25    2    1    2    0    0  0.91761809644E+02 -0.28789980844E+02  0.12080162739E+04  0.12182687202E+04  0.12500505564E+03 0.  0.
          2    1    1    2  501    0 -0.97033158494E+02  0.75666085886E+02  0.24176028164E+03  0.27127260124E+03  0.00000000000E+00 0. -1.
          1    1    1    2  502    0  0.52713488504E+01 -0.46876105043E+02  0.11606739597E+04  0.11616321264E+04  0.00000000000E+00 0. -1.
         22    1    3    3    0    0  0.10632451676E+03 -0.52891326613E+02  0.11085705259E+04  0.11149130038E+04  0.00000000000E+00 0. -1.
         22    1    3    3    0    0 -0.14562707116E+02  0.24101345769E+02  0.99445748012E+02  0.10335571636E+03  0.00000000000E+00 0. -1.
</event>
<event>
 7    1  0.5931885E-006  0.5787610E+02  0.7818608E-02  0.1410292E+00
          2   -1    0    0  502    0  0.00000000000E+00  0.00000000000E+00  0.44113974703E+02  0.44113974703E+02  0.00000000000E+00 0. -1.
          1   -1    0    0  501    0 -0.00000000000E+00 -0.00000000000E+00 -0.17823977154E+04  0.17823977154E+04  0.00000000000E+00 0. -1.
         25    2    1    2    0    0  0.42185491695E+02 -0.33963391696E+02 -0.10046514767E+03  0.16926676162E+03  0.12499945202E+03 0.  0.
          2    1    1    2  501    0 -0.54418049661E+02 -0.21084684857E+02 -0.15602701552E+04  0.15613612155E+04  0.00000000000E+00 0. -1.
          1    1    1    2  502    0  0.12232557966E+02  0.55048076554E+02 -0.77548437824E+02  0.95883712984E+02  0.00000000000E+00 0. -1.
         22    1    3    3    0    0 -0.59924376450E+01  0.16260209371E+02  0.22242883367E+02  0.28196623525E+02  0.00000000000E+00 0. -1.
         22    1    3    3    0    0  0.48177929340E+02 -0.50223601067E+02 -0.12270803104E+03  0.14107013809E+03  0.00000000000E+00 0. -1.
</event>
<event>
 7    1  0.5931885E-006  0.4490810E+02  0.7818608E-02  0.1515713E+00
          2   -1    0    0  502    0  0.00000000000E+00  0.00000000000E+00  0.28311765792E+04  0.28311765792E+04  0.00000000000E+00 0. -1.
          1   -1    0    0  501    0 -0.00000000000E+00 -0.00000000000E+00 -0.12934189374E+04  0.12934189374E+04  0.00000000000E+00 0. -1.
         25    2    1    2    0    0  0.91558363507E+01  0.76727055411E+02  0.21190696878E+03  0.25787705055E+03  0.12500055765E+03 0.  0.
          2    1    1    2  501    0  0.29057894101E+01 -0.33741788378E+02 -0.12700162153E+04  0.12704676851E+04  0.00000000000E+00 0. -1.
          1    1    1    2  502    0 -0.12061625761E+02 -0.42985267034E+02  0.25958668883E+04  0.25962507810E+04  0.00000000000E+00 0. -1.
         22    1    3    3    0    0  0.71954544185E-01  0.10218619248E+03  0.20637125845E+03  0.23028486582E+03  0.00000000000E+00 0. -1.
         22    1    3    3    0    0  0.90838818065E+01 -0.25459137073E+02  0.55357103274E+01  0.27592184727E+02  0.00000000000E+00 0. -1.
</event>
<event>
 7    1  0.5931885E-006  0.9701218E+02  0.7818608E-02  0.1341858E+00
          2   -1    0    0  502    0  0.00000000000E+00  0.00000000000E+00  0.10583559121E+04  0.10583559121E+04  0.00000000000E+00 0. -1.
          1   -1    0    0  501    0 -0.00000000000E+00 -0.00000000000E+00 -0.19792079184E+04  0.19792079184E+04  0.00000000000E+00 0. -1.
         25    2    1    2    0    0 -0.17626069778E+02  0.14809337845E+03  0.38921534872E+03  0.43514445026E+03  0.12497910963E+03 0.  0.
          2    1    1    2  501    0  0.32910399289E+02 -0.91109905509E+02 -0.19536941194E+04  0.19560942773E+04  0.00000000000E+00 0. -1.
          1    1    1    2  502    0 -0.15284329511E+02 -0.56983472941E+02  0.64362676443E+03  0.64632510303E+03  0.00000000000E+00 0. -1.
         22    1    3    3    0    0 -0.19436052912E+01  0.31850317173E+02  0.25461583969E+03  0.25660757224E+03  0.00000000000E+00 0.  1.
         22    1    3    3    0    0 -0.15682464486E+02  0.11624306128E+03  0.13459950902E+03  0.17853687803E+03  0.00000000000E+00 0.  1.
</event>
<event>
 7    1  0.5931885E-006  0.1188942E+03  0.7818608E-02  0.1407526E+00
          2   -1    0    0  502    0  0.00000000000E+00  0.00000000000E+00  0.29106710814E+03  0.29106710814E+03  0.00000000000E+00 0. -1.
          1   -1    0    0  501    0 -0.00000000000E+00 -0.00000000000E+00 -0.29943337163E+03  0.29943337163E+03  0.00000000000E+00 0. -1.
         25    2    1    2    0    0  0.10421282710E+03 -0.25771191918E+02 -0.53817625774E+02  0.17332718174E+03  0.12498602891E+03 0.  0.
          2    1    1    2  501    0  0.41034779876E+01 -0.27748568518E+02 -0.16884854720E+03  0.17116265211E+03  0.00000000000E+00 0. -1.
          1    1    1    2  502    0 -0.10831630508E+03  0.53519760436E+02  0.21429990948E+03  0.24601064592E+03  0.00000000000E+00 0. -1.
         22    1    3    3    0    0 -0.18586564353E+02 -0.29387684218E+02  0.81741880603E+01  0.35719934331E+02  0.00000000000E+00 0.  1.
         22    1    3    3    0    0  0.12279939145E+03  0.36164923003E+01 -0.61991813834E+02  0.13760724741E+03  0.00000000000E+00 0.  1.
</event>
<event>
 7    1  0.5931885E-006  0.6843269E+02  0.7818608E-02  0.1394857E+00
          2   -1    0    0  502    0  0.00000000000E+00  0.00000000000E+00  0.14950698005E+04  0.14950698005E+04  0.00000000000E+00 0. -1.
          1   -1    0    0  501    0 -0.00000000000E+00 -0.00000000000E+00 -0.21299459237E+03  0.21299459237E+03  0.00000000000E+00 0. -1.
         25    2    1    2    0    0  0.61287140054E+02  0.34527550806E+02 -0.93567979918E+02  0.17125468321E+03  0.12499973742E+03 0.  0.
          2    1    1    2  501    0 -0.21349451434E+02 -0.70675194404E+02 -0.63062378800E+02  0.97096064805E+02  0.00000000000E+00 0. -1.
          1    1    1    2  502    0 -0.39937688620E+02  0.36147643598E+02  0.14387055669E+04  0.14397136449E+04  0.00000000000E+00 0. -1.
         22    1    3    3    0    0 -0.17014315769E+02  0.32455582850E+02 -0.84871288033E+02  0.92444509473E+02  0.00000000000E+00 0.  1.
         22    1    3    3    0    0  0.78301455822E+02  0.20719679558E+01 -0.86966918848E+01  0.78810173740E+02  0.00000000000E+00 0.  1.
</event>
<event>
 7    1  0.5931885E-006  0.4584436E+02  0.7818608E-02  0.1545934E+00
          2   -1    0    0  502    0  0.00000000000E+00  0.00000000000E+00  0.30340641381E+03  0.30340641381E+03  0.00000000000E+00 0. -1.
          1   -1    0    0  501    0 -0.00000000000E+00 -0.00000000000E+00 -0.45725831614E+02  0.45725831614E+02  0.00000000000E+00 0. -1.
         25    2    1    2    0    0  0.47830586557E+01  0.43426240985E+02  0.14799516141E+03  0.19859244119E+03  0.12501069490E+03 0.  0.
          2    1    1    2  501    0 -0.27141118575E+02 -0.15299072569E+01 -0.38663301595E+01  0.27457775631E+02  0.00000000000E+00 0. -1.
          1    1    1    2  502    0  0.22358059919E+02 -0.41896333728E+02  0.11355175094E+03  0.12308202860E+03  0.00000000000E+00 0. -1.
         22    1    3    3    0    0  0.50908436673E+02 -0.15797487032E+02  0.38155606259E+02  0.65552115221E+02  0.00000000000E+00 0.  1.
         22    1    3    3    0    0 -0.46125378017E+02  0.59223728017E+02  0.10983955516E+03  0.13304032597E+03  0.00000000000E+00 0.  1.
</event>
<event>
 7    1  0.5931885E-006  0.1395399E+03  0.7818608E-02  0.1264027E+00
          2   -1    0    0  502    0  0.00000000000E+00  0.00000000000E+00  0.19605529449E+04  0.19605529449E+04  0.00000000000E+00 0. -1.
          1   -1    0    0  501    0 -0.00000000000E+00 -0.00000000000E+00 -0.23931426743E+03  0.23931426743E+03  0.00000000000E+00 0. -1.
         25    2    1    2    0    0  0.37679573105E+02  0.75842381497E+02  0.61452279726E+03  0.63279908888E+03  0.12499840589E+03 0.  0.
          2    1    1    2  501    0  0.14873320185E+02 -0.14115138770E+03 -0.20683240626E+03  0.25084771114E+03  0.00000000000E+00 0. -1.
          1    1    1    2  502    0 -0.52552893291E+02  0.65309006205E+02  0.13135482864E+04  0.13162204123E+04  0.00000000000E+00 0. -1.
         22    1    3    3    0    0  0.58292198116E+02 -0.70419165526E+01  0.34821005043E+03  0.35312576821E+03  0.00000000000E+00 0. -1.
         22    1    3    3    0    0 -0.20612625011E+02  0.82884298050E+02  0.26631274683E+03  0.27967332067E+03  0.00000000000E+00 0. -1.
</event>
<event>
 7    1  0.5931885E-006  0.9817375E+02  0.7818608E-02  0.1470133E+00
          2   -1    0    0  502    0  0.00000000000E+00  0.00000000000E+00  0.48444376773E+03  0.48444376773E+03  0.00000000000E+00 0. -1.
          1   -1    0    0  501    0 -0.00000000000E+00 -0.00000000000E+00 -0.26983840371E+03  0.26983840371E+03  0.00000000000E+00 0. -1.
         25    2    1    2    0    0  0.55193490994E+02  0.98790408860E+02  0.22654324553E+03  0.28240490301E+03  0.12499928326E+03 0.  0.
          2    1    1    2  501    0 -0.41599515556E+01 -0.20844960995E+02 -0.23196573465E+03  0.23293758746E+03  0.00000000000E+00 0. -1.
          1    1    1    2  502    0 -0.51033539438E+02 -0.77945447865E+02  0.22002785313E+03  0.23893968098E+03  0.00000000000E+00 0. -1.
         22    1    3    3    0    0  0.57118392561E+02  0.11197408916E+02  0.26376265949E+02  0.63903052670E+02  0.00000000000E+00 0.  1.
         22    1    3    3    0    0 -0.19249015666E+01  0.87592999944E+02  0.20016697959E+03  0.21850185034E+03  0.00000000000E+00 0.  1.
</event>
<event>
 7    1  0.5931885E-006  0.1256978E+03  0.7818608E-02  0.1281644E+00
          2   -1    0    0  502    0  0.00000000000E+00  0.00000000000E+00  0.33866492306E+04  0.33866492306E+04  0.00000000000E+00 0. -1.
          1   -1    0    0  501    0 -0.00000000000E+00 -0.00000000000E+00 -0.14908503136E+03  0.14908503136E+03  0.00000000000E+00 0. -1.
         25    2    1    2    0    0 -0.71939581992E+02 -0.86434704854E+02  0.11459682934E+03  0.20347735729E+03  0.12499735987E+03 0.  0.
          2    1    1    2  501    0  0.67473574698E+02 -0.40204048983E+02 -0.88479065842E+02  0.11831142772E+03  0.00000000000E+00 0. -1.
          1    1    1    2  502    0  0.44660072940E+01  0.12663875384E+03  0.32114464358E+04  0.32139454770E+04  0.00000000000E+00 0. -1.
         22    1    3    3    0    0 -0.29590968863E+02 -0.11364906358E+03  0.74003081676E+02  0.13880991027E+03  0.00000000000E+00 0.  1.
         22    1    3    3    0    0 -0.42348613128E+02  0.27214358728E+02  0.40593747665E+02  0.64667447022E+02  0.00000000000E+00 0.  1.
</event>
<event>
 7    1  0.5931885E-006  0.7320084E+02  0.7818608E-02  0.1381708E+00
          2   -1    0    0  502    0  0.00000000000E+00  0.00000000000E+00  0.25822290550E+04  0.25822290550E+04  0.00000000000E+00 0. -1.
          1   -1    0    0  501    0 -0.00000000000E+00 -0.00000000000E+00 -0.80790277731E+03  0.80790277731E+03  0.00000000000E+00 0. -1.
         25    2    1    2    0    0  0.82138875926E+01  0.19055835343E+02  0.31589267962E+03  0.34035970046E+03  0.12500379134E+03 0.  0.
          2    1    1    2  501    0  0.37104245988E+02  0.41924107333E+02 -0.79404317825E+03  0.79601439986E+03  0.00000000000E+00 0. -1.
          1    1    1    2  502    0 -0.45318133581E+02 -0.60979942676E+02  0.22524767763E+04  0.22537577320E+04  0.00000000000E+00 0. -1.
         22    1    3    3    0    0  0.37427834608E+02  0.34813446901E+02  0.29857897683E+03  0.30292280253E+03  0.00000000000E+00 0.  1.
         22    1    3    3    0    0 -0.29213947015E+02 -0.15757611558E+02  0.17313702791E+02  0.37436897929E+02  0.00000000000E+00 0.  1.
</event>
<event>
 7    1  0.5931885E-006  0.1558239E+03  0.7818608E-02  0.1341522E+00
          2   -1    0    0  502    0  0.00000000000E+00  0.00000000000E+00  0.37294372046E+03  0.37294372046E+03  0.00000000000E+00 0. -1.
          1   -1    0    0  501    0 -0.00000000000E+00 -0.00000000000E+00 -0.16435705221E+04  0.16435705221E+04  0.00000000000E+00 0. -1.
         25    2    1    2    0    0 -0.46245501974E+02 -0.13696394373E+03 -0.19081685197E+03  0.27006507575E+03  0.12500522314E+03 0.  0.
          2    1    1    2  501    0  0.15154358189E+02  0.15672117300E+03 -0.14077091117E+04  0.14164872480E+04  0.00000000000E+00 0. -1.
          1    1    1    2  502    0  0.31091143784E+02 -0.19757229272E+02  0.32789916207E+03  0.32996191874E+03  0.00000000000E+00 0. -1.
         22    1    3    3    0    0  0.24435543324E+02  0.81799989592E+01 -0.48189947086E+02  0.54646858653E+02  0.00000000000E+00 0. -1.
         22    1    3    3    0    0 -0.70681045297E+02 -0.14514394269E+03 -0.14262690488E+03  0.21541821710E+03  0.00000000000E+00 0. -1.
</event>
<event>
 7    1  0.1225561E-005  0.6368104E+02  0.7818608E-02  0.1434227E+00
          2   -1    0    0  502    0  0.00000000000E+00  0.00000000000E+00  0.12524562808E+04  0.12524562808E+04  0.00000000000E+00 0. -1.
          1   -1    0    0  501    0 -0.00000000000E+00 -0.00000000000E+00 -0.25755007748E+04  0.25755007748E+04  0.00000000000E+00 0. -1.
         25    2    1    2    0    0  0.17242011365E+02  0.91859152465E+02 -0.63763171220E+03  0.65645608529E+03  0.12500000268E+03 0.  0.
          2    1    1    2  501    0 -0.30679152936E+02 -0.29640893996E+02 -0.19274058403E+04  0.19278778660E+04  0.00000000000E+00 0. -1.
          1    1    1    2  502    0  0.13437141571E+02 -0.62218258469E+02  0.12419930584E+04  0.12436231043E+04  0.00000000000E+00 0. -1.
         22    1    3    3    0    0  0.34759876253E+02  0.63866862975E+02 -0.60723798998E+03  0.61157599827E+03  0.00000000000E+00 0. -1.
         22    1    3    3    0    0 -0.17517864888E+02  0.27992289490E+02 -0.30393722219E+02  0.44880087026E+02  0.00000000000E+00 0. -1.
</event>
<event>
 7    1  0.5931885E-006  0.6712702E+02  0.7818608E-02  0.1427066E+00
          2   -1    0    0  502    0  0.00000000000E+00  0.00000000000E+00  0.24744445224E+03  0.24744445224E+03  0.00000000000E+00 0. -1.
          1   -1    0    0  501    0 -0.00000000000E+00 -0.00000000000E+00 -0.51663038271E+03  0.51663038271E+03  0.00000000000E+00 0. -1.
         25    2    1    2    0    0 -0.32663293614E+02 -0.27254665748E+02  0.63394549840E+02  0.14647101301E+03  0.12500072459E+03 0.  0.
          2    1    1    2  501    0  0.15094978134E+02  0.66200260937E+02 -0.46939133036E+03  0.47427687476E+03  0.00000000000E+00 0. -1.
          1    1    1    2  502    0  0.17568315481E+02 -0.38945595189E+02  0.13681085005E+03  0.14332694717E+03  0.00000000000E+00 0. -1.
         22    1    3    3    0    0  0.47809446036E+02 -0.12187273293E+02  0.15982752663E+02  0.51862521567E+02  0.00000000000E+00 0.  1.
         22    1    3    3    0    0 -0.80472739650E+02 -0.15067392456E+02  0.47411797177E+02  0.94608491446E+02  0.00000000000E+00 0.  1.
</event>
<event>
 7    1  0.5931885E-006  0.1374391E+03  0.7818608E-02  0.1346479E+00
          2   -1    0    0  502    0  0.00000000000E+00  0.00000000000E+00  0.15628800522E+04  0.15628800522E+04  0.00000000000E+00 0. -1.
          1   -1    0    0  501    0 -0.00000000000E+00 -0.00000000000E+00 -0.76575025358E+02  0.76575025358E+02  0.00000000000E+00 0. -1.
         25    2    1    2    0    0 -0.69844429636E+02 -0.13011513221E+03  0.16005066061E+03  0.25109776852E+03  0.12500273362E+03 0.  0.
          2    1    1    2  501    0  0.39857536581E+02 -0.36023646239E+01 -0.13024148818E+02  0.42085968038E+02  0.00000000000E+00 0. -1.
          1    1    1    2  502    0  0.29986893055E+02  0.13371749684E+03  0.13392785151E+04  0.13462713410E+04  0.00000000000E+00 0. -1.
         22    1    3    3    0    0 -0.68043764034E+02 -0.48904856834E+01  0.54656586001E+02  0.87414032440E+02  0.00000000000E+00 0.  1.
         22    1    3    3    0    0 -0.18006656016E+01 -0.12522464653E+03  0.10539407461E+03  0.16368373608E+03  0.00000000000E+00 0.  1.
</event>
<event>
 7    1  0.5931885E-006  0.1442220E+03  0.7818608E-02  0.1324606E+00
          2   -1    0    0  502    0  0.00000000000E+00  0.00000000000E+00  0.42617452822E+04  0.42617452822E+04  0.00000000000E+00 0. -1.
          1   -1    0    0  501    0 -0.00000000000E+00 -0.00000000000E+00 -0.79576382902E+02  0.79576382902E+02  0.00000000000E+00 0. -1.
         25    2    1    2    0    0  0.81268605573E+02 -0.11415714172E+03  0.12181198422E+04  0.12325081975E+04  0.12499627061E+03 0.  0.
          2    1    1    2  501    0 -0.38126011198E+02 -0.26012237854E+02 -0.63064338824E+02  0.78149472675E+02  0.00000000000E+00 0. -1.
          1    1    1    2  502    0 -0.43142594375E+02  0.14016937958E+03  0.30271133959E+04  0.30306639949E+04  0.00000000000E+00 0. -1.
         22    1    3    3    0    0  0.68241094820E+02 -0.39224800104E+02  0.26721228640E+03  0.27856388490E+03  0.00000000000E+00 0.  1.
         22    1    3    3    0    0  0.13027510753E+02 -0.74932341618E+02  0.95090755579E+03  0.95394431259E+03  0.00000000000E+00 0.  1.
</event>
<event>
 7    1  0.5931885E-006  0.1173222E+03  0.7818608E-02  0.1368325E+00
          2   -1    0    0  502    0  0.00000000000E+00  0.00000000000E+00  0.47722155749E+03  0.47722155749E+03  0.00000000000E+00 0. -1.
          1   -1    0    0  501    0 -0.00000000000E+00 -0.00000000000E+00 -0.18663320529E+03  0.18663320529E+03  0.00000000000E+00 0. -1.
         25    2    1    2    0    0  0.72702018952E+02 -0.37833421774E+02  0.25262404067E+03  0.29353146505E+03  0.12499945475E+03 0.  0.
          2    1    1    2  501    0 -0.10203149690E+03  0.63525233433E+02 -0.14208401898E+03  0.18610145108E+03  0.00000000000E+00 0. -1.
          1    1    1    2  502    0  0.29329477945E+02 -0.25691811659E+02  0.18004833051E+03  0.18422184665E+03  0.00000000000E+00 0. -1.
         22    1    3    3    0    0  0.16430231452E+02  0.44120849947E+02  0.11027294808E+03  0.11990298155E+03  0.00000000000E+00 0.  1.
         22    1    3    3    0    0  0.56271787500E+02 -0.81954271721E+02  0.14235109258E+03  0.17362848350E+03  0.00000000000E+00 0.  1.
</event>
<event>
 7    1  0.5931885E-006  0.3526293E+02  0.7818608E-02  0.1629645E+00
          2   -1    0    0  502    0  0.00000000000E+00  0.00000000000E+00  0.32299607167E+03  0.32299607167E+03  0.00000000000E+00 0. -1.
          1   -1    0    0  501    0 -0.00000000000E+00 -0.00000000000E+00 -0.41039282056E+03  0.41039282056E+03  0.00000000000E+00 0. -1.
         25    2    1    2    0    0  0.48395546961E+02  0.19868166129E+02  0.69615189126E+02  0.15234151800E+03  0.12499916223E+03 0.  0.
          2    1    1    2  501    0 -0.34977697861E+02 -0.34810752234E+01 -0.36766038302E+03  0.36933685772E+03  0.00000000000E+00 0. -1.
          1    1    1    2  502    0 -0.13417849100E+02 -0.16387090905E+02  0.21064844499E+03  0.21171051651E+03  0.00000000000E+00 0. -1.
         22    1    3    3    0    0  0.20036719080E+02  0.72395308036E+02  0.46402283724E+02  0.88293389741E+02  0.00000000000E+00 0.  1.
         22    1    3    3    0    0  0.28358827881E+02 -0.52527141908E+02  0.23212905402E+02  0.64048128255E+02  0.00000000000E+00 0.  1.
</event>
<event>
 7    1  0.5931885E-006  0.8815420E+02  0.7818608E-02  0.1317326E+00
          2   -1    0    0  502    0  0.00000000000E+00  0.00000000000E+00  0.73942790289E+03  0.73942790289E+03  0.00000000000E+00 0. -1.
          1   -1    0    0  501    0 -0.00000000000E+00 -0.00000000000E+00 -0.39008502674E+03  0.39008502674E+03  0.00000000000E+00 0. -1.
         25    2    1    2    0    0  0.10441536260E+01 -0.29939368263E+02  0.26147629023E+03  0.29136357329E+03  0.12500170183E+03 0.  0.
          2    1    1    2  501    0 -0.78093856657E+02 -0.40896365261E+02 -0.36389585040E+03  0.37442135767E+03  0.00000000000E+00 0. -1.
          1    1    1    2  502    0  0.77049703031E+02  0.70835733524E+02  0.45176243633E+03  0.46372799868E+03  0.00000000000E+00 0. -1.
         22    1    3    3    0    0 -0.36293737069E+02 -0.79275169546E+01  0.24024385046E+03  0.24309913319E+03  0.00000000000E+00 0. -1.
         22    1    3    3    0    0  0.37337890695E+02 -0.22011851308E+02  0.21232439770E+02  0.48264440100E+02  0.00000000000E+00 0. -1.
</event>
<event>
 7    1  0.5931885E-006  0.2467711E+03  0.7818608E-02  0.1178596E+00
          2   -1    0    0  502    0  0.00000000000E+00  0.00000000000E+00  0.22120153927E+04  0.22120153927E+04  0.00000000000E+00 0. -1.
          1   -1    0    0  501    0 -0.00000000000E+00 -0.00000000000E+00 -0.71081220746E+03  0.71081220746E+03  0.00000000000E+00 0. -1.
         25    2    1    2    0    0 -0.25052340054E+03 -0.66689873621E+02  0.18385341373E+03  0.34152010212E+03  0.12499755577E+03 0.  0.
          2    1    1    2  501    0  0.74768071595E+01  0.11588816955E+03 -0.61866820441E+03  0.62947304758E+03  0.00000000000E+00 0. -1.
          1    1    1    2  502    0  0.24304659338E+03 -0.49198295931E+02  0.19360179759E+04  0.19518344505E+04  0.00000000000E+00 0. -1.
         22    1    3    3    0    0 -0.58136692972E+02 -0.48863458079E+02  0.16710856174E+01  0.75962524526E+02  0.00000000000E+00 0.  1.
         22    1    3    3    0    0 -0.19238670757E+03 -0.17826415542E+02  0.18218232811E+03  0.26555757759E+03  0.00000000000E+00 0.  1.
</event>
<event>
 7    1  0.5931885E-006  0.6327223E+02  0.7818608E-02  0.1397141E+00
          2   -1    0    0  502    0  0.00000000000E+00  0.00000000000E+00  0.88930007036E+03  0.88930007036E+03  0.00000000000E+00 0. -1.
          1   -1    0    0  501    0 -0.00000000000E+00 -0.00000000000E+00 -0.53476905712E+02  0.53476905712E+02  0.00000000000E+00 0. -1.
         25    2    1    2    0    0 -0.28404049037E+02 -0.76143213544E+01  0.42347843893E+03  0.44252045439E+03  0.12500238570E+03 0.  0.
          2    1    1    2  501    0  0.47117858928E+02 -0.46448561387E+02 -0.16030895161E+02  0.68077537298E+02  0.00000000000E+00 0. -1.
          1    1    1    2  502    0 -0.18713809891E+02  0.54062882742E+02  0.42837562088E+03  0.43217898438E+03  0.00000000000E+00 0. -1.
         22    1    3    3    0    0 -0.79791765088E+01  0.35758869805E+02  0.36530494622E+03  0.36713766868E+03  0.00000000000E+00 0. -1.
         22    1    3    3    0    0 -0.20424872528E+02 -0.43373191159E+02  0.58173492702E+02  0.75382785715E+02  0.00000000000E+00 0. -1.
</event>
<event>
 7    1  0.5931885E-006  0.1117081E+03  0.7818608E-02  0.1454713E+00
          2   -1    0    0  502    0  0.00000000000E+00  0.00000000000E+00  0.20289778400E+03  0.20289778400E+03  0.00000000000E+00 0. -1.
          1   -1    0    0  501    0 -0.00000000000E+00 -0.00000000000E+00 -0.42705441180E+03  0.42705441180E+03  0.00000000000E+00 0. -1.
         25    2    1    2    0    0 -0.79695045268E+02  0.90281780669E+02 -0.17100731114E+03  0.24366113714E+03  0.12500059652E+03 0.  0.
          2    1    1    2  501    0  0.83538448188E+02 -0.69751652352E+02 -0.20548754455E+03  0.23252762480E+03  0.00000000000E+00 0. -1.
          1    1    1    2  502    0 -0.38434029205E+01 -0.20530128317E+02  0.15233822789E+03  0.15376343386E+03  0.00000000000E+00 0. -1.
         22    1    3    3    0    0 -0.99948020698E+02  0.86705459778E+02 -0.89851124779E+02  0.15993957678E+03  0.00000000000E+00 0. -1.
         22    1    3    3    0    0  0.20252975431E+02  0.35763208907E+01 -0.81156186360E+02  0.83721560362E+02  0.00000000000E+00 0. -1.
</event>
<event>
 7    1  0.5931885E-006  0.9936317E+02  0.7818608E-02  0.1330764E+00
          2   -1    0    0  502    0  0.00000000000E+00  0.00000000000E+00  0.96209327007E+02  0.96209327007E+02  0.00000000000E+00 0. -1.
          1   -1    0    0  501    0 -0.00000000000E+00 -0.00000000000E+00 -0.25422395482E+04  0.25422395482E+04  0.00000000000E+00 0. -1.
         25    2    1    2    0    0  0.14123570162E+03 -0.13842541784E+02 -0.17035624297E+04  0.17140274175E+04  0.12500358658E+03 0.  0.
          2    1    1    2  501    0 -0.78951194419E+02  0.25932328479E+02 -0.82002132054E+03  0.82422129486E+03  0.00000000000E+00 0. -1.
          1    1    1    2  502    0 -0.62284507204E+02 -0.12089786694E+02  0.77553529014E+02  0.10020016289E+03  0.00000000000E+00 0. -1.
         22    1    3    3    0    0  0.11810091378E+03 -0.25302693410E+02 -0.71512967673E+03  0.72525754506E+03  0.00000000000E+00 0.  1.
         22    1    3    3    0    0  0.23134787843E+02  0.11460151625E+02 -0.98843275296E+03  0.98876987242E+03  0.00000000000E+00 0.  1.
</event>
<event>
 7    1  0.5931885E-006  0.7566205E+02  0.7818608E-02  0.1354078E+00
          2   -1    0    0  502    0  0.00000000000E+00  0.00000000000E+00  0.18068790509E+03  0.18068790509E+03  0.00000000000E+00 0. -1.
          1   -1    0    0  501    0 -0.00000000000E+00 -0.00000000000E+00 -0.30508340793E+03  0.30508340793E+03  0.00000000000E+00 0. -1.
         25    2    1    2    0    0 -0.43152674233E+02  0.70379849955E+01 -0.13647545676E+03  0.19016385762E+03  0.12500022368E+03 0.  0.
          2    1    1    2  501    0  0.79305318067E+02 -0.64789847193E+02 -0.11341641971E+03  0.15280818706E+03  0.00000000000E+00 0. -1.
          1    1    1    2  502    0 -0.36152643834E+02  0.57751862197E+02  0.12549637363E+03  0.14279926834E+03  0.00000000000E+00 0. -1.
         22    1    3    3    0    0 -0.51333218258E+02 -0.21800678322E+02 -0.57738734727E+01  0.56068765698E+02  0.00000000000E+00 0. -1.
         22    1    3    3    0    0  0.81805440255E+01  0.28838663318E+02 -0.13070158329E+03  0.13409509192E+03  0.00000000000E+00 0. -1.
</event>
<event>
 7    1  0.5931885E-006  0.2556894E+03  0.7818608E-02  0.1241985E+00
          2   -1    0    0  502    0  0.00000000000E+00  0.00000000000E+00  0.40197019654E+03  0.40197019654E+03  0.00000000000E+00 0. -1.
          1   -1    0    0  501    0 -0.00000000000E+00 -0.00000000000E+00 -0.70330357741E+03  0.70330357741E+03  0.00000000000E+00 0. -1.
         25    2    1    2    0    0  0.17607154723E+03  0.15494348097E+03  0.62734403304E+02  0.27306949925E+03  0.12499069575E+03 0.  0.
          2    1    1    2  501    0 -0.15579060286E+03 -0.20816517667E+03 -0.56574868410E+03  0.62263554852E+03  0.00000000000E+00 0. -1.
          1    1    1    2  502    0 -0.20280944368E+02  0.53221695700E+02  0.20168089993E+03  0.20956872619E+03  0.00000000000E+00 0. -1.
         22    1    3    3    0    0  0.10769368548E+03  0.32503368997E+02  0.70256014062E+02  0.13262845245E+03  0.00000000000E+00 0. -1.
         22    1    3    3    0    0  0.68377861745E+02  0.12244011197E+03 -0.75216107581E+01  0.14044104679E+03  0.00000000000E+00 0. -1.
</event>
<event>
 7    1  0.5931885E-006  0.6941313E+02  0.7818608E-02  0.1412558E+00
          2   -1    0    0  502    0  0.00000000000E+00  0.00000000000E+00  0.15361377049E+04  0.15361377049E+04  0.00000000000E+00 0. -1.
          1   -1    0    0  501    0 -0.00000000000E+00 -0.00000000000E+00 -0.59820246648E+03  0.59820246648E+03  0.00000000000E+00 0. -1.
         25    2    1    2    0    0 -0.98099641325E-01 -0.33551804533E+02  0.10319498727E+03  0.16552843008E+03  0.12499889022E+03 0.  0.
          2    1    1    2  501    0 -0.38920969522E+02  0.58281742830E+02 -0.56448762675E+03  0.56882148709E+03  0.00000000000E+00 0. -1.
          1    1    1    2  502    0  0.39019069164E+02 -0.24729938297E+02  0.13992278779E+04  0.13999902543E+04  0.00000000000E+00 0. -1.
         22    1    3    3    0    0  0.14730356834E+02 -0.66270444519E+02  0.13923924987E+02  0.69301016704E+02  0.00000000000E+00 0.  1.
         22    1    3    3    0    0 -0.14828456475E+02  0.32718639986E+02  0.89271062283E+02  0.96227413377E+02  0.00000000000E+00 0.  1.
</event>
<event>
 7    1  0.5931885E-006  0.3963106E+03  0.7818608E-02  0.1201942E+00
          2   -1    0    0  502    0  0.00000000000E+00  0.00000000000E+00  0.11904264162E+04  0.11904264162E+04  0.00000000000E+00 0. -1.
          1   -1    0    0  501    0 -0.00000000000E+00 -0.00000000000E+00 -0.61757128095E+03  0.61757128095E+03  0.00000000000E+00 0. -1.
         25    2    1    2    0    0 -0.15413007203E+03  0.36312064452E+03  0.69276070041E+02  0.41956788137E+03  0.12500140646E+03 0.  0.
          2    1    1    2  501    0 -0.51069478849E+02 -0.22674500796E+02 -0.39863331334E+03  0.40253042513E+03  0.00000000000E+00 0. -1.
          1    1    1    2  502    0  0.20519955088E+03 -0.34044614372E+03  0.90221237854E+03  0.98589939063E+03  0.00000000000E+00 0. -1.
         22    1    3    3    0    0 -0.54875890050E+02  0.23854126660E+03 -0.26759711029E+01  0.24478656009E+03  0.00000000000E+00 0. -1.
         22    1    3    3    0    0 -0.99254181982E+02  0.12457937792E+03  0.71952041144E+02  0.17478132128E+03  0.00000000000E+00 0. -1.
</event>
<event>
 7    1  0.5931885E-006  0.4997964E+02  0.7818608E-02  0.1497416E+00
          2   -1    0    0  502    0  0.00000000000E+00  0.00000000000E+00  0.49581381377E+02  0.49581381377E+02  0.00000000000E+00 0. -1.
          1   -1    0    0  501    0 -0.00000000000E+00 -0.00000000000E+00 -0.10701343357E+04  0.10701343357E+04  0.00000000000E+00 0. -1.
         25    2    1    2    0    0  0.27272669140E+02  0.12412117366E+02 -0.44953978211E+02  0.13617652369E+03  0.12500130522E+03 0.  0.
          2    1    1    2  501    0 -0.20264111843E+02 -0.46160189179E+02 -0.88760226687E+03  0.88903272237E+03  0.00000000000E+00 0. -1.
          1    1    1    2  502    0 -0.70085572970E+01  0.33748071813E+02 -0.87996709265E+02  0.94506471038E+02  0.00000000000E+00 0. -1.
         22    1    3    3    0    0  0.15672202803E+01  0.88412072758E+01  0.43281766783E+02  0.44203330886E+02  0.00000000000E+00 0. -1.
         22    1    3    3    0    0  0.25705448860E+02  0.35709100901E+01 -0.88235744994E+02  0.91973192804E+02  0.00000000000E+00 0. -1.
</event>
<event>
 7    1  0.5931885E-006  0.1137991E+03  0.7818608E-02  0.1309468E+00
          2   -1    0    0  502    0  0.00000000000E+00  0.00000000000E+00  0.13462725868E+03  0.13462725868E+03  0.00000000000E+00 0. -1.
          1   -1    0    0  501    0 -0.00000000000E+00 -0.00000000000E+00 -0.14715623113E+04  0.14715623113E+04  0.00000000000E+00 0. -1.
         25    2    1    2    0    0 -0.52023338755E+02  0.16867531951E+03 -0.18563530132E+03  0.28502905974E+03  0.12499323427E+03 0.  0.
          2    1    1    2  501    0  0.23098791025E+02 -0.10823360969E+03 -0.12201078663E+04  0.12251168409E+04  0.00000000000E+00 0. -1.
          1    1    1    2  502    0  0.28924547729E+02 -0.60441709820E+02  0.68808114959E+02  0.96043669399E+02  0.00000000000E+00 0. -1.
         22    1    3    3    0    0 -0.54024778218E+02  0.16857682995E+03 -0.20197230998E+03  0.26856961528E+03  0.00000000000E+00 0.  1.
         22    1    3    3    0    0  0.20014394630E+01  0.98489559409E-01  0.16337008651E+02  0.16459444456E+02  0.00000000000E+00 0.  1.
</event>
<event>
 7    1  0.5931885E-006  0.9429713E+02  0.7818608E-02  0.1311031E+00
          2   -1    0    0  502    0  0.00000000000E+00  0.00000000000E+00  0.21315332422E+04  0.21315332422E+04  0.00000000000E+00 0. -1.
          1   -1    0    0  501    0 -0.00000000000E+00 -0.00000000000E+00 -0.12896684897E+03  0.12896684897E+03  0.00000000000E+00 0. -1.
         25    2    1    2    0    0  0.10584773736E+03  0.11160776146E+03  0.51262826762E+03  0.54961137986E+03  0.12499956876E+03 0.  0.
          2    1    1    2  501    0 -0.29801523475E+02 -0.87666329814E+02 -0.89890506919E+02  0.12904967810E+03  0.00000000000E+00 0. -1.
          1    1    1    2  502    0 -0.76046213889E+02 -0.23941431644E+02  0.15798286326E+04  0.15818390332E+04  0.00000000000E+00 0. -1.
         22    1    3    3    0    0  0.43146138242E+02 -0.19709174022E+02  0.18743807158E+03  0.19334702341E+03  0.00000000000E+00 0.  1.
         22    1    3    3    0    0  0.62701599122E+02  0.13131693548E+03  0.32519019604E+03  0.35626435645E+03  0.00000000000E+00 0.  1.
</event>
<event>
 7    1  0.5931885E-006  0.4585689E+02  0.7818608E-02  0.1474660E+00
          2   -1    0    0  502    0  0.00000000000E+00  0.00000000000E+00  0.16097799127E+03  0.16097799127E+03  0.00000000000E+00 0. -1.
          1   -1    0    0  501    0 -0.00000000000E+00 -0.00000000000E+00 -0.63773606703E+03  0.63773606703E+03  0.00000000000E+00 0. -1.
         25    2    1    2    0    0  0.85320192357E+02 -0.15221492254E+02 -0.25059022106E+01  0.15212013733E+03  0.12499211009E+03 0.  0.
          2    1    1    2  501    0 -0.41391474237E+02  0.18608771641E+02 -0.55380170108E+03  0.55565804650E+03  0.00000000000E+00 0. -1.
          1    1    1    2  502    0 -0.43928718120E+02 -0.33872793874E+01  0.79549527528E+02  0.90935874479E+02  0.00000000000E+00 0. -1.
         22    1    3    3    0    0  0.38098931188E+02 -0.59219701843E+02 -0.36347197581E+02  0.79244056030E+02  0.00000000000E+00 0.  1.
         22    1    3    3    0    0  0.47221261169E+02  0.43998209589E+02  0.33841295371E+02  0.72876081301E+02  0.00000000000E+00 0.  1.
</event>
<event>
 7    1  0.5931885E-006  0.2746991E+03  0.7818608E-02  0.1300871E+00
          2   -1    0    0  502    0  0.00000000000E+00  0.00000000000E+00  0.16160617375E+04  0.16160617375E+04  0.00000000000E+00 0. -1.
          1   -1    0    0  501    0 -0.00000000000E+00 -0.00000000000E+00 -0.69782345097E+02  0.69782345097E+02  0.00000000000E+00 0. -1.
         25    2    1    2    0    0  0.25194291529E+03 -0.53128199503E+02  0.53099090368E+03  0.60321975104E+03  0.12499956040E+03 0.  0.
          2    1    1    2  501    0  0.28712082536E+02  0.87935151656E+01  0.18248137075E+01  0.30083875043E+02  0.00000000000E+00 0. -1.
          1    1    1    2  502    0 -0.28065499783E+03  0.44334684337E+02  0.10134636751E+04  0.10525404566E+04  0.00000000000E+00 0. -1.
         22    1    3    3    0    0  0.25601484863E+02 -0.35063941007E+02  0.28847918413E+02  0.52125985678E+02  0.00000000000E+00 0.  1.
         22    1    3    3    0    0  0.22634143043E+03 -0.18064258495E+02  0.50214298527E+03  0.55109376536E+03  0.00000000000E+00 0.  1.
</event>
<event>
 7    1  0.5931885E-006  0.6281499E+02  0.7818608E-02  0.1518869E+00
          2   -1    0    0  502    0  0.00000000000E+00  0.00000000000E+00  0.10529040005E+04  0.10529040005E+04  0.00000000000E+00 0. -1.
          1   -1    0    0  501    0 -0.00000000000E+00 -0.00000000000E+00 -0.38457613792E+02  0.38457613792E+02  0.00000000000E+00 0. -1.
         25    2    1    2    0    0  0.47191885016E+02 -0.52180990670E+01  0.32001279810E+03  0.34682533865E+03  0.12500128805E+03 0.  0.
          2    1    1    2  501    0 -0.59905201349E+02  0.25225294950E+02  0.17671234381E+02  0.67358898288E+02  0.00000000000E+00 0. -1.
          1    1    1    2  502    0  0.12713316334E+02 -0.20007195883E+02  0.67676235422E+03  0.67717737734E+03  0.00000000000E+00 0. -1.
         22    1    3    3    0    0  0.27765513316E+02 -0.13304404001E+02  0.50972559184E+01  0.31207577820E+02  0.00000000000E+00 0.  1.
         22    1    3    3    0    0  0.19426371700E+02  0.80863049337E+01  0.31491554218E+03  0.31561776083E+03  0.00000000000E+00 0.  1.
</event>
<event>
 7    1  0.5931885E-006  0.6555954E+02  0.7818608E-02  0.1423866E+00
          2   -1    0    0  502    0  0.00000000000E+00  0.00000000000E+00  0.11347684137E+03  0.11347684137E+03  0.00000000000E+00 0. -1.
          1   -1    0    0  501    0 -0.00000000000E+00 -0.00000000000E+00 -0.29248810649E+04  0.29248810649E+04  0.00000000000E+00 0. -1.
         25    2    1    2    0    0 -0.35836974475E+01  0.89631402477E+02 -0.52343782295E+03  0.54558016920E+03  0.12499574126E+03 0.  0.
          2    1    1    2  501    0 -0.29780936999E+02 -0.33505028551E+02 -0.23797314458E+04  0.23801536180E+04  0.00000000000E+00 0. -1.
          1    1    1    2  502    0  0.33364634446E+02 -0.56126373926E+02  0.91765045191E+02  0.11262411909E+03  0.00000000000E+00 0. -1.
         22    1    3    3    0    0 -0.47793337097E+02  0.96333404946E+02 -0.33165566402E+03  0.34865428071E+03  0.00000000000E+00 0. -1.
         22    1    3    3    0    0  0.44209639649E+02 -0.67020024688E+01 -0.19178215892E+03  0.19692588849E+03  0.00000000000E+00 0. -1.
</event>
<event>
 7    1  0.5931885E-006  0.5636578E+02  0.7818608E-02  0.1499531E+00
          2   -1    0    0  502    0  0.00000000000E+00  0.00000000000E+00  0.78831583542E+02  0.78831583542E+02  0.00000000000E+00 0. -1.
          1   -1    0    0  501    0 -0.00000000000E+00 -0.00000000000E+00 -0.16074485108E+04  0.16074485108E+04  0.00000000000E+00 0. -1.
         25    2    1    2    0    0  0.60889699089E+02  0.10634875995E+00 -0.10710966911E+02  0.13945329124E+03  0.12499971545E+03 0.  0.
          2    1    1    2  501    0 -0.11905548187E+02  0.27668309230E+02 -0.14768044075E+04  0.14771115514E+04  0.00000000000E+00 0. -1.
          1    1    1    2  502    0 -0.48984150901E+02 -0.27774657990E+02 -0.41101552848E+02  0.69715251649E+02  0.00000000000E+00 0. -1.
         22    1    3    3    0    0  0.34172149716E+02  0.14614966223E+02 -0.66349565955E+02  0.76049970127E+02  0.00000000000E+00 0. -1.
         22    1    3    3    0    0  0.26717549372E+02 -0.14508617463E+02  0.55638599044E+02  0.63403321117E+02  0.00000000000E+00 0. -1.
</event>
<event>
 7    1  0.5931885E-006  0.1030211E+03  0.7818608E-02  0.1425001E+00
          2   -1    0    0  502    0  0.00000000000E+00  0.00000000000E+00  0.21066867205E+04  0.21066867205E+04  0.00000000000E+00 0. -1.
          1   -1    0    0  501    0 -0.00000000000E+00 -0.00000000000E+00 -0.34492453837E+03  0.34492453837E+03  0.00000000000E+00 0. -1.
         25    2    1    2    0    0 -0.14455327022E+02 -0.92610473907E+02 -0.33977847707E+02  0.15989421041E+03  0.12500403206E+03 0.  0.
          2    1    1    2  501    0  0.26500007344E+02 -0.98758809724E+01 -0.24587487697E+03  0.24749593641E+03  0.00000000000E+00 0. -1.
          1    1    1    2  502    0 -0.12044680322E+02  0.10248635488E+03  0.20416149068E+04  0.20442211120E+04  0.00000000000E+00 0. -1.
         22    1    3    3    0    0  0.40183227777E+02 -0.51152699002E+02  0.24752003373E+02  0.69598506311E+02  0.00000000000E+00 0. -1.
         22    1    3    3    0    0 -0.54638554800E+02 -0.41457774905E+02 -0.58729851080E+02  0.90295704098E+02  0.00000000000E+00 0. -1.
</event>
<event>
 7    1  0.5931885E-006  0.1041457E+03  0.7818608E-02  0.1338740E+00
          2   -1    0    0  502    0  0.00000000000E+00  0.00000000000E+00  0.73083457646E+03  0.73083457646E+03  0.00000000000E+00 0. -1.
          1   -1    0    0  501    0 -0.00000000000E+00 -0.00000000000E+00 -0.45612603352E+03  0.45612603352E+03  0.00000000000E+00 0. -1.
         25    2    1    2    0    0 -0.75188956774E+02  0.14076825551E+03  0.31411121649E+03  0.37384489446E+03  0.12500027122E+03 0.  0.
          2    1    1    2  501    0  0.48027159325E+02 -0.91270300669E+02 -0.41789588616E+03  0.43043448687E+03  0.00000000000E+00 0. -1.
          1    1    1    2  502    0  0.27161797449E+02 -0.49497954843E+02  0.37849321261E+03  0.38268122865E+03  0.00000000000E+00 0. -1.
         22    1    3    3    0    0  0.34950573546E+02  0.25339330287E+02  0.67635197624E+02  0.80238047136E+02  0.00000000000E+00 0.  1.
         22    1    3    3    0    0 -0.11013953032E+03  0.11542892522E+03  0.24647601887E+03  0.29360684732E+03  0.00000000000E+00 0.  1.
</event>
<event>
 7    1  0.5931885E-006  0.7897349E+02  0.7818608E-02  0.1494100E+00
          2   -1    0    0  502    0  0.00000000000E+00  0.00000000000E+00  0.59472149100E+03  0.59472149100E+03  0.00000000000E+00 0. -1.
          1   -1    0    0  501    0 -0.00000000000E+00 -0.00000000000E+00 -0.55952254942E+03  0.55952254942E+03  0.00000000000E+00 0. -1.
         25    2    1    2    0    0 -0.44589180702E+02 -0.75540635957E+02  0.68943959928E+02  0.16755077520E+03  0.12500163976E+03 0.  0.
          2    1    1    2  501    0  0.22269830989E+02  0.75603118044E+02 -0.50691083277E+03  0.51300133452E+03  0.00000000000E+00 0. -1.
          1    1    1    2  502    0  0.22319349713E+02 -0.62482086850E-01  0.47316581443E+03  0.47369193071E+03  0.00000000000E+00 0. -1.
         22    1    3    3    0    0  0.29500027385E+02 -0.23399195653E+02 -0.18220833078E+02  0.41830284854E+02  0.00000000000E+00 0.  1.
         22    1    3    3    0    0 -0.74089208088E+02 -0.52141440304E+02  0.87164793006E+02  0.12572049034E+03  0.00000000000E+00 0.  1.
</event>
<event>
 7    1  0.5931885E-006  0.6204174E+02  0.7818608E-02  0.1402551E+00
          2   -1    0    0  502    0  0.00000000000E+00  0.00000000000E+00  0.23649129506E+04  0.23649129506E+04  0.00000000000E+00 0. -1.
          1   -1    0    0  501    0 -0.00000000000E+00 -0.00000000000E+00 -0.37634767028E+03  0.37634767028E+03  0.00000000000E+00 0. -1.
         25    2    1    2    0    0  0.62246544011E+00  0.12876406379E+02  0.52848425453E+02  0.13632639767E+03  0.12500296526E+03 0.  0.
          2    1    1    2  501    0  0.45022545258E+02 -0.45142249405E+02 -0.33122400890E+03  0.33730430820E+03  0.00000000000E+00 0. -1.
          1    1    1    2  502    0 -0.45645010698E+02  0.32265843027E+02  0.22669408637E+04  0.22676299150E+04  0.00000000000E+00 0. -1.
         22    1    3    3    0    0  0.50440529947E+02  0.16493174445E+02  0.65986034924E+02  0.84678383721E+02  0.00000000000E+00 0.  1.
         22    1    3    3    0    0 -0.49818064507E+02 -0.36167680669E+01 -0.13137609471E+02  0.51648013951E+02  0.00000000000E+00 0.  1.
</event>
<event>
 7    1  0.5931885E-006  0.5731665E+02  0.7818608E-02  0.1455211E+00
          2   -1    0    0  502    0  0.00000000000E+00  0.00000000000E+00  0.81022016184E+03  0.81022016184E+03  0.00000000000E+00 0. -1.
          1   -1    0    0  501    0 -0.00000000000E+00 -0.00000000000E+00 -0.44423263329E+02  0.44423263329E+02  0.00000000000E+00 0. -1.
         25    2    1    2    0    0 -0.56126358353E+02 -0.43745086622E+02  0.24433761862E+03  0.28352506626E+03  0.12498716181E+03 0.  0.
          2    1    1    2  501    0  0.56868913447E+02  0.31921892417E+01  0.97291743936E+01  0.57783390548E+02  0.00000000000E+00 0. -1.
          1    1    1    2  502    0 -0.74255509419E+00  0.40552897380E+02  0.51173010549E+03  0.51333496836E+03  0.00000000000E+00 0. -1.
         22    1    3    3    0    0 -0.92847434521E+02 -0.20973717537E+02  0.12867828060E+03  0.16005824821E+03  0.00000000000E+00 0. -1.
         22    1    3    3    0    0  0.36721076168E+02 -0.22771369085E+02  0.11565933803E+03  0.12346681804E+03  0.00000000000E+00 0. -1.
</event>
<event>
 7    1  0.5931885E-006  0.4497023E+02  0.7818608E-02  0.1485075E+00
          2   -1    0    0  502    0  0.00000000000E+00  0.00000000000E+00  0.13038340843E+03  0.13038340843E+03  0.00000000000E+00 0. -1.
          1   -1    0    0  501    0 -0.00000000000E+00 -0.00000000000E+00 -0.22482650256E+03  0.22482650256E+03  0.00000000000E+00 0. -1.
         25    2    1    2    0    0 -0.57309118931E+02  0.58281487315E+01  0.41590576698E+02  0.14375839868E+03  0.12497359198E+03 0.  0.
          2    1    1    2  501    0  0.29375396312E+02  0.29654348319E+02 -0.15642799831E+03  0.16190124440E+03  0.00000000000E+00 0. -1.
          1    1    1    2  502    0  0.27933722619E+02 -0.35482497051E+02  0.20394327475E+02  0.49550267905E+02  0.00000000000E+00 0. -1.
         22    1    3    3    0    0 -0.55480005382E+02  0.52758089237E+02  0.55746943899E+02  0.94705695347E+02  0.00000000000E+00 0.  1.
         22    1    3    3    0    0 -0.18291135486E+01 -0.46929940505E+02 -0.14156367201E+02  0.49052703336E+02  0.00000000000E+00 0.  1.
</event>
<event>
 7    1  0.5931885E-006  0.8911886E+02  0.7818608E-02  0.1322067E+00
          2   -1    0    0  502    0  0.00000000000E+00  0.00000000000E+00  0.25646941241E+04  0.25646941241E+04  0.00000000000E+00 0. -1.
          1   -1    0    0  501    0 -0.00000000000E+00 -0.00000000000E+00 -0.13237598141E+03  0.13237598141E+03  0.00000000000E+00 0. -1.
         25    2    1    2    0    0  0.93933679551E+02 -0.11723061600E+03  0.38174714058E+03  0.42886200690E+03  0.12500075256E+03 0.  0.
          2    1    1    2  501    0 -0.75469809078E+02  0.43098470554E+02 -0.90675342612E+02  0.12559931530E+03  0.00000000000E+00 0. -1.
          1    1    1    2  502    0 -0.18463870473E+02  0.74132145450E+02  0.21412463447E+04  0.21426087833E+04  0.00000000000E+00 0. -1.
         22    1    3    3    0    0 -0.15256092100E+02 -0.29428978573E+02  0.18126652532E+03  0.18427253275E+03  0.00000000000E+00 0. -1.
         22    1    3    3    0    0  0.10918977165E+03 -0.87801637431E+02  0.20048061526E+03  0.24458947415E+03  0.00000000000E+00 0. -1.
</event>
<event>
 7    1  0.5931885E-006  0.1183768E+03  0.7818608E-02  0.1301753E+00
          2   -1    0    0  502    0  0.00000000000E+00  0.00000000000E+00  0.38317866014E+04  0.38317866014E+04  0.00000000000E+00 0. -1.
          1   -1    0    0  501    0 -0.00000000000E+00 -0.00000000000E+00 -0.33057558164E+02  0.33057558164E+02  0.00000000000E+00 0. -1.
         25    2    1    2    0    0 -0.15434152039E+03 -0.12914735347E+02  0.15222032474E+04  0.15351598373E+04  0.12499961832E+03 0.  0.
          2    1    1    2  501    0  0.47878633488E+02  0.49851116003E+02  0.22276985985E+02  0.72620667967E+02  0.00000000000E+00 0. -1.
          1    1    1    2  502    0  0.10646288691E+03 -0.36936380656E+02  0.22542488099E+04  0.22570636542E+04  0.00000000000E+00 0. -1.
         22    1    3    3    0    0 -0.12296957954E+03 -0.56245492991E+02  0.83507354951E+03  0.84595088868E+03  0.00000000000E+00 0. -1.
         22    1    3    3    0    0 -0.31371940858E+02  0.43330757644E+02  0.68712969786E+03  0.68920894866E+03  0.00000000000E+00 0. -1.
</event>
<event>
 7    1  0.5931885E-006  0.1073156E+03  0.7818608E-02  0.1400467E+00
          2   -1    0    0  502    0  0.00000000000E+00  0.00000000000E+00  0.38510593130E+03  0.38510593130E+03  0.00000000000E+00 0. -1.
          1   -1    0    0  501    0 -0.00000000000E+00 -0.00000000000E+00 -0.40533093013E+03  0.40533093013E+03  0.00000000000E+00 0. -1.
         25    2    1    2    0    0 -0.11583048618E+03  0.53045644869E+02 -0.13384977057E+03  0.22309487236E+03  0.12500007609E+03 0.  0.
          2    1    1    2  501    0  0.11691837851E+02 -0.30701321671E+02 -0.21726399230E+03  0.21973373108E+03  0.00000000000E+00 0. -1.
          1    1    1    2  502    0  0.10413864833E+03 -0.22344323198E+02  0.33088876404E+03  0.34760825799E+03  0.00000000000E+00 0. -1.
         22    1    3    3    0    0 -0.27545427265E+02 -0.17987444127E+02 -0.99335621080E+02  0.10464159940E+03  0.00000000000E+00 0. -1.
         22    1    3    3    0    0 -0.88285058913E+02  0.71033088997E+02 -0.34514149492E+02  0.11845327296E+03  0.00000000000E+00 0. -1.
</event>
<event>
 7    1  0.5931885E-006  0.1077033E+03  0.7818608E-02  0.1309924E+00
          2   -1    0    0  502    0  0.00000000000E+00  0.00000000000E+00  0.15857498239E+04  0.15857498239E+04  0.00000000000E+00 0. -1.
          1   -1    0    0  501    0 -0.00000000000E+00 -0.00000000000E+00 -0.84740512157E+03  0.84740512157E+03  0.00000000000E+00 0. -1.
         25    2    1    2    0    0  0.61878541894E+01  0.56562789724E+02  0.41044378468E+02  0.14334145007E+03  0.12499796632E+03 0.  0.
          2    1    1    2  501    0 -0.57448162251E+02  0.40876099249E+02 -0.79266063784E+03  0.79579019448E+03  0.00000000000E+00 0. -1.
          1    1    1    2  502    0  0.51260308062E+02 -0.97438888973E+02  0.14899609617E+04  0.14940233010E+04  0.00000000000E+00 0. -1.
         22    1    3    3    0    0 -0.53349326431E+02  0.44507488435E+02 -0.96684161006E+00  0.69483825025E+02  0.00000000000E+00 0. -1.
         22    1    3    3    0    0  0.59537180620E+02  0.12055301289E+02  0.42011220078E+02  0.73857625048E+02  0.00000000000E+00 0. -1.
</event>
<event>
 7    1  0.5931885E-006  0.7511967E+02  0.7818608E-02  0.1386625E+00
          2   -1    0    0  502    0  0.00000000000E+00  0.00000000000E+00  0.33951220740E+03  0.33951220740E+03  0.00000000000E+00 0. -1.
          1   -1    0    0  501    0 -0.00000000000E+00 -0.00000000000E+00 -0.34538397630E+03  0.34538397630E+03  0.00000000000E+00 0. -1.
         25    2    1    2    0    0  0.53724543093E+02 -0.11099037870E+03 -0.98417879491E+02  0.20127273699E+03  0.12497777785E+03 0.  0.
          2    1    1    2  501    0 -0.33765327456E+02  0.40101954562E+02 -0.18717104321E+03  0.19437402994E+03  0.00000000000E+00 0. -1.
          1    1    1    2  502    0 -0.19959215636E+02  0.70888424143E+02  0.27971715381E+03  0.28924941677E+03  0.00000000000E+00 0. -1.
         22    1    3    3    0    0  0.42652465310E+02 -0.53556418863E+02  0.18169606121E+02  0.70835424648E+02  0.00000000000E+00 0. -1.
         22    1    3    3    0    0  0.11072077782E+02 -0.57433959842E+02 -0.11658748561E+03  0.13043731234E+03  0.00000000000E+00 0. -1.
</event>
<event>
 7    1  0.5931885E-006  0.3269802E+02  0.7818608E-02  0.1592688E+00
          2   -1    0    0  502    0  0.00000000000E+00  0.00000000000E+00  0.39700924927E+03  0.39700924927E+03  0.00000000000E+00 0. -1.
          1   -1    0    0  501    0 -0.00000000000E+00 -0.00000000000E+00 -0.19717036236E+04  0.19717036236E+04  0.00000000000E+00 0. -1.
         25    2    1    2    0    0  0.25681726407E+02 -0.21199560838E+01 -0.67815164438E+03  0.69005617270E+03  0.12499529360E+03 0.  0.
          2    1    1    2  501    0 -0.55326863355E+01  0.27895730564E+02 -0.12867580407E+04  0.12870722737E+04  0.00000000000E+00 0. -1.
          1    1    1    2  502    0 -0.20149040072E+02 -0.25775774480E+02  0.39021531072E+03  0.39158442651E+03  0.00000000000E+00 0. -1.
         22    1    3    3    0    0  0.43930695478E+01  0.41965497541E+02 -0.85091044622E+02  0.94978355001E+02  0.00000000000E+00 0.  1.
         22    1    3    3    0    0  0.21288656860E+02 -0.44085453625E+02 -0.59306059976E+03  0.59507781770E+03  0.00000000000E+00 0.  1.
</event>
<event>
 7    1  0.5931885E-006  0.7607121E+02  0.7818608E-02  0.1430208E+00
          2   -1    0    0  502    0  0.00000000000E+00  0.00000000000E+00  0.90119570454E+03  0.90119570454E+03  0.00000000000E+00 0. -1.
          1   -1    0    0  501    0 -0.00000000000E+00 -0.00000000000E+00 -0.81199605798E+02  0.81199605798E+02  0.00000000000E+00 0. -1.
         25    2    1    2    0    0  0.78902423092E+01  0.11148883154E+03  0.67342476515E+03  0.69398691836E+03  0.12499965221E+03 0.  0.
          2    1    1    2  501    0 -0.69385186620E+01 -0.74689094167E+02 -0.48872989564E+02  0.89527498220E+02  0.00000000000E+00 0. -1.
          1    1    1    2  502    0 -0.95172364719E+00 -0.36799737370E+02  0.19544432315E+03  0.19888089376E+03  0.00000000000E+00 0. -1.
         22    1    3    3    0    0  0.21839166443E+02  0.43450168168E+01  0.15217664873E+02  0.26970459512E+02  0.00000000000E+00 0.  1.
         22    1    3    3    0    0 -0.13948924134E+02  0.10714381472E+03  0.65820710028E+03  0.66701645885E+03  0.00000000000E+00 0.  1.
</event>
<event>
 7    1  0.5931885E-006  0.5371684E+02  0.7818608E-02  0.1452070E+00
          2   -1    0    0  502    0  0.00000000000E+00  0.00000000000E+00  0.19770354497E+04  0.19770354497E+04  0.00000000000E+00 0. -1.
          1   -1    0    0  501    0 -0.00000000000E+00 -0.00000000000E+00 -0.19695501926E+03  0.19695501926E+03  0.00000000000E+00 0. -1.
         25    2    1    2    0    0 -0.63570698066E+02 -0.18081566850E+02 -0.64514167305E+02  0.15541827739E+03  0.12499834580E+03 0.  0.
          2    1    1    2  501    0  0.48587815070E+02 -0.23592570346E+02 -0.78324835803E+02  0.95142866535E+02  0.00000000000E+00 0. -1.
          1    1    1    2  502    0  0.14982882996E+02  0.41674137196E+02  0.19229194335E+04  0.19234293250E+04  0.00000000000E+00 0. -1.
         22    1    3    3    0    0 -0.31999588458E+02  0.57840410606E+01 -0.98201711143E+02  0.10344566141E+03  0.00000000000E+00 0. -1.
         22    1    3    3    0    0 -0.31571109608E+02 -0.23865607910E+02  0.33687543838E+02  0.51972615988E+02  0.00000000000E+00 0. -1.
</event>
<event>
 7    1  0.5931885E-006  0.7753774E+02  0.7818608E-02  0.1359986E+00
          2   -1    0    0  502    0  0.00000000000E+00  0.00000000000E+00  0.14191785482E+04  0.14191785482E+04  0.00000000000E+00 0. -1.
          1   -1    0    0  501    0 -0.00000000000E+00 -0.00000000000E+00 -0.33861916432E+02  0.33861916432E+02  0.00000000000E+00 0. -1.
         25    2    1    2    0    0 -0.23848089539E+02  0.29673732138E+02  0.34495286380E+03  0.36886993824E+03  0.12499316518E+03 0.  0.
          2    1    1    2  501    0  0.86834006320E+02 -0.23881063019E+02  0.76301296498E+02  0.11803532383E+03  0.00000000000E+00 0. -1.
          1    1    1    2  502    0 -0.62985916781E+02 -0.57926691191E+01  0.96406247147E+03  0.96613520256E+03  0.00000000000E+00 0. -1.
         22    1    3    3    0    0 -0.43964901070E+02  0.55869729538E+02  0.31910644011E+03  0.32693005265E+03  0.00000000000E+00 0.  1.
         22    1    3    3    0    0  0.20116811531E+02 -0.26195997400E+02  0.25846423689E+02  0.41939885592E+02  0.00000000000E+00 0.  1.
</event>
<event>
 7    1  0.5931885E-006  0.4046492E+02  0.7818608E-02  0.1519700E+00
          2   -1    0    0  502    0  0.00000000000E+00  0.00000000000E+00  0.13611985273E+03  0.13611985273E+03  0.00000000000E+00 0. -1.
          1   -1    0    0  501    0 -0.00000000000E+00 -0.00000000000E+00 -0.13277307875E+04  0.13277307875E+04  0.00000000000E+00 0. -1.
         25    2    1    2    0    0  0.63958467248E+02  0.29648929117E+02 -0.10980498714E+04  0.11073879255E+04  0.12499901150E+03 0.  0.
          2    1    1    2  501    0 -0.23598865647E+02 -0.27967519122E+02 -0.22036370714E+03  0.22338140480E+03  0.00000000000E+00 0. -1.
          1    1    1    2  502    0 -0.40359601601E+02 -0.16814099946E+01  0.12680264379E+03  0.13308130993E+03  0.00000000000E+00 0. -1.
         22    1    3    3    0    0  0.82376575744E+02  0.48515935968E+02 -0.10297049591E+04  0.10341334533E+04  0.00000000000E+00 0. -1.
         22    1    3    3    0    0 -0.18418108495E+02 -0.18867006851E+02 -0.68344912302E+02  0.73254472256E+02  0.00000000000E+00 0. -1.
</event>
<event>
 7    1  0.5931885E-006  0.9653690E+02  0.7818608E-02  0.1318728E+00
          2   -1    0    0  502    0  0.00000000000E+00  0.00000000000E+00  0.84466798547E+03  0.84466798547E+03  0.00000000000E+00 0. -1.
          1   -1    0    0  501    0 -0.00000000000E+00 -0.00000000000E+00 -0.43189150968E+03  0.43189150968E+03  0.00000000000E+00 0. -1.
         25    2    1    2    0    0  0.14742024459E+03  0.69118882422E+02  0.77964506251E+02  0.21957616112E+03  0.12500031150E+03 0.  0.
          2    1    1    2  501    0 -0.90950312984E+02 -0.23394391317E+02 -0.35303352119E+03  0.36531072262E+03  0.00000000000E+00 0. -1.
          1    1    1    2  502    0 -0.56469931603E+02 -0.45724491104E+02  0.68784549072E+03  0.69167261141E+03  0.00000000000E+00 0. -1.
         22    1    3    3    0    0  0.10361054776E+03  0.31211116654E+02 -0.15801034329E+02  0.10935699381E+03  0.00000000000E+00 0.  1.
         22    1    3    3    0    0  0.43809696826E+02  0.37907765767E+02  0.93765540579E+02  0.11021916731E+03  0.00000000000E+00 0.  1.
</event>
<event>
 7    1  0.5931885E-006  0.1090246E+03  0.7818608E-02  0.1456817E+00
          2   -1    0    0  502    0  0.00000000000E+00  0.00000000000E+00  0.17721050645E+03  0.17721050645E+03  0.00000000000E+00 0. -1.
          1   -1    0    0  501    0 -0.00000000000E+00 -0.00000000000E+00 -0.17062473567E+04  0.17062473567E+04  0.00000000000E+00 0. -1.
         25    2    1    2    0    0  0.82478108638E+02  0.59267623635E+02 -0.27002605249E+03  0.31441163427E+03  0.12500126850E+03 0.  0.
          2    1    1    2  501    0  0.16786883505E+02 -0.12740981307E+02 -0.13945568530E+04  0.13947160816E+04  0.00000000000E+00 0. -1.
          1    1    1    2  502    0 -0.99264992143E+02 -0.46526642328E+02  0.13554605531E+03  0.17433014720E+03  0.00000000000E+00 0. -1.
         22    1    3    3    0    0  0.57561042156E+02  0.91680139357E+02 -0.13338203495E+03  0.17178267891E+03  0.00000000000E+00 0. -1.
         22    1    3    3    0    0  0.24917066482E+02 -0.32412515722E+02 -0.13664401754E+03  0.14262895536E+03  0.00000000000E+00 0. -1.
</event>
<event>
 7    1  0.5931885E-006  0.1582188E+03  0.7818608E-02  0.1370003E+00
          2   -1    0    0  502    0  0.00000000000E+00  0.00000000000E+00  0.10969835867E+04  0.10969835867E+04  0.00000000000E+00 0. -1.
          1   -1    0    0  501    0 -0.00000000000E+00 -0.00000000000E+00 -0.27587049755E+03  0.27587049755E+03  0.00000000000E+00 0. -1.
         25    2    1    2    0    0 -0.16815810224E+02 -0.18448827483E+03  0.43025847552E+03  0.48483711909E+03  0.12500392500E+03 0.  0.
          2    1    1    2  501    0  0.13326872913E+02  0.15618933864E+03 -0.22350463549E+03  0.27299640498E+03  0.00000000000E+00 0. -1.
          1    1    1    2  502    0  0.34889373105E+01  0.28298936196E+02  0.61435924916E+03  0.61502056023E+03  0.00000000000E+00 0. -1.
         22    1    3    3    0    0 -0.78890246535E+01 -0.20280478283E+03  0.38566761460E+03  0.43581134175E+03  0.00000000000E+00 0. -1.
         22    1    3    3    0    0 -0.89267855701E+01  0.18316507997E+02  0.44590860925E+02  0.49025777340E+02  0.00000000000E+00 0. -1.
</event>
<event>
 7    1  0.5931885E-006  0.6935041E+02  0.7818608E-02  0.1470378E+00
          2   -1    0    0  502    0  0.00000000000E+00  0.00000000000E+00  0.99606061153E+03  0.99606061153E+03  0.00000000000E+00 0. -1.
          1   -1    0    0  501    0 -0.00000000000E+00 -0.00000000000E+00 -0.22162041958E+04  0.22162041958E+04  0.00000000000E+00 0. -1.
         25    2    1    2    0    0  0.45675573526E+02 -0.39338965222E+01 -0.94770777320E+02  0.16340769605E+03  0.12497536292E+03 0.  0.
          2    1    1    2  501    0  0.18083117019E+02 -0.23984661435E+02 -0.20857473433E+04  0.20859636246E+04  0.00000000000E+00 0. -1.
          1    1    1    2  502    0 -0.63758690545E+02  0.27918557958E+02  0.96037453638E+03  0.96289348664E+03  0.00000000000E+00 0. -1.
         22    1    3    3    0    0 -0.25782532693E+02 -0.25542131588E+02  0.72306375746E+01  0.37005696830E+02  0.00000000000E+00 0.  1.
         22    1    3    3    0    0  0.71458106219E+02  0.21608235066E+02 -0.10200141489E+03  0.12640199922E+03  0.00000000000E+00 0.  1.
</event>
<event>
 7    1  0.5931885E-006  0.5956609E+02  0.7818608E-02  0.1448171E+00
          2   -1    0    0  502    0  0.00000000000E+00  0.00000000000E+00  0.16011633449E+03  0.16011633449E+03  0.00000000000E+00 0. -1.
          1   -1    0    0  501    0 -0.00000000000E+00 -0.00000000000E+00 -0.15109437754E+03  0.15109437754E+03  0.00000000000E+00 0. -1.
         25    2    1    2    0    0 -0.20016560104E+02  0.69309452333E+02 -0.47913749499E+01  0.14440325145E+03  0.12499951558E+03 0.  0.
          2    1    1    2  501    0  0.38970720057E+02 -0.13058547566E+02 -0.59600968623E+02  0.72398329725E+02  0.00000000000E+00 0. -1.
          1    1    1    2  502    0 -0.18954159952E+02 -0.56250904767E+02  0.73414300520E+02  0.94409130848E+02  0.00000000000E+00 0. -1.
         22    1    3    3    0    0 -0.58438420386E+02  0.84723171938E+02 -0.30108893999E+01  0.10296664652E+03  0.00000000000E+00 0.  1.
         22    1    3    3    0    0  0.38421860281E+02 -0.15413719605E+02 -0.17804855500E+01  0.41436604932E+02  0.00000000000E+00 0.  1.
</event>
<event>
 7    1  0.5931885E-006  0.9033911E+02  0.7818608E-02  0.1476295E+00
          2   -1    0    0  502    0  0.00000000000E+00  0.00000000000E+00  0.12323497129E+04  0.12323497129E+04  0.00000000000E+00 0. -1.
          1   -1    0    0  501    0 -0.00000000000E+00 -0.00000000000E+00 -0.23073658290E+02  0.23073658290E+02  0.00000000000E+00 0. -1.
         25    2    1    2    0    0  0.30254792473E+02 -0.86150981322E+02  0.82787873050E+03  0.84222777735E+03  0.12500836961E+03 0.  0.
          2    1    1    2  501    0 -0.21701441622E+02 -0.42115300284E+01  0.10103853972E+01  0.22129401987E+02  0.00000000000E+00 0. -1.
          1    1    1    2  502    0 -0.85533508513E+01  0.90362511351E+02  0.38038693874E+03  0.39106619188E+03  0.00000000000E+00 0. -1.
         22    1    3    3    0    0  0.27577932242E+02  0.26485731665E+02  0.30227903165E+03  0.30468778989E+03  0.00000000000E+00 0. -1.
         22    1    3    3    0    0  0.26768602318E+01 -0.11263671299E+03  0.52559969885E+03  0.53753998746E+03  0.00000000000E+00 0. -1.
</event>
<event>
 7    1  0.5931885E-006  0.1188372E+03  0.7818608E-02  0.1261705E+00
          2   -1    0    0  502    0  0.00000000000E+00  0.00000000000E+00  0.11748393229E+04  0.11748393229E+04  0.00000000000E+00 0. -1.
          1   -1    0    0  501    0 -0.00000000000E+00 -0.00000000000E+00 -0.23168292342E+03  0.23168292342E+03  0.00000000000E+00 0. -1.
         25    2    1    2    0    0 -0.90758354358E+02  0.12793004442E+03  0.16655219563E+03  0.26070517153E+03  0.12499750973E+03 0.  0.
          2    1    1    2  501    0 -0.23833228602E+02 -0.97831326412E+02 -0.16688976585E+03  0.19491327599E+03  0.00000000000E+00 0. -1.
          1    1    1    2  502    0  0.11459158296E+03 -0.30098718011E+02  0.94349396966E+03  0.95090379876E+03  0.00000000000E+00 0. -1.
         22    1    3    3    0    0 -0.49192118356E+02 -0.14585584772E+02  0.53314778108E+02  0.73993711599E+02  0.00000000000E+00 0. -1.
         22    1    3    3    0    0 -0.41566236002E+02  0.14251562920E+03  0.11323741753E+03  0.18671145993E+03  0.00000000000E+00 0. -1.
</event>
<event>
 7    1  0.5931885E-006  0.5324551E+02  0.7818608E-02  0.1438765E+00
          2   -1    0    0  502    0  0.00000000000E+00  0.00000000000E+00  0.17923803740E+04  0.17923803740E+04  0.00000000000E+00 0. -1.
          1   -1    0    0  501    0 -0.00000000000E+00 -0.00000000000E+00 -0.66222618580E+03  0.66222618580E+03  0.00000000000E+00 0. -1.
         25    2    1    2    0    0 -0.83716116453E+02 -0.10779709430E+02  0.29845424333E+02  0.15375431472E+03  0.12500019860E+03 0.  0.
          2    1    1    2  501    0  0.47777961104E+02 -0.22983709650E+02 -0.59874262853E+03  0.60108545124E+03  0.00000000000E+00 0. -1.
          1    1    1    2  502    0  0.35938155348E+02  0.33763419080E+02  0.16990513924E+04  0.16997667939E+04  0.00000000000E+00 0. -1.
         22    1    3    3    0    0  0.82988718851E+01 -0.38409527772E+02 -0.21529175034E+02  0.44807013691E+02  0.00000000000E+00 0. -1.
         22    1    3    3    0    0 -0.92014988338E+02  0.27629818342E+02  0.51374599367E+02  0.10894730102E+03  0.00000000000E+00 0. -1.
</event>
<event>
 7    1  0.5931885E-006  0.1654832E+03  0.7818608E-02  0.1276829E+00
          2   -1    0    0  502    0  0.00000000000E+00  0.00000000000E+00  0.33683162495E+03  0.33683162495E+03  0.00000000000E+00 0. -1.
          1   -1    0    0  501    0 -0.00000000000E+00 -0.00000000000E+00 -0.11696285578E+04  0.11696285578E+04  0.00000000000E+00 0. -1.
         25    2    1    2    0    0 -0.18400120335E+03 -0.10827874796E+03 -0.79742254050E+02  0.25993298338E+03  0.12500239468E+03 0.  0.
          2    1    1    2  501    0  0.15294205617E+03  0.54088016720E+02 -0.98912184415E+03  0.10023366743E+04  0.00000000000E+00 0. -1.
          1    1    1    2  502    0  0.31059147177E+02  0.54190731236E+02  0.23606716535E+03  0.24419052506E+03  0.00000000000E+00 0. -1.
         22    1    3    3    0    0 -0.13850429593E+03 -0.12832715008E+03 -0.32970669014E+02  0.19167253964E+03  0.00000000000E+00 0. -1.
         22    1    3    3    0    0 -0.45496907414E+02  0.20048402120E+02 -0.46771585036E+02  0.68260443733E+02  0.00000000000E+00 0. -1.
</event>
<event>
 7    1  0.5931885E-006  0.5502396E+02  0.7818608E-02  0.1428447E+00
          2   -1    0    0  502    0  0.00000000000E+00  0.00000000000E+00  0.10550860262E+04  0.10550860262E+04  0.00000000000E+00 0. -1.
          1   -1    0    0  501    0 -0.00000000000E+00 -0.00000000000E+00 -0.62376192439E+02  0.62376192439E+02  0.00000000000E+00 0. -1.
         25    2    1    2    0    0 -0.55775735600E+02 -0.18481902493E+01  0.30062680656E+03  0.33031746984E+03  0.12497521984E+03 0.  0.
          2    1    1    2  501    0  0.21477183092E+02  0.46893408786E+02 -0.32100682430E+02  0.60751255078E+02  0.00000000000E+00 0. -1.
          1    1    1    2  502    0  0.34298552509E+02 -0.45045218536E+02  0.72418370963E+03  0.72639349371E+03  0.00000000000E+00 0. -1.
         22    1    3    3    0    0  0.99214855858E+01  0.43554050234E+02  0.48921441431E+02  0.66247253526E+02  0.00000000000E+00 0.  1.
         22    1    3    3    0    0 -0.65697221186E+02 -0.45402240483E+02  0.25170536513E+03  0.26407021632E+03  0.00000000000E+00 0.  1.
</event>
<event>
 7    1  0.5931885E-006  0.8463137E+02  0.7818608E-02  0.1420331E+00
          2   -1    0    0  502    0  0.00000000000E+00  0.00000000000E+00  0.11776138477E+04  0.11776138477E+04  0.00000000000E+00 0. -1.
          1   -1    0    0  501    0 -0.00000000000E+00 -0.00000000000E+00 -0.26207899383E+03  0.26207899383E+03  0.00000000000E+00 0. -1.
         25    2    1    2    0    0 -0.36964401966E+02 -0.78467901615E+02 -0.50630487071E+02  0.16034653704E+03  0.12499594843E+03 0.  0.
          2    1    1    2  501    0  0.35132583214E+02 -0.62236757812E+01 -0.15293628098E+03  0.15704311059E+03  0.00000000000E+00 0. -1.
          1    1    1    2  502    0  0.18318187521E+01  0.84691577396E+02  0.11191016219E+04  0.11223031939E+04  0.00000000000E+00 0. -1.
         22    1    3    3    0    0  0.12687365814E+02 -0.17256628394E+02  0.36834095793E+02  0.42608814671E+02  0.00000000000E+00 0. -1.
         22    1    3    3    0    0 -0.49651767780E+02 -0.61211273221E+02 -0.87464582864E+02  0.11773772237E+03  0.00000000000E+00 0. -1.
</event>
<event>
 7    1  0.5931885E-006  0.3009463E+02  0.7818608E-02  0.1627729E+00
          2   -1    0    0  502    0  0.00000000000E+00  0.00000000000E+00  0.13721793229E+04  0.13721793229E+04  0.00000000000E+00 0. -1.
          1   -1    0    0  501    0 -0.00000000000E+00 -0.00000000000E+00 -0.18684391218E+03  0.18684391218E+03  0.00000000000E+00 0. -1.
         25    2    1    2    0    0 -0.19836373054E+02 -0.51373610361E+02  0.27831463875E+03  0.31003125107E+03  0.12501043540E+03 0.  0.
          2    1    1    2  501    0  0.11203396862E+02  0.27811190267E+02 -0.16952385893E+03  0.17215492195E+03  0.00000000000E+00 0. -1.
          1    1    1    2  502    0  0.86329761921E+01  0.23562420094E+02  0.10765446308E+04  0.10768370620E+04  0.00000000000E+00 0. -1.
         22    1    3    3    0    0  0.29110451908E+02  0.72325203446E+01  0.10877259470E+02  0.31906778816E+02  0.00000000000E+00 0.  1.
         22    1    3    3    0    0 -0.48946824962E+02 -0.58606130705E+02  0.26743737928E+03  0.27812447225E+03  0.00000000000E+00 0.  1.
</event>
<event>
 7    1  0.5931885E-006  0.8697188E+02  0.7818608E-02  0.1342664E+00
          2   -1    0    0  502    0  0.00000000000E+00  0.00000000000E+00  0.83179703099E+03  0.83179703099E+03  0.00000000000E+00 0. -1.
          1   -1    0    0  501    0 -0.00000000000E+00 -0.00000000000E+00 -0.10929285579E+03  0.10929285579E+03  0.00000000000E+00 0. -1.
         25    2    1    2    0    0  0.63317739862E+02  0.72409981024E+02  0.17833764579E+03  0.23807851494E+03  0.12499888735E+03 0.  0.
          2    1    1    2  501    0 -0.87650129974E+02 -0.11756209515E+02 -0.52454762672E+02  0.10282147574E+03  0.00000000000E+00 0. -1.
          1    1    1    2  502    0  0.24332390112E+02 -0.60653771509E+02  0.59662129208E+03  0.60018989610E+03  0.00000000000E+00 0. -1.
         22    1    3    3    0    0 -0.17382197873E+02  0.14566395502E+02 -0.10298424253E+02  0.24907392937E+02  0.00000000000E+00 0. -1.
         22    1    3    3    0    0  0.80699937734E+02  0.57843585522E+02  0.18863607004E+03  0.21317112200E+03  0.00000000000E+00 0. -1.
</event>
<event>
 7    1  0.5931885E-006  0.1023917E+03  0.7818608E-02  0.1324298E+00
          2   -1    0    0  502    0  0.00000000000E+00  0.00000000000E+00  0.28905541322E+04  0.28905541322E+04  0.00000000000E+00 0. -1.
          1   -1    0    0  501    0 -0.00000000000E+00 -0.00000000000E+00 -0.47660366259E+02  0.47660366259E+02  0.00000000000E+00 0. -1.
         25    2    1    2    0    0 -0.82281819990E+02  0.98129266712E+02  0.11903714101E+04  0.12037471429E+04  0.12499375654E+03 0.  0.
          2    1    1    2  501    0 -0.11456591044E+02 -0.64173422174E+02 -0.12573351914E+02  0.66389538108E+02  0.00000000000E+00 0. -1.
          1    1    1    2  502    0  0.93738411035E+02 -0.33955844538E+02  0.16650957077E+04  0.16680778174E+04  0.00000000000E+00 0. -1.
         22    1    3    3    0    0  0.32931794692E+02  0.11930818208E+02  0.22392846861E+03  0.22665128850E+03  0.00000000000E+00 0.  1.
         22    1    3    3    0    0 -0.11521361468E+03  0.86198448505E+02  0.96644294149E+03  0.97709585440E+03  0.00000000000E+00 0.  1.
</event>
<event>
 7    1  0.5931885E-006  0.6801869E+02  0.7818608E-02  0.1403762E+00
          2   -1    0    0  502    0  0.00000000000E+00  0.00000000000E+00  0.35088456498E+04  0.35088456498E+04  0.00000000000E+00 0. -1.
          1   -1    0    0  501    0 -0.00000000000E+00 -0.00000000000E+00 -0.72007199933E+02  0.72007199933E+02  0.00000000000E+00 0. -1.
         25    2    1    2    0    0  0.33318558696E+02  0.83575358507E+01  0.20607899414E+03  0.24346194217E+03  0.12500076280E+03 0.  0.
          2    1    1    2  501    0  0.26033461360E+02 -0.43274308457E+02 -0.40912622805E+02  0.64994227341E+02  0.00000000000E+00 0. -1.
          1    1    1    2  502    0 -0.59352020056E+02  0.34916772607E+02  0.32716720786E+04  0.32723966803E+04  0.00000000000E+00 0. -1.
         22    1    3    3    0    0  0.65386413770E+02  0.21104467440E+02  0.53642414033E+02  0.87168172144E+02  0.00000000000E+00 0.  1.
         22    1    3    3    0    0 -0.32067855074E+02 -0.12746931590E+02  0.15243658011E+03  0.15629377002E+03  0.00000000000E+00 0.  1.
</event>
<event>
 7    1  0.5931885E-006  0.8442693E+02  0.7818608E-02  0.1407702E+00
          2   -1    0    0  502    0  0.00000000000E+00  0.00000000000E+00  0.11894154266E+03  0.11894154266E+03  0.00000000000E+00 0. -1.
          1   -1    0    0  501    0 -0.00000000000E+00 -0.00000000000E+00 -0.75377692744E+03  0.75377692744E+03  0.00000000000E+00 0. -1.
         25    2    1    2    0    0  0.25118154870E+02  0.97517930741E+02 -0.10363471338E+02  0.16085003663E+03  0.12499865689E+03 0.  0.
          2    1    1    2  501    0  0.21385103360E+02 -0.33147833260E+02 -0.63096109949E+03  0.63219301686E+03  0.00000000000E+00 0. -1.
          1    1    1    2  502    0 -0.46503258229E+02 -0.64370097481E+02  0.64891860515E+01  0.79675416606E+02  0.00000000000E+00 0. -1.
         22    1    3    3    0    0 -0.10221561741E+02  0.78465528808E+02  0.46092347991E+02  0.91574145253E+02  0.00000000000E+00 0. -1.
         22    1    3    3    0    0  0.35339716611E+02  0.19052401932E+02 -0.56455819329E+02  0.69275891374E+02  0.00000000000E+00 0. -1.
</event>
<event>
 7    1  0.5931885E-006  0.5556866E+02  0.7818608E-02  0.1465077E+00
          2   -1    0    0  502    0  0.00000000000E+00  0.00000000000E+00  0.31007168775E+03  0.31007168775E+03  0.00000000000E+00 0. -1.
          1   -1    0    0  501    0 -0.00000000000E+00 -0.00000000000E+00 -0.24758620807E+03  0.24758620807E+03  0.00000000000E+00 0. -1.
         25    2    1    2    0    0 -0.87345374887E+02 -0.14496721249E+02  0.27791474098E+02  0.15568076747E+03  0.12499906354E+03 0.  0.
          2    1    1    2  501    0  0.49273116187E+02  0.22684436603E+02 -0.17782768469E+03  0.18591694136E+03  0.00000000000E+00 0. -1.
          1    1    1    2  502    0  0.38072258700E+02 -0.81877153544E+01  0.21252169028E+03  0.21606018699E+03  0.00000000000E+00 0. -1.
         22    1    3    3    0    0 -0.10270722045E+03 -0.48097581206E+02  0.78158641966E+01  0.11368042128E+03  0.00000000000E+00 0.  1.
         22    1    3    3    0    0  0.15361845561E+02  0.33600859958E+02  0.19975609901E+02  0.42000346188E+02  0.00000000000E+00 0.  1.
</event>
<event>
 7    1  0.5931885E-006  0.1152822E+03  0.7818608E-02  0.1374751E+00
          2   -1    0    0  502    0  0.00000000000E+00  0.00000000000E+00  0.42155481901E+03  0.42155481901E+03  0.00000000000E+00 0. -1.
          1   -1    0    0  501    0 -0.00000000000E+00 -0.00000000000E+00 -0.13403807892E+04  0.13403807892E+04  0.00000000000E+00 0. -1.
         25    2    1    2    0    0  0.35320824117E+01  0.97116928327E+02  0.14139228928E+03  0.21227779708E+03  0.12500364112E+03 0.  0.
          2    1    1    2  501    0  0.31328558826E+02 -0.11128559602E+03 -0.13009126307E+04  0.13060396760E+04  0.00000000000E+00 0. -1.
          1    1    1    2  502    0 -0.34860641238E+02  0.14168667693E+02  0.24069437122E+03  0.24361813518E+03  0.00000000000E+00 0. -1.
         22    1    3    3    0    0  0.59034155891E+02  0.40657620097E+02  0.99718035947E+02  0.12280781867E+03  0.00000000000E+00 0. -1.
         22    1    3    3    0    0 -0.55502073480E+02  0.56459308230E+02  0.41674253330E+02  0.89469978412E+02  0.00000000000E+00 0. -1.
</event>
<event>
 7    1  0.5931885E-006  0.7089473E+02  0.7818608E-02  0.1407563E+00
          2   -1    0    0  502    0  0.00000000000E+00  0.00000000000E+00  0.45007600087E+02  0.45007600087E+02  0.00000000000E+00 0. -1.
          1   -1    0    0  501    0 -0.00000000000E+00 -0.00000000000E+00 -0.11368261963E+04  0.11368261963E+04  0.00000000000E+00 0. -1.
         25    2    1    2    0    0  0.10028628663E+03 -0.43087891603E+02 -0.25369535983E+03  0.30315150917E+03  0.12500238486E+03 0.  0.
          2    1    1    2  501    0 -0.53262452928E+02  0.43719564164E+02 -0.82763528397E+03  0.83049891779E+03  0.00000000000E+00 0. -1.
          1    1    1    2  502    0 -0.47023833706E+02 -0.63167256198E+00 -0.10487952455E+02  0.48183369469E+02  0.00000000000E+00 0. -1.
         22    1    3    3    0    0  0.38422387621E+02 -0.31241172629E+02 -0.88137883317E+01  0.50298842954E+02  0.00000000000E+00 0. -1.
         22    1    3    3    0    0  0.61863899013E+02 -0.11846718973E+02 -0.24488157150E+03  0.25285266622E+03  0.00000000000E+00 0. -1.
</event>
<event>
 7    1  0.5931885E-006  0.1027083E+03  0.7818608E-02  0.1371637E+00
          2   -1    0    0  502    0  0.00000000000E+00  0.00000000000E+00  0.14356663291E+04  0.14356663291E+04  0.00000000000E+00 0. -1.
          1   -1    0    0  501    0 -0.00000000000E+00 -0.00000000000E+00 -0.19585188447E+03  0.19585188447E+03  0.00000000000E+00 0. -1.
         25    2    1    2    0    0  0.65321564228E+02 -0.67010496056E+02  0.21134077051E+03  0.26277504463E+03  0.12501395710E+03 0.  0.
          2    1    1    2  501    0 -0.30182043977E+02 -0.31095167671E+02 -0.16506772693E+03  0.17066112535E+03  0.00000000000E+00 0. -1.
          1    1    1    2  502    0 -0.35139520251E+02  0.98105663727E+02  0.11935414011E+04  0.11980820436E+04  0.00000000000E+00 0. -1.
         22    1    3    3    0    0 -0.31074422530E+01 -0.65296837363E+02  0.17158801504E+03  0.18361857225E+03  0.00000000000E+00 0.  1.
         22    1    3    3    0    0  0.68429006481E+02 -0.17136586927E+01  0.39752755463E+02  0.79156472389E+02  0.00000000000E+00 0.  1.
</event>
<event>
 7    1  0.5931885E-006  0.7366450E+02  0.7818608E-02  0.1361693E+00
          2   -1    0    0  502    0  0.00000000000E+00  0.00000000000E+00  0.26713463456E+04  0.26713463456E+04  0.00000000000E+00 0. -1.
          1   -1    0    0  501    0 -0.00000000000E+00 -0.00000000000E+00 -0.24929337207E+03  0.24929337207E+03  0.00000000000E+00 0. -1.
         25    2    1    2    0    0 -0.70194745706E+02 -0.11912115464E+03  0.34995493237E+03  0.39649897149E+03  0.12500331156E+03 0.  0.
          2    1    1    2  501    0  0.35923554304E+02  0.63149249565E+02 -0.21970111292E+03  0.23140204946E+03  0.00000000000E+00 0. -1.
          1    1    1    2  502    0  0.34271191401E+02  0.55971905079E+02  0.22917991541E+04  0.22927386967E+04  0.00000000000E+00 0. -1.
         22    1    3    3    0    0 -0.35358900035E+02 -0.13467392404E+03  0.31643750402E+03  0.34571666372E+03  0.00000000000E+00 0. -1.
         22    1    3    3    0    0 -0.34835845670E+02  0.15552769395E+02  0.33517428349E+02  0.50782307771E+02  0.00000000000E+00 0. -1.
</event>
<event>
 7    1  0.5931885E-006  0.3972412E+02  0.7818608E-02  0.1529191E+00
          2   -1    0    0  502    0  0.00000000000E+00  0.00000000000E+00  0.60334486889E+03  0.60334486889E+03  0.00000000000E+00 0. -1.
          1   -1    0    0  501    0 -0.00000000000E+00 -0.00000000000E+00 -0.25207007863E+04  0.25207007863E+04  0.00000000000E+00 0. -1.
         25    2    1    2    0    0 -0.64911355577E+01  0.48910356448E+02 -0.58000422429E+03  0.59536996972E+03  0.12500457131E+03 0.  0.
          2    1    1    2  501    0  0.30462943371E+02 -0.17227995664E+02 -0.19321925894E+04  0.19325095077E+04  0.00000000000E+00 0. -1.
          1    1    1    2  502    0 -0.23971807814E+02 -0.31682360784E+02  0.59484089631E+03  0.59616617774E+03  0.00000000000E+00 0. -1.
         22    1    3    3    0    0 -0.22375760942E+02  0.86077548449E+02 -0.46603441161E+03  0.47444503563E+03  0.00000000000E+00 0. -1.
         22    1    3    3    0    0  0.15884625385E+02 -0.37167192001E+02 -0.11396981267E+03  0.12092493409E+03  0.00000000000E+00 0. -1.
</event>
<event>
 7    1  0.5931885E-006  0.1855294E+03  0.7818608E-02  0.1388912E+00
          2   -1    0    0  502    0  0.00000000000E+00  0.00000000000E+00  0.81334038429E+03  0.81334038429E+03  0.00000000000E+00 0. -1.
          1   -1    0    0  501    0 -0.00000000000E+00 -0.00000000000E+00 -0.96380528093E+03  0.96380528093E+03  0.00000000000E+00 0. -1.
         25    2    1    2    0    0 -0.18617687559E+03 -0.73386158897E+02  0.10544288843E+02  0.23618548911E+03  0.12500018366E+03 0.  0.
          2    1    1    2  501    0  0.20046941746E+02 -0.56884700303E+01 -0.83858730845E+03  0.83884617925E+03  0.00000000000E+00 0. -1.
          1    1    1    2  502    0  0.16612993384E+03  0.79074628928E+02  0.67757812296E+03  0.70211399685E+03  0.00000000000E+00 0. -1.
         22    1    3    3    0    0 -0.50023680673E+02 -0.83495617930E+02  0.19862585936E+02  0.99339866930E+02  0.00000000000E+00 0.  1.
         22    1    3    3    0    0 -0.13615319492E+03  0.10109459032E+02 -0.93182970926E+01  0.13684562218E+03  0.00000000000E+00 0.  1.
</event>
<event>
 7    1  0.5931885E-006  0.5265283E+02  0.7818608E-02  0.1491542E+00
          2   -1    0    0  502    0  0.00000000000E+00  0.00000000000E+00  0.11568491555E+03  0.11568491555E+03  0.00000000000E+00 0. -1.
          1   -1    0    0  501    0 -0.00000000000E+00 -0.00000000000E+00 -0.78303053659E+03  0.78303053659E+03  0.00000000000E+00 0. -1.
         25    2    1    2    0    0  0.30228362839E+02 -0.20230552510E+02 -0.48470937253E+03  0.50188665539E+03  0.12499603939E+03 0.  0.
          2    1    1    2  501    0 -0.60016048843E+02  0.36809151613E+01 -0.28378971071E+03  0.29008977086E+03  0.00000000000E+00 0. -1.
          1    1    1    2  502    0  0.29787686004E+02  0.16549637349E+02  0.10115346220E+03  0.10673902589E+03  0.00000000000E+00 0. -1.
         22    1    3    3    0    0 -0.30886703986E+02  0.24275471081E+02 -0.29600855550E+03  0.29860400517E+03  0.00000000000E+00 0. -1.
         22    1    3    3    0    0  0.61115066825E+02 -0.44506023591E+02 -0.18870081703E+03  0.20328265021E+03  0.00000000000E+00 0. -1.
</event>
<event>
 7    1  0.5931885E-006  0.5339182E+02  0.7818608E-02  0.1496598E+00
          2   -1    0    0  502    0  0.00000000000E+00  0.00000000000E+00  0.29419343430E+03  0.29419343430E+03  0.00000000000E+00 0. -1.
          1   -1    0    0  501    0 -0.00000000000E+00 -0.00000000000E+00 -0.35865203121E+03  0.35865203121E+03  0.00000000000E+00 0. -1.
         25    2    1    2    0    0  0.25042581928E+02 -0.53736292251E+02 -0.15531289893E+02  0.13921516864E+03  0.12499968880E+03 0.  0.
          2    1    1    2  501    0  0.20306003092E+02  0.25308742325E+02 -0.27723779819E+03  0.27913018996E+03  0.00000000000E+00 0. -1.
          1    1    1    2  502    0 -0.45348585020E+02  0.28427549926E+02  0.22831049117E+03  0.23450010690E+03  0.00000000000E+00 0. -1.
         22    1    3    3    0    0 -0.48089110049E+02 -0.61741293886E+01  0.73225301310E+01  0.49033680532E+02  0.00000000000E+00 0. -1.
         22    1    3    3    0    0  0.73131691977E+02 -0.47562162863E+02 -0.22853820024E+02  0.90181488108E+02  0.00000000000E+00 0. -1.
</event>
<event>
 7    1  0.5931885E-006  0.6623459E+02  0.7818608E-02  0.1421372E+00
          2   -1    0    0  502    0  0.00000000000E+00  0.00000000000E+00  0.11472732790E+04  0.11472732790E+04  0.00000000000E+00 0. -1.
          1   -1    0    0  501    0 -0.00000000000E+00 -0.00000000000E+00 -0.44837264034E+02  0.44837264034E+02  0.00000000000E+00 0. -1.
         25    2    1    2    0    0  0.18542467342E+00 -0.34703939142E+02  0.19383352811E+03  0.23324370717E+03  0.12500716996E+03 0.  0.
          2    1    1    2  501    0 -0.39830089480E+02 -0.21424204523E+02 -0.23868990857E+01  0.45289401129E+02  0.00000000000E+00 0. -1.
          1    1    1    2  502    0  0.39644664806E+02  0.56128143666E+02  0.91098938594E+03  0.91357743474E+03  0.00000000000E+00 0. -1.
         22    1    3    3    0    0  0.16447109595E+01  0.37637598566E+02  0.13448235342E+03  0.13965957640E+03  0.00000000000E+00 0.  1.
         22    1    3    3    0    0 -0.14592862860E+01 -0.72341537709E+02  0.59351174699E+02  0.93584130774E+02  0.00000000000E+00 0.  1.
</event>
<event>
 7    1  0.5931885E-006  0.1502132E+03  0.7818608E-02  0.1366395E+00
          2   -1    0    0  502    0  0.00000000000E+00  0.00000000000E+00  0.92374316021E+02  0.92374316021E+02  0.00000000000E+00 0. -1.
          1   -1    0    0  501    0 -0.00000000000E+00 -0.00000000000E+00 -0.66926732882E+03  0.66926732882E+03  0.00000000000E+00 0. -1.
         25    2    1    2    0    0 -0.10224904126E+03  0.10291647608E+03 -0.19658235101E+03  0.27443919458E+03  0.12500233321E+03 0.  0.
          2    1    1    2  501    0  0.17746012936E+02  0.25351976207E+02 -0.32109302804E+03  0.32258080589E+03  0.00000000000E+00 0. -1.
          1    1    1    2  502    0  0.84503028324E+02 -0.12826845228E+03 -0.59217633750E+02  0.16462164437E+03  0.00000000000E+00 0. -1.
         22    1    3    3    0    0  0.24583522649E+02 -0.45713011419E+01 -0.30539960536E+02  0.39470692539E+02  0.00000000000E+00 0. -1.
         22    1    3    3    0    0 -0.12683256391E+03  0.10748777722E+03 -0.16604239047E+03  0.23496850205E+03  0.00000000000E+00 0. -1.
</event>
<event>
 7    1  0.5931885E-006  0.7027679E+02  0.7818608E-02  0.1373536E+00
          2   -1    0    0  502    0  0.00000000000E+00  0.00000000000E+00  0.87516428163E+03  0.87516428163E+03  0.00000000000E+00 0. -1.
          1   -1    0    0  501    0 -0.00000000000E+00 -0.00000000000E+00 -0.26546025469E+03  0.26546025469E+03  0.00000000000E+00 0. -1.
         25    2    1    2    0    0 -0.29092360044E+02 -0.11066602944E+03  0.51484381961E+03  0.54201706493E+03  0.12500001841E+03 0.  0.
          2    1    1    2  501    0  0.38651675463E+02  0.48922150846E+02 -0.24512446139E+03  0.25292949695E+03  0.00000000000E+00 0. -1.
          1    1    1    2  502    0 -0.95593154186E+01  0.61743878590E+02  0.33998466871E+03  0.34567797444E+03  0.00000000000E+00 0. -1.
         22    1    3    3    0    0  0.18031881279E+02  0.19083748394E+02  0.14270589725E+03  0.14510103826E+03  0.00000000000E+00 0.  1.
         22    1    3    3    0    0 -0.47124241323E+02 -0.12974977783E+03  0.37213792236E+03  0.39691602667E+03  0.00000000000E+00 0.  1.
</event>
<event>
 7    1  0.5931885E-006  0.9715019E+02  0.7818608E-02  0.1442347E+00
          2   -1    0    0  502    0  0.00000000000E+00  0.00000000000E+00  0.26327989010E+04  0.26327989010E+04  0.00000000000E+00 0. -1.
          1   -1    0    0  501    0 -0.00000000000E+00 -0.00000000000E+00 -0.30158050614E+03  0.30158050614E+03  0.00000000000E+00 0. -1.
         25    2    1    2    0    0 -0.31631662223E+02  0.65626713284E+02 -0.11234613795E+03  0.18317755483E+03  0.12499973731E+03 0.  0.
          2    1    1    2  501    0 -0.20438040188E+02  0.16572060309E+02 -0.15177499729E+03  0.15403894466E+03  0.00000000000E+00 0. -1.
          1    1    1    2  502    0  0.52069702411E+02 -0.82198773593E+02  0.25953395301E+04  0.25971629077E+04  0.00000000000E+00 0. -1.
         22    1    3    3    0    0 -0.41358432748E+02 -0.78129708392E+01 -0.99439736617E+02  0.10798066351E+03  0.00000000000E+00 0. -1.
         22    1    3    3    0    0  0.97267705249E+01  0.73439684123E+02 -0.12906401337E+02  0.75196891322E+02  0.00000000000E+00 0. -1.
</event>
<event>
 7    1  0.5931885E-006  0.6188592E+02  0.7818608E-02  0.1426849E+00
          2   -1    0    0  502    0  0.00000000000E+00  0.00000000000E+00  0.11855280074E+04  0.11855280074E+04  0.00000000000E+00 0. -1.
          1   -1    0    0  501    0 -0.00000000000E+00 -0.00000000000E+00 -0.47620867591E+02  0.47620867591E+02  0.00000000000E+00 0. -1.
         25    2    1    2    0    0 -0.16342642058E+02  0.51328093701E+02  0.76205445265E+03  0.77411733324E+03  0.12501600563E+03 0.  0.
          2    1    1    2  501    0 -0.29928021674E+02 -0.55045616937E+02 -0.15816666742E+02  0.64620997920E+02  0.00000000000E+00 0. -1.
          1    1    1    2  502    0  0.46270663732E+02  0.37175232365E+01  0.39166935389E+03  0.39441054382E+03  0.00000000000E+00 0. -1.
         22    1    3    3    0    0 -0.20036977879E+02 -0.38396190377E+02  0.17761549690E+03  0.18281961782E+03  0.00000000000E+00 0.  1.
         22    1    3    3    0    0  0.36943358219E+01  0.89724284078E+02  0.58443895574E+03  0.59129771542E+03  0.00000000000E+00 0.  1.
</event>
<event>
 7    1  0.5931885E-006  0.2572748E+03  0.7818608E-02  0.1134126E+00
          2   -1    0    0  502    0  0.00000000000E+00  0.00000000000E+00  0.17296746613E+04  0.17296746613E+04  0.00000000000E+00 0. -1.
          1   -1    0    0  501    0 -0.00000000000E+00 -0.00000000000E+00 -0.82528626567E+03  0.82528626567E+03  0.00000000000E+00 0. -1.
         25    2    1    2    0    0 -0.39578573882E+03  0.15304438263E+03  0.36015757789E+03  0.57044507550E+03  0.12500067660E+03 0.  0.
          2    1    1    2  501    0  0.24674002537E+03 -0.39170669984E+02 -0.69118093784E+03  0.73494630440E+03  0.00000000000E+00 0. -1.
          1    1    1    2  502    0  0.14904571344E+03 -0.11387371264E+03  0.12354117556E+04  0.12495695471E+04  0.00000000000E+00 0. -1.
         22    1    3    3    0    0 -0.23278203391E+03  0.13440788901E+03  0.27894312478E+03  0.38737865558E+03  0.00000000000E+00 0.  1.
         22    1    3    3    0    0 -0.16300370491E+03  0.18636493611E+02  0.81214453111E+02  0.18306641992E+03  0.00000000000E+00 0.  1.
</event>
<event>
 7    1  0.5931885E-006  0.5436500E+02  0.7818608E-02  0.1484354E+00
          2   -1    0    0  502    0  0.00000000000E+00  0.00000000000E+00  0.26134706418E+04  0.26134706418E+04  0.00000000000E+00 0. -1.
          1   -1    0    0  501    0 -0.00000000000E+00 -0.00000000000E+00 -0.76022971093E+03  0.76022971093E+03  0.00000000000E+00 0. -1.
         25    2    1    2    0    0  0.40516883858E+02  0.30798737444E+02  0.10674606544E+04  0.10759609062E+04  0.12501776975E+03 0.  0.
          2    1    1    2  501    0 -0.13564890944E+02 -0.52659074964E+02 -0.75480606556E+03  0.75676230155E+03  0.00000000000E+00 0. -1.
          1    1    1    2  502    0 -0.26951992915E+02  0.21860337520E+02  0.15405863419E+04  0.15409771450E+04  0.00000000000E+00 0. -1.
         22    1    3    3    0    0  0.50216073563E+02  0.51992948456E+02  0.10248172595E+04  0.10273632931E+04  0.00000000000E+00 0. -1.
         22    1    3    3    0    0 -0.96991897047E+01 -0.21194211012E+02  0.42643394963E+02  0.48597613062E+02  0.00000000000E+00 0. -1.
</event>
<event>
 7    1  0.5931885E-006  0.6981889E+02  0.7818608E-02  0.1426409E+00
          2   -1    0    0  502    0  0.00000000000E+00  0.00000000000E+00  0.18915367227E+04  0.18915367227E+04  0.00000000000E+00 0. -1.
          1   -1    0    0  501    0 -0.00000000000E+00 -0.00000000000E+00 -0.26222998224E+02  0.26222998224E+02  0.00000000000E+00 0. -1.
         25    2    1    2    0    0 -0.77092970813E+02  0.15060843410E+02  0.30344392927E+03  0.33745070991E+03  0.12499843301E+03 0.  0.
          2    1    1    2  501    0  0.65086615889E+02  0.24438188086E+02  0.12650213702E+03  0.14434778584E+03  0.00000000000E+00 0. -1.
          1    1    1    2  502    0  0.12006354924E+02 -0.39499031496E+02  0.14353676581E+04  0.14359612251E+04  0.00000000000E+00 0. -1.
         22    1    3    3    0    0  0.28125440465E+02  0.26229274394E+02  0.52215804396E+02  0.64849868661E+02  0.00000000000E+00 0.  1.
         22    1    3    3    0    0 -0.10521841128E+03 -0.11168430985E+02  0.25122812487E+03  0.27260084125E+03  0.00000000000E+00 0.  1.
</event>
<event>
 7    1  0.5931885E-006  0.6971320E+02  0.7818608E-02  0.1461189E+00
          2   -1    0    0  502    0  0.00000000000E+00  0.00000000000E+00  0.16829347657E+04  0.16829347657E+04  0.00000000000E+00 0. -1.
          1   -1    0    0  501    0 -0.00000000000E+00 -0.00000000000E+00 -0.17377533810E+03  0.17377533810E+03  0.00000000000E+00 0. -1.
         25    2    1    2    0    0  0.44160756119E+02 -0.46418641915E+02  0.45050885658E+03  0.47189890574E+03  0.12500193872E+03 0.  0.
          2    1    1    2  501    0 -0.23673226652E+02 -0.21421593124E+02 -0.16047883608E+03  0.16362384650E+03  0.00000000000E+00 0. -1.
          1    1    1    2  502    0 -0.20487529466E+02  0.67840235040E+02  0.12191294071E+04  0.12211873516E+04  0.00000000000E+00 0. -1.
         22    1    3    3    0    0  0.64224757223E+02 -0.77274159651E+02  0.36955148474E+03  0.38296790344E+03  0.00000000000E+00 0.  1.
         22    1    3    3    0    0 -0.20064001105E+02  0.30855517736E+02  0.80957371840E+02  0.88931002302E+02  0.00000000000E+00 0.  1.
</event>
<event>
 7    1  0.5931885E-006  0.1532226E+03  0.7818608E-02  0.1279292E+00
          2   -1    0    0  502    0  0.00000000000E+00  0.00000000000E+00  0.14710109444E+04  0.14710109444E+04  0.00000000000E+00 0. -1.
          1   -1    0    0  501    0 -0.00000000000E+00 -0.00000000000E+00 -0.19323139495E+04  0.19323139495E+04  0.00000000000E+00 0. -1.
         25    2    1    2    0    0  0.82739704453E+02 -0.32585015734E+02 -0.13905843944E+03  0.20704905211E+03  0.12499767381E+03 0.  0.
          2    1    1    2  501    0  0.62401001424E+02 -0.21160459188E+02 -0.17544725860E+04  0.17557094592E+04  0.00000000000E+00 0. -1.
          1    1    1    2  502    0 -0.14514070588E+03  0.53745474923E+02  0.14322280204E+04  0.14405663827E+04  0.00000000000E+00 0. -1.
         22    1    3    3    0    0  0.11370698327E+03 -0.27631469520E+02 -0.12888141192E+03  0.17407812755E+03  0.00000000000E+00 0.  1.
         22    1    3    3    0    0 -0.30967278816E+02 -0.49535462142E+01 -0.10177027521E+02  0.32970924563E+02  0.00000000000E+00 0.  1.
</event>
<event>
 7    1  0.5931885E-006  0.1074806E+03  0.7818608E-02  0.1294445E+00
          2   -1    0    0  502    0  0.00000000000E+00  0.00000000000E+00  0.20152440422E+03  0.20152440422E+03  0.00000000000E+00 0. -1.
          1   -1    0    0  501    0 -0.00000000000E+00 -0.00000000000E+00 -0.60881639246E+03  0.60881639246E+03  0.00000000000E+00 0. -1.
         25    2    1    2    0    0  0.32134149952E+02 -0.12211815370E+03 -0.25205511095E+03  0.30838647814E+03  0.12499997555E+03 0.  0.
          2    1    1    2  501    0  0.45744702611E+02  0.98271424700E+02 -0.30926843449E+03  0.32771453325E+03  0.00000000000E+00 0. -1.
          1    1    1    2  502    0 -0.77878852564E+02  0.23846728997E+02  0.15403155721E+03  0.17423978529E+03  0.00000000000E+00 0. -1.
         22    1    3    3    0    0  0.47009658457E+02 -0.69075819187E+02 -0.23697083770E+03  0.25126988420E+03  0.00000000000E+00 0. -1.
         22    1    3    3    0    0 -0.14875508505E+02 -0.53042334511E+02 -0.15084273248E+02  0.57116593938E+02  0.00000000000E+00 0. -1.
</event>
<event>
 7    1  0.5931885E-006  0.1227755E+03  0.7818608E-02  0.1351416E+00
          2   -1    0    0  502    0  0.00000000000E+00  0.00000000000E+00  0.78972620226E+03  0.78972620226E+03  0.00000000000E+00 0. -1.
          1   -1    0    0  501    0 -0.00000000000E+00 -0.00000000000E+00 -0.18810638747E+04  0.18810638747E+04  0.00000000000E+00 0. -1.
         25    2    1    2    0    0  0.17433855135E+02 -0.88449644008E+02 -0.65203588234E+02  0.16734374625E+03  0.12500057063E+03 0.  0.
          2    1    1    2  501    0  0.35587985077E+02 -0.24044088132E+02 -0.17592917040E+04  0.17598158775E+04  0.00000000000E+00 0. -1.
          1    1    1    2  502    0 -0.53021840212E+02  0.11249373214E+03  0.73315761987E+03  0.74363045317E+03  0.00000000000E+00 0. -1.
         22    1    3    3    0    0 -0.19232562462E+02 -0.89398969569E+02 -0.85700783611E+02  0.12532634013E+03  0.00000000000E+00 0.  1.
         22    1    3    3    0    0  0.36666417597E+02  0.94932556077E+00  0.20497195377E+02  0.42017406116E+02  0.00000000000E+00 0.  1.
</event>
<event>
 7    1  0.5931885E-006  0.5921689E+02  0.7818608E-02  0.1402047E+00
          2   -1    0    0  502    0  0.00000000000E+00  0.00000000000E+00  0.54235785398E+03  0.54235785398E+03  0.00000000000E+00 0. -1.
          1   -1    0    0  501    0 -0.00000000000E+00 -0.00000000000E+00 -0.21133141943E+04  0.21133141943E+04  0.00000000000E+00 0. -1.
         25    2    1    2    0    0 -0.50072849874E+01  0.19571080925E+02 -0.37864021717E+02  0.13216003769E+03  0.12499796523E+03 0.  0.
          2    1    1    2  501    0 -0.54899401909E+02 -0.22196757768E+02 -0.20260527330E+04  0.20269179355E+04  0.00000000000E+00 0. -1.
          1    1    1    2  502    0  0.59906686897E+02  0.26256768433E+01  0.49296041436E+03  0.49659407512E+03  0.00000000000E+00 0. -1.
         22    1    3    3    0    0  0.15892878006E+02 -0.30018381319E+02  0.30159973815E+02  0.45423681146E+02  0.00000000000E+00 0. -1.
         22    1    3    3    0    0 -0.20900162993E+02  0.49589462244E+02 -0.68023995532E+02  0.86736356546E+02  0.00000000000E+00 0. -1.
</event>
<event>
 7    1  0.5931885E-006  0.1646217E+03  0.7818608E-02  0.1287506E+00
          2   -1    0    0  502    0  0.00000000000E+00  0.00000000000E+00  0.10607779686E+04  0.10607779686E+04  0.00000000000E+00 0. -1.
          1   -1    0    0  501    0 -0.00000000000E+00 -0.00000000000E+00 -0.14762244578E+04  0.14762244578E+04  0.00000000000E+00 0. -1.
         25    2    1    2    0    0  0.77034452757E+02 -0.15474775753E+03 -0.38010097024E+03  0.43587016071E+03  0.12499949618E+03 0.  0.
          2    1    1    2  501    0 -0.56093257190E+02 -0.85556260213E+01 -0.10609150934E+04  0.10624314037E+04  0.00000000000E+00 0. -1.
          1    1    1    2  502    0 -0.20941195567E+02  0.16330338355E+03  0.10255695744E+04  0.10387008620E+04  0.00000000000E+00 0. -1.
         22    1    3    3    0    0  0.68116373817E+02 -0.14816174825E+03 -0.38890746334E+03  0.42171170136E+03  0.00000000000E+00 0.  1.
         22    1    3    3    0    0  0.89180789399E+01 -0.65860092829E+01  0.88064930997E+01  0.14158459343E+02  0.00000000000E+00 0.  1.
</event>
<event>
 7    1  0.5931885E-006  0.1148758E+03  0.7818608E-02  0.1352011E+00
          2   -1    0    0  502    0  0.00000000000E+00  0.00000000000E+00  0.93623254762E+02  0.93623254762E+02  0.00000000000E+00 0. -1.
          1   -1    0    0  501    0 -0.00000000000E+00 -0.00000000000E+00 -0.61542898887E+03  0.61542898887E+03  0.00000000000E+00 0. -1.
         25    2    1    2    0    0 -0.17419494452E+01 -0.10816014501E+03 -0.30215204377E+03  0.34441571109E+03  0.12499869254E+03 0.  0.
          2    1    1    2  501    0  0.47186201396E+02  0.11270558314E+03 -0.27018269022E+03  0.29652617451E+03  0.00000000000E+00 0. -1.
          1    1    1    2  502    0 -0.45444251951E+02 -0.45454381298E+01  0.50528999880E+02  0.68110358038E+02  0.00000000000E+00 0. -1.
         22    1    3    3    0    0  0.40768660763E+02 -0.44220506115E+02 -0.42493103240E+02  0.73642383751E+02  0.00000000000E+00 0. -1.
         22    1    3    3    0    0 -0.42510610209E+02 -0.63939638893E+02 -0.25965894053E+03  0.27077332734E+03  0.00000000000E+00 0. -1.
</event>
<event>
 7    1  0.5931885E-006  0.1027460E+03  0.7818608E-02  0.1325537E+00
          2   -1    0    0  502    0  0.00000000000E+00  0.00000000000E+00  0.39972358147E+03  0.39972358147E+03  0.00000000000E+00 0. -1.
          1   -1    0    0  501    0 -0.00000000000E+00 -0.00000000000E+00 -0.39930064034E+03  0.39930064034E+03  0.00000000000E+00 0. -1.
         25    2    1    2    0    0  0.18128618481E+02  0.93575205749E+02 -0.20192617784E+03  0.25589786581E+03  0.12499828195E+03 0.  0.
          2    1    1    2  501    0 -0.64248573741E+02 -0.81350203125E+00 -0.15673678908E+03  0.16939587381E+03  0.00000000000E+00 0. -1.
          1    1    1    2  502    0  0.46119955260E+02 -0.92761703718E+02  0.35908590806E+03  0.37373048219E+03  0.00000000000E+00 0. -1.
         22    1    3    3    0    0 -0.15028366740E+02  0.31101035415E+01 -0.14114803153E+03  0.14197989771E+03  0.00000000000E+00 0. -1.
         22    1    3    3    0    0  0.33156985221E+02  0.90465102208E+02 -0.60778146316E+02  0.11391796810E+03  0.00000000000E+00 0. -1.
</event>
<event>
 7    1  0.5931885E-006  0.2089825E+03  0.7818608E-02  0.1179149E+00
          2   -1    0    0  502    0  0.00000000000E+00  0.00000000000E+00  0.72581614590E+03  0.72581614590E+03  0.00000000000E+00 0. -1.
          1   -1    0    0  501    0 -0.00000000000E+00 -0.00000000000E+00 -0.13643920100E+04  0.13643920100E+04  0.00000000000E+00 0. -1.
         25    2    1    2    0    0 -0.15105885767E+03 -0.83110528930E+02 -0.31945202450E+03  0.38392724496E+03  0.12499757983E+03 0.  0.
          2    1    1    2  501    0  0.10346372824E+03  0.21080442553E+03 -0.99216820460E+03  0.10195788322E+04  0.00000000000E+00 0. -1.
          1    1    1    2  502    0  0.47595129432E+02 -0.12769389660E+03  0.67304436504E+03  0.68670207869E+03  0.00000000000E+00 0. -1.
         22    1    3    3    0    0 -0.85374313132E+02 -0.51817283375E+01 -0.58079842844E+02  0.10338709686E+03  0.00000000000E+00 0. -1.
         22    1    3    3    0    0 -0.65684544539E+02 -0.77928800593E+02 -0.26137218166E+03  0.28054014810E+03  0.00000000000E+00 0. -1.
</event>
<event>
 7    1  0.5931885E-006  0.1250047E+03  0.7818608E-02  0.1285990E+00
          2   -1    0    0  502    0  0.00000000000E+00  0.00000000000E+00  0.13919054903E+04  0.13919054903E+04  0.00000000000E+00 0. -1.
          1   -1    0    0  501    0 -0.00000000000E+00 -0.00000000000E+00 -0.15938048331E+03  0.15938048331E+03  0.00000000000E+00 0. -1.
         25    2    1    2    0    0 -0.71893122167E+02 -0.17885541508E+02  0.77975492857E+03  0.79317872661E+03  0.12500492035E+03 0.  0.
          2    1    1    2  501    0  0.12061845504E+03 -0.40177370790E+02 -0.12328075708E+03  0.17709087465E+03  0.00000000000E+00 0. -1.
          1    1    1    2  502    0 -0.48725332877E+02  0.58062912298E+02  0.57605083555E+03  0.58101637239E+03  0.00000000000E+00 0. -1.
         22    1    3    3    0    0 -0.50481460157E+02 -0.46720672256E+02  0.72129752418E+03  0.72456974642E+03  0.00000000000E+00 0. -1.
         22    1    3    3    0    0 -0.21411662011E+02  0.28835130748E+02  0.58457404388E+02  0.68608980193E+02  0.00000000000E+00 0. -1.
</event>
<event>
 7    1  0.5931885E-006  0.1315947E+03  0.7818608E-02  0.1244044E+00
          2   -1    0    0  502    0  0.00000000000E+00  0.00000000000E+00  0.25317288852E+04  0.25317288852E+04  0.00000000000E+00 0. -1.
          1   -1    0    0  501    0 -0.00000000000E+00 -0.00000000000E+00 -0.48498305663E+03  0.48498305663E+03  0.00000000000E+00 0. -1.
         25    2    1    2    0    0  0.64612145730E+02  0.17777059806E+02  0.50095704659E+03  0.52064817046E+03  0.12500320652E+03 0.  0.
          2    1    1    2  501    0  0.79547729740E+02 -0.73617730438E+02 -0.46595188858E+03  0.47839165337E+03  0.00000000000E+00 0. -1.
          1    1    1    2  502    0 -0.14415987547E+03  0.55840670632E+02  0.20117406706E+04  0.20176721180E+04  0.00000000000E+00 0. -1.
         22    1    3    3    0    0  0.87881990440E+02  0.39885128501E+02  0.45142110204E+03  0.46162222551E+03  0.00000000000E+00 0. -1.
         22    1    3    3    0    0 -0.23269844709E+02 -0.22108068695E+02  0.49535944556E+02  0.59025944950E+02  0.00000000000E+00 0. -1.
</event>
<event>
 7    1  0.5931885E-006  0.1730335E+03  0.7818608E-02  0.1361171E+00
          2   -1    0    0  502    0  0.00000000000E+00  0.00000000000E+00  0.89140047675E+02  0.89140047675E+02  0.00000000000E+00 0. -1.
          1   -1    0    0  501    0 -0.00000000000E+00 -0.00000000000E+00 -0.93281554383E+03  0.93281554383E+03  0.00000000000E+00 0. -1.
         25    2    1    2    0    0 -0.88227302961E+02  0.12111521400E+03 -0.61787177005E+03  0.64795265503E+03  0.12499666750E+03 0.  0.
          2    1    1    2  501    0 -0.96024397224E+01  0.26369148332E+02 -0.19172846191E+03  0.19377136512E+03  0.00000000000E+00 0. -1.
          1    1    1    2  502    0  0.97829742683E+02 -0.14748436233E+03 -0.34075264194E+02  0.18023157136E+03  0.00000000000E+00 0. -1.
         22    1    3    3    0    0 -0.50618193251E+02  0.66349972051E+02 -0.12298477224E+03  0.14862629135E+03  0.00000000000E+00 0.  1.
         22    1    3    3    0    0 -0.37609109710E+02  0.54765241945E+02 -0.49488699781E+03  0.49932636368E+03  0.00000000000E+00 0.  1.
</event>
<event>
 7    1  0.5931885E-006  0.7318210E+02  0.7818608E-02  0.1404038E+00
          2   -1    0    0  502    0  0.00000000000E+00  0.00000000000E+00  0.72794841614E+02  0.72794841614E+02  0.00000000000E+00 0. -1.
          1   -1    0    0  501    0 -0.00000000000E+00 -0.00000000000E+00 -0.86712880903E+03  0.86712880903E+03  0.00000000000E+00 0. -1.
         25    2    1    2    0    0  0.77746634189E+02 -0.74149271444E+02 -0.20037293707E+03  0.25946366179E+03  0.12501769592E+03 0.  0.
          2    1    1    2  501    0 -0.65005086533E+02  0.29079121790E+02 -0.62187299502E+03  0.62593712027E+03  0.00000000000E+00 0. -1.
          1    1    1    2  502    0 -0.12741547656E+02  0.45070149653E+02  0.27911964678E+02  0.54522868584E+02  0.00000000000E+00 0. -1.
         22    1    3    3    0    0 -0.14071939755E+02  0.24987699730E+02 -0.24803862558E+02  0.37916173648E+02  0.00000000000E+00 0. -1.
         22    1    3    3    0    0  0.91818573944E+02 -0.99136971174E+02 -0.17556907452E+03  0.22154748814E+03  0.00000000000E+00 0. -1.
</event>
<event>
 7    1  0.5931885E-006  0.1104928E+03  0.7818608E-02  0.1327847E+00
          2   -1    0    0  502    0  0.00000000000E+00  0.00000000000E+00  0.31316041176E+03  0.31316041176E+03  0.00000000000E+00 0. -1.
          1   -1    0    0  501    0 -0.00000000000E+00 -0.00000000000E+00 -0.32479819635E+03  0.32479819635E+03  0.00000000000E+00 0. -1.
         25    2    1    2    0    0 -0.15853897326E+03 -0.35039410903E+02 -0.46532676404E+02  0.21012475061E+03  0.12499901796E+03 0.  0.
          2    1    1    2  501    0  0.53552183574E+02  0.23646436177E+02 -0.17952005027E+03  0.18882382995E+03  0.00000000000E+00 0. -1.
          1    1    1    2  502    0  0.10498678968E+03  0.11392974726E+02  0.21441494208E+03  0.23901002755E+03  0.00000000000E+00 0. -1.
         22    1    3    3    0    0  0.20630075117E+02 -0.34930278443E+01 -0.14358561669E+02  0.25376554850E+02  0.00000000000E+00 0. -1.
         22    1    3    3    0    0 -0.17916904837E+03 -0.31546383059E+02 -0.32174114735E+02  0.18474819576E+03  0.00000000000E+00 0. -1.
</event>
<event>
 7    1  0.5931885E-006  0.1412383E+03  0.7818608E-02  0.1326401E+00
          2   -1    0    0  502    0  0.00000000000E+00  0.00000000000E+00  0.11897302534E+04  0.11897302534E+04  0.00000000000E+00 0. -1.
          1   -1    0    0  501    0 -0.00000000000E+00 -0.00000000000E+00 -0.48766520069E+02  0.48766520069E+02  0.00000000000E+00 0. -1.
         25    2    1    2    0    0  0.11017796240E+03 -0.94244790319E+02  0.37248135338E+03  0.41879457239E+03  0.12500108537E+03 0.  0.
          2    1    1    2  501    0 -0.13156471295E+03  0.53083096788E+02  0.17902704776E+03  0.22842454485E+03  0.00000000000E+00 0. -1.
          1    1    1    2  502    0  0.21386750548E+02  0.41161693531E+02  0.58945533218E+03  0.59127765622E+03  0.00000000000E+00 0. -1.
         22    1    3    3    0    0  0.26708790991E+02  0.30458215569E+02  0.63855320606E+02  0.75621190030E+02  0.00000000000E+00 0. -1.
         22    1    3    3    0    0  0.83469171414E+02 -0.12470300589E+03  0.30862603277E+03  0.34317338236E+03  0.00000000000E+00 0. -1.
</event>
<event>
 7    1  0.5931885E-006  0.6533680E+02  0.7818608E-02  0.1420398E+00
          2   -1    0    0  502    0  0.00000000000E+00  0.00000000000E+00  0.65301991272E+02  0.65301991272E+02  0.00000000000E+00 0. -1.
          1   -1    0    0  501    0 -0.00000000000E+00 -0.00000000000E+00 -0.49532421838E+03  0.49532421838E+03  0.00000000000E+00 0. -1.
         25    2    1    2    0    0 -0.86011988075E+02  0.33496620765E+02 -0.10533045798E+03  0.18772039309E+03  0.12499741961E+03 0.  0.
          2    1    1    2  501    0  0.63614622665E+02  0.69024397351E+01 -0.32015998517E+03  0.32649177630E+03  0.00000000000E+00 0. -1.
          1    1    1    2  502    0  0.22397365410E+02 -0.40399060500E+02 -0.45317839591E+01  0.46414040251E+02  0.00000000000E+00 0. -1.
         22    1    3    3    0    0 -0.32018974580E+02 -0.47202719941E+02 -0.27712849856E+02  0.63413827751E+02  0.00000000000E+00 0. -1.
         22    1    3    3    0    0 -0.53993013495E+02  0.80699340706E+02 -0.77617608122E+02  0.12430656534E+03  0.00000000000E+00 0. -1.
</event>
<event>
 7    1  0.5931885E-006  0.6358612E+02  0.7818608E-02  0.1406717E+00
          2   -1    0    0  502    0  0.00000000000E+00  0.00000000000E+00  0.63144771850E+03  0.63144771850E+03  0.00000000000E+00 0. -1.
          1   -1    0    0  501    0 -0.00000000000E+00 -0.00000000000E+00 -0.54738981873E+03  0.54738981873E+03  0.00000000000E+00 0. -1.
         25    2    1    2    0    0  0.59637950824E+02  0.78901731100E+02  0.43146203859E+02  0.16513139802E+03  0.12499846141E+03 0.  0.
          2    1    1    2  501    0 -0.50039850372E+02 -0.16792159010E+02 -0.48308203055E+03  0.48595700578E+03  0.00000000000E+00 0. -1.
          1    1    1    2  502    0 -0.95981004519E+01 -0.62109572091E+02  0.52399372645E+03  0.52774913343E+03  0.00000000000E+00 0. -1.
         22    1    3    3    0    0  0.54458287896E+02  0.33326259741E+01  0.66358180157E+02  0.85908204440E+02  0.00000000000E+00 0.  1.
         22    1    3    3    0    0  0.51796629280E+01  0.75569105126E+02 -0.23211976298E+02  0.79223193582E+02  0.00000000000E+00 0.  1.
</event>
<event>
 7    1  0.5931885E-006  0.1772380E+03  0.7818608E-02  0.1239558E+00
          2   -1    0    0  502    0  0.00000000000E+00  0.00000000000E+00  0.32275964131E+03  0.32275964131E+03  0.00000000000E+00 0. -1.
          1   -1    0    0  501    0 -0.00000000000E+00 -0.00000000000E+00 -0.12419600065E+04  0.12419600065E+04  0.00000000000E+00 0. -1.
         25    2    1    2    0    0 -0.18005483051E+03 -0.12659394401E+03 -0.78724729658E+02  0.26508195140E+03  0.12500035699E+03 0.  0.
          2    1    1    2  501    0  0.16956803832E+03  0.43036019665E+02 -0.10548797330E+04  0.10692879265E+04  0.00000000000E+00 0. -1.
          1    1    1    2  502    0  0.10486792191E+02  0.83557924347E+02  0.21440409743E+03  0.23034976998E+03  0.00000000000E+00 0. -1.
         22    1    3    3    0    0  0.16407622131E+02 -0.26816716892E+02 -0.10861286039E+01  0.31456732892E+02  0.00000000000E+00 0. -1.
         22    1    3    3    0    0 -0.19646245265E+03 -0.99777227120E+02 -0.77638601054E+02  0.23362521851E+03  0.00000000000E+00 0. -1.
</event>
<event>
 7    1  0.5931885E-006  0.1314077E+03  0.7818608E-02  0.1355114E+00
          2   -1    0    0  502    0  0.00000000000E+00  0.00000000000E+00  0.48975968575E+03  0.48975968575E+03  0.00000000000E+00 0. -1.
          1   -1    0    0  501    0 -0.00000000000E+00 -0.00000000000E+00 -0.74531212991E+03  0.74531212991E+03  0.00000000000E+00 0. -1.
         25    2    1    2    0    0 -0.11619276329E+03 -0.10403247651E+03  0.35509056681E+03  0.40747750949E+03  0.12500038277E+03 0.  0.
          2    1    1    2  501    0  0.11369259259E+03  0.65225228478E+02 -0.70942572655E+03  0.72143273944E+03  0.00000000000E+00 0. -1.
          1    1    1    2  502    0  0.25001706954E+01  0.38807248032E+02  0.98782715578E+02  0.10616156673E+03  0.00000000000E+00 0. -1.
         22    1    3    3    0    0 -0.92393040002E+02 -0.12149645584E+03  0.21115581668E+03  0.26054681257E+03  0.00000000000E+00 0. -1.
         22    1    3    3    0    0 -0.23799723286E+02  0.17463979325E+02  0.14393475013E+03  0.14693069692E+03  0.00000000000E+00 0. -1.
</event>
<event>
 7    1  0.5931885E-006  0.6052593E+02  0.7818608E-02  0.1444374E+00
          2   -1    0    0  502    0  0.00000000000E+00  0.00000000000E+00  0.82383058638E+03  0.82383058638E+03  0.00000000000E+00 0. -1.
          1   -1    0    0  501    0 -0.00000000000E+00 -0.00000000000E+00 -0.40527008041E+04  0.40527008041E+04  0.00000000000E+00 0. -1.
         25    2    1    2    0    0  0.82715778623E+01  0.58229876945E+02  0.20544381437E+01  0.13815730330E+03  0.12499632862E+03 0.  0.
          2    1    1    2  501    0 -0.45605054010E+02 -0.39873606952E+02 -0.39838448587E+04  0.39843054079E+04  0.00000000000E+00 0. -1.
          1    1    1    2  502    0  0.37333476148E+02 -0.18356269993E+02  0.75292020287E+03  0.75406867922E+03  0.00000000000E+00 0. -1.
         22    1    3    3    0    0  0.29540865925E+02 -0.30184200577E+02 -0.16507387800E+02  0.45345811009E+02  0.00000000000E+00 0. -1.
         22    1    3    3    0    0 -0.21269288063E+02  0.88414077522E+02  0.18561825943E+02  0.92811492290E+02  0.00000000000E+00 0. -1.
</event>
<event>
 7    1  0.5931885E-006  0.7734624E+02  0.7818608E-02  0.1354926E+00
          2   -1    0    0  502    0  0.00000000000E+00  0.00000000000E+00  0.44321712213E+02  0.44321712213E+02  0.00000000000E+00 0. -1.
          1   -1    0    0  501    0 -0.00000000000E+00 -0.00000000000E+00 -0.26993712117E+04  0.26993712117E+04  0.00000000000E+00 0. -1.
         25    2    1    2    0    0 -0.48848217119E+02  0.40065273094E+01 -0.12181961458E+04  0.12255731133E+04  0.12500162333E+03 0.  0.
          2    1    1    2  501    0  0.34206462594E+02  0.71941217607E+02 -0.14385510686E+04  0.14407549402E+04  0.00000000000E+00 0. -1.
          1    1    1    2  502    0  0.14641754525E+02 -0.75947744916E+02  0.16977148918E+01  0.77364870382E+02  0.00000000000E+00 0. -1.
         22    1    3    3    0    0  0.35596620744E+02 -0.24076132479E+02 -0.51003199640E+03  0.51183924909E+03  0.00000000000E+00 0.  1.
         22    1    3    3    0    0 -0.84444837863E+02  0.28082659788E+02 -0.70816414941E+03  0.71373386422E+03  0.00000000000E+00 0.  1.
</event>
<event>
 7    1  0.5931885E-006  0.1257926E+03  0.7818608E-02  0.1308484E+00
          2   -1    0    0  502    0  0.00000000000E+00  0.00000000000E+00  0.15910385680E+04  0.15910385680E+04  0.00000000000E+00 0. -1.
          1   -1    0    0  501    0 -0.00000000000E+00 -0.00000000000E+00 -0.97534128971E+03  0.97534128971E+03  0.00000000000E+00 0. -1.
         25    2    1    2    0    0  0.76715851154E+02  0.13079808277E+03  0.40719039717E+03  0.45213320396E+03  0.12500781696E+03 0.  0.
          2    1    1    2  501    0 -0.15863190547E+02 -0.12465432505E+03 -0.94791539729E+03  0.95620810600E+03  0.00000000000E+00 0. -1.
          1    1    1    2  502    0 -0.60852660607E+02 -0.61437577214E+01  0.11564222784E+04  0.11580385477E+04  0.00000000000E+00 0. -1.
         22    1    3    3    0    0  0.10187994337E+03  0.13132036169E+03  0.31009712727E+03  0.35183062487E+03  0.00000000000E+00 0. -1.
         22    1    3    3    0    0 -0.25164092215E+02 -0.52227892200E+00  0.97093269899E+02  0.10030257909E+03  0.00000000000E+00 0. -1.
</event>
<event>
 7    1  0.5931885E-006  0.2163071E+03  0.7818608E-02  0.1336751E+00
          2   -1    0    0  502    0  0.00000000000E+00  0.00000000000E+00  0.47419747376E+03  0.47419747376E+03  0.00000000000E+00 0. -1.
          1   -1    0    0  501    0 -0.00000000000E+00 -0.00000000000E+00 -0.86655775759E+03  0.86655775759E+03  0.00000000000E+00 0. -1.
         25    2    1    2    0    0  0.88217388791E+02 -0.17680305564E+03  0.83575047522E+02  0.24829717446E+03  0.12500028043E+03 0.  0.
          2    1    1    2  501    0 -0.79538016536E+02  0.20306414353E+03 -0.76836910889E+03  0.79871924352E+03  0.00000000000E+00 0. -1.
          1    1    1    2  502    0 -0.86793722551E+01 -0.26261087894E+02  0.29243377753E+03  0.29373881338E+03  0.00000000000E+00 0. -1.
         22    1    3    3    0    0  0.10921857408E+03 -0.17322041644E+03  0.93114909534E+02  0.22495420861E+03  0.00000000000E+00 0.  1.
         22    1    3    3    0    0 -0.21001185290E+02 -0.35826392004E+01 -0.95398620113E+01  0.23342965845E+02  0.00000000000E+00 0.  1.
</event>
<event>
 7    1  0.5931885E-006  0.7816152E+02  0.7818608E-02  0.1430120E+00
          2   -1    0    0  502    0  0.00000000000E+00  0.00000000000E+00  0.12010874086E+03  0.12010874086E+03  0.00000000000E+00 0. -1.
          1   -1    0    0  501    0 -0.00000000000E+00 -0.00000000000E+00 -0.91309039168E+03  0.91309039168E+03  0.00000000000E+00 0. -1.
         25    2    1    2    0    0  0.14660685493E+02 -0.10575304788E+03 -0.33951337155E+03  0.37721779184E+03  0.12500116074E+03 0.  0.
          2    1    1    2  501    0  0.28558045260E+01  0.74471834338E+02 -0.54895249601E+03  0.55398831450E+03  0.00000000000E+00 0. -1.
          1    1    1    2  502    0 -0.17516490019E+02  0.31281213543E+02  0.95484216742E+02  0.10199302618E+03  0.00000000000E+00 0. -1.
         22    1    3    3    0    0 -0.55039897675E+02 -0.36020925597E+02 -0.13850096569E+03  0.15332780216E+03  0.00000000000E+00 0.  1.
         22    1    3    3    0    0  0.69700583169E+02 -0.69732122283E+02 -0.20101240586E+03  0.22388998969E+03  0.00000000000E+00 0.  1.
</event>
<event>
 7    1  0.5931885E-006  0.1334934E+03  0.7818608E-02  0.1327300E+00
          2   -1    0    0  502    0  0.00000000000E+00  0.00000000000E+00  0.90473451180E+03  0.90473451180E+03  0.00000000000E+00 0. -1.
          1   -1    0    0  501    0 -0.00000000000E+00 -0.00000000000E+00 -0.12116831890E+03  0.12116831890E+03  0.00000000000E+00 0. -1.
         25    2    1    2    0    0  0.11728736160E+03 -0.36226099323E+02  0.12873206355E+03  0.21740562862E+03  0.12499843081E+03 0.  0.
          2    1    1    2  501    0 -0.11107635353E+03  0.84517144421E+02 -0.11813647162E+02  0.14007378868E+03  0.00000000000E+00 0. -1.
          1    1    1    2  502    0 -0.62110080701E+01 -0.48291045099E+02  0.66664777651E+03  0.66842341340E+03  0.00000000000E+00 0. -1.
         22    1    3    3    0    0  0.79833987845E+02  0.98646489665E+01  0.13555454658E+03  0.15762554366E+03  0.00000000000E+00 0.  1.
         22    1    3    3    0    0  0.37453373755E+02 -0.46090748289E+02 -0.68224830288E+01  0.59780084963E+02  0.00000000000E+00 0.  1.
</event>
<event>
 7    1  0.5931885E-006  0.1586639E+03  0.7818608E-02  0.1395057E+00
          2   -1    0    0  502    0  0.00000000000E+00  0.00000000000E+00  0.15363861058E+04  0.15363861058E+04  0.00000000000E+00 0. -1.
          1   -1    0    0  501    0 -0.00000000000E+00 -0.00000000000E+00 -0.84163368184E+03  0.84163368184E+03  0.00000000000E+00 0. -1.
         25    2    1    2    0    0 -0.13481538795E+03 -0.10938298273E+03 -0.17403091689E+03  0.27577375447E+03  0.12499831152E+03 0.  0.
          2    1    1    2  501    0  0.11162627627E+03  0.10880932714E+03 -0.60678845798E+03  0.62649192171E+03  0.00000000000E+00 0. -1.
          1    1    1    2  502    0  0.23189111680E+02  0.57365559172E+00  0.14755717988E+04  0.14757541115E+04  0.00000000000E+00 0. -1.
         22    1    3    3    0    0 -0.48896551092E+02  0.85502851471E+01 -0.12904495115E+01  0.49655265025E+02  0.00000000000E+00 0. -1.
         22    1    3    3    0    0 -0.85918836862E+02 -0.11793326788E+03 -0.17274046738E+03  0.22611848945E+03  0.00000000000E+00 0. -1.
</event>
<event>
 7    1  0.5931885E-006  0.5772679E+02  0.7818608E-02  0.1437570E+00
          2   -1    0    0  502    0  0.00000000000E+00  0.00000000000E+00  0.63832513678E+02  0.63832513678E+02  0.00000000000E+00 0. -1.
          1   -1    0    0  501    0 -0.00000000000E+00 -0.00000000000E+00 -0.34048605416E+03  0.34048605416E+03  0.00000000000E+00 0. -1.
         25    2    1    2    0    0 -0.50093688515E+02 -0.84427760614E+02 -0.15813025034E+03  0.22420486732E+03  0.12500088826E+03 0.  0.
          2    1    1    2  501    0  0.23373866293E+02  0.39492877876E+02 -0.11930711011E+03  0.12782883693E+03  0.00000000000E+00 0. -1.
          1    1    1    2  502    0  0.26719822222E+02  0.44934882738E+02  0.78381997049E+00  0.52284863584E+02  0.00000000000E+00 0. -1.
         22    1    3    3    0    0 -0.39812072654E+02 -0.92418823401E+02 -0.17561565480E+03  0.20240330595E+03  0.00000000000E+00 0. -1.
         22    1    3    3    0    0 -0.10281615861E+02  0.79910627873E+01  0.17485404459E+02  0.21801561372E+02  0.00000000000E+00 0. -1.
</event>
<event>
 7    1  0.5931885E-006  0.8860338E+02  0.7818608E-02  0.1405500E+00
          2   -1    0    0  502    0  0.00000000000E+00  0.00000000000E+00  0.64245551178E+03  0.64245551178E+03  0.00000000000E+00 0. -1.
          1   -1    0    0  501    0 -0.00000000000E+00 -0.00000000000E+00 -0.80424124774E+03  0.80424124774E+03  0.00000000000E+00 0. -1.
         25    2    1    2    0    0 -0.10414345413E+03  0.33647561861E+02 -0.11647165194E+03  0.20289992437E+03  0.12499886458E+03 0.  0.
          2    1    1    2  501    0  0.15858082553E+02 -0.34799813821E+02 -0.64072993597E+03  0.64187020236E+03  0.00000000000E+00 0. -1.
          1    1    1    2  502    0  0.88285371581E+02  0.11522519594E+01  0.59541585195E+03  0.60192663280E+03  0.00000000000E+00 0. -1.
         22    1    3    3    0    0 -0.41103560496E+02 -0.35262510448E+02 -0.91330725532E+02  0.10618026537E+03  0.00000000000E+00 0.  1.
         22    1    3    3    0    0 -0.63039893638E+02  0.68910072309E+02 -0.25140926408E+02  0.96719658995E+02  0.00000000000E+00 0.  1.
</event>
<event>
 7    1  0.5931885E-006  0.1559694E+03  0.7818608E-02  0.1251151E+00
          2   -1    0    0  502    0  0.00000000000E+00  0.00000000000E+00  0.95533647697E+02  0.95533647697E+02  0.00000000000E+00 0. -1.
          1   -1    0    0  501    0 -0.00000000000E+00 -0.00000000000E+00 -0.15395926465E+04  0.15395926465E+04  0.00000000000E+00 0. -1.
         25    2    1    2    0    0 -0.68577886413E+02  0.10468064753E+03 -0.32309534319E+03  0.36834321603E+03  0.12500063813E+03 0.  0.
          2    1    1    2  501    0  0.56650737291E+02  0.63579220147E+02 -0.10923826528E+04  0.10956968026E+04  0.00000000000E+00 0. -1.
          1    1    1    2  502    0  0.11927149122E+02 -0.16825986768E+03 -0.28581002888E+02  0.17108627556E+03  0.00000000000E+00 0. -1.
         22    1    3    3    0    0 -0.88389964718E+00 -0.19575687860E+02 -0.50418789890E+01  0.20233867092E+02  0.00000000000E+00 0.  1.
         22    1    3    3    0    0 -0.67693986766E+02  0.12425633539E+03 -0.31805346420E+03  0.34810934894E+03  0.00000000000E+00 0.  1.
</event>
<event>
 7    1  0.5931885E-006  0.6258364E+02  0.7818608E-02  0.1392362E+00
          2   -1    0    0  502    0  0.00000000000E+00  0.00000000000E+00  0.78762910047E+03  0.78762910047E+03  0.00000000000E+00 0. -1.
          1   -1    0    0  501    0 -0.00000000000E+00 -0.00000000000E+00 -0.59537584308E+03  0.59537584308E+03  0.00000000000E+00 0. -1.
         25    2    1    2    0    0 -0.46589899241E+02 -0.10160624759E+03 -0.33182648473E+02  0.17094214109E+03  0.12500271669E+03 0.  0.
          2    1    1    2  501    0  0.47263719387E+00  0.60085886770E+02 -0.49013589865E+03  0.49380536279E+03  0.00000000000E+00 0. -1.
          1    1    1    2  502    0  0.46117262047E+02  0.41520360824E+02  0.71557180452E+03  0.71825743967E+03  0.00000000000E+00 0. -1.
         22    1    3    3    0    0 -0.26740269845E+02 -0.66245578726E+01 -0.63552824930E+02  0.69266791141E+02  0.00000000000E+00 0.  1.
         22    1    3    3    0    0 -0.19849629396E+02 -0.94981689722E+02  0.30370176457E+02  0.10167534995E+03  0.00000000000E+00 0.  1.
</event>
<event>
 7    1  0.5931885E-006  0.3784551E+02  0.7818608E-02  0.1562095E+00
          2   -1    0    0  502    0  0.00000000000E+00  0.00000000000E+00  0.24968415723E+02  0.24968415723E+02  0.00000000000E+00 0. -1.
          1   -1    0    0  501    0 -0.00000000000E+00 -0.00000000000E+00 -0.14245856479E+04  0.14245856479E+04  0.00000000000E+00 0. -1.
         25    2    1    2    0    0  0.56049118549E+02 -0.30532244693E+02 -0.32072297670E+03  0.35008843624E+03  0.12499985499E+03 0.  0.
          2    1    1    2  501    0 -0.28601989442E+02  0.79978338614E+01 -0.10576845562E+04  0.10581014410E+04  0.00000000000E+00 0. -1.
          1    1    1    2  502    0 -0.27447129107E+02  0.22534410832E+02 -0.21209699291E+02  0.41364186342E+02  0.00000000000E+00 0. -1.
         22    1    3    3    0    0  0.65581361630E+02  0.34839845609E+02 -0.17317711172E+03  0.18842781604E+03  0.00000000000E+00 0. -1.
         22    1    3    3    0    0 -0.95322430802E+01 -0.65372090302E+02 -0.14754586498E+03  0.16166062020E+03  0.00000000000E+00 0. -1.
</event>
<event>
 7    1  0.5931885E-006  0.4994984E+02  0.7818608E-02  0.1546984E+00
          2   -1    0    0  502    0  0.00000000000E+00  0.00000000000E+00  0.85398663953E+03  0.85398663953E+03  0.00000000000E+00 0. -1.
          1   -1    0    0  501    0 -0.00000000000E+00 -0.00000000000E+00 -0.11544741316E+03  0.11544741316E+03  0.00000000000E+00 0. -1.
         25    2    1    2    0    0  0.11867493743E+02 -0.24966142797E+02  0.32712386011E+03  0.35128363856E+03  0.12500411661E+03 0.  0.
          2    1    1    2  501    0  0.10169245050E+02 -0.22598597142E+02 -0.10052431423E+03  0.10353380071E+03  0.00000000000E+00 0. -1.
          1    1    1    2  502    0 -0.22036738793E+02  0.47564739939E+02  0.51193968050E+03  0.51461661342E+03  0.00000000000E+00 0. -1.
         22    1    3    3    0    0  0.19214786743E+01  0.32216065233E+02  0.18397533718E+02  0.37148838290E+02  0.00000000000E+00 0.  1.
         22    1    3    3    0    0  0.99460150691E+01 -0.57182208031E+02  0.30872632639E+03  0.31413480027E+03  0.00000000000E+00 0.  1.
</event>
<event>
 7    1  0.5931885E-006  0.1772217E+03  0.7818608E-02  0.1234454E+00
          2   -1    0    0  502    0  0.00000000000E+00  0.00000000000E+00  0.69631990010E+03  0.69631990010E+03  0.00000000000E+00 0. -1.
          1   -1    0    0  501    0 -0.00000000000E+00 -0.00000000000E+00 -0.71456826297E+03  0.71456826297E+03  0.00000000000E+00 0. -1.
         25    2    1    2    0    0 -0.13873090836E+02  0.12275160010E+03  0.15504767346E+03  0.23436138327E+03  0.12500023580E+03 0.  0.
          2    1    1    2  501    0 -0.46727707033E+02  0.75421971132E+02 -0.65036663252E+03  0.65639066800E+03  0.00000000000E+00 0. -1.
          1    1    1    2  502    0  0.60600797869E+02 -0.19817357123E+03  0.47707059620E+03  0.52013611180E+03  0.00000000000E+00 0. -1.
         22    1    3    3    0    0  0.81255840345E+01  0.84662004188E+02  0.13473586481E+02  0.86111657757E+02  0.00000000000E+00 0. -1.
         22    1    3    3    0    0 -0.21998674870E+02  0.38089595913E+02  0.14157408697E+03  0.14824972552E+03  0.00000000000E+00 0. -1.
</event>
<event>
 7    1  0.5931885E-006  0.3956460E+03  0.7818608E-02  0.1112328E+00
          2   -1    0    0  502    0  0.00000000000E+00  0.00000000000E+00  0.16050616221E+04  0.16050616221E+04  0.00000000000E+00 0. -1.
          1   -1    0    0  501    0 -0.00000000000E+00 -0.00000000000E+00 -0.69243673905E+03  0.69243673905E+03  0.00000000000E+00 0. -1.
         25    2    1    2    0    0 -0.27686093242E+03  0.35314969877E+01  0.27871728953E+03  0.41227778750E+03  0.12500079685E+03 0.  0.
          2    1    1    2  501    0  0.41159428572E+03 -0.89709954867E+02 -0.54874975584E+03  0.69179767748E+03  0.00000000000E+00 0. -1.
          1    1    1    2  502    0 -0.13473335330E+03  0.86178457879E+02  0.11826573493E+04  0.11934228961E+04  0.00000000000E+00 0. -1.
         22    1    3    3    0    0 -0.25852237494E+02  0.40601192460E+02  0.28573620160E+02  0.55975412296E+02  0.00000000000E+00 0.  1.
         22    1    3    3    0    0 -0.25100869493E+03 -0.37069695472E+02  0.25014366937E+03  0.35630237521E+03  0.00000000000E+00 0.  1.
</event>
<event>
 7    1  0.5931885E-006  0.5319594E+02  0.7818608E-02  0.1515503E+00
          2   -1    0    0  502    0  0.00000000000E+00  0.00000000000E+00  0.16828871687E+03  0.16828871687E+03  0.00000000000E+00 0. -1.
          1   -1    0    0  501    0 -0.00000000000E+00 -0.00000000000E+00 -0.95840506324E+03  0.95840506324E+03  0.00000000000E+00 0. -1.
         25    2    1    2    0    0  0.15014908438E+02  0.69073417132E+02 -0.57441204128E+03  0.59209047903E+03  0.12500143100E+03 0.  0.
          2    1    1    2  501    0  0.63758451597E+01 -0.50043199716E+02 -0.37215286676E+03  0.37555655963E+03  0.00000000000E+00 0. -1.
          1    1    1    2  502    0 -0.21390753598E+02 -0.19030217415E+02  0.15644856168E+03  0.15904674145E+03  0.00000000000E+00 0. -1.
         22    1    3    3    0    0  0.57033236095E+02  0.68045718070E+02 -0.48785272991E+03  0.49586620760E+03  0.00000000000E+00 0. -1.
         22    1    3    3    0    0 -0.42018327657E+02  0.10276990614E+01 -0.86559311378E+02  0.96224271422E+02  0.00000000000E+00 0. -1.
</event>
<event>
 7    1  0.5931885E-006  0.7885753E+02  0.7818608E-02  0.1474252E+00
          2   -1    0    0  502    0  0.00000000000E+00  0.00000000000E+00  0.16210372368E+03  0.16210372368E+03  0.00000000000E+00 0. -1.
          1   -1    0    0  501    0 -0.00000000000E+00 -0.00000000000E+00 -0.94744607092E+03  0.94744607092E+03  0.00000000000E+00 0. -1.
         25    2    1    2    0    0  0.50262916755E+02 -0.72348245348E+02 -0.45106551715E+03  0.47628500462E+03  0.12500670168E+03 0.  0.
          2    1    1    2  501    0 -0.60071205028E+02  0.48598291242E+02 -0.47955079957E+03  0.48573584689E+03  0.00000000000E+00 0. -1.
          1    1    1    2  502    0  0.98082882722E+01  0.23749954107E+02  0.14527396948E+03  0.14752894309E+03  0.00000000000E+00 0. -1.
         22    1    3    3    0    0  0.34102882784E+02 -0.10726754374E+03 -0.36611490195E+03  0.38302670140E+03  0.00000000000E+00 0.  1.
         22    1    3    3    0    0  0.16160033972E+02  0.34919298391E+02 -0.84950615198E+02  0.93258303226E+02  0.00000000000E+00 0.  1.
</event>
<event>
 7    1  0.5931885E-006  0.3321185E+03  0.7818608E-02  0.1089416E+00
          2   -1    0    0  502    0  0.00000000000E+00  0.00000000000E+00  0.11372892075E+04  0.11372892075E+04  0.00000000000E+00 0. -1.
          1   -1    0    0  501    0 -0.00000000000E+00 -0.00000000000E+00 -0.50270595566E+03  0.50270595566E+03  0.00000000000E+00 0. -1.
         25    2    1    2    0    0  0.98450320902E+00  0.25676847551E+02 -0.21195993883E+02  0.12936345367E+03  0.12500145295E+03 0.  0.
          2    1    1    2  501    0 -0.20378135666E+03  0.26225156899E+03 -0.32735004316E+03  0.46632689984E+03  0.00000000000E+00 0. -1.
          1    1    1    2  502    0  0.20279685345E+03 -0.28792841654E+03  0.98312928886E+03  0.10443048096E+04  0.00000000000E+00 0. -1.
         22    1    3    3    0    0  0.27425345786E+02 -0.37765454197E+02 -0.36135704147E+02  0.59026843354E+02  0.00000000000E+00 0. -1.
         22    1    3    3    0    0 -0.26440842577E+02  0.63442301748E+02  0.14939710264E+02  0.70336610311E+02  0.00000000000E+00 0. -1.
</event>
<event>
 7    1  0.5931885E-006  0.5748597E+02  0.7818608E-02  0.1491894E+00
          2   -1    0    0  502    0  0.00000000000E+00  0.00000000000E+00  0.12496812410E+04  0.12496812410E+04  0.00000000000E+00 0. -1.
          1   -1    0    0  501    0 -0.00000000000E+00 -0.00000000000E+00 -0.95785305122E+03  0.95785305122E+03  0.00000000000E+00 0. -1.
         25    2    1    2    0    0 -0.40935903843E+02  0.75331068367E+02  0.83442622892E+02  0.17302756774E+03  0.12500139918E+03 0.  0.
          2    1    1    2  501    0  0.22746655276E+02 -0.21259872377E+02 -0.91206924815E+03  0.91260051826E+03  0.00000000000E+00 0. -1.
          1    1    1    2  502    0  0.18189248567E+02 -0.54071195990E+02  0.11204548150E+04  0.11219062062E+04  0.00000000000E+00 0. -1.
         22    1    3    3    0    0 -0.35745297452E+00  0.99649714125E+02  0.35796576139E+02  0.10588478720E+03  0.00000000000E+00 0. -1.
         22    1    3    3    0    0 -0.40578450869E+02 -0.24318645758E+02  0.47646046754E+02  0.67142780533E+02  0.00000000000E+00 0. -1.
</event>
<event>
 7    1  0.5931885E-006  0.2955652E+03  0.7818608E-02  0.1158749E+00
          2   -1    0    0  502    0  0.00000000000E+00  0.00000000000E+00  0.11195437980E+04  0.11195437980E+04  0.00000000000E+00 0. -1.
          1   -1    0    0  501    0 -0.00000000000E+00 -0.00000000000E+00 -0.15719282006E+04  0.15719282006E+04  0.00000000000E+00 0. -1.
         25    2    1    2    0    0  0.19192875690E+02  0.31408213976E+03  0.23497992195E+03  0.41213510612E+03  0.12499529984E+03 0.  0.
          2    1    1    2  501    0  0.11137746878E+03 -0.49125606069E+02 -0.14533148422E+04  0.14584040237E+04  0.00000000000E+00 0. -1.
          1    1    1    2  502    0 -0.13057034447E+03 -0.26495653370E+03  0.76595051769E+03  0.82093286885E+03  0.00000000000E+00 0. -1.
         22    1    3    3    0    0 -0.89843523864E+01  0.27880315989E+03  0.15201425318E+03  0.31767948269E+03  0.00000000000E+00 0. -1.
         22    1    3    3    0    0  0.28177228076E+02  0.35278979872E+02  0.82965668770E+02  0.94455623429E+02  0.00000000000E+00 0. -1.
</event>
<event>
 7    1  0.5931885E-006  0.1063393E+03  0.7818608E-02  0.1359252E+00
          2   -1    0    0  502    0  0.00000000000E+00  0.00000000000E+00  0.12921670711E+04  0.12921670711E+04  0.00000000000E+00 0. -1.
          1   -1    0    0  501    0 -0.00000000000E+00 -0.00000000000E+00 -0.95499676491E+03  0.95499676491E+03  0.00000000000E+00 0. -1.
         25    2    1    2    0    0  0.11008104757E+03  0.59697992738E+02  0.48426455209E+03  0.51557618096E+03  0.12499981837E+03 0.  0.
          2    1    1    2  501    0 -0.68837372768E+02 -0.80969313762E+02 -0.93565062382E+03  0.94166698121E+03  0.00000000000E+00 0. -1.
          1    1    1    2  502    0 -0.41243674805E+02  0.21271321023E+02  0.78855637793E+03  0.78992067386E+03  0.00000000000E+00 0. -1.
         22    1    3    3    0    0  0.69627646680E+02 -0.64038086112E+00  0.39204726569E+03  0.39818271912E+03  0.00000000000E+00 0.  1.
         22    1    3    3    0    0  0.40453400893E+02  0.60338373599E+02  0.92217286396E+02  0.11739346184E+03  0.00000000000E+00 0.  1.
</event>
<event>
 7    1  0.5931885E-006  0.6771084E+02  0.7818608E-02  0.1387920E+00
          2   -1    0    0  502    0  0.00000000000E+00  0.00000000000E+00  0.58779366405E+02  0.58779366405E+02  0.00000000000E+00 0. -1.
          1   -1    0    0  501    0 -0.00000000000E+00 -0.00000000000E+00 -0.11191563028E+04  0.11191563028E+04  0.00000000000E+00 0. -1.
         25    2    1    2    0    0 -0.60609291066E+02 -0.71648628941E+02 -0.44263668069E+03  0.46942450378E+03  0.12500048586E+03 0.  0.
          2    1    1    2  501    0  0.32934173651E+01  0.66402113681E+02 -0.64244625293E+03  0.64587713631E+03  0.00000000000E+00 0. -1.
          1    1    1    2  502    0  0.57315873701E+02  0.52465152604E+01  0.24705997249E+02  0.62634029094E+02  0.00000000000E+00 0. -1.
         22    1    3    3    0    0 -0.32213888445E+02 -0.95665778725E+02 -0.20080094301E+03  0.22474584433E+03  0.00000000000E+00 0.  1.
         22    1    3    3    0    0 -0.28395402620E+02  0.24017149784E+02 -0.24183573768E+03  0.24467865946E+03  0.00000000000E+00 0.  1.
</event>
<event>
 7    1  0.5931885E-006  0.1006931E+03  0.7818608E-02  0.1317581E+00
          2   -1    0    0  502    0  0.00000000000E+00  0.00000000000E+00  0.91990182491E+03  0.91990182491E+03  0.00000000000E+00 0. -1.
          1   -1    0    0  501    0 -0.00000000000E+00 -0.00000000000E+00 -0.31960275283E+03  0.31960275283E+03  0.00000000000E+00 0. -1.
         25    2    1    2    0    0  0.14904569335E+02 -0.16395964614E+03 -0.49500383418E+02  0.21255807155E+03  0.12500293625E+03 0.  0.
          2    1    1    2  501    0  0.14073921597E+02  0.68959522885E+02 -0.17893631491E+03  0.19228025343E+03  0.00000000000E+00 0. -1.
          1    1    1    2  502    0 -0.28978490932E+02  0.95000123259E+02  0.82873577040E+03  0.83466625276E+03  0.00000000000E+00 0. -1.
         22    1    3    3    0    0 -0.11163555398E+02 -0.10929303989E+03 -0.88027863244E+02  0.14077818810E+03  0.00000000000E+00 0.  1.
         22    1    3    3    0    0  0.26068124733E+02 -0.54666606254E+02  0.38527479825E+02  0.71779883450E+02  0.00000000000E+00 0.  1.
</event>
<event>
 7    1  0.5931885E-006  0.1546962E+03  0.7818608E-02  0.1407095E+00
          2   -1    0    0  502    0  0.00000000000E+00  0.00000000000E+00  0.13384298031E+04  0.13384298031E+04  0.00000000000E+00 0. -1.
          1   -1    0    0  501    0 -0.00000000000E+00 -0.00000000000E+00 -0.55551831178E+03  0.55551831178E+03  0.00000000000E+00 0. -1.
         25    2    1    2    0    0 -0.11839684606E+03 -0.12056677393E+03 -0.12520047803E+03  0.24465506976E+03  0.12500713311E+03 0.  0.
          2    1    1    2  501    0  0.97349622855E+02  0.11557369501E+03 -0.35509014253E+03  0.38590573638E+03  0.00000000000E+00 0. -1.
          1    1    1    2  502    0  0.21047223203E+02  0.49930789187E+01  0.12632021119E+04  0.12633873087E+04  0.00000000000E+00 0. -1.
         22    1    3    3    0    0 -0.12385752272E+03 -0.41402777941E+02 -0.83583961057E+02  0.15505210254E+03  0.00000000000E+00 0. -1.
         22    1    3    3    0    0  0.54606766622E+01 -0.79163995987E+02 -0.41616516978E+02  0.89602967225E+02  0.00000000000E+00 0. -1.
</event>
<event>
 7    1  0.5931885E-006  0.7222853E+02  0.7818608E-02  0.1483438E+00
          2   -1    0    0  502    0  0.00000000000E+00  0.00000000000E+00  0.20125764971E+04  0.20125764971E+04  0.00000000000E+00 0. -1.
          1   -1    0    0  501    0 -0.00000000000E+00 -0.00000000000E+00 -0.25737498571E+02  0.25737498571E+02  0.00000000000E+00 0. -1.
         25    2    1    2    0    0  0.57036734566E+02 -0.46183176338E+02  0.74257299905E+03  0.75658806330E+03  0.12499905501E+03 0.  0.
          2    1    1    2  501    0 -0.68881617258E+02  0.22714165725E+02  0.52178957820E+02  0.89349057968E+02  0.00000000000E+00 0. -1.
          1    1    1    2  502    0  0.11844882692E+02  0.23469010613E+02  0.11920870417E+04  0.11923768744E+04  0.00000000000E+00 0. -1.
         22    1    3    3    0    0 -0.30743017369E+02 -0.47446732543E+02  0.25727882622E+03  0.26341738736E+03  0.00000000000E+00 0.  1.
         22    1    3    3    0    0  0.87779751934E+02  0.12635562059E+01  0.48529417283E+03  0.49317067594E+03  0.00000000000E+00 0.  1.
</event>
<event>
 7    1  0.5931885E-006  0.7556089E+02  0.7818608E-02  0.1371656E+00
          2   -1    0    0  502    0  0.00000000000E+00  0.00000000000E+00  0.31407003927E+03  0.31407003927E+03  0.00000000000E+00 0. -1.
          1   -1    0    0  501    0 -0.00000000000E+00 -0.00000000000E+00 -0.99977656100E+03  0.99977656100E+03  0.00000000000E+00 0. -1.
         25    2    1    2    0    0  0.78915271208E+02  0.10434027112E+03  0.15442136786E+01  0.18094390399E+03  0.12499519826E+03 0.  0.
          2    1    1    2  501    0 -0.34248881596E+02 -0.47911481937E+02 -0.90328172859E+03  0.90519963389E+03  0.00000000000E+00 0. -1.
          1    1    1    2  502    0 -0.44666389612E+02 -0.56428789183E+02  0.21603099318E+03  0.22770306239E+03  0.00000000000E+00 0. -1.
         22    1    3    3    0    0 -0.22016322110E+02  0.63632680010E+02 -0.19491293246E+02  0.70098123491E+02  0.00000000000E+00 0. -1.
         22    1    3    3    0    0  0.10093159332E+03  0.40707591110E+02  0.21035506925E+02  0.11084578050E+03  0.00000000000E+00 0. -1.
</event>
<event>
 7    1  0.5931885E-006  0.1666958E+03  0.7818608E-02  0.1237658E+00
          2   -1    0    0  502    0  0.00000000000E+00  0.00000000000E+00  0.13117861482E+03  0.13117861482E+03  0.00000000000E+00 0. -1.
          1   -1    0    0  501    0 -0.00000000000E+00 -0.00000000000E+00 -0.33596873681E+04  0.33596873681E+04  0.00000000000E+00 0. -1.
         25    2    1    2    0    0 -0.54948483080E+02  0.10454993043E+03 -0.24060159252E+03  0.29574292390E+03  0.12499890787E+03 0.  0.
          2    1    1    2  501    0 -0.90907360511E+02  0.83206419027E+01 -0.30081974627E+04  0.30095822560E+04  0.00000000000E+00 0. -1.
          1    1    1    2  502    0  0.14585584359E+03 -0.11287057234E+03  0.20290301953E+02  0.18554080296E+03  0.00000000000E+00 0. -1.
         22    1    3    3    0    0 -0.92503991324E+02  0.51053057446E+02 -0.13321822930E+03  0.17003087868E+03  0.00000000000E+00 0.  1.
         22    1    3    3    0    0  0.37555508244E+02  0.53496872987E+02 -0.10738336322E+03  0.12571204522E+03  0.00000000000E+00 0.  1.
</event>
<event>
 7    1  0.5931885E-006  0.2871030E+02  0.7818608E-02  0.1669358E+00
          2   -1    0    0  502    0  0.00000000000E+00  0.00000000000E+00  0.47282755508E+03  0.47282755508E+03  0.00000000000E+00 0. -1.
          1   -1    0    0  501    0 -0.00000000000E+00 -0.00000000000E+00 -0.14634937510E+03  0.14634937510E+03  0.00000000000E+00 0. -1.
         25    2    1    2    0    0 -0.10222480347E+02 -0.43291098438E+02  0.35073332487E+03  0.37499002299E+03  0.12500013544E+03 0.  0.
          2    1    1    2  501    0  0.12540933242E+02  0.16574310195E+02 -0.13175925016E+03  0.13338846565E+03  0.00000000000E+00 0. -1.
          1    1    1    2  502    0 -0.23184528948E+01  0.26716788243E+02  0.10750410526E+03  0.11079844154E+03  0.00000000000E+00 0. -1.
         22    1    3    3    0    0  0.52530129765E+02 -0.45204717231E+02  0.16624439653E+03  0.18011129995E+03  0.00000000000E+00 0.  1.
         22    1    3    3    0    0 -0.62752610112E+02  0.19136187931E+01  0.18448892835E+03  0.19487872304E+03  0.00000000000E+00 0.  1.
</event>
<event>
 7    1  0.5931885E-006  0.8576322E+02  0.7818608E-02  0.1355737E+00
          2   -1    0    0  502    0  0.00000000000E+00  0.00000000000E+00  0.41053506796E+04  0.41053506796E+04  0.00000000000E+00 0. -1.
          1   -1    0    0  501    0 -0.00000000000E+00 -0.00000000000E+00 -0.11638474537E+02  0.11638474537E+02  0.00000000000E+00 0. -1.
         25    2    1    2    0    0 -0.12841176379E+03 -0.28690818714E+02  0.14115452110E+04  0.14231646504E+04  0.12499998122E+03 0.  0.
          2    1    1    2  501    0  0.69411259161E+02  0.34345728041E+02  0.26890310192E+03  0.27983286111E+03  0.00000000000E+00 0. -1.
          1    1    1    2  502    0  0.59000504631E+02 -0.56549093270E+01  0.24132638921E+04  0.24139916426E+04  0.00000000000E+00 0. -1.
         22    1    3    3    0    0 -0.28013913421E+02  0.34641960574E+02  0.16266317517E+03  0.16865394550E+03  0.00000000000E+00 0. -1.
         22    1    3    3    0    0 -0.10039785037E+03 -0.63332779289E+02  0.12488820358E+04  0.12545107049E+04  0.00000000000E+00 0. -1.
</event>
<event>
 7    1  0.5931885E-006  0.6037749E+02  0.7818608E-02  0.1453884E+00
          2   -1    0    0  502    0  0.00000000000E+00  0.00000000000E+00  0.91503118810E+02  0.91503118810E+02  0.00000000000E+00 0. -1.
          1   -1    0    0  501    0 -0.00000000000E+00 -0.00000000000E+00 -0.33644133335E+03  0.33644133335E+03  0.00000000000E+00 0. -1.
         25    2    1    2    0    0  0.26172618054E+02  0.24188469488E+02 -0.10773625030E+03  0.16882562339E+03  0.12499961397E+03 0.  0.
          2    1    1    2  501    0  0.36872239178E+02 -0.12330423342E+02 -0.17859189874E+03  0.18277490982E+03  0.00000000000E+00 0. -1.
          1    1    1    2  502    0 -0.63044857232E+02 -0.11858046146E+02  0.41389934506E+02  0.76343918947E+02  0.00000000000E+00 0. -1.
         22    1    3    3    0    0  0.49902540363E+02  0.87615880693E+01  0.65493181582E+01  0.51087400878E+02  0.00000000000E+00 0.  1.
         22    1    3    3    0    0 -0.23729922309E+02  0.15426881419E+02 -0.11428556846E+03  0.11773822252E+03  0.00000000000E+00 0.  1.
</event>
<event>
 7    1  0.5931885E-006  0.5340963E+02  0.7818608E-02  0.1439018E+00
          2   -1    0    0  502    0  0.00000000000E+00  0.00000000000E+00  0.16406164269E+04  0.16406164269E+04  0.00000000000E+00 0. -1.
          1   -1    0    0  501    0 -0.00000000000E+00 -0.00000000000E+00 -0.13194187814E+03  0.13194187814E+03  0.00000000000E+00 0. -1.
         25    2    1    2    0    0 -0.97424479013E+02 -0.26019290861E+02  0.20254179362E+03  0.25848539266E+03  0.12499194953E+03 0.  0.
          2    1    1    2  501    0  0.49169458335E+02  0.17136703570E+02 -0.96994837506E+02  0.11008769570E+03  0.00000000000E+00 0. -1.
          1    1    1    2  502    0  0.48255020678E+02  0.88825872905E+01  0.14031275927E+04  0.14039852167E+04  0.00000000000E+00 0. -1.
         22    1    3    3    0    0 -0.25763979462E+02 -0.35134841644E+02  0.12948771482E+00  0.43568985553E+02  0.00000000000E+00 0.  1.
         22    1    3    3    0    0 -0.71660499551E+02  0.91155507832E+01  0.20241230591E+03  0.21491640711E+03  0.00000000000E+00 0.  1.
</event>
<event>
 7    1  0.5931885E-006  0.1086800E+03  0.7818608E-02  0.1377543E+00
          2   -1    0    0  502    0  0.00000000000E+00  0.00000000000E+00  0.90085327159E+03  0.90085327159E+03  0.00000000000E+00 0. -1.
          1   -1    0    0  501    0 -0.00000000000E+00 -0.00000000000E+00 -0.11998083313E+03  0.11998083313E+03  0.00000000000E+00 0. -1.
         25    2    1    2    0    0 -0.86202360139E+02  0.10632986698E+03  0.15326469455E+03  0.24052013759E+03  0.12499192967E+03 0.  0.
          2    1    1    2  501    0  0.41195292998E+01 -0.38794128668E+02 -0.67048475302E+02  0.77572243625E+02  0.00000000000E+00 0. -1.
          1    1    1    2  502    0  0.82082830839E+02 -0.67535738316E+02  0.69465621921E+03  0.70274172351E+03  0.00000000000E+00 0. -1.
         22    1    3    3    0    0  0.13006126311E+02  0.15481906958E+02 -0.14939709777E+02  0.25140479170E+02  0.00000000000E+00 0.  1.
         22    1    3    3    0    0 -0.99208486450E+02  0.90847960026E+02  0.16820440433E+03  0.21537965842E+03  0.00000000000E+00 0.  1.
</event>
<event>
 7    1  0.5931885E-006  0.7042463E+02  0.7818608E-02  0.1387607E+00
          2   -1    0    0  502    0  0.00000000000E+00  0.00000000000E+00  0.68069121335E+03  0.68069121335E+03  0.00000000000E+00 0. -1.
          1   -1    0    0  501    0 -0.00000000000E+00 -0.00000000000E+00 -0.36025809577E+03  0.36025809577E+03  0.00000000000E+00 0. -1.
         25    2    1    2    0    0  0.16698778372E+02 -0.27823684328E+02  0.13935008711E+02  0.12989009730E+03  0.12499698516E+03 0.  0.
          2    1    1    2  501    0 -0.71225075588E+02  0.17595676334E+02 -0.29653680107E+03  0.30547781198E+03  0.00000000000E+00 0. -1.
          1    1    1    2  502    0  0.54526297216E+02  0.10228007994E+02  0.60303490994E+03  0.60558139985E+03  0.00000000000E+00 0. -1.
         22    1    3    3    0    0  0.32503540376E+02  0.41784205582E+02  0.23412781088E+02  0.57884007216E+02  0.00000000000E+00 0. -1.
         22    1    3    3    0    0 -0.15804762005E+02 -0.69607889910E+02 -0.94777723770E+01  0.72006090082E+02  0.00000000000E+00 0. -1.
</event>
<event>
 7    1  0.5931885E-006  0.7925897E+02  0.7818608E-02  0.1399167E+00
          2   -1    0    0  502    0  0.00000000000E+00  0.00000000000E+00  0.23586523991E+04  0.23586523991E+04  0.00000000000E+00 0. -1.
          1   -1    0    0  501    0 -0.00000000000E+00 -0.00000000000E+00 -0.93029094421E+02  0.93029094421E+02  0.00000000000E+00 0. -1.
         25    2    1    2    0    0 -0.37982764874E+02  0.40596159346E+02  0.63857960889E+03  0.65307040628E+03  0.12500520025E+03 0.  0.
          2    1    1    2  501    0  0.18927515929E+02  0.40761958595E+02 -0.78803725791E+02  0.90718329605E+02  0.00000000000E+00 0. -1.
          1    1    1    2  502    0  0.19055248946E+02 -0.81358117941E+02  0.17058474216E+04  0.17078927577E+04  0.00000000000E+00 0. -1.
         22    1    3    3    0    0  0.16099109727E+02  0.63463750765E+02  0.19679601326E+03  0.20740178358E+03  0.00000000000E+00 0. -1.
         22    1    3    3    0    0 -0.54081874601E+02 -0.22867591419E+02  0.44178359563E+03  0.44566862270E+03  0.00000000000E+00 0. -1.
</event>
<event>
 7    1  0.5931885E-006  0.3882943E+02  0.7818608E-02  0.1559415E+00
          2   -1    0    0  502    0  0.00000000000E+00  0.00000000000E+00  0.13941391092E+04  0.13941391092E+04  0.00000000000E+00 0. -1.
          1   -1    0    0  501    0 -0.00000000000E+00 -0.00000000000E+00 -0.10258798762E+03  0.10258798762E+03  0.00000000000E+00 0. -1.
         25    2    1    2    0    0 -0.10928750119E+02 -0.17212324550E+02  0.16811592459E+03  0.21048323072E+03  0.12499809846E+03 0.  0.
          2    1    1    2  501    0 -0.27636181024E+02  0.10152991543E+02 -0.78412041835E+02  0.83757328297E+02  0.00000000000E+00 0. -1.
          1    1    1    2  502    0  0.38564931143E+02  0.70593330073E+01  0.12018472388E+04  0.12024865377E+04  0.00000000000E+00 0. -1.
         22    1    3    3    0    0 -0.90683814385E+01 -0.71217058739E+02  0.83919150747E+02  0.11043789594E+03  0.00000000000E+00 0.  1.
         22    1    3    3    0    0 -0.18603686808E+01  0.54004734189E+02  0.84196773843E+02  0.10004533478E+03  0.00000000000E+00 0.  1.
</event>
<event>
 7    1  0.5931885E-006  0.8948055E+02  0.7818608E-02  0.1343812E+00
          2   -1    0    0  502    0  0.00000000000E+00  0.00000000000E+00  0.60839845866E+02  0.60839845866E+02  0.00000000000E+00 0. -1.
          1   -1    0    0  501    0 -0.00000000000E+00 -0.00000000000E+00 -0.99855554036E+03  0.99855554036E+03  0.00000000000E+00 0. -1.
         25    2    1    2    0    0  0.33923810584E+02 -0.51171419582E+02 -0.46580541064E+03  0.48617802719E+03  0.12500021777E+03 0.  0.
          2    1    1    2  501    0  0.56567690398E+02  0.27492251653E+02 -0.47546958630E+03  0.47961135828E+03  0.00000000000E+00 0. -1.
          1    1    1    2  502    0 -0.90491500982E+02  0.23679167929E+02  0.35593024345E+01  0.93606000756E+02  0.00000000000E+00 0. -1.
         22    1    3    3    0    0 -0.10721830437E+02  0.20453800312E+01 -0.35650389611E+03  0.35667095364E+03  0.00000000000E+00 0.  1.
         22    1    3    3    0    0  0.44645641021E+02 -0.53216799613E+02 -0.10930151452E+03  0.12950707355E+03  0.00000000000E+00 0.  1.
</event>
<event>
 7    1  0.5931885E-006  0.4815952E+02  0.7818608E-02  0.1494903E+00
          2   -1    0    0  502    0  0.00000000000E+00  0.00000000000E+00  0.68055270786E+03  0.68055270786E+03  0.00000000000E+00 0. -1.
          1   -1    0    0  501    0 -0.00000000000E+00 -0.00000000000E+00 -0.24356938530E+03  0.24356938530E+03  0.00000000000E+00 0. -1.
         25    2    1    2    0    0  0.65123761789E+02 -0.48435831838E+02 -0.27656502273E+02  0.15157229215E+03  0.12498857337E+03 0.  0.
          2    1    1    2  501    0 -0.41421906372E+02  0.20813880275E+02 -0.14991466252E+03  0.15691844372E+03  0.00000000000E+00 0. -1.
          1    1    1    2  502    0 -0.23701855417E+02  0.27621951563E+02  0.61455448736E+03  0.61563135730E+03  0.00000000000E+00 0. -1.
         22    1    3    3    0    0  0.57222353405E+02  0.22379860846E+02  0.21399957857E+02  0.65063154680E+02  0.00000000000E+00 0. -1.
         22    1    3    3    0    0  0.79014083850E+01 -0.70815692684E+02 -0.49056460130E+02  0.86509137467E+02  0.00000000000E+00 0. -1.
</event>
<event>
 7    1  0.5931885E-006  0.4731684E+02  0.7818608E-02  0.1465880E+00
          2   -1    0    0  502    0  0.00000000000E+00  0.00000000000E+00  0.15665822988E+04  0.15665822988E+04  0.00000000000E+00 0. -1.
          1   -1    0    0  501    0 -0.00000000000E+00 -0.00000000000E+00 -0.12266536788E+03  0.12266536788E+03  0.00000000000E+00 0. -1.
         25    2    1    2    0    0 -0.88054535945E+01 -0.43321069532E+02  0.89934361422E+03  0.90906413674E+03  0.12499766872E+03 0.  0.
          2    1    1    2  501    0 -0.38218785289E+02  0.27896368709E+02 -0.11208488192E+03  0.12166307448E+03  0.00000000000E+00 0. -1.
          1    1    1    2  502    0  0.47024238883E+02  0.15424700823E+02  0.65665819858E+03  0.65852045542E+03  0.00000000000E+00 0. -1.
         22    1    3    3    0    0 -0.65698356069E+02 -0.36092698447E+02  0.53825245519E+03  0.54344701894E+03  0.00000000000E+00 0. -1.
         22    1    3    3    0    0  0.56892902475E+02 -0.72283710855E+01  0.36109115903E+03  0.36561711780E+03  0.00000000000E+00 0. -1.
</event>
<event>
 7    1  0.5931885E-006  0.5958484E+02  0.7818608E-02  0.1410347E+00
          2   -1    0    0  502    0  0.00000000000E+00  0.00000000000E+00  0.27740238535E+04  0.27740238535E+04  0.00000000000E+00 0. -1.
          1   -1    0    0  501    0 -0.00000000000E+00 -0.00000000000E+00 -0.70706048735E+03  0.70706048735E+03  0.00000000000E+00 0. -1.
         25    2    1    2    0    0  0.10771742138E+02  0.71837844582E+02  0.17757602794E+03  0.22898657829E+03  0.12499960398E+03 0.  0.
          2    1    1    2  501    0 -0.49560833387E+02 -0.33198236653E+02 -0.67975735960E+03  0.68236974365E+03  0.00000000000E+00 0. -1.
          1    1    1    2  502    0  0.38789091249E+02 -0.38639607929E+02  0.25691446978E+04  0.25697280189E+04  0.00000000000E+00 0. -1.
         22    1    3    3    0    0  0.65687158073E+02  0.21008383539E+02  0.73336777479E+02  0.10066994510E+03  0.00000000000E+00 0.  1.
         22    1    3    3    0    0 -0.54915415935E+02  0.50829461043E+02  0.10423925046E+03  0.12831663320E+03  0.00000000000E+00 0.  1.
</event>
<event>
 7    1  0.5931885E-006  0.1402039E+03  0.7818608E-02  0.1314707E+00
          2   -1    0    0  502    0  0.00000000000E+00  0.00000000000E+00  0.10986526513E+03  0.10986526513E+03  0.00000000000E+00 0. -1.
          1   -1    0    0  501    0 -0.00000000000E+00 -0.00000000000E+00 -0.95294653545E+03  0.95294653545E+03  0.00000000000E+00 0. -1.
         25    2    1    2    0    0 -0.16662928790E+03 -0.37869474086E+02 -0.12841925979E+03  0.24762091291E+03  0.12500077429E+03 0.  0.
          2    1    1    2  501    0  0.39070103680E+02  0.34117267995E+02 -0.68132157517E+03  0.68329316531E+03  0.00000000000E+00 0. -1.
          1    1    1    2  502    0  0.12755918422E+03  0.37522060904E+01 -0.33340435362E+02  0.13189772235E+03  0.00000000000E+00 0. -1.
         22    1    3    3    0    0 -0.78540134454E+02 -0.76916453011E+02 -0.96030379420E+02  0.14596755542E+03  0.00000000000E+00 0.  1.
         22    1    3    3    0    0 -0.88089153447E+02  0.39046978925E+02 -0.32388880372E+02  0.10165335749E+03  0.00000000000E+00 0.  1.
</event>
<event>
 7    1  0.5931885E-006  0.6272915E+02  0.7818608E-02  0.1443674E+00
          2   -1    0    0  502    0  0.00000000000E+00  0.00000000000E+00  0.12032491285E+04  0.12032491285E+04  0.00000000000E+00 0. -1.
          1   -1    0    0  501    0 -0.00000000000E+00 -0.00000000000E+00 -0.26459432456E+02  0.26459432456E+02  0.00000000000E+00 0. -1.
         25    2    1    2    0    0  0.34199069473E+02  0.18588025210E+01  0.49190161251E+03  0.50869012885E+03  0.12500167720E+03 0.  0.
          2    1    1    2  501    0  0.30663597758E+02 -0.26227617989E+02  0.86846449030E+01  0.41274292604E+02  0.00000000000E+00 0. -1.
          1    1    1    2  502    0 -0.64862667231E+02  0.24368815468E+02  0.67620343860E+03  0.67974413947E+03  0.00000000000E+00 0. -1.
         22    1    3    3    0    0  0.91781591111E+01 -0.56848139052E+02  0.32384457009E+03  0.32892439115E+03  0.00000000000E+00 0. -1.
         22    1    3    3    0    0  0.25020910362E+02  0.58706941573E+02  0.16805704242E+03  0.17976573770E+03  0.00000000000E+00 0. -1.
</event>
<event>
 7    1  0.5931885E-006  0.1661646E+03  0.7818608E-02  0.1236135E+00
          2   -1    0    0  502    0  0.00000000000E+00  0.00000000000E+00  0.20561377452E+04  0.20561377452E+04  0.00000000000E+00 0. -1.
          1   -1    0    0  501    0 -0.00000000000E+00 -0.00000000000E+00 -0.40724015876E+03  0.40724015876E+03  0.00000000000E+00 0. -1.
         25    2    1    2    0    0 -0.16632252815E+02  0.80619247815E+02  0.15792778484E+03  0.21757362038E+03  0.12498399941E+03 0.  0.
          2    1    1    2  501    0  0.31195545505E+02 -0.17248605803E+03 -0.35583163217E+03  0.39666201322E+03  0.00000000000E+00 0. -1.
          1    1    1    2  502    0 -0.14563292691E+02  0.91866810218E+02  0.18468014338E+04  0.18491422704E+04  0.00000000000E+00 0. -1.
         22    1    3    3    0    0  0.50175782940E+02  0.53892747273E+02  0.54640026584E+02  0.91692801830E+02  0.00000000000E+00 0. -1.
         22    1    3    3    0    0 -0.66808035754E+02  0.26726500542E+02  0.10328775826E+03  0.12588081855E+03  0.00000000000E+00 0. -1.
</event>
<event>
 7    1  0.5931885E-006  0.4235055E+02  0.7818608E-02  0.1536275E+00
          2   -1    0    0  502    0  0.00000000000E+00  0.00000000000E+00  0.59032725340E+03  0.59032725340E+03  0.00000000000E+00 0. -1.
          1   -1    0    0  501    0 -0.00000000000E+00 -0.00000000000E+00 -0.58706251774E+03  0.58706251774E+03  0.00000000000E+00 0. -1.
         25    2    1    2    0    0 -0.10865436040E+02 -0.36754840485E+02 -0.64785962370E+02  0.14591718091E+03  0.12500250703E+03 0.  0.
          2    1    1    2  501    0  0.31330065283E+02 -0.45925515087E+00 -0.48037956992E+03  0.48140036883E+03  0.00000000000E+00 0. -1.
          1    1    1    2  502    0 -0.20464629244E+02  0.37214095636E+02  0.54843026795E+03  0.55007222141E+03  0.00000000000E+00 0. -1.
         22    1    3    3    0    0 -0.21449215620E+02 -0.71542637850E+02 -0.77274840296E+02  0.10747008339E+03  0.00000000000E+00 0. -1.
         22    1    3    3    0    0  0.10583779580E+02  0.34787797365E+02  0.12488877925E+02  0.38447097518E+02  0.00000000000E+00 0. -1.
</event>
<event>
 7    1  0.5931885E-006  0.8857941E+02  0.7818608E-02  0.1319238E+00
          2   -1    0    0  502    0  0.00000000000E+00  0.00000000000E+00  0.11035655703E+04  0.11035655703E+04  0.00000000000E+00 0. -1.
          1   -1    0    0  501    0 -0.00000000000E+00 -0.00000000000E+00 -0.40643355912E+03  0.40643355912E+03  0.00000000000E+00 0. -1.
         25    2    1    2    0    0 -0.61377502059E+02  0.60254125959E+01  0.29169351089E+03  0.32328764343E+03  0.12500517086E+03 0.  0.
          2    1    1    2  501    0 -0.45399729079E+01 -0.78696668677E+02 -0.38359029619E+03  0.39160604227E+03  0.00000000000E+00 0. -1.
          1    1    1    2  502    0  0.65917474967E+02  0.72671256081E+02  0.78902879649E+03  0.79510544373E+03  0.00000000000E+00 0. -1.
         22    1    3    3    0    0  0.12945152282E+02 -0.20460082538E+02  0.20356586565E+03  0.20500061855E+03  0.00000000000E+00 0. -1.
         22    1    3    3    0    0 -0.74322654340E+02  0.26485495134E+02  0.88127645240E+02  0.11828702489E+03  0.00000000000E+00 0. -1.
</event>
<event>
 7    1  0.5931885E-006  0.3319678E+02  0.7818608E-02  0.1602116E+00
          2   -1    0    0  502    0  0.00000000000E+00  0.00000000000E+00  0.47190395920E+03  0.47190395920E+03  0.00000000000E+00 0. -1.
          1   -1    0    0  501    0 -0.00000000000E+00 -0.00000000000E+00 -0.96118390754E+02  0.96118390754E+02  0.00000000000E+00 0. -1.
         25    2    1    2    0    0 -0.69549945048E+01  0.58720189579E+02  0.71802550112E+02  0.15581546836E+03  0.12500568533E+03 0.  0.
          2    1    1    2  501    0  0.44582435123E+01 -0.26083927139E+02 -0.50076108442E+02  0.56638006911E+02  0.00000000000E+00 0. -1.
          1    1    1    2  502    0  0.24967509925E+01 -0.32636262440E+02  0.35405912677E+03  0.35556887468E+03  0.00000000000E+00 0. -1.
         22    1    3    3    0    0 -0.65761649742E+02  0.24293643463E+02  0.38221812781E+02  0.79847871993E+02  0.00000000000E+00 0.  1.
         22    1    3    3    0    0  0.58806655237E+02  0.34426546115E+02  0.33580737331E+02  0.75967596364E+02  0.00000000000E+00 0.  1.
</event>
<event>
 7    1  0.5931885E-006  0.8040248E+02  0.7818608E-02  0.1377393E+00
          2   -1    0    0  502    0  0.00000000000E+00  0.00000000000E+00  0.10211580041E+04  0.10211580041E+04  0.00000000000E+00 0. -1.
          1   -1    0    0  501    0 -0.00000000000E+00 -0.00000000000E+00 -0.78148393571E+03  0.78148393571E+03  0.00000000000E+00 0. -1.
         25    2    1    2    0    0 -0.50409472492E+02  0.10359561758E+03 -0.12153269172E+03  0.20896949105E+03  0.12499954453E+03 0.  0.
          2    1    1    2  501    0  0.59658999826E+02 -0.51614633653E+02 -0.61299036243E+03  0.61804567072E+03  0.00000000000E+00 0. -1.
          1    1    1    2  502    0 -0.92495273341E+01 -0.51980983930E+02  0.97419712250E+03  0.97562677799E+03  0.00000000000E+00 0. -1.
         22    1    3    3    0    0 -0.40059351161E+02  0.12145207687E+03 -0.54829318170E+02  0.13914601224E+03  0.00000000000E+00 0. -1.
         22    1    3    3    0    0 -0.10350121332E+02 -0.17856459286E+02 -0.66703373552E+02  0.69823478810E+02  0.00000000000E+00 0. -1.
</event>
<event>
 7    1  0.5931885E-006  0.8892149E+02  0.7818608E-02  0.1356899E+00
          2   -1    0    0  502    0  0.00000000000E+00  0.00000000000E+00  0.21840486992E+04  0.21840486992E+04  0.00000000000E+00 0. -1.
          1   -1    0    0  501    0 -0.00000000000E+00 -0.00000000000E+00 -0.14266354499E+03  0.14266354499E+03  0.00000000000E+00 0. -1.
         25    2    1    2    0    0 -0.31944895735E+02 -0.13228248596E+03  0.24428158952E+03  0.30629166701E+03  0.12498783078E+03 0.  0.
          2    1    1    2  501    0  0.40304858880E+02  0.76296088889E+02 -0.94501233085E+02  0.12796897235E+03  0.00000000000E+00 0. -1.
          1    1    1    2  502    0 -0.83599631454E+01  0.55986397074E+02  0.18916047978E+04  0.18924516048E+04  0.00000000000E+00 0. -1.
         22    1    3    3    0    0 -0.19020476302E+01 -0.14639306186E+03  0.22332888691E+03  0.26703995595E+03  0.00000000000E+00 0.  1.
         22    1    3    3    0    0 -0.30042848105E+02  0.14110575895E+02  0.20952702612E+02  0.39251711059E+02  0.00000000000E+00 0.  1.
</event>
<event>
 7    1  0.5931885E-006  0.1030063E+03  0.7818608E-02  0.1346888E+00
          2   -1    0    0  502    0  0.00000000000E+00  0.00000000000E+00  0.24404594060E+04  0.24404594060E+04  0.00000000000E+00 0. -1.
          1   -1    0    0  501    0 -0.00000000000E+00 -0.00000000000E+00 -0.35100652104E+03  0.35100652104E+03  0.00000000000E+00 0. -1.
         25    2    1    2    0    0 -0.12450591946E+03 -0.44690431956E+02  0.12925504444E+04  0.13053012195E+04  0.12500265486E+03 0.  0.
          2    1    1    2  501    0  0.10281525049E+03 -0.38991152341E+01 -0.33631354164E+03  0.35170012386E+03  0.00000000000E+00 0. -1.
          1    1    1    2  502    0  0.21690668973E+02  0.48589547190E+02  0.11332159823E+04  0.11344645837E+04  0.00000000000E+00 0. -1.
         22    1    3    3    0    0 -0.74299153472E+02  0.18822775123E+02  0.30670656161E+03  0.31613853926E+03  0.00000000000E+00 0.  1.
         22    1    3    3    0    0 -0.50206765986E+02 -0.63513207079E+02  0.98584388274E+03  0.98916268023E+03  0.00000000000E+00 0.  1.
</event>
<event>
 7    1  0.5931885E-006  0.8554582E+02  0.7818608E-02  0.1442340E+00
          2   -1    0    0  502    0  0.00000000000E+00  0.00000000000E+00  0.23769958845E+04  0.23769958845E+04  0.00000000000E+00 0. -1.
          1   -1    0    0  501    0 -0.00000000000E+00 -0.00000000000E+00 -0.15180845527E+04  0.15180845527E+04  0.00000000000E+00 0. -1.
         25    2    1    2    0    0 -0.63183061445E+02 -0.90426436064E+02  0.13967919003E+03  0.21749991038E+03  0.12500758094E+03 0.  0.
          2    1    1    2  501    0  0.36357445402E+02  0.77258467297E+02 -0.14778402684E+04  0.14803048989E+04  0.00000000000E+00 0. -1.
          1    1    1    2  502    0  0.26825616044E+02  0.13167968767E+02  0.21970724102E+04  0.21972756279E+04  0.00000000000E+00 0. -1.
         22    1    3    3    0    0 -0.10046751658E+03 -0.61842336485E+02  0.11354461770E+03  0.16373935593E+03  0.00000000000E+00 0.  1.
         22    1    3    3    0    0  0.37284455138E+02 -0.28584099579E+02  0.26134572329E+02  0.53760554448E+02  0.00000000000E+00 0.  1.
</event>
<event>
 7    1  0.5931885E-006  0.3796438E+02  0.7818608E-02  0.1608659E+00
          2   -1    0    0  502    0  0.00000000000E+00  0.00000000000E+00  0.22060355278E+02  0.22060355278E+02  0.00000000000E+00 0. -1.
          1   -1    0    0  501    0 -0.00000000000E+00 -0.00000000000E+00 -0.14582724146E+04  0.14582724146E+04  0.00000000000E+00 0. -1.
         25    2    1    2    0    0  0.13920862226E+02 -0.49785223410E+02 -0.55036414927E+03  0.56674307181E+03  0.12499861506E+03 0.  0.
          2    1    1    2  501    0  0.92040792629E+01  0.20259127864E+02 -0.87396489582E+03  0.87424812637E+03  0.00000000000E+00 0. -1.
          1    1    1    2  502    0 -0.23124941489E+02  0.29526095545E+02 -0.11883014243E+02  0.39341571708E+02  0.00000000000E+00 0. -1.
         22    1    3    3    0    0 -0.24995738634E+00 -0.19653038136E+02 -0.48903457868E+01  0.20253885271E+02  0.00000000000E+00 0.  1.
         22    1    3    3    0    0  0.14170819612E+02 -0.30132185274E+02 -0.54547380348E+03  0.54648918654E+03  0.00000000000E+00 0.  1.
</event>
<event>
 7    1  0.5931885E-006  0.8136140E+02  0.7818608E-02  0.1408960E+00
          2   -1    0    0  502    0  0.00000000000E+00  0.00000000000E+00  0.26403218966E+04  0.26403218966E+04  0.00000000000E+00 0. -1.
          1   -1    0    0  501    0 -0.00000000000E+00 -0.00000000000E+00 -0.75143026482E+03  0.75143026482E+03  0.00000000000E+00 0. -1.
         25    2    1    2    0    0 -0.57872628109E-01 -0.10039190335E+03 -0.97800403337E+02  0.18779782526E+03  0.12499826668E+03 0.  0.
          2    1    1    2  501    0 -0.31074095353E+02  0.74436046900E+02 -0.60579951153E+03  0.61114595037E+03  0.00000000000E+00 0. -1.
          1    1    1    2  502    0  0.31131967981E+02  0.25955856453E+02  0.25924915467E+04  0.25928083858E+04  0.00000000000E+00 0. -1.
         22    1    3    3    0    0  0.24041639567E+01  0.28343595173E+02 -0.45238931177E+01  0.28802864451E+02  0.00000000000E+00 0.  1.
         22    1    3    3    0    0 -0.24620365848E+01 -0.12873549853E+03 -0.93276510219E+02  0.15899496081E+03  0.00000000000E+00 0.  1.
</event>
<event>
 7    1  0.5931885E-006  0.4591633E+02  0.7818608E-02  0.1532974E+00
          2   -1    0    0  502    0  0.00000000000E+00  0.00000000000E+00  0.10930222018E+04  0.10930222018E+04  0.00000000000E+00 0. -1.
          1   -1    0    0  501    0 -0.00000000000E+00 -0.00000000000E+00 -0.91796428133E+02  0.91796428133E+02  0.00000000000E+00 0. -1.
         25    2    1    2    0    0 -0.14335621984E+02  0.32039495243E+02  0.53243114812E+03  0.54803216964E+03  0.12499716858E+03 0.  0.
          2    1    1    2  501    0 -0.12476228879E+02 -0.44420005733E+02 -0.77230645117E+02  0.89963135459E+02  0.00000000000E+00 0. -1.
          1    1    1    2  502    0  0.26811850864E+02  0.12380510491E+02  0.54602527062E+03  0.54682332479E+03  0.00000000000E+00 0. -1.
         22    1    3    3    0    0  0.53996072702E+02  0.85553741652E+01  0.28810184740E+03  0.29324297906E+03  0.00000000000E+00 0. -1.
         22    1    3    3    0    0 -0.68331694686E+02  0.23484121077E+02  0.24432930073E+03  0.25478919058E+03  0.00000000000E+00 0. -1.
</event>
<event>
 7    1  0.5931885E-006  0.1432839E+03  0.7818608E-02  0.1234885E+00
          2   -1    0    0  502    0  0.00000000000E+00  0.00000000000E+00  0.73420032841E+03  0.73420032841E+03  0.00000000000E+00 0. -1.
          1   -1    0    0  501    0 -0.00000000000E+00 -0.00000000000E+00 -0.17570109312E+04  0.17570109312E+04  0.00000000000E+00 0. -1.
         25    2    1    2    0    0 -0.75216527662E+02 -0.15864582866E+02 -0.13546535864E+03  0.19971600963E+03  0.12500564022E+03 0.  0.
          2    1    1    2  501    0 -0.46690798693E+02  0.98775450371E+02 -0.15797728933E+04  0.15835463412E+04  0.00000000000E+00 0. -1.
          1    1    1    2  502    0  0.12190732636E+03 -0.82910867505E+02  0.69242764915E+03  0.70794890880E+03  0.00000000000E+00 0. -1.
         22    1    3    3    0    0 -0.16335005278E+02  0.46953010001E+02 -0.88837960907E+02  0.10180177230E+03  0.00000000000E+00 0.  1.
         22    1    3    3    0    0 -0.58881522384E+02 -0.62817592868E+02 -0.46627397733E+02  0.97914237327E+02  0.00000000000E+00 0.  1.
</event>
<event>
 7    1  0.5931885E-006  0.2682429E+02  0.7818608E-02  0.1647938E+00
          2   -1    0    0  502    0  0.00000000000E+00  0.00000000000E+00  0.99143154111E+02  0.99143154111E+02  0.00000000000E+00 0. -1.
          1   -1    0    0  501    0 -0.00000000000E+00 -0.00000000000E+00 -0.28474817983E+03  0.28474817983E+03  0.00000000000E+00 0. -1.
         25    2    1    2    0    0 -0.24538357635E+01  0.39371994108E+01 -0.16446687050E+03  0.20662997475E+03  0.12500028850E+03 0.  0.
          2    1    1    2  501    0  0.25389025911E+02  0.99739400510E+01 -0.94916251032E+02  0.98758173468E+02  0.00000000000E+00 0. -1.
          1    1    1    2  502    0 -0.22935190148E+02 -0.13911139462E+02  0.73778095805E+02  0.78503185724E+02  0.00000000000E+00 0. -1.
         22    1    3    3    0    0 -0.30906461026E+02 -0.52272553507E+02 -0.65564270624E+02  0.89366116430E+02  0.00000000000E+00 0.  1.
         22    1    3    3    0    0  0.28452625262E+02  0.56209752917E+02 -0.98902599872E+02  0.11726385832E+03  0.00000000000E+00 0.  1.
</event>
<event>
 7    1  0.5931885E-006  0.6971491E+02  0.7818608E-02  0.1367050E+00
          2   -1    0    0  502    0  0.00000000000E+00  0.00000000000E+00  0.49389157708E+03  0.49389157708E+03  0.00000000000E+00 0. -1.
          1   -1    0    0  501    0 -0.00000000000E+00 -0.00000000000E+00 -0.28217487315E+03  0.28217487315E+03  0.00000000000E+00 0. -1.
         25    2    1    2    0    0 -0.11120000562E+03  0.61037442480E+02  0.64687509402E+02  0.18947775190E+03  0.12500533572E+03 0.  0.
          2    1    1    2  501    0  0.65197676978E+02 -0.12126506522E+02 -0.21158942814E+03  0.22173830374E+03  0.00000000000E+00 0. -1.
          1    1    1    2  502    0  0.46002328639E+02 -0.48910935958E+02  0.35861862267E+03  0.36485039458E+03  0.00000000000E+00 0. -1.
         22    1    3    3    0    0 -0.83922125740E+02  0.14949914687E+02  0.95243276038E+02  0.12781903132E+03  0.00000000000E+00 0. -1.
         22    1    3    3    0    0 -0.27277879877E+02  0.46087527793E+02 -0.30555766637E+02  0.61658720579E+02  0.00000000000E+00 0. -1.
</event>
<event>
 7    1  0.5931885E-006  0.8418311E+02  0.7818608E-02  0.1344202E+00
          2   -1    0    0  502    0  0.00000000000E+00  0.00000000000E+00  0.52032782900E+02  0.52032782900E+02  0.00000000000E+00 0. -1.
          1   -1    0    0  501    0 -0.00000000000E+00 -0.00000000000E+00 -0.22582868525E+04  0.22582868525E+04  0.00000000000E+00 0. -1.
         25    2    1    2    0    0 -0.72347543760E+02 -0.53237692573E+02 -0.44335249790E+03  0.46931104839E+03  0.12499201474E+03 0.  0.
          2    1    1    2  501    0  0.84775765473E+02 -0.12221164889E+02 -0.17717289629E+04  0.17737981298E+04  0.00000000000E+00 0. -1.
          1    1    1    2  502    0 -0.12428221713E+02  0.65458857462E+02  0.88273912556E+01  0.67210457160E+02  0.00000000000E+00 0. -1.
         22    1    3    3    0    0  0.32806079602E+02 -0.25219882359E+02 -0.80809330439E+02  0.90787825236E+02  0.00000000000E+00 0.  1.
         22    1    3    3    0    0 -0.10515362336E+03 -0.28017810214E+02 -0.36254316746E+03  0.37852322315E+03  0.00000000000E+00 0.  1.
</event>
<event>
 7    1  0.5931885E-006  0.6718881E+02  0.7818608E-02  0.1417076E+00
          2   -1    0    0  502    0  0.00000000000E+00  0.00000000000E+00  0.40676788611E+02  0.40676788611E+02  0.00000000000E+00 0. -1.
          1   -1    0    0  501    0 -0.00000000000E+00 -0.00000000000E+00 -0.28372561077E+04  0.28372561077E+04  0.00000000000E+00 0. -1.
         25    2    1    2    0    0  0.69439865267E+02 -0.33256031706E+02 -0.12553073468E+04  0.12638631053E+04  0.12500222177E+03 0.  0.
          2    1    1    2  501    0 -0.33391319341E+01  0.45962414925E+02 -0.15459123902E+04  0.15465991114E+04  0.00000000000E+00 0. -1.
          1    1    1    2  502    0 -0.66100733333E+02 -0.12706383218E+02  0.46404179170E+01  0.67470679559E+02  0.00000000000E+00 0. -1.
         22    1    3    3    0    0  0.40668774262E+02  0.11536038800E+02 -0.11857968575E+03  0.12588952007E+03  0.00000000000E+00 0.  1.
         22    1    3    3    0    0  0.28771091006E+02 -0.44792070507E+02 -0.11367276611E+04  0.11379735852E+04  0.00000000000E+00 0.  1.
</event>
<event>
 7    1  0.5931885E-006  0.1333039E+03  0.7818608E-02  0.1434805E+00
          2   -1    0    0  502    0  0.00000000000E+00  0.00000000000E+00  0.35319965961E+03  0.35319965961E+03  0.00000000000E+00 0. -1.
          1   -1    0    0  501    0 -0.00000000000E+00 -0.00000000000E+00 -0.25227062625E+03  0.25227062625E+03  0.00000000000E+00 0. -1.
         25    2    1    2    0    0  0.15138946878E+02 -0.12913629823E+03 -0.14780318586E+03  0.23318691556E+03  0.12499993843E+03 0.  0.
          2    1    1    2  501    0 -0.34242283408E+02  0.13597455747E+03  0.18819632238E+02  0.14147718124E+03  0.00000000000E+00 0. -1.
          1    1    1    2  502    0  0.19103336530E+02 -0.68382592421E+01  0.22991258698E+03  0.23080618906E+03  0.00000000000E+00 0. -1.
         22    1    3    3    0    0  0.12402003782E+02  0.39819864371E+01 -0.84964100537E+02  0.85956758279E+02  0.00000000000E+00 0.  1.
         22    1    3    3    0    0  0.27369430965E+01 -0.13311828467E+03 -0.62839085319E+02  0.14723015729E+03  0.00000000000E+00 0.  1.
</event>
<event>
 7    1  0.5931885E-006  0.1502645E+03  0.7818608E-02  0.1344575E+00
          2   -1    0    0  502    0  0.00000000000E+00  0.00000000000E+00  0.80276026179E+02  0.80276026179E+02  0.00000000000E+00 0. -1.
          1   -1    0    0  501    0 -0.00000000000E+00 -0.00000000000E+00 -0.22220522974E+04  0.22220522974E+04  0.00000000000E+00 0. -1.
         25    2    1    2    0    0  0.67423574064E+02 -0.12152034498E+03 -0.29002976875E+03  0.34504617039E+03  0.12500584128E+03 0.  0.
          2    1    1    2  501    0 -0.10324072380E+03  0.11144323064E+03 -0.18945137612E+04  0.19005948101E+04  0.00000000000E+00 0. -1.
          1    1    1    2  502    0  0.35817149737E+02  0.10077114344E+02  0.42767258737E+02  0.56687343108E+02  0.00000000000E+00 0. -1.
         22    1    3    3    0    0  0.24975062854E+02 -0.78490682828E+02 -0.26855237342E+03  0.28090019281E+03  0.00000000000E+00 0.  1.
         22    1    3    3    0    0  0.42448511210E+02 -0.43029662155E+02 -0.21477395338E+02  0.64145977579E+02  0.00000000000E+00 0.  1.
</event>
<event>
 7    1  0.5931885E-006  0.1020988E+03  0.7818608E-02  0.1336655E+00
          2   -1    0    0  502    0  0.00000000000E+00  0.00000000000E+00  0.13945212350E+04  0.13945212350E+04  0.00000000000E+00 0. -1.
          1   -1    0    0  501    0 -0.00000000000E+00 -0.00000000000E+00 -0.96184413958E+02  0.96184413958E+02  0.00000000000E+00 0. -1.
         25    2    1    2    0    0  0.10595251587E+03  0.91745061117E+02  0.34788281399E+03  0.39533577890E+03  0.12499933580E+03 0.  0.
          2    1    1    2  501    0 -0.47481627953E+02 -0.87218175885E+02 -0.37149668149E+02  0.10602647330E+03  0.00000000000E+00 0. -1.
          1    1    1    2  502    0 -0.58470887920E+02 -0.45268852327E+01  0.98760367524E+03  0.98934339679E+03  0.00000000000E+00 0. -1.
         22    1    3    3    0    0  0.11180965686E+03  0.73645160830E+02  0.16977164735E+03  0.21621151987E+03  0.00000000000E+00 0.  1.
         22    1    3    3    0    0 -0.58571409916E+01  0.18099900287E+02  0.17811116664E+03  0.17912425903E+03  0.00000000000E+00 0.  1.
</event>
<event>
 7    1  0.5931885E-006  0.6202987E+02  0.7818608E-02  0.1435825E+00
          2   -1    0    0  502    0  0.00000000000E+00  0.00000000000E+00  0.80164240011E+03  0.80164240011E+03  0.00000000000E+00 0. -1.
          1   -1    0    0  501    0 -0.00000000000E+00 -0.00000000000E+00 -0.18011010386E+03  0.18011010386E+03  0.00000000000E+00 0. -1.
         25    2    1    2    0    0 -0.20862116952E+02  0.68875641104E+02  0.31061395978E+03  0.34246881247E+03  0.12499909456E+03 0.  0.
          2    1    1    2  501    0  0.49978256923E+02 -0.36865508643E+02 -0.15727623455E+03  0.16909377826E+03  0.00000000000E+00 0. -1.
          1    1    1    2  502    0 -0.29116139972E+02 -0.32010132461E+02  0.46819457102E+03  0.47018991325E+03  0.00000000000E+00 0. -1.
         22    1    3    3    0    0  0.46684488866E+01  0.22550288976E+01 -0.11464869052E+02  0.12582638544E+02  0.00000000000E+00 0.  1.
         22    1    3    3    0    0 -0.25530565838E+02  0.66620612207E+02  0.32207882884E+03  0.32988617393E+03  0.00000000000E+00 0.  1.
</event>
<event>
 7    1  0.5931885E-006  0.1518660E+03  0.7818608E-02  0.1259236E+00
          2   -1    0    0  502    0  0.00000000000E+00  0.00000000000E+00  0.20315299829E+04  0.20315299829E+04  0.00000000000E+00 0. -1.
          1   -1    0    0  501    0 -0.00000000000E+00 -0.00000000000E+00 -0.79904273780E+03  0.79904273780E+03  0.00000000000E+00 0. -1.
         25    2    1    2    0    0 -0.92955661972E+02 -0.28951871301E+02  0.73573937115E+02  0.17470605615E+03  0.12502046188E+03 0.  0.
          2    1    1    2  501    0  0.15427569625E+03 -0.23552928077E+02 -0.73947441630E+03  0.75576328519E+03  0.00000000000E+00 0. -1.
          1    1    1    2  502    0 -0.61320034274E+02  0.52504799378E+02  0.18983877243E+04  0.19001033794E+04  0.00000000000E+00 0. -1.
         22    1    3    3    0    0 -0.58205481496E+02 -0.76489446478E+02  0.62880194029E+02  0.11485831402E+03  0.00000000000E+00 0. -1.
         22    1    3    3    0    0 -0.34750180477E+02  0.47537575177E+02  0.10693743086E+02  0.59847742130E+02  0.00000000000E+00 0. -1.
</event>
<event>
 7    1  0.5931885E-006  0.5631024E+02  0.7818608E-02  0.1463682E+00
          2   -1    0    0  502    0  0.00000000000E+00  0.00000000000E+00  0.15671489015E+04  0.15671489015E+04  0.00000000000E+00 0. -1.
          1   -1    0    0  501    0 -0.00000000000E+00 -0.00000000000E+00 -0.20446680065E+04  0.20446680065E+04  0.00000000000E+00 0. -1.
         25    2    1    2    0    0 -0.25297373913E+02  0.86761483701E+02  0.19690500254E+03  0.25012939895E+03  0.12500249603E+03 0.  0.
          2    1    1    2  501    0  0.13104635162E+01 -0.56240547124E+02 -0.20173832438E+04  0.20181674531E+04  0.00000000000E+00 0. -1.
          1    1    1    2  502    0  0.23986910397E+02 -0.30520936576E+02  0.13429591362E+04  0.13435200560E+04  0.00000000000E+00 0. -1.
         22    1    3    3    0    0  0.18855598638E+02 -0.25274336966E+02  0.60127904397E+02  0.67894702270E+02  0.00000000000E+00 0.  1.
         22    1    3    3    0    0 -0.44152972551E+02  0.11203582067E+03  0.13677709814E+03  0.18223469668E+03  0.00000000000E+00 0.  1.
</event>
<event>
 7    1  0.5931885E-006  0.1380792E+03  0.7818608E-02  0.1280452E+00
          2   -1    0    0  502    0  0.00000000000E+00  0.00000000000E+00  0.17907122839E+04  0.17907122839E+04  0.00000000000E+00 0. -1.
          1   -1    0    0  501    0 -0.00000000000E+00 -0.00000000000E+00 -0.52340199149E+03  0.52340199149E+03  0.00000000000E+00 0. -1.
         25    2    1    2    0    0 -0.13790113384E+03 -0.14266201803E+03  0.56484454404E+03  0.61158918383E+03  0.12499118669E+03 0.  0.
          2    1    1    2  501    0  0.36514671404E+02  0.62418825417E+02 -0.49391341545E+03  0.49917921927E+03  0.00000000000E+00 0. -1.
          1    1    1    2  502    0  0.10138646244E+03  0.80243192612E+02  0.11963791638E+04  0.12033458723E+04  0.00000000000E+00 0. -1.
         22    1    3    3    0    0 -0.20842639403E+02 -0.11006354685E+03  0.24325664422E+03  0.26780999779E+03  0.00000000000E+00 0.  1.
         22    1    3    3    0    0 -0.11705849444E+03 -0.32598471178E+02  0.32158789982E+03  0.34377918604E+03  0.00000000000E+00 0.  1.
</event>
<event>
 7    1  0.5931885E-006  0.2788716E+03  0.7818608E-02  0.1211233E+00
          2   -1    0    0  502    0  0.00000000000E+00  0.00000000000E+00  0.20499559301E+04  0.20499559301E+04  0.00000000000E+00 0. -1.
          1   -1    0    0  501    0 -0.00000000000E+00 -0.00000000000E+00 -0.83266513016E+03  0.83266513016E+03  0.00000000000E+00 0. -1.
         25    2    1    2    0    0 -0.10106810843E+03 -0.27331910898E+03  0.25532402776E+03  0.40710387115E+03  0.12500041952E+03 0.  0.
          2    1    1    2  501    0  0.29294706183E+02  0.27699957625E+03 -0.73035591986E+03  0.78166918497E+03  0.00000000000E+00 0. -1.
          1    1    1    2  502    0  0.71773402243E+02 -0.36804672750E+01  0.16923226920E+04  0.16938480041E+04  0.00000000000E+00 0. -1.
         22    1    3    3    0    0 -0.81761851688E+02 -0.94715123205E+02  0.51218345544E+02  0.13520086492E+03  0.00000000000E+00 0.  1.
         22    1    3    3    0    0 -0.19306256738E+02 -0.17860398577E+03  0.20410568221E+03  0.27190300623E+03  0.00000000000E+00 0.  1.
</event>
<event>
 7    1  0.5931885E-006  0.5493275E+02  0.7818608E-02  0.1458415E+00
          2   -1    0    0  502    0  0.00000000000E+00  0.00000000000E+00  0.90649924331E+03  0.90649924331E+03  0.00000000000E+00 0. -1.
          1   -1    0    0  501    0 -0.00000000000E+00 -0.00000000000E+00 -0.36174242714E+03  0.36174242714E+03  0.00000000000E+00 0. -1.
         25    2    1    2    0    0  0.33430540817E+02 -0.82230444263E+02 -0.15470567432E+02  0.15408829694E+03  0.12499767108E+03 0.  0.
          2    1    1    2  501    0 -0.34956193436E+02  0.40916833484E+02 -0.27383199314E+03  0.27907003276E+03  0.00000000000E+00 0. -1.
          1    1    1    2  502    0  0.15256526191E+01  0.41313610780E+02  0.83405937674E+03  0.83508334074E+03  0.00000000000E+00 0. -1.
         22    1    3    3    0    0 -0.48011786049E+01 -0.89733184795E+02  0.29507470099E+02  0.94582168304E+02  0.00000000000E+00 0.  1.
         22    1    3    3    0    0  0.38231719422E+02  0.75027405318E+01 -0.44978037531E+02  0.59506128639E+02  0.00000000000E+00 0.  1.
</event>
<event>
 7    1  0.5931885E-006  0.1334296E+03  0.7818608E-02  0.1272253E+00
          2   -1    0    0  502    0  0.00000000000E+00  0.00000000000E+00  0.19503087965E+04  0.19503087965E+04  0.00000000000E+00 0. -1.
          1   -1    0    0  501    0 -0.00000000000E+00 -0.00000000000E+00 -0.20543760176E+03  0.20543760176E+03  0.00000000000E+00 0. -1.
         25    2    1    2    0    0  0.17503089517E+03 -0.33807178223E+02  0.52482235478E+02  0.22396023985E+03  0.12500025771E+03 0.  0.
          2    1    1    2  501    0 -0.10323060042E+03  0.71179616714E+02 -0.85684368396E+02  0.15187134584E+03  0.00000000000E+00 0. -1.
          1    1    1    2  502    0 -0.71800294754E+02 -0.37372438491E+02  0.17780733277E+04  0.17799148126E+04  0.00000000000E+00 0. -1.
         22    1    3    3    0    0  0.16335642667E+03 -0.14669901668E+02  0.84791977511E+02  0.18463533681E+03  0.00000000000E+00 0. -1.
         22    1    3    3    0    0  0.11674468507E+02 -0.19137276555E+02 -0.32309742034E+02  0.39324903040E+02  0.00000000000E+00 0. -1.
</event>
<event>
 7    1  0.5931885E-006  0.5797435E+02  0.7818608E-02  0.1441282E+00
          2   -1    0    0  502    0  0.00000000000E+00  0.00000000000E+00  0.19594148589E+04  0.19594148589E+04  0.00000000000E+00 0. -1.
          1   -1    0    0  501    0 -0.00000000000E+00 -0.00000000000E+00 -0.17172642261E+03  0.17172642261E+03  0.00000000000E+00 0. -1.
         25    2    1    2    0    0 -0.54245776406E+02 -0.20653316162E+02  0.40292500489E+03  0.42584414808E+03  0.12500206061E+03 0.  0.
          2    1    1    2  501    0  0.53108432612E+02 -0.23776550775E+02 -0.15465398868E+03  0.16523827098E+03  0.00000000000E+00 0. -1.
          1    1    1    2  502    0  0.11373437935E+01  0.44429866937E+02  0.15394174201E+04  0.15400588625E+04  0.00000000000E+00 0. -1.
         22    1    3    3    0    0  0.22632437950E+02 -0.46163162276E+02  0.10222469122E+03  0.11442531317E+03  0.00000000000E+00 0. -1.
         22    1    3    3    0    0 -0.76878214356E+02  0.25509846114E+02  0.30070031368E+03  0.31141883491E+03  0.00000000000E+00 0. -1.
</event>
<event>
 7    1  0.5931885E-006  0.5575262E+02  0.7818608E-02  0.1428757E+00
          2   -1    0    0  502    0  0.00000000000E+00  0.00000000000E+00  0.33931743690E+02  0.33931743690E+02  0.00000000000E+00 0. -1.
          1   -1    0    0  501    0 -0.00000000000E+00 -0.00000000000E+00 -0.10154940845E+04  0.10154940845E+04  0.00000000000E+00 0. -1.
         25    2    1    2    0    0 -0.62890204763E+02  0.49130244471E+02 -0.56469118268E+03  0.58383831479E+03  0.12498834841E+03 0.  0.
          2    1    1    2  501    0  0.50557133730E+02  0.47960838221E+01 -0.40605871782E+03  0.40922207725E+03  0.00000000000E+00 0. -1.
          1    1    1    2  502    0  0.12333071033E+02 -0.53926328293E+02 -0.10812440276E+02  0.56365436120E+02  0.00000000000E+00 0. -1.
         22    1    3    3    0    0 -0.81836602427E+02  0.75695968434E+02 -0.48656430299E+03  0.49917124324E+03  0.00000000000E+00 0.  1.
         22    1    3    3    0    0  0.18946397664E+02 -0.26565723963E+02 -0.78126879691E+02  0.84667071547E+02  0.00000000000E+00 0.  1.
</event>
<event>
 7    1  0.5931885E-006  0.4163773E+02  0.7818608E-02  0.1536181E+00
          2   -1    0    0  502    0  0.00000000000E+00  0.00000000000E+00  0.31308263672E+03  0.31308263672E+03  0.00000000000E+00 0. -1.
          1   -1    0    0  501    0 -0.00000000000E+00 -0.00000000000E+00 -0.76996532689E+03  0.76996532689E+03  0.00000000000E+00 0. -1.
         25    2    1    2    0    0  0.32482152798E+02  0.88531989313E+01  0.21026950616E+02  0.13115031692E+03  0.12499921437E+03 0.  0.
          2    1    1    2  501    0 -0.13457719660E+02  0.28910463597E+02 -0.71265809525E+03  0.71337121181E+03  0.00000000000E+00 0. -1.
          1    1    1    2  502    0 -0.19024433138E+02 -0.37763662528E+02  0.23474845446E+03  0.23852643488E+03  0.00000000000E+00 0. -1.
         22    1    3    3    0    0 -0.14693234448E+02 -0.31524750420E+02  0.51370380943E+02  0.62037223228E+02  0.00000000000E+00 0.  1.
         22    1    3    3    0    0  0.47175387246E+02  0.40377949352E+02 -0.30343430327E+02  0.69113093692E+02  0.00000000000E+00 0.  1.
</event>
<event>
 7    1  0.5931885E-006  0.4811154E+02  0.7818608E-02  0.1507044E+00
          2   -1    0    0  502    0  0.00000000000E+00  0.00000000000E+00  0.23446214912E+02  0.23446214912E+02  0.00000000000E+00 0. -1.
          1   -1    0    0  501    0 -0.00000000000E+00 -0.00000000000E+00 -0.15811372773E+04  0.15811372773E+04  0.00000000000E+00 0. -1.
         25    2    1    2    0    0  0.27483350293E+02 -0.68140039240E+02 -0.48442958545E+03  0.50566477358E+03  0.12500576181E+03 0.  0.
          2    1    1    2  501    0 -0.25338806606E+02  0.21945534474E+02 -0.10432526293E+04  0.10437910280E+04  0.00000000000E+00 0. -1.
          1    1    1    2  502    0 -0.21445436864E+01  0.46194504766E+02 -0.30008847648E+02  0.55127690640E+02  0.00000000000E+00 0. -1.
         22    1    3    3    0    0  0.27291200250E+02 -0.79358286786E+02 -0.15681454446E+03  0.17785766401E+03  0.00000000000E+00 0.  1.
         22    1    3    3    0    0  0.19215004303E+00  0.11218247546E+02 -0.32761504100E+03  0.32780710958E+03  0.00000000000E+00 0.  1.
</event>
<event>
 7    1  0.5931885E-006  0.7862913E+02  0.7818608E-02  0.1385243E+00
          2   -1    0    0  502    0  0.00000000000E+00  0.00000000000E+00  0.25611742541E+02  0.25611742541E+02  0.00000000000E+00 0. -1.
          1   -1    0    0  501    0 -0.00000000000E+00 -0.00000000000E+00 -0.27760882565E+04  0.27760882565E+04  0.00000000000E+00 0. -1.
         25    2    1    2    0    0  0.78636135789E+02 -0.39190251219E+02 -0.10256568493E+04  0.10369744800E+04  0.12499832832E+03 0.  0.
          2    1    1    2  501    0 -0.42716524326E+00  0.50644901415E+02 -0.16645641683E+04  0.16653344886E+04  0.00000000000E+00 0. -1.
          1    1    1    2  502    0 -0.78208970546E+02 -0.11454650196E+02 -0.60255496354E+02  0.99391030409E+02  0.00000000000E+00 0. -1.
         22    1    3    3    0    0  0.80155507722E+02  0.16498974149E+02 -0.36935198291E+03  0.37830940888E+03  0.00000000000E+00 0.  1.
         22    1    3    3    0    0 -0.15193719330E+01 -0.55689225368E+02 -0.65630486637E+03  0.65866507114E+03  0.00000000000E+00 0.  1.
</event>
<event>
 7    1  0.5931885E-006  0.8159484E+02  0.7818608E-02  0.1394027E+00
          2   -1    0    0  502    0  0.00000000000E+00  0.00000000000E+00  0.15878511644E+04  0.15878511644E+04  0.00000000000E+00 0. -1.
          1   -1    0    0  501    0 -0.00000000000E+00 -0.00000000000E+00 -0.48088646682E+02  0.48088646682E+02  0.00000000000E+00 0. -1.
         25    2    1    2    0    0  0.58911257852E+02 -0.18093506482E+01  0.30863817875E+03  0.33816559483E+03  0.12499853637E+03 0.  0.
          2    1    1    2  501    0  0.12297222762E+02 -0.43783702653E+02 -0.15680776406E+02  0.48105312122E+02  0.00000000000E+00 0. -1.
          1    1    1    2  502    0 -0.71208480615E+02  0.45593053301E+02  0.12468051153E+04  0.12496689041E+04  0.00000000000E+00 0. -1.
         22    1    3    3    0    0  0.14808262500E+02  0.48147293408E+02  0.49602322733E+02  0.70695381188E+02  0.00000000000E+00 0.  1.
         22    1    3    3    0    0  0.44102995352E+02 -0.49956644056E+02  0.25903585602E+03  0.26747021365E+03  0.00000000000E+00 0.  1.
</event>
<event>
 7    1  0.5931885E-006  0.1526051E+03  0.7818608E-02  0.1358800E+00
          2   -1    0    0  502    0  0.00000000000E+00  0.00000000000E+00  0.75088432099E+03  0.75088432099E+03  0.00000000000E+00 0. -1.
          1   -1    0    0  501    0 -0.00000000000E+00 -0.00000000000E+00 -0.52107119757E+03  0.52107119757E+03  0.00000000000E+00 0. -1.
         25    2    1    2    0    0  0.17292138475E+03  0.57561745215E+02  0.16510336527E+03  0.27586068567E+03  0.12499934744E+03 0.  0.
          2    1    1    2  501    0 -0.14554066199E+03 -0.40127264806E+02 -0.45293509846E+03  0.47743322579E+03  0.00000000000E+00 0. -1.
          1    1    1    2  502    0 -0.27380722761E+02 -0.17434480409E+02  0.51764485662E+03  0.51866160709E+03  0.00000000000E+00 0. -1.
         22    1    3    3    0    0  0.81247538921E+02  0.87482609521E+02  0.61419142513E+02  0.13426347462E+03  0.00000000000E+00 0.  1.
         22    1    3    3    0    0  0.91673845832E+02 -0.29920864306E+02  0.10368422275E+03  0.14159721105E+03  0.00000000000E+00 0.  1.
</event>
<event>
 7    1  0.5931885E-006  0.7378515E+02  0.7818608E-02  0.1357373E+00
          2   -1    0    0  502    0  0.00000000000E+00  0.00000000000E+00  0.95151624266E+02  0.95151624266E+02  0.00000000000E+00 0. -1.
          1   -1    0    0  501    0 -0.00000000000E+00 -0.00000000000E+00 -0.42029462434E+04  0.42029462434E+04  0.00000000000E+00 0. -1.
         25    2    1    2    0    0 -0.74627320688E+01  0.58431016718E+01 -0.30994966379E+03  0.33434093089E+03  0.12500091912E+03 0.  0.
          2    1    1    2  501    0 -0.50314401264E+02  0.45665289469E+02 -0.38623811689E+04  0.38629787925E+04  0.00000000000E+00 0. -1.
          1    1    1    2  502    0  0.57777133332E+02 -0.51508391141E+02  0.64536213566E+02  0.10077814424E+03  0.00000000000E+00 0. -1.
         22    1    3    3    0    0 -0.46694216033E+02 -0.10776586339E+02 -0.44185518380E+02  0.65183162386E+02  0.00000000000E+00 0.  1.
         22    1    3    3    0    0  0.39231483964E+02  0.16619688011E+02 -0.26576414541E+03  0.26915776851E+03  0.00000000000E+00 0.  1.
</event>
<event>
 7    1  0.5931885E-006  0.1260404E+03  0.7818608E-02  0.1432116E+00
          2   -1    0    0  502    0  0.00000000000E+00  0.00000000000E+00  0.36112950641E+03  0.36112950641E+03  0.00000000000E+00 0. -1.
          1   -1    0    0  501    0 -0.00000000000E+00 -0.00000000000E+00 -0.19408685082E+03  0.19408685082E+03  0.00000000000E+00 0. -1.
         25    2    1    2    0    0  0.64642427814E+02  0.12695449567E+03  0.23901439944E+02  0.19103057711E+03  0.12500126046E+03 0.  0.
          2    1    1    2  501    0 -0.17481479357E+02 -0.13189989553E+02 -0.94245024767E+02  0.96755892008E+02  0.00000000000E+00 0. -1.
          1    1    1    2  502    0 -0.47160948458E+02 -0.11376450611E+03  0.23738624042E+03  0.26742988810E+03  0.00000000000E+00 0. -1.
         22    1    3    3    0    0 -0.24817501804E+02  0.16782545941E+02  0.38026619998E+02  0.48410598762E+02  0.00000000000E+00 0. -1.
         22    1    3    3    0    0  0.89459929619E+02  0.11017194972E+03 -0.14125180054E+02  0.14261997835E+03  0.00000000000E+00 0. -1.
</event>
<event>
 7    1  0.5931885E-006  0.3169829E+02  0.7818608E-02  0.1616308E+00
          2   -1    0    0  502    0  0.00000000000E+00  0.00000000000E+00  0.56299710563E+03  0.56299710563E+03  0.00000000000E+00 0. -1.
          1   -1    0    0  501    0 -0.00000000000E+00 -0.00000000000E+00 -0.11815400060E+04  0.11815400060E+04  0.00000000000E+00 0. -1.
         25    2    1    2    0    0  0.98040362180E+01 -0.53832053210E+02 -0.32903936007E+03  0.35620092390E+03  0.12497275156E+03 0.  0.
          2    1    1    2  501    0 -0.12722407912E+02  0.28529258564E+02 -0.83833362223E+03  0.83891539527E+03  0.00000000000E+00 0. -1.
          1    1    1    2  502    0  0.29183716945E+01  0.25302794646E+02  0.54883008195E+03  0.54942079244E+03  0.00000000000E+00 0. -1.
         22    1    3    3    0    0 -0.51005270317E+02 -0.39232495288E+02 -0.23197757196E+03  0.24073703533E+03  0.00000000000E+00 0. -1.
         22    1    3    3    0    0  0.60809306535E+02 -0.14599557922E+02 -0.97061788102E+02  0.11546388856E+03  0.00000000000E+00 0. -1.
</event>
<event>
 7    1  0.5931885E-006  0.4208319E+03  0.7818608E-02  0.1224450E+00
          2   -1    0    0  502    0  0.00000000000E+00  0.00000000000E+00  0.35984863941E+03  0.35984863941E+03  0.00000000000E+00 0. -1.
          1   -1    0    0  501    0 -0.00000000000E+00 -0.00000000000E+00 -0.60998630356E+03  0.60998630356E+03  0.00000000000E+00 0. -1.
         25    2    1    2    0    0  0.92046183902E+02 -0.41793503495E+03 -0.12794878722E+03  0.46383191866E+03  0.12500785257E+03 0.  0.
          2    1    1    2  501    0 -0.41132037518E+02  0.49859404838E+01 -0.77052564964E+02  0.87486009626E+02  0.00000000000E+00 0. -1.
          1    1    1    2  502    0 -0.50914146385E+02  0.41294909447E+03 -0.45136311972E+02  0.41851701469E+03  0.00000000000E+00 0. -1.
         22    1    3    3    0    0 -0.85139579438E+01 -0.56725520372E+02  0.20006164650E+02  0.60749640043E+02  0.00000000000E+00 0. -1.
         22    1    3    3    0    0  0.10056014185E+03 -0.36120951458E+03 -0.14795495187E+03  0.40308227861E+03  0.00000000000E+00 0. -1.
</event>
<event>
 7    1  0.5931885E-006  0.7224195E+02  0.7818608E-02  0.1422523E+00
          2   -1    0    0  502    0  0.00000000000E+00  0.00000000000E+00  0.19528521947E+04  0.19528521947E+04  0.00000000000E+00 0. -1.
          1   -1    0    0  501    0 -0.00000000000E+00 -0.00000000000E+00 -0.32236159616E+03  0.32236159616E+03  0.00000000000E+00 0. -1.
         25    2    1    2    0    0  0.32696378084E+02  0.21016648250E+02  0.13362444881E+03  0.18706054638E+03  0.12500160819E+03 0.  0.
          2    1    1    2  501    0  0.71517575318E+01  0.40474204226E+02 -0.29346200674E+03  0.29632626992E+03  0.00000000000E+00 0. -1.
          1    1    1    2  502    0 -0.39848135616E+02 -0.61490852476E+02  0.17903281564E+04  0.17918269745E+04  0.00000000000E+00 0. -1.
         22    1    3    3    0    0 -0.22276341950E+02  0.52667130228E+02  0.27570346627E+02  0.63483746189E+02  0.00000000000E+00 0.  1.
         22    1    3    3    0    0  0.54972720034E+02 -0.31650481978E+02  0.10605410218E+03  0.12357680019E+03  0.00000000000E+00 0.  1.
</event>
<event>
 7    1  0.5931885E-006  0.1438735E+03  0.7818608E-02  0.1271219E+00
          2   -1    0    0  502    0  0.00000000000E+00  0.00000000000E+00  0.14978286699E+04  0.14978286699E+04  0.00000000000E+00 0. -1.
          1   -1    0    0  501    0 -0.00000000000E+00 -0.00000000000E+00 -0.37046180015E+03  0.37046180015E+03  0.00000000000E+00 0. -1.
         25    2    1    2    0    0  0.18655057782E+03  0.65427412876E+02  0.31375822308E+03  0.39134627701E+03  0.12500328612E+03 0.  0.
          2    1    1    2  501    0 -0.14186503509E+03 -0.41744924063E+01 -0.31515432546E+03  0.34563761865E+03  0.00000000000E+00 0. -1.
          1    1    1    2  502    0 -0.44685542726E+02 -0.61252920469E+02  0.11287629721E+04  0.11313065744E+04  0.00000000000E+00 0. -1.
         22    1    3    3    0    0  0.19326902620E+02 -0.34047987672E+02  0.58311006613E+02  0.70235091811E+02  0.00000000000E+00 0. -1.
         22    1    3    3    0    0  0.16722367520E+03  0.99475400548E+02  0.25544721647E+03  0.32111118520E+03  0.00000000000E+00 0. -1.
</event>
<event>
 7    1  0.5931885E-006  0.5213050E+02  0.7818608E-02  0.1486308E+00
          2   -1    0    0  502    0  0.00000000000E+00  0.00000000000E+00  0.10592186948E+04  0.10592186948E+04  0.00000000000E+00 0. -1.
          1   -1    0    0  501    0 -0.00000000000E+00 -0.00000000000E+00 -0.22438147043E+02  0.22438147043E+02  0.00000000000E+00 0. -1.
         25    2    1    2    0    0 -0.45956838767E+02 -0.56775996479E+02  0.36854227306E+03  0.39595953848E+03  0.12500001710E+03 0.  0.
          2    1    1    2  501    0  0.11395277244E+02  0.47841788198E+02  0.65526545021E+02  0.81929342386E+02  0.00000000000E+00 0. -1.
          1    1    1    2  502    0  0.34561561523E+02  0.89342082815E+01  0.60271172966E+03  0.60376796096E+03  0.00000000000E+00 0. -1.
         22    1    3    3    0    0 -0.30121019122E+02 -0.82041436379E+02  0.35022468081E+03  0.36096454136E+03  0.00000000000E+00 0.  1.
         22    1    3    3    0    0 -0.15835819644E+02  0.25265439900E+02  0.18317592251E+02  0.34994997114E+02  0.00000000000E+00 0.  1.
</event>
<event>
 7    1  0.5931885E-006  0.9642998E+02  0.7818608E-02  0.1379770E+00
          2   -1    0    0  502    0  0.00000000000E+00  0.00000000000E+00  0.68761990030E+03  0.68761990030E+03  0.00000000000E+00 0. -1.
          1   -1    0    0  501    0 -0.00000000000E+00 -0.00000000000E+00 -0.95167209349E+03  0.95167209349E+03  0.00000000000E+00 0. -1.
         25    2    1    2    0    0  0.78025464827E+02  0.69579060638E+02  0.10046311926E+03  0.19143020997E+03  0.12499387232E+03 0.  0.
          2    1    1    2  501    0  0.14054605705E+02 -0.40823747359E+02 -0.90137288002E+03  0.90240632707E+03  0.00000000000E+00 0. -1.
          1    1    1    2  502    0 -0.92080070531E+02 -0.28755313279E+02  0.53685756758E+03  0.54545545675E+03  0.00000000000E+00 0. -1.
         22    1    3    3    0    0  0.97740291681E+02  0.15529021847E+02  0.36710821704E+02  0.10555567047E+03  0.00000000000E+00 0. -1.
         22    1    3    3    0    0 -0.19714826855E+02  0.54050038791E+02  0.63752297561E+02  0.85874539507E+02  0.00000000000E+00 0. -1.
</event>
<event>
 7    1  0.5931885E-006  0.1550953E+03  0.7818608E-02  0.1341736E+00
          2   -1    0    0  502    0  0.00000000000E+00  0.00000000000E+00  0.44802825566E+03  0.44802825566E+03  0.00000000000E+00 0. -1.
          1   -1    0    0  501    0 -0.00000000000E+00 -0.00000000000E+00 -0.10626875489E+04  0.10626875489E+04  0.00000000000E+00 0. -1.
         25    2    1    2    0    0  0.11828126322E+03  0.79789446141E+02 -0.21690105937E+03  0.28814641187E+03  0.12500188868E+03 0.  0.
          2    1    1    2  501    0 -0.14767358499E+03 -0.57410530297E+02 -0.80156618034E+03  0.81707514842E+03  0.00000000000E+00 0. -1.
          1    1    1    2  502    0  0.29392321769E+02 -0.22378915844E+02  0.40380794650E+03  0.40549424424E+03  0.00000000000E+00 0. -1.
         22    1    3    3    0    0  0.49727734152E+02  0.64787817582E+02 -0.27523811797E+02  0.86185086104E+02  0.00000000000E+00 0. -1.
         22    1    3    3    0    0  0.68553529067E+02  0.15001628559E+02 -0.18937724757E+03  0.20196132576E+03  0.00000000000E+00 0. -1.
</event>
<event>
 7    1  0.5931885E-006  0.1481214E+03  0.7818608E-02  0.1304446E+00
          2   -1    0    0  502    0  0.00000000000E+00  0.00000000000E+00  0.95210496671E+03  0.95210496671E+03  0.00000000000E+00 0. -1.
          1   -1    0    0  501    0 -0.00000000000E+00 -0.00000000000E+00 -0.28153784800E+04  0.28153784800E+04  0.00000000000E+00 0. -1.
         25    2    1    2    0    0 -0.58225031378E+02  0.13589667434E+03 -0.75633826407E+02  0.20785120382E+03  0.12499434731E+03 0.  0.
          2    1    1    2  501    0  0.10338929080E+03 -0.10649392466E+03 -0.26707539541E+04  0.26748751344E+04  0.00000000000E+00 0. -1.
          1    1    1    2  502    0 -0.45164259421E+02 -0.29402749673E+02  0.88311426722E+03  0.88475710847E+03  0.00000000000E+00 0. -1.
         22    1    3    3    0    0 -0.17489113779E+01  0.29865977983E+02  0.33946124505E+02  0.45247924823E+02  0.00000000000E+00 0.  1.
         22    1    3    3    0    0 -0.56476120000E+02  0.10603069635E+03 -0.10957995091E+03  0.16260327900E+03  0.00000000000E+00 0.  1.
</event>
<event>
 7    1  0.5931885E-006  0.9457435E+02  0.7818608E-02  0.1338324E+00
          2   -1    0    0  502    0  0.00000000000E+00  0.00000000000E+00  0.36038050279E+03  0.36038050279E+03  0.00000000000E+00 0. -1.
          1   -1    0    0  501    0 -0.00000000000E+00 -0.00000000000E+00 -0.91987837946E+03  0.91987837946E+03  0.00000000000E+00 0. -1.
         25    2    1    2    0    0  0.33517426779E+02 -0.19581920957E+02 -0.13366402938E+03  0.18707631078E+03  0.12499841510E+03 0.  0.
          2    1    1    2  501    0  0.62299749096E+02  0.35296194599E+01 -0.75111521270E+03  0.75370271308E+03  0.00000000000E+00 0. -1.
          1    1    1    2  502    0 -0.95817175875E+02  0.16052301497E+02  0.32528136541E+03  0.33947985840E+03  0.00000000000E+00 0. -1.
         22    1    3    3    0    0  0.17245574127E+02 -0.61802803287E+02 -0.24106812941E+02  0.68542940930E+02  0.00000000000E+00 0.  1.
         22    1    3    3    0    0  0.16271852651E+02  0.42220882330E+02 -0.10955721644E+03  0.11853336985E+03  0.00000000000E+00 0.  1.
</event>
<event>
 7    1  0.5931885E-006  0.7476495E+02  0.7818608E-02  0.1391525E+00
          2   -1    0    0  502    0  0.00000000000E+00  0.00000000000E+00  0.72757638316E+03  0.72757638316E+03  0.00000000000E+00 0. -1.
          1   -1    0    0  501    0 -0.00000000000E+00 -0.00000000000E+00 -0.10295293543E+04  0.10295293543E+04  0.00000000000E+00 0. -1.
         25    2    1    2    0    0  0.27427336683E+02 -0.98920413262E+02 -0.36915795703E+03  0.40303457006E+03  0.12498704120E+03 0.  0.
          2    1    1    2  501    0  0.23880559193E+02  0.44651627892E+02 -0.64046885767E+03  0.64246743623E+03  0.00000000000E+00 0. -1.
          1    1    1    2  502    0 -0.51307895876E+02  0.54268785370E+02  0.70767384360E+03  0.71160373113E+03  0.00000000000E+00 0. -1.
         22    1    3    3    0    0 -0.37193187764E+02 -0.16943049412E+02 -0.37971386647E+02  0.55787331387E+02  0.00000000000E+00 0.  1.
         22    1    3    3    0    0  0.64620524448E+02 -0.81977363850E+02 -0.33118657038E+03  0.34724723867E+03  0.00000000000E+00 0.  1.
</event>
<event>
 7    1  0.5931885E-006  0.4528493E+02  0.7818608E-02  0.1535613E+00
          2   -1    0    0  502    0  0.00000000000E+00  0.00000000000E+00  0.63268417912E+02  0.63268417912E+02  0.00000000000E+00 0. -1.
          1   -1    0    0  501    0 -0.00000000000E+00 -0.00000000000E+00 -0.35088551261E+04  0.35088551261E+04  0.00000000000E+00 0. -1.
         25    2    1    2    0    0  0.30810036993E+02  0.50461749215E+02 -0.11524237814E+04  0.11606899049E+04  0.12499934692E+03 0.  0.
          2    1    1    2  501    0 -0.19127453326E+01 -0.44886014906E+02 -0.23484083863E+04  0.23488380876E+04  0.00000000000E+00 0. -1.
          1    1    1    2  502    0 -0.28897291661E+02 -0.55757343092E+01  0.55245459522E+02  0.62595551569E+02  0.00000000000E+00 0. -1.
         22    1    3    3    0    0  0.19259794647E+02  0.85708278258E+02 -0.99864793247E+03  0.10025041355E+04  0.00000000000E+00 0.  1.
         22    1    3    3    0    0  0.11550242346E+02 -0.35246529044E+02 -0.15377584897E+03  0.15818576938E+03  0.00000000000E+00 0.  1.
</event>
<event>
 7    1  0.5931885E-006  0.2673408E+03  0.7818608E-02  0.1229832E+00
          2   -1    0    0  502    0  0.00000000000E+00  0.00000000000E+00  0.27969343092E+04  0.27969343092E+04  0.00000000000E+00 0. -1.
          1   -1    0    0  501    0 -0.00000000000E+00 -0.00000000000E+00 -0.23162545950E+03  0.23162545950E+03  0.00000000000E+00 0. -1.
         25    2    1    2    0    0  0.22303421068E+03  0.13345283552E+02  0.81108184107E+02  0.26855178649E+03  0.12497667292E+03 0.  0.
          2    1    1    2  501    0  0.41243694798E+02  0.45862224812E+02 -0.12362462699E+03  0.13815728147E+03  0.00000000000E+00 0. -1.
          1    1    1    2  502    0 -0.26427790548E+03 -0.59207508364E+02  0.26078252925E+04  0.26218507007E+04  0.00000000000E+00 0. -1.
         22    1    3    3    0    0  0.12985123346E+02 -0.71898237481E+01 -0.27459249986E+02  0.31214057789E+02  0.00000000000E+00 0. -1.
         22    1    3    3    0    0  0.21004908733E+03  0.20535107300E+02  0.10856743409E+03  0.23733772870E+03  0.00000000000E+00 0. -1.
</event>
<event>
 7    1  0.5931885E-006  0.7620847E+02  0.7818608E-02  0.1406870E+00
          2   -1    0    0  502    0  0.00000000000E+00  0.00000000000E+00  0.23465561980E+03  0.23465561980E+03  0.00000000000E+00 0. -1.
          1   -1    0    0  501    0 -0.00000000000E+00 -0.00000000000E+00 -0.16376224100E+04  0.16376224100E+04  0.00000000000E+00 0. -1.
         25    2    1    2    0    0  0.31305391592E+01 -0.57964035099E+02 -0.51045599492E+03  0.52873439113E+03  0.12500041588E+03 0.  0.
          2    1    1    2  501    0  0.43919460729E+02 -0.24390073471E+01 -0.11110807923E+04  0.11119511656E+04  0.00000000000E+00 0. -1.
          1    1    1    2  502    0 -0.47049999888E+02  0.60403042446E+02  0.21856999694E+03  0.23159247309E+03  0.00000000000E+00 0. -1.
         22    1    3    3    0    0 -0.24361171041E+02 -0.65978677231E+02 -0.13531304872E+03  0.15250007757E+03  0.00000000000E+00 0.  1.
         22    1    3    3    0    0  0.27491710200E+02  0.80146421318E+01 -0.37514294620E+03  0.37623431356E+03  0.00000000000E+00 0.  1.
</event>
<event>
 7    1  0.5931885E-006  0.3738685E+02  0.7818608E-02  0.1625412E+00
          2   -1    0    0  502    0  0.00000000000E+00  0.00000000000E+00  0.11687932472E+03  0.11687932472E+03  0.00000000000E+00 0. -1.
          1   -1    0    0  501    0 -0.00000000000E+00 -0.00000000000E+00 -0.16248418322E+04  0.16248418322E+04  0.00000000000E+00 0. -1.
         25    2    1    2    0    0  0.23552668121E+02 -0.18340812757E+02 -0.22807771520E+03  0.26178938179E+03  0.12499249041E+03 0.  0.
          2    1    1    2  501    0 -0.37429078321E+02  0.32870702894E+01 -0.13786019552E+04  0.13791138791E+04  0.00000000000E+00 0. -1.
          1    1    1    2  502    0  0.13876410200E+02  0.15053742468E+02  0.98717162858E+02  0.10081789606E+03  0.00000000000E+00 0. -1.
         22    1    3    3    0    0 -0.31021792868E+02 -0.36213998968E+02 -0.31879318942E+02  0.57359361313E+02  0.00000000000E+00 0. -1.
         22    1    3    3    0    0  0.54574460989E+02  0.17873186211E+02 -0.19619839626E+03  0.20443002047E+03  0.00000000000E+00 0. -1.
</event>
<event>
 7    1  0.5931885E-006  0.7418299E+02  0.7818608E-02  0.1424106E+00
          2   -1    0    0  502    0  0.00000000000E+00  0.00000000000E+00  0.15939349161E+04  0.15939349161E+04  0.00000000000E+00 0. -1.
          1   -1    0    0  501    0 -0.00000000000E+00 -0.00000000000E+00 -0.28826327306E+03  0.28826327306E+03  0.00000000000E+00 0. -1.
         25    2    1    2    0    0  0.14588554516E+02  0.63466400342E+02  0.56039336464E+03  0.57784746872E+03  0.12500465621E+03 0.  0.
          2    1    1    2  501    0  0.38751870836E+02 -0.78747471967E+01 -0.27668046858E+03  0.27949204073E+03  0.00000000000E+00 0. -1.
          1    1    1    2  502    0 -0.53340425352E+02 -0.55591653145E+02  0.10219587470E+04  0.10248586797E+04  0.00000000000E+00 0. -1.
         22    1    3    3    0    0 -0.52631896494E+02  0.41653133676E+02  0.21248760880E+03  0.22283645116E+03  0.00000000000E+00 0.  1.
         22    1    3    3    0    0  0.67220451011E+02  0.21813266665E+02  0.34790575585E+03  0.35501101756E+03  0.00000000000E+00 0.  1.
</event>
<event>
 7    1  0.5931885E-006  0.6896057E+02  0.7818608E-02  0.1380633E+00
          2   -1    0    0  502    0  0.00000000000E+00  0.00000000000E+00  0.25485580969E+03  0.25485580969E+03  0.00000000000E+00 0. -1.
          1   -1    0    0  501    0 -0.00000000000E+00 -0.00000000000E+00 -0.73364766020E+03  0.73364766020E+03  0.00000000000E+00 0. -1.
         25    2    1    2    0    0 -0.53806479871E+02 -0.61680533066E+02 -0.43305858034E+02  0.15556467925E+03  0.12500138660E+03 0.  0.
          2    1    1    2  501    0 -0.15691152214E+02  0.57859991111E+02 -0.62664318450E+03  0.62950430619E+03  0.00000000000E+00 0. -1.
          1    1    1    2  502    0  0.69497632085E+02  0.38205419551E+01  0.19115719202E+03  0.20343448446E+03  0.00000000000E+00 0. -1.
         22    1    3    3    0    0 -0.67854795702E+02  0.12505916979E+02 -0.40504136471E+02  0.80007851680E+02  0.00000000000E+00 0. -1.
         22    1    3    3    0    0  0.14048315830E+02 -0.74186450045E+02 -0.28017215622E+01  0.75556827565E+02  0.00000000000E+00 0. -1.
</event>
<event>
 7    1  0.5931885E-006  0.1056968E+03  0.7818608E-02  0.1459378E+00
          2   -1    0    0  502    0  0.00000000000E+00  0.00000000000E+00  0.29083925060E+02  0.29083925060E+02  0.00000000000E+00 0. -1.
          1   -1    0    0  501    0 -0.00000000000E+00 -0.00000000000E+00 -0.13389509957E+04  0.13389509957E+04  0.00000000000E+00 0. -1.
         25    2    1    2    0    0  0.10529423465E+03 -0.30853342373E+02 -0.57242430391E+03  0.59609894367E+03  0.12500224936E+03 0.  0.
          2    1    1    2  501    0 -0.12099054846E+02 -0.17574006596E+02 -0.59280361007E+03  0.59318745178E+03  0.00000000000E+00 0. -1.
          1    1    1    2  502    0 -0.93195179801E+02  0.48427348969E+02 -0.14463915670E+03  0.17874852536E+03  0.00000000000E+00 0. -1.
         22    1    3    3    0    0 -0.18789160305E+02  0.35545170808E+01 -0.22101831802E+03  0.22184400834E+03  0.00000000000E+00 0.  1.
         22    1    3    3    0    0  0.12408339495E+03 -0.34407859454E+02 -0.35140598590E+03  0.37425493533E+03  0.00000000000E+00 0.  1.
</event>
<event>
 7    1  0.5931885E-006  0.5590241E+02  0.7818608E-02  0.1420759E+00
          2   -1    0    0  502    0  0.00000000000E+00  0.00000000000E+00  0.27128137381E+03  0.27128137381E+03  0.00000000000E+00 0. -1.
          1   -1    0    0  501    0 -0.00000000000E+00 -0.00000000000E+00 -0.67446293534E+03  0.67446293534E+03  0.00000000000E+00 0. -1.
         25    2    1    2    0    0 -0.48183558531E+02  0.11255434105E+02  0.10877265914E+03  0.17293034537E+03  0.12500029146E+03 0.  0.
          2    1    1    2  501    0  0.81246849300E+01 -0.55308854891E+02 -0.63429446099E+03  0.63675312577E+03  0.00000000000E+00 0. -1.
          1    1    1    2  502    0  0.40058873601E+02  0.44053420787E+02  0.12234024033E+03  0.13606083801E+03  0.00000000000E+00 0. -1.
         22    1    3    3    0    0 -0.27571951858E+02 -0.54655452250E+02  0.29998754748E+02  0.68171521007E+02  0.00000000000E+00 0.  1.
         22    1    3    3    0    0 -0.20611606673E+02  0.65910886354E+02  0.78773904388E+02  0.10475882436E+03  0.00000000000E+00 0.  1.
</event>
<event>
 7    1  0.5931885E-006  0.5723362E+02  0.7818608E-02  0.1426200E+00
          2   -1    0    0  502    0  0.00000000000E+00  0.00000000000E+00  0.49856222637E+03  0.49856222637E+03  0.00000000000E+00 0. -1.
          1   -1    0    0  501    0 -0.00000000000E+00 -0.00000000000E+00 -0.25260088605E+03  0.25260088605E+03  0.00000000000E+00 0. -1.
         25    2    1    2    0    0  0.75596681943E+02 -0.58117385273E+02 -0.13997883618E+03  0.21050418590E+03  0.12500179564E+03 0.  0.
          2    1    1    2  501    0 -0.49910482338E+02  0.73003424831E+01 -0.67161151829E+02  0.83993878125E+02  0.00000000000E+00 0. -1.
          1    1    1    2  502    0 -0.25686199605E+02  0.50817042790E+02  0.45310132832E+03  0.45666504838E+03  0.00000000000E+00 0. -1.
         22    1    3    3    0    0  0.59236216960E+02 -0.43521294011E+02 -0.16294231490E+03  0.17875466544E+03  0.00000000000E+00 0.  1.
         22    1    3    3    0    0  0.16360464983E+02 -0.14596091262E+02  0.22963478723E+02  0.31749520463E+02  0.00000000000E+00 0.  1.
</event>
<event>
 7    1  0.5931885E-006  0.4483779E+02  0.7818608E-02  0.1499770E+00
          2   -1    0    0  502    0  0.00000000000E+00  0.00000000000E+00  0.12747490788E+04  0.12747490788E+04  0.00000000000E+00 0. -1.
          1   -1    0    0  501    0 -0.00000000000E+00 -0.00000000000E+00 -0.69742419314E+03  0.69742419314E+03  0.00000000000E+00 0. -1.
         25    2    1    2    0    0 -0.30533286505E+02  0.30658296540E+02  0.18193295537E+03  0.22493642350E+03  0.12499832654E+03 0.  0.
          2    1    1    2  501    0 -0.45782425239E+01 -0.44667617426E+02 -0.67484266516E+03  0.67633481285E+03  0.00000000000E+00 0. -1.
          1    1    1    2  502    0  0.35111529029E+02  0.14009320886E+02  0.10702345954E+04  0.10709020355E+04  0.00000000000E+00 0. -1.
         22    1    3    3    0    0 -0.80571463788E+01 -0.46094322680E+02  0.38011173309E+02  0.60286428716E+02  0.00000000000E+00 0.  1.
         22    1    3    3    0    0 -0.22476140126E+02  0.76752619220E+02  0.14392178206E+03  0.16464999479E+03  0.00000000000E+00 0.  1.
</event>
<event>
 7    1  0.5931885E-006  0.1066602E+03  0.7818608E-02  0.1278819E+00
          2   -1    0    0  502    0  0.00000000000E+00  0.00000000000E+00  0.11315657305E+04  0.11315657305E+04  0.00000000000E+00 0. -1.
          1   -1    0    0  501    0 -0.00000000000E+00 -0.00000000000E+00 -0.36986763680E+03  0.36986763680E+03  0.00000000000E+00 0. -1.
         25    2    1    2    0    0 -0.97836383931E+01  0.19336588877E+03  0.19640525405E+03  0.30279533219E+03  0.12499561136E+03 0.  0.
          2    1    1    2  501    0 -0.17621082385E+02 -0.10231731528E+03 -0.30550476079E+03  0.32266467798E+03  0.00000000000E+00 0. -1.
          1    1    1    2  502    0  0.27404720778E+02 -0.91048573493E+02  0.87079760044E+03  0.87597335712E+03  0.00000000000E+00 0. -1.
         22    1    3    3    0    0 -0.35829741746E+02  0.92459145354E+01  0.75656385580E+01  0.37768984842E+02  0.00000000000E+00 0. -1.
         22    1    3    3    0    0  0.26046103353E+02  0.18411997424E+03  0.18883961549E+03  0.26502634735E+03  0.00000000000E+00 0. -1.
</event>
<event>
 7    1  0.5931885E-006  0.4523790E+02  0.7818608E-02  0.1588076E+00
          2   -1    0    0  502    0  0.00000000000E+00  0.00000000000E+00  0.19376664722E+04  0.19376664722E+04  0.00000000000E+00 0. -1.
          1   -1    0    0  501    0 -0.00000000000E+00 -0.00000000000E+00 -0.21371648660E+03  0.21371648660E+03  0.00000000000E+00 0. -1.
         25    2    1    2    0    0  0.34918978786E+02  0.55657548719E+02  0.11026764858E+04  0.11116823071E+04  0.12500008709E+03 0.  0.
          2    1    1    2  501    0 -0.27507593785E+02 -0.35857704623E+02 -0.20663643637E+03  0.21152082529E+03  0.00000000000E+00 0. -1.
          1    1    1    2  502    0 -0.74113850011E+01 -0.19799844096E+02  0.82790993618E+03  0.82817982642E+03  0.00000000000E+00 0. -1.
         22    1    3    3    0    0  0.39418655538E+02  0.81965833177E+02  0.10341447365E+04  0.10381365827E+04  0.00000000000E+00 0. -1.
         22    1    3    3    0    0 -0.44996767517E+01 -0.26308284458E+02  0.68531749291E+02  0.73545724437E+02  0.00000000000E+00 0. -1.
</event>
<event>
 7    1  0.5931885E-006  0.2167355E+03  0.7818608E-02  0.1356438E+00
          2   -1    0    0  502    0  0.00000000000E+00  0.00000000000E+00  0.42786860976E+03  0.42786860976E+03  0.00000000000E+00 0. -1.
          1   -1    0    0  501    0 -0.00000000000E+00 -0.00000000000E+00 -0.75045795431E+03  0.75045795431E+03  0.00000000000E+00 0. -1.
         25    2    1    2    0    0 -0.57961295628E+02  0.21949380897E+03  0.12444232144E+03  0.28748465359E+03  0.12499796285E+03 0.  0.
          2    1    1    2  501    0  0.74221329750E+02 -0.20278429450E+03 -0.65082777285E+03  0.68571646166E+03  0.00000000000E+00 0. -1.
          1    1    1    2  502    0 -0.16260034123E+02 -0.16709514469E+02  0.20379610686E+03  0.20512544882E+03  0.00000000000E+00 0. -1.
         22    1    3    3    0    0  0.61280595748E+01  0.16939068964E+03  0.11665144637E+03  0.20576277310E+03  0.00000000000E+00 0.  1.
         22    1    3    3    0    0 -0.64089355202E+02  0.50103119321E+02  0.77908750713E+01  0.81721880487E+02  0.00000000000E+00 0.  1.
</event>
<event>
 7    1  0.5931885E-006  0.2376375E+03  0.7818608E-02  0.1132434E+00
          2   -1    0    0  502    0  0.00000000000E+00  0.00000000000E+00  0.85827005177E+03  0.85827005177E+03  0.00000000000E+00 0. -1.
          1   -1    0    0  501    0 -0.00000000000E+00 -0.00000000000E+00 -0.10450115396E+04  0.10450115396E+04  0.00000000000E+00 0. -1.
         25    2    1    2    0    0  0.25109743906E+03 -0.12778668013E+02 -0.39944526090E+03  0.48825760722E+03  0.12500302514E+03 0.  0.
          2    1    1    2  501    0 -0.10526986826E+03 -0.17858953167E+03 -0.56453656860E+03  0.60139629470E+03  0.00000000000E+00 0. -1.
          1    1    1    2  502    0 -0.14582757080E+03  0.19136819969E+03  0.77724034169E+03  0.81362768943E+03  0.00000000000E+00 0. -1.
         22    1    3    3    0    0  0.24943108451E+03 -0.31581495277E+02 -0.39599472099E+03  0.46906830613E+03  0.00000000000E+00 0. -1.
         22    1    3    3    0    0  0.16663545503E+01  0.18802827264E+02 -0.34505399078E+01  0.19189301089E+02  0.00000000000E+00 0. -1.
</event>
<event>
 7    1  0.5931885E-006  0.9571043E+02  0.7818608E-02  0.1380743E+00
          2   -1    0    0  502    0  0.00000000000E+00  0.00000000000E+00  0.48974881405E+03  0.48974881405E+03  0.00000000000E+00 0. -1.
          1   -1    0    0  501    0 -0.00000000000E+00 -0.00000000000E+00 -0.11263623983E+04  0.11263623983E+04  0.00000000000E+00 0. -1.
         25    2    1    2    0    0 -0.45349620318E+02  0.70694292795E+02  0.17005116985E+03  0.22714730403E+03  0.12499690503E+03 0.  0.
          2    1    1    2  501    0  0.82563743117E+02 -0.48841032935E+02 -0.10941048376E+04  0.10983021505E+04  0.00000000000E+00 0. -1.
          1    1    1    2  502    0 -0.37214122799E+02 -0.21853259860E+02  0.28744008345E+03  0.29066175785E+03  0.00000000000E+00 0. -1.
         22    1    3    3    0    0 -0.84448064407E+01 -0.30501668654E+01  0.13859887080E+03  0.13888939938E+03  0.00000000000E+00 0.  1.
         22    1    3    3    0    0 -0.36904813877E+02  0.73744459660E+02  0.31452299047E+02  0.88257904650E+02  0.00000000000E+00 0.  1.
</event>
<event>
 7    1  0.5931885E-006  0.1925650E+03  0.7818608E-02  0.1253746E+00
          2   -1    0    0  502    0  0.00000000000E+00  0.00000000000E+00  0.11526832182E+04  0.11526832182E+04  0.00000000000E+00 0. -1.
          1   -1    0    0  501    0 -0.00000000000E+00 -0.00000000000E+00 -0.22223213820E+04  0.22223213820E+04  0.00000000000E+00 0. -1.
         25    2    1    2    0    0  0.10102878291E+03 -0.10737507235E+03  0.18302685030E+03  0.26619503747E+03  0.12499899561E+03 0.  0.
          2    1    1    2  501    0  0.66072240205E+02 -0.12343347086E+02 -0.21688277149E+04  0.21698690182E+04  0.00000000000E+00 0. -1.
          1    1    1    2  502    0 -0.16710102311E+03  0.11971841944E+03  0.91616270079E+03  0.93894054455E+03  0.00000000000E+00 0. -1.
         22    1    3    3    0    0  0.88876128478E+02 -0.13395216882E+03  0.13474551812E+03  0.20975820460E+03  0.00000000000E+00 0. -1.
         22    1    3    3    0    0  0.12152654428E+02  0.26577096469E+02  0.48281332182E+02  0.56436832864E+02  0.00000000000E+00 0. -1.
</event>
<event>
 7    1  0.5931885E-006  0.1300688E+03  0.7818608E-02  0.1323414E+00
          2   -1    0    0  502    0  0.00000000000E+00  0.00000000000E+00  0.17830804663E+04  0.17830804663E+04  0.00000000000E+00 0. -1.
          1   -1    0    0  501    0 -0.00000000000E+00 -0.00000000000E+00 -0.46401276718E+02  0.46401276718E+02  0.00000000000E+00 0. -1.
         25    2    1    2    0    0  0.14498698513E+03  0.81443994338E+02  0.44123710058E+03  0.48782094505E+03  0.12499898173E+03 0.  0.
          2    1    1    2  501    0 -0.24467083687E+02 -0.45568119283E+02  0.13349311811E+02  0.53416250383E+02  0.00000000000E+00 0. -1.
          1    1    1    2  502    0 -0.12051990144E+03 -0.35875875055E+02  0.12820927772E+04  0.12882445476E+04  0.00000000000E+00 0. -1.
         22    1    3    3    0    0  0.14376264293E+03  0.62344961255E+02  0.44170524539E+03  0.46867698418E+03  0.00000000000E+00 0. -1.
         22    1    3    3    0    0  0.12243421998E+01  0.19099033082E+02 -0.46814480325E+00  0.19143960877E+02  0.00000000000E+00 0. -1.
</event>
<event>
 7    1  0.5931885E-006  0.6830686E+02  0.7818608E-02  0.1442071E+00
          2   -1    0    0  502    0  0.00000000000E+00  0.00000000000E+00  0.20834418535E+04  0.20834418535E+04  0.00000000000E+00 0. -1.
          1   -1    0    0  501    0 -0.00000000000E+00 -0.00000000000E+00 -0.11466336111E+04  0.11466336111E+04  0.00000000000E+00 0. -1.
         25    2    1    2    0    0  0.86365122414E+02  0.70708061415E+01  0.64607113150E+03  0.66373260977E+03  0.12499655850E+03 0.  0.
          2    1    1    2  501    0 -0.22981641927E+02 -0.29633049330E+02 -0.11367013378E+04  0.11373197461E+04  0.00000000000E+00 0. -1.
          1    1    1    2  502    0 -0.63383480487E+02  0.22562243189E+02  0.14274384487E+04  0.14290231087E+04  0.00000000000E+00 0. -1.
         22    1    3    3    0    0 -0.30134192476E+02  0.16157922715E+02  0.11601374545E+03  0.12094766288E+03  0.00000000000E+00 0.  1.
         22    1    3    3    0    0  0.11649931489E+03 -0.90871165731E+01  0.53005738605E+03  0.54278494689E+03  0.00000000000E+00 0.  1.
</event>
<event>
 7    1  0.5931885E-006  0.6817334E+02  0.7818608E-02  0.1373174E+00
          2   -1    0    0  502    0  0.00000000000E+00  0.00000000000E+00  0.90220956582E+03  0.90220956582E+03  0.00000000000E+00 0. -1.
          1   -1    0    0  501    0 -0.00000000000E+00 -0.00000000000E+00 -0.68273436159E+02  0.68273436159E+02  0.00000000000E+00 0. -1.
         25    2    1    2    0    0 -0.16824954623E+02 -0.19365051360E+02  0.22005219348E+03  0.25437291430E+03  0.12499810944E+03 0.  0.
          2    1    1    2  501    0  0.36810018367E+02 -0.52920740335E+02 -0.27695995014E+02  0.70161601675E+02  0.00000000000E+00 0. -1.
          1    1    1    2  502    0 -0.19985063744E+02  0.72285791694E+02  0.64157993120E+03  0.64594848601E+03  0.00000000000E+00 0. -1.
         22    1    3    3    0    0 -0.56864359990E+02  0.23404879256E+02  0.69367481733E+02  0.92699467809E+02  0.00000000000E+00 0.  1.
         22    1    3    3    0    0  0.40039405367E+02 -0.42769930616E+02  0.15068471174E+03  0.16167344649E+03  0.00000000000E+00 0.  1.
</event>
<event>
 7    1  0.5931885E-006  0.9106744E+02  0.7818608E-02  0.1369364E+00
          2   -1    0    0  502    0  0.00000000000E+00  0.00000000000E+00  0.18822713422E+04  0.18822713422E+04  0.00000000000E+00 0. -1.
          1   -1    0    0  501    0 -0.00000000000E+00 -0.00000000000E+00 -0.94745687645E+02  0.94745687645E+02  0.00000000000E+00 0. -1.
         25    2    1    2    0    0 -0.64756999671E+02 -0.12286399103E+03  0.25727273638E+03  0.31796898970E+03  0.12500395286E+03 0.  0.
          2    1    1    2  501    0  0.22479570280E+02  0.44438935051E+02 -0.53326194191E+02  0.72964601111E+02  0.00000000000E+00 0. -1.
          1    1    1    2  502    0  0.42277429391E+02  0.78425055980E+02  0.15835791123E+04  0.15860834390E+04  0.00000000000E+00 0. -1.
         22    1    3    3    0    0  0.79779575183E+01 -0.15164089213E+02 -0.10660798774E+02  0.20180437020E+02  0.00000000000E+00 0. -1.
         22    1    3    3    0    0 -0.72734957189E+02 -0.10769990182E+03  0.26793353515E+03  0.29778855268E+03  0.00000000000E+00 0. -1.
</event>
<event>
 7    1  0.5931885E-006  0.8341391E+02  0.7818608E-02  0.1459114E+00
          2   -1    0    0  502    0  0.00000000000E+00  0.00000000000E+00  0.23995407864E+04  0.23995407864E+04  0.00000000000E+00 0. -1.
          1   -1    0    0  501    0 -0.00000000000E+00 -0.00000000000E+00 -0.23959399052E+03  0.23959399052E+03  0.00000000000E+00 0. -1.
         25    2    1    2    0    0  0.33504177805E+01 -0.67319555744E+02  0.13585068004E+04  0.13659090440E+04  0.12499456645E+03 0.  0.
          2    1    1    2  501    0  0.19974553306E+02  0.81092381737E+02 -0.22831709728E+03  0.24311243092E+03  0.00000000000E+00 0. -1.
          1    1    1    2  502    0 -0.23324971086E+02 -0.13772825994E+02  0.10297570928E+04  0.10301133021E+04  0.00000000000E+00 0. -1.
         22    1    3    3    0    0  0.61637659927E+02 -0.52985177000E+02  0.71323882560E+03  0.71785531443E+03  0.00000000000E+00 0.  1.
         22    1    3    3    0    0 -0.58287242146E+02 -0.14334378743E+02  0.64526797484E+03  0.64805372954E+03  0.00000000000E+00 0.  1.
</event>
<event>
 7    1  0.5931885E-006  0.5270660E+02  0.7818608E-02  0.1443545E+00
          2   -1    0    0  502    0  0.00000000000E+00  0.00000000000E+00  0.19733544985E+04  0.19733544985E+04  0.00000000000E+00 0. -1.
          1   -1    0    0  501    0 -0.00000000000E+00 -0.00000000000E+00 -0.90434791063E+03  0.90434791063E+03  0.00000000000E+00 0. -1.
         25    2    1    2    0    0 -0.32231408262E+02 -0.82317243821E+02  0.11084457986E+03  0.18901822997E+03  0.12500551215E+03 0.  0.
          2    1    1    2  501    0 -0.70458621836E+01  0.47550212814E+02 -0.86421579778E+03  0.86555162298E+03  0.00000000000E+00 0. -1.
          1    1    1    2  502    0  0.39277270446E+02  0.34767031008E+02  0.18223778058E+04  0.18231325562E+04  0.00000000000E+00 0. -1.
         22    1    3    3    0    0 -0.27310886891E+02 -0.94716319769E+02  0.24399562837E+02  0.10155000955E+03  0.00000000000E+00 0.  1.
         22    1    3    3    0    0 -0.49205213708E+01  0.12399075948E+02  0.86445017026E+02  0.87468220420E+02  0.00000000000E+00 0.  1.
</event>
<event>
 7    1  0.5931885E-006  0.6757686E+02  0.7818608E-02  0.1439590E+00
          2   -1    0    0  502    0  0.00000000000E+00  0.00000000000E+00  0.15455977938E+04  0.15455977938E+04  0.00000000000E+00 0. -1.
          1   -1    0    0  501    0 -0.00000000000E+00 -0.00000000000E+00 -0.47886314753E+02  0.47886314753E+02  0.00000000000E+00 0. -1.
         25    2    1    2    0    0 -0.21473011207E+02  0.44529900169E+02  0.20710135860E+03  0.24690006030E+03  0.12499865929E+03 0.  0.
          2    1    1    2  501    0  0.59922868507E+02 -0.40976226686E+02  0.19878523380E+02  0.75265908719E+02  0.00000000000E+00 0. -1.
          1    1    1    2  502    0 -0.38449857300E+02 -0.35536734830E+01  0.12707315971E+04  0.12713181395E+04  0.00000000000E+00 0. -1.
         22    1    3    3    0    0 -0.30453744845E+02  0.86392943114E+02  0.14155413602E+03  0.16860825787E+03  0.00000000000E+00 0. -1.
         22    1    3    3    0    0  0.89807336385E+01 -0.41863042945E+02  0.65547222577E+02  0.78291802437E+02  0.00000000000E+00 0. -1.
</event>
<event>
 7    1  0.5931885E-006  0.1047211E+03  0.7818608E-02  0.1351514E+00
          2   -1    0    0  502    0  0.00000000000E+00  0.00000000000E+00  0.54059787345E+03  0.54059787345E+03  0.00000000000E+00 0. -1.
          1   -1    0    0  501    0 -0.00000000000E+00 -0.00000000000E+00 -0.68698572755E+03  0.68698572755E+03  0.00000000000E+00 0. -1.
         25    2    1    2    0    0 -0.14724658196E+03 -0.27016628205E+02 -0.30343039723E+02  0.19738157137E+03  0.12500932188E+03 0.  0.
          2    1    1    2  501    0  0.97184972221E+02  0.32027094029E+02 -0.56714639438E+03  0.57630346714E+03  0.00000000000E+00 0. -1.
          1    1    1    2  502    0  0.50061609742E+02 -0.50104658246E+01  0.45110158001E+03  0.45389856248E+03  0.00000000000E+00 0. -1.
         22    1    3    3    0    0 -0.10786731721E+03 -0.74915269835E+02 -0.32659036645E+02  0.13533022002E+03  0.00000000000E+00 0. -1.
         22    1    3    3    0    0 -0.39379264748E+02  0.47898641630E+02  0.23159969216E+01  0.62051351346E+02  0.00000000000E+00 0. -1.
</event>
<event>
 7    1  0.5931885E-006  0.3656905E+02  0.7818608E-02  0.1539252E+00
          2   -1    0    0  502    0  0.00000000000E+00  0.00000000000E+00  0.23013721829E+03  0.23013721829E+03  0.00000000000E+00 0. -1.
          1   -1    0    0  501    0 -0.00000000000E+00 -0.00000000000E+00 -0.27061835325E+04  0.27061835325E+04  0.00000000000E+00 0. -1.
         25    2    1    2    0    0 -0.56196107119E+02 -0.41010915335E+02 -0.30401323255E+03  0.33598986026E+03  0.12500097198E+03 0.  0.
          2    1    1    2  501    0  0.23054517883E+02  0.28042256157E+02 -0.23845642850E+04  0.23848406043E+04  0.00000000000E+00 0. -1.
          1    1    1    2  502    0  0.33141589235E+02  0.12968659178E+02  0.21253120332E+03  0.21549028619E+03  0.00000000000E+00 0. -1.
         22    1    3    3    0    0 -0.21911970326E+02 -0.70147532811E+02 -0.26934238796E+03  0.27918834638E+03  0.00000000000E+00 0.  1.
         22    1    3    3    0    0 -0.34284136792E+02  0.29136617476E+02 -0.34670844592E+02  0.56801513873E+02  0.00000000000E+00 0.  1.
</event>
<event>
 7    1  0.5931885E-006  0.5825838E+02  0.7818608E-02  0.1480372E+00
          2   -1    0    0  502    0  0.00000000000E+00  0.00000000000E+00  0.12862040350E+04  0.12862040350E+04  0.00000000000E+00 0. -1.
          1   -1    0    0  501    0 -0.00000000000E+00 -0.00000000000E+00 -0.35734970182E+03  0.35734970182E+03  0.00000000000E+00 0. -1.
         25    2    1    2    0    0  0.22326051400E+02  0.17124335965E+02  0.24855161529E+03  0.27963364012E+03  0.12500148706E+03 0.  0.
          2    1    1    2  501    0  0.32500321089E+02  0.72735514599E+01 -0.34011381492E+03  0.34174051929E+03  0.00000000000E+00 0. -1.
          1    1    1    2  502    0 -0.54826372489E+02 -0.24397887424E+02  0.10204165328E+04  0.10221795774E+04  0.00000000000E+00 0. -1.
         22    1    3    3    0    0  0.61617728780E+02 -0.16874303900E+02  0.75257567630E+02  0.98717719371E+02  0.00000000000E+00 0.  1.
         22    1    3    3    0    0 -0.39291677380E+02  0.33998639864E+02  0.17329404766E+03  0.18091592075E+03  0.00000000000E+00 0.  1.
</event>
<event>
 7    1  0.5931885E-006  0.1393684E+03  0.7818608E-02  0.1295868E+00
          2   -1    0    0  502    0  0.00000000000E+00  0.00000000000E+00  0.11303124073E+04  0.11303124073E+04  0.00000000000E+00 0. -1.
          1   -1    0    0  501    0 -0.00000000000E+00 -0.00000000000E+00 -0.80441978008E+03  0.80441978008E+03  0.00000000000E+00 0. -1.
         25    2    1    2    0    0  0.89267009550E+02 -0.16995882967E+02 -0.12466587126E+03  0.19855409286E+03  0.12499875721E+03 0.  0.
          2    1    1    2  501    0 -0.14399850774E+03  0.46098433463E+02 -0.63302082296E+03  0.65082716454E+03  0.00000000000E+00 0. -1.
          1    1    1    2  502    0  0.54731498188E+02 -0.29102550497E+02  0.10835793215E+04  0.10853509300E+04  0.00000000000E+00 0. -1.
         22    1    3    3    0    0  0.74976742418E+02 -0.64387105919E+02 -0.10783415527E+03  0.14627172097E+03  0.00000000000E+00 0. -1.
         22    1    3    3    0    0  0.14290267132E+02  0.47391222952E+02 -0.16831715988E+02  0.52282371893E+02  0.00000000000E+00 0. -1.
</event>
<event>
 7    1  0.5931885E-006  0.5248685E+02  0.7818608E-02  0.1536400E+00
          2   -1    0    0  502    0  0.00000000000E+00  0.00000000000E+00  0.19501218696E+03  0.19501218696E+03  0.00000000000E+00 0. -1.
          1   -1    0    0  501    0 -0.00000000000E+00 -0.00000000000E+00 -0.52947044573E+03  0.52947044573E+03  0.00000000000E+00 0. -1.
         25    2    1    2    0    0  0.25890331808E+02  0.10561906041E+02 -0.18460575490E+02  0.12941373674E+03  0.12500103707E+03 0.  0.
          2    1    1    2  501    0 -0.50007315854E+02 -0.18079688715E+02 -0.45282129912E+03  0.45593281930E+03  0.00000000000E+00 0. -1.
          1    1    1    2  502    0  0.24116984046E+02  0.75177826739E+01  0.13682361584E+03  0.13913607665E+03  0.00000000000E+00 0. -1.
         22    1    3    3    0    0 -0.44795709357E+02  0.22721792300E+02 -0.27263917290E+02  0.57151173287E+02  0.00000000000E+00 0. -1.
         22    1    3    3    0    0  0.70686041165E+02 -0.12159886259E+02  0.88033418001E+01  0.72262563450E+02  0.00000000000E+00 0. -1.
</event>
<event>
 7    1  0.5931885E-006  0.6702890E+02  0.7818608E-02  0.1440458E+00
          2   -1    0    0  502    0  0.00000000000E+00  0.00000000000E+00  0.35035657849E+04  0.35035657849E+04  0.00000000000E+00 0. -1.
          1   -1    0    0  501    0 -0.00000000000E+00 -0.00000000000E+00 -0.78866949178E+03  0.78866949178E+03  0.00000000000E+00 0. -1.
         25    2    1    2    0    0  0.60417942271E+02 -0.27886151489E+01  0.73779274800E+03  0.75074765895E+03  0.12500321715E+03 0.  0.
          2    1    1    2  501    0 -0.53229233040E+02  0.40792380947E+02 -0.78061875283E+03  0.78349410135E+03  0.00000000000E+00 0. -1.
          1    1    1    2  502    0 -0.71887092312E+01 -0.38003765798E+02  0.27577222980E+04  0.27579935164E+04  0.00000000000E+00 0. -1.
         22    1    3    3    0    0  0.17598570961E+01  0.36845391164E+02  0.69201192419E+02  0.78418651986E+02  0.00000000000E+00 0. -1.
         22    1    3    3    0    0  0.58658085175E+02 -0.39634006313E+02  0.66859155558E+03  0.67232900697E+03  0.00000000000E+00 0. -1.
</event>
<event>
 7    1  0.5931885E-006  0.1299272E+03  0.7818608E-02  0.1409222E+00
          2   -1    0    0  502    0  0.00000000000E+00  0.00000000000E+00  0.62340662049E+03  0.62340662049E+03  0.00000000000E+00 0. -1.
          1   -1    0    0  501    0 -0.00000000000E+00 -0.00000000000E+00 -0.12227136523E+04  0.12227136523E+04  0.00000000000E+00 0. -1.
         25    2    1    2    0    0  0.12254799598E+03  0.24621055618E+02  0.12718458133E+03  0.21777353998E+03  0.12500075715E+03 0.  0.
          2    1    1    2  501    0 -0.12015224324E+03 -0.49837621814E+02 -0.11734668237E+04  0.11806543679E+04  0.00000000000E+00 0. -1.
          1    1    1    2  502    0 -0.23957527415E+01  0.25216566196E+02  0.44697521051E+03  0.44769236497E+03  0.00000000000E+00 0. -1.
         22    1    3    3    0    0  0.12161229902E+03 -0.38631165202E+01  0.43248988180E+02  0.12913152179E+03  0.00000000000E+00 0. -1.
         22    1    3    3    0    0  0.93569696792E+00  0.28484172138E+02  0.83935593154E+02  0.88642018193E+02  0.00000000000E+00 0. -1.
</event>
<event>
 7    1  0.5931885E-006  0.8507949E+02  0.7818608E-02  0.1326817E+00
          2   -1    0    0  502    0  0.00000000000E+00  0.00000000000E+00  0.61723803851E+03  0.61723803851E+03  0.00000000000E+00 0. -1.
          1   -1    0    0  501    0 -0.00000000000E+00 -0.00000000000E+00 -0.30082414005E+03  0.30082414005E+03  0.00000000000E+00 0. -1.
         25    2    1    2    0    0  0.32228202939E+02 -0.30725380741E+02  0.19797869182E+03  0.23832730317E+03  0.12498653901E+03 0.  0.
          2    1    1    2  501    0 -0.64650352213E+02 -0.55306881023E+02 -0.26869195844E+03  0.28184018106E+03  0.00000000000E+00 0. -1.
          1    1    1    2  502    0  0.32422149274E+02  0.86032261764E+02  0.38712716508E+03  0.39789469433E+03  0.00000000000E+00 0. -1.
         22    1    3    3    0    0  0.75668172541E+02 -0.88677949671E+01  0.15786913041E+03  0.17529110776E+03  0.00000000000E+00 0. -1.
         22    1    3    3    0    0 -0.43439969602E+02 -0.21857585774E+02  0.40109561404E+02  0.63036195403E+02  0.00000000000E+00 0. -1.
</event>
<event>
 7    1  0.5931885E-006  0.1017783E+03  0.7818608E-02  0.1349990E+00
          2   -1    0    0  502    0  0.00000000000E+00  0.00000000000E+00  0.64203145087E+03  0.64203145087E+03  0.00000000000E+00 0. -1.
          1   -1    0    0  501    0 -0.00000000000E+00 -0.00000000000E+00 -0.14940591906E+04  0.14940591906E+04  0.00000000000E+00 0. -1.
         25    2    1    2    0    0 -0.71108686770E+02 -0.53407011970E+02 -0.38038964721E+03  0.41015904186E+03  0.12500160659E+03 0.  0.
          2    1    1    2  501    0 -0.30378173511E+02  0.42748556658E+02 -0.10940015396E+04  0.10952577967E+04  0.00000000000E+00 0. -1.
          1    1    1    2  502    0  0.10148686028E+03  0.10658455312E+02  0.62236344707E+03  0.63067380295E+03  0.00000000000E+00 0. -1.
         22    1    3    3    0    0  0.60726937157E+01 -0.25745657749E+02 -0.27674525340E+03  0.27800656788E+03  0.00000000000E+00 0.  1.
         22    1    3    3    0    0 -0.77181380485E+02 -0.27661354221E+02 -0.10364439381E+03  0.13215247398E+03  0.00000000000E+00 0.  1.
</event>
<event>
 7    1  0.5931885E-006  0.1170853E+03  0.7818608E-02  0.1295081E+00
          2   -1    0    0  502    0  0.00000000000E+00  0.00000000000E+00  0.26691741244E+03  0.26691741244E+03  0.00000000000E+00 0. -1.
          1   -1    0    0  501    0 -0.00000000000E+00 -0.00000000000E+00 -0.24472647654E+04  0.24472647654E+04  0.00000000000E+00 0. -1.
         25    2    1    2    0    0  0.81649406054E+02  0.28387859691E+02  0.41001717088E+02  0.15741147403E+03  0.12499894106E+03 0.  0.
          2    1    1    2  501    0 -0.11082807624E+03  0.39971451173E+02 -0.23792951117E+04  0.23822102779E+04  0.00000000000E+00 0. -1.
          1    1    1    2  502    0  0.29178670190E+02 -0.68359310864E+02  0.15794604174E+03  0.17456042586E+03  0.00000000000E+00 0. -1.
         22    1    3    3    0    0  0.20421962708E+02  0.66185567878E+02  0.49245005147E+02  0.84986213518E+02  0.00000000000E+00 0. -1.
         22    1    3    3    0    0  0.61227443346E+02 -0.37797708187E+02 -0.82432880591E+01  0.72425260517E+02  0.00000000000E+00 0. -1.
</event>
<event>
 7    1  0.5931885E-006  0.1290418E+03  0.7818608E-02  0.1430176E+00
          2   -1    0    0  502    0  0.00000000000E+00  0.00000000000E+00  0.37848452006E+03  0.37848452006E+03  0.00000000000E+00 0. -1.
          1   -1    0    0  501    0 -0.00000000000E+00 -0.00000000000E+00 -0.19448484813E+04  0.19448484813E+04  0.00000000000E+00 0. -1.
         25    2    1    2    0    0  0.99877434837E+02  0.41574321878E+02 -0.48126513247E+03  0.50886762235E+03  0.12500481237E+03 0.  0.
          2    1    1    2  501    0  0.17975514008E+02  0.12167234109E+02 -0.14381962241E+04  0.14383600174E+04  0.00000000000E+00 0. -1.
          1    1    1    2  502    0 -0.11785294885E+03 -0.53741555987E+02  0.35309739536E+03  0.37610536157E+03  0.00000000000E+00 0. -1.
         22    1    3    3    0    0  0.32158375528E+02  0.41546672509E+02 -0.39840909823E+03  0.40185830421E+03  0.00000000000E+00 0. -1.
         22    1    3    3    0    0  0.67719059309E+02  0.27649369266E-01 -0.82856034247E+02  0.10700931814E+03  0.00000000000E+00 0. -1.
</event>
<event>
 7    1  0.5931885E-006  0.4957040E+02  0.7818608E-02  0.1482135E+00
          2   -1    0    0  502    0  0.00000000000E+00  0.00000000000E+00  0.32325706979E+03  0.32325706979E+03  0.00000000000E+00 0. -1.
          1   -1    0    0  501    0 -0.00000000000E+00 -0.00000000000E+00 -0.99146699051E+03  0.99146699051E+03  0.00000000000E+00 0. -1.
         25    2    1    2    0    0 -0.17172791932E+02 -0.10474652767E+02 -0.28031112676E+03  0.30757854047E+03  0.12500243052E+03 0.  0.
          2    1    1    2  501    0  0.63082194900E+01 -0.38139489634E+02 -0.69497797188E+03  0.69605229379E+03  0.00000000000E+00 0. -1.
          1    1    1    2  502    0  0.10864572442E+02  0.48614142401E+02  0.30707917791E+03  0.31109322603E+03  0.00000000000E+00 0. -1.
         22    1    3    3    0    0  0.19219219086E+02 -0.60699924975E+02 -0.12349248275E+03  0.13893974438E+03  0.00000000000E+00 0.  1.
         22    1    3    3    0    0 -0.36392011017E+02  0.50225272208E+02 -0.15681864401E+03  0.16863879608E+03  0.00000000000E+00 0.  1.
</event>
<event>
 7    1  0.5931885E-006  0.1240366E+03  0.7818608E-02  0.1364041E+00
          2   -1    0    0  502    0  0.00000000000E+00  0.00000000000E+00  0.14186812706E+04  0.14186812706E+04  0.00000000000E+00 0. -1.
          1   -1    0    0  501    0 -0.00000000000E+00 -0.00000000000E+00 -0.10117258617E+03  0.10117258617E+03  0.00000000000E+00 0. -1.
         25    2    1    2    0    0  0.44540880430E+02  0.12424839056E+03  0.80138402306E+01  0.18196451974E+03  0.12500124889E+03 0.  0.
          2    1    1    2  501    0 -0.98074587118E+01 -0.10830136579E+03  0.19930260052E+03  0.22703942092E+03  0.00000000000E+00 0. -1.
          1    1    1    2  502    0 -0.34733421718E+02 -0.15947024772E+02  0.11101922436E+04  0.11108499161E+04  0.00000000000E+00 0. -1.
         22    1    3    3    0    0  0.47732822270E+01 -0.25620715335E+02  0.66767797572E+01  0.26903246374E+02  0.00000000000E+00 0.  1.
         22    1    3    3    0    0  0.39767598203E+02  0.14986910589E+03  0.13370604734E+01  0.15506127337E+03  0.00000000000E+00 0.  1.
</event>
<event>
 7    1  0.5931885E-006  0.7847096E+02  0.7818608E-02  0.1420712E+00
          2   -1    0    0  502    0  0.00000000000E+00  0.00000000000E+00  0.25004374240E+04  0.25004374240E+04  0.00000000000E+00 0. -1.
          1   -1    0    0  501    0 -0.00000000000E+00 -0.00000000000E+00 -0.37063339243E+04  0.37063339243E+04  0.00000000000E+00 0. -1.
         25    2    1    2    0    0 -0.11063621911E+03  0.10471617841E+02 -0.14686961737E+03  0.22258701535E+03  0.12499706851E+03 0.  0.
          2    1    1    2  501    0  0.74525806136E+02 -0.23438864723E+02 -0.35210228272E+04  0.35218894397E+04  0.00000000000E+00 0. -1.
          1    1    1    2  502    0  0.36110412977E+02  0.12967246882E+02  0.24619959442E+04  0.24622948932E+04  0.00000000000E+00 0. -1.
         22    1    3    3    0    0 -0.22426484028E+02 -0.52582361889E+02 -0.66045550796E+02  0.87349108454E+02  0.00000000000E+00 0. -1.
         22    1    3    3    0    0 -0.88209735084E+02  0.63053979730E+02 -0.80824066575E+02  0.13523790689E+03  0.00000000000E+00 0. -1.
</event>
<event>
 7    1  0.5931885E-006  0.7730365E+02  0.7818608E-02  0.1463109E+00
          2   -1    0    0  502    0  0.00000000000E+00  0.00000000000E+00  0.12064873393E+04  0.12064873393E+04  0.00000000000E+00 0. -1.
          1   -1    0    0  501    0 -0.00000000000E+00 -0.00000000000E+00 -0.36715220915E+03  0.36715220915E+03  0.00000000000E+00 0. -1.
         25    2    1    2    0    0 -0.85949758028E+02 -0.43241237820E+02  0.13613301618E+03  0.20836007033E+03  0.12499822103E+03 0.  0.
          2    1    1    2  501    0  0.11232608170E+02  0.26078010139E+02 -0.32900568624E+03  0.33022867180E+03  0.00000000000E+00 0. -1.
          1    1    1    2  502    0  0.74717149857E+02  0.17163227681E+02  0.10322078002E+04  0.10350508063E+04  0.00000000000E+00 0. -1.
         22    1    3    3    0    0 -0.18107623673E+02  0.45556454812E+01  0.12291541887E+03  0.12432554097E+03  0.00000000000E+00 0. -1.
         22    1    3    3    0    0 -0.67842134355E+02 -0.47796883301E+02  0.13217597310E+02  0.84034529366E+02  0.00000000000E+00 0. -1.
</event>
<event>
 7    1  0.5931885E-006  0.2053356E+03  0.7818608E-02  0.1298194E+00
          2   -1    0    0  502    0  0.00000000000E+00  0.00000000000E+00  0.24688554875E+04  0.24688554875E+04  0.00000000000E+00 0. -1.
          1   -1    0    0  501    0 -0.00000000000E+00 -0.00000000000E+00 -0.58524193730E+03  0.58524193730E+03  0.00000000000E+00 0. -1.
         25    2    1    2    0    0  0.19459817862E+03  0.14887501309E+03  0.47214612807E+03  0.54642426395E+03  0.12500115733E+03 0.  0.
          2    1    1    2  501    0 -0.16262610661E+03 -0.12292668668E+03 -0.52892140057E+03  0.56684748287E+03  0.00000000000E+00 0. -1.
          1    1    1    2  502    0 -0.31972072010E+02 -0.25948326412E+02  0.19403888227E+04  0.19408256780E+04  0.00000000000E+00 0. -1.
         22    1    3    3    0    0  0.20531981004E+03  0.15834301693E+03  0.43237997881E+03  0.50416384389E+03  0.00000000000E+00 0.  1.
         22    1    3    3    0    0 -0.10721631418E+02 -0.94680038401E+01  0.39766149260E+02  0.42260420063E+02  0.00000000000E+00 0.  1.
</event>
<event>
 7    1  0.5931885E-006  0.1913230E+03  0.7818608E-02  0.1256805E+00
          2   -1    0    0  502    0  0.00000000000E+00  0.00000000000E+00  0.95284493270E+03  0.95284493270E+03  0.00000000000E+00 0. -1.
          1   -1    0    0  501    0 -0.00000000000E+00 -0.00000000000E+00 -0.13266984648E+04  0.13266984648E+04  0.00000000000E+00 0. -1.
         25    2    1    2    0    0 -0.23268113023E+02 -0.22369191573E+03 -0.75876535835E+02  0.26825896055E+03  0.12500457185E+03 0.  0.
          2    1    1    2  501    0 -0.45824800533E+02  0.46987028405E+02 -0.11431723452E+04  0.11450548912E+04  0.00000000000E+00 0. -1.
          1    1    1    2  502    0  0.69092913555E+02  0.17670488732E+03  0.84519534894E+03  0.86622954567E+03  0.00000000000E+00 0. -1.
         22    1    3    3    0    0 -0.74248300163E+02 -0.14091224315E+03 -0.57375304246E+02  0.16929558732E+03  0.00000000000E+00 0. -1.
         22    1    3    3    0    0  0.50980187140E+02 -0.82779672573E+02 -0.18501231590E+02  0.98963373238E+02  0.00000000000E+00 0. -1.
</event>
<event>
 7    1  0.5931885E-006  0.5961167E+02  0.7818608E-02  0.1515927E+00
          2   -1    0    0  502    0  0.00000000000E+00  0.00000000000E+00  0.19640788888E+04  0.19640788888E+04  0.00000000000E+00 0. -1.
          1   -1    0    0  501    0 -0.00000000000E+00 -0.00000000000E+00 -0.17179525795E+02  0.17179525795E+02  0.00000000000E+00 0. -1.
         25    2    1    2    0    0 -0.80114581555E+02 -0.18555040076E+02  0.89573334434E+03  0.90814422115E+03  0.12500026623E+03 0.  0.
          2    1    1    2  501    0  0.24508567295E+02  0.69559081827E+01  0.57002826176E+01  0.26106469532E+02  0.00000000000E+00 0. -1.
          1    1    1    2  502    0  0.55606014260E+02  0.11599131893E+02  0.10454657360E+04  0.10470077239E+04  0.00000000000E+00 0. -1.
         22    1    3    3    0    0 -0.82513791450E+02  0.39123634372E+02  0.50918453832E+03  0.51730849462E+03  0.00000000000E+00 0. -1.
         22    1    3    3    0    0  0.23992098950E+01 -0.57678674447E+02  0.38654880603E+03  0.39083572653E+03  0.00000000000E+00 0. -1.
</event>
<event>
 7    1  0.5931885E-006  0.1393284E+03  0.7818608E-02  0.1414008E+00
          2   -1    0    0  502    0  0.00000000000E+00  0.00000000000E+00  0.28124706431E+04  0.28124706431E+04  0.00000000000E+00 0. -1.
          1   -1    0    0  501    0 -0.00000000000E+00 -0.00000000000E+00 -0.14132582278E+04  0.14132582278E+04  0.00000000000E+00 0. -1.
         25    2    1    2    0    0  0.90176016700E+02 -0.13267012241E+03  0.31174058388E+03  0.37220916307E+03  0.12499757627E+03 0.  0.
          2    1    1    2  501    0 -0.96742802910E+01  0.20598439082E+02 -0.13810033208E+04  0.13811908121E+04  0.00000000000E+00 0. -1.
          1    1    1    2  502    0 -0.80501736409E+02  0.11207168333E+03  0.24684751522E+04  0.24723288958E+04  0.00000000000E+00 0. -1.
         22    1    3    3    0    0  0.45942024796E+02  0.10984316940E+02  0.41029766702E+02  0.62568095836E+02  0.00000000000E+00 0. -1.
         22    1    3    3    0    0  0.44233991904E+02 -0.14365443935E+03  0.27071081717E+03  0.30964106724E+03  0.00000000000E+00 0. -1.
</event>
<event>
 7    1  0.5931885E-006  0.8681069E+02  0.7818608E-02  0.1363476E+00
          2   -1    0    0  502    0  0.00000000000E+00  0.00000000000E+00  0.50246373001E+03  0.50246373001E+03  0.00000000000E+00 0. -1.
          1   -1    0    0  501    0 -0.00000000000E+00 -0.00000000000E+00 -0.83332473491E+03  0.83332473491E+03  0.00000000000E+00 0. -1.
         25    2    1    2    0    0 -0.19010580144E+02 -0.13505624191E+03  0.24977267788E+02  0.18667193876E+03  0.12498383167E+03 0.  0.
          2    1    1    2  501    0  0.20441431322E+02  0.50916670408E+02 -0.74699646628E+03  0.74900873164E+03  0.00000000000E+00 0. -1.
          1    1    1    2  502    0 -0.14308511784E+01  0.84139571505E+02  0.39115819359E+03  0.40010779453E+03  0.00000000000E+00 0. -1.
         22    1    3    3    0    0 -0.26757991760E+02 -0.15350167205E+03  0.40908825681E+02  0.16109713052E+03  0.00000000000E+00 0. -1.
         22    1    3    3    0    0  0.77474116163E+01  0.18445430134E+02 -0.15931557894E+02  0.25574808240E+02  0.00000000000E+00 0. -1.
</event>
<event>
 7    1  0.5931885E-006  0.6439016E+02  0.7818608E-02  0.1444400E+00
          2   -1    0    0  502    0  0.00000000000E+00  0.00000000000E+00  0.14265276691E+03  0.14265276691E+03  0.00000000000E+00 0. -1.
          1   -1    0    0  501    0 -0.00000000000E+00 -0.00000000000E+00 -0.30715179065E+03  0.30715179065E+03  0.00000000000E+00 0. -1.
         25    2    1    2    0    0 -0.27020981398E+02 -0.39511405213E+02 -0.16102471435E+03  0.20939323276E+03  0.12500113087E+03 0.  0.
          2    1    1    2  501    0  0.85259216793E+01  0.73958434246E+02 -0.10665656390E+03  0.13006984262E+03  0.00000000000E+00 0. -1.
          1    1    1    2  502    0  0.18495059718E+02 -0.34447029034E+02  0.10318225451E+03  0.11034148218E+03  0.00000000000E+00 0. -1.
         22    1    3    3    0    0  0.19404587111E+02  0.28347531298E+02 -0.10348769803E+03  0.10904047036E+03  0.00000000000E+00 0.  1.
         22    1    3    3    0    0 -0.46425568509E+02 -0.67858936510E+02 -0.57537016314E+02  0.10035276240E+03  0.00000000000E+00 0.  1.
</event>
<event>
 7    1  0.5931885E-006  0.1127027E+03  0.7818608E-02  0.1314374E+00
          2   -1    0    0  502    0  0.00000000000E+00  0.00000000000E+00  0.10351198523E+04  0.10351198523E+04  0.00000000000E+00 0. -1.
          1   -1    0    0  501    0 -0.00000000000E+00 -0.00000000000E+00 -0.42486820320E+03  0.42486820320E+03  0.00000000000E+00 0. -1.
         25    2    1    2    0    0 -0.88579460090E+02  0.12385033021E+03  0.55201195335E+03  0.58611260273E+03  0.12500224554E+03 0.  0.
          2    1    1    2  501    0  0.25496206974E+02 -0.10938489414E+03 -0.39775597159E+03  0.41330971991E+03  0.00000000000E+00 0. -1.
          1    1    1    2  502    0  0.63083253116E+02 -0.14465436072E+02  0.45599566731E+03  0.46056573285E+03  0.00000000000E+00 0. -1.
         22    1    3    3    0    0 -0.27815274393E+02  0.55869375138E+01  0.13481092931E+02  0.31410877526E+02  0.00000000000E+00 0.  1.
         22    1    3    3    0    0 -0.60764185697E+02  0.11826339270E+03  0.53853086042E+03  0.55470172520E+03  0.00000000000E+00 0.  1.
</event>
<event>
 7    1  0.5931885E-006  0.7094170E+02  0.7818608E-02  0.1436328E+00
          2   -1    0    0  502    0  0.00000000000E+00  0.00000000000E+00  0.64561119426E+03  0.64561119426E+03  0.00000000000E+00 0. -1.
          1   -1    0    0  501    0 -0.00000000000E+00 -0.00000000000E+00 -0.13326285191E+03  0.13326285191E+03  0.00000000000E+00 0. -1.
         25    2    1    2    0    0 -0.44859572952E+02 -0.75619332835E+02  0.38080214607E+02  0.15749890808E+03  0.12500055407E+03 0.  0.
          2    1    1    2  501    0 -0.13100808015E+02  0.35342500316E+02 -0.66274902359E+02  0.76243597646E+02  0.00000000000E+00 0. -1.
          1    1    1    2  502    0  0.57960380968E+02  0.40276832519E+02  0.54054303010E+03  0.54513154045E+03  0.00000000000E+00 0. -1.
         22    1    3    3    0    0 -0.40089211760E+02  0.34880352767E+01  0.62708264565E+02  0.74509313071E+02  0.00000000000E+00 0.  1.
         22    1    3    3    0    0 -0.47703611919E+01 -0.79107368111E+02 -0.24628049958E+02  0.82989595011E+02  0.00000000000E+00 0.  1.
</event>
<event>
 7    1  0.5931885E-006  0.1453511E+03  0.7818608E-02  0.1260731E+00
          2   -1    0    0  502    0  0.00000000000E+00  0.00000000000E+00  0.51060900979E+03  0.51060900979E+03  0.00000000000E+00 0. -1.
          1   -1    0    0  501    0 -0.00000000000E+00 -0.00000000000E+00 -0.15369698845E+04  0.15369698845E+04  0.00000000000E+00 0. -1.
         25    2    1    2    0    0  0.24007215974E+02  0.74622761676E+02  0.21550914212E+02  0.14911786072E+03  0.12500716581E+03 0.  0.
          2    1    1    2  501    0  0.23501195794E+02  0.79723613713E+02 -0.14566277216E+04  0.14589970802E+04  0.00000000000E+00 0. -1.
          1    1    1    2  502    0 -0.47508411769E+02 -0.15434637539E+03  0.40871593260E+03  0.43946395341E+03  0.00000000000E+00 0. -1.
         22    1    3    3    0    0 -0.25774339082E+02  0.75941954657E+02 -0.21785305237E+02  0.83102927484E+02  0.00000000000E+00 0. -1.
         22    1    3    3    0    0  0.49781555056E+02 -0.13191929811E+01  0.43336219449E+02  0.66014933235E+02  0.00000000000E+00 0. -1.
</event>
<event>
 7    1  0.5931885E-006  0.1372995E+03  0.7818608E-02  0.1286466E+00
          2   -1    0    0  502    0  0.00000000000E+00  0.00000000000E+00  0.14856474574E+04  0.14856474574E+04  0.00000000000E+00 0. -1.
          1   -1    0    0  501    0 -0.00000000000E+00 -0.00000000000E+00 -0.73725345677E+03  0.73725345677E+03  0.00000000000E+00 0. -1.
         25    2    1    2    0    0 -0.11486691783E+03 -0.16463734157E+03 -0.62806130481E+02  0.24468268956E+03  0.12500058197E+03 0.  0.
          2    1    1    2  501    0  0.76967107784E+02  0.10733475998E+03 -0.57517347650E+03  0.59014338465E+03  0.00000000000E+00 0. -1.
          1    1    1    2  502    0  0.37899810044E+02  0.57302581590E+02  0.13863736076E+04  0.13880748400E+04  0.00000000000E+00 0. -1.
         22    1    3    3    0    0 -0.13465535064E+03 -0.16873576385E+03 -0.53362773168E+02  0.22237672319E+03  0.00000000000E+00 0.  1.
         22    1    3    3    0    0  0.19788432813E+02  0.40984222749E+01 -0.94433573131E+01  0.22305966369E+02  0.00000000000E+00 0.  1.
</event>
<event>
 7    1  0.5931885E-006  0.7534558E+02  0.7818608E-02  0.1359096E+00
          2   -1    0    0  502    0  0.00000000000E+00  0.00000000000E+00  0.18035796896E+04  0.18035796896E+04  0.00000000000E+00 0. -1.
          1   -1    0    0  501    0 -0.00000000000E+00 -0.00000000000E+00 -0.40264539320E+03  0.40264539320E+03  0.00000000000E+00 0. -1.
         25    2    1    2    0    0  0.47318554173E+02  0.18330279215E+02  0.78648574626E+03  0.79797184555E+03  0.12499677006E+03 0.  0.
          2    1    1    2  501    0  0.42025278766E+01 -0.75228284884E+02 -0.39185173154E+03  0.39902974274E+03  0.00000000000E+00 0. -1.
          1    1    1    2  502    0 -0.51521082050E+02  0.56898005669E+02  0.10063002817E+04  0.10092234945E+04  0.00000000000E+00 0. -1.
         22    1    3    3    0    0  0.50255901055E+02 -0.46040177540E+02  0.47739430439E+03  0.48223508313E+03  0.00000000000E+00 0.  1.
         22    1    3    3    0    0 -0.29373468821E+01  0.64370456755E+02  0.30909144187E+03  0.31573676243E+03  0.00000000000E+00 0.  1.
</event>
<event>
 7    1  0.5931885E-006  0.1275847E+03  0.7818608E-02  0.1239053E+00
          2   -1    0    0  502    0  0.00000000000E+00  0.00000000000E+00  0.18481688555E+04  0.18481688555E+04  0.00000000000E+00 0. -1.
          1   -1    0    0  501    0 -0.00000000000E+00 -0.00000000000E+00 -0.22413702627E+04  0.22413702627E+04  0.00000000000E+00 0. -1.
         25    2    1    2    0    0  0.68251126030E+01 -0.10675153723E+03 -0.18223936806E+03  0.24551654373E+03  0.12499885245E+03 0.  0.
          2    1    1    2  501    0  0.10709360952E+03  0.77601086400E+02 -0.20234283177E+04  0.20277458240E+04  0.00000000000E+00 0. -1.
          1    1    1    2  502    0 -0.11391872213E+03  0.29150450828E+02  0.18124662784E+04  0.18162767505E+04  0.00000000000E+00 0. -1.
         22    1    3    3    0    0  0.45611567537E+02 -0.85732783870E+02 -0.56700799495E+02  0.11245223869E+03  0.00000000000E+00 0. -1.
         22    1    3    3    0    0 -0.38786454934E+02 -0.21018753359E+02 -0.12553856856E+03  0.13306430504E+03  0.00000000000E+00 0. -1.
</event>
<event>
 7    1  0.5931885E-006  0.7200720E+02  0.7818608E-02  0.1394827E+00
          2   -1    0    0  502    0  0.00000000000E+00  0.00000000000E+00  0.42973960149E+03  0.42973960149E+03  0.00000000000E+00 0. -1.
          1   -1    0    0  501    0 -0.00000000000E+00 -0.00000000000E+00 -0.11451571294E+04  0.11451571294E+04  0.00000000000E+00 0. -1.
         25    2    1    2    0    0 -0.22588928244E+02 -0.51636515142E+01  0.23597439478E+03  0.26804013905E+03  0.12499871270E+03 0.  0.
          2    1    1    2  501    0  0.71580543715E+02 -0.97288088830E+01 -0.11242527400E+04  0.11265711905E+04  0.00000000000E+00 0. -1.
          1    1    1    2  502    0 -0.48991615471E+02  0.14892460397E+02  0.17286081730E+03  0.18028540130E+03  0.00000000000E+00 0. -1.
         22    1    3    3    0    0  0.46604581970E+02  0.18532678196E+02  0.65165889268E+02  0.82231626190E+02  0.00000000000E+00 0.  1.
         22    1    3    3    0    0 -0.69193510214E+02 -0.23696329710E+02  0.17080850551E+03  0.18580851286E+03  0.00000000000E+00 0.  1.
</event>
<event>
 7    1  0.5931885E-006  0.6549752E+02  0.7818608E-02  0.1499260E+00
          2   -1    0    0  502    0  0.00000000000E+00  0.00000000000E+00  0.14630878306E+03  0.14630878306E+03  0.00000000000E+00 0. -1.
          1   -1    0    0  501    0 -0.00000000000E+00 -0.00000000000E+00 -0.27305732710E+03  0.27305732710E+03  0.00000000000E+00 0. -1.
         25    2    1    2    0    0  0.37053863163E+02 -0.78345881255E+02 -0.70862297979E+02  0.16780254957E+03  0.12500065793E+03 0.  0.
          2    1    1    2  501    0 -0.18795305592E+02  0.59878057274E+02 -0.14539608381E+03  0.15836245276E+03  0.00000000000E+00 0. -1.
          1    1    1    2  502    0 -0.18258557571E+02  0.18467823981E+02  0.89509837753E+02  0.93201107835E+02  0.00000000000E+00 0. -1.
         22    1    3    3    0    0  0.60304479703E+02 -0.28639895046E+02  0.12578450267E+02  0.67934463062E+02  0.00000000000E+00 0. -1.
         22    1    3    3    0    0 -0.23250616540E+02 -0.49705986209E+02 -0.83440748246E+02  0.99868086506E+02  0.00000000000E+00 0. -1.
</event>
<event>
 7    1  0.5931885E-006  0.1140665E+03  0.7818608E-02  0.1350318E+00
          2   -1    0    0  502    0  0.00000000000E+00  0.00000000000E+00  0.14714720924E+04  0.14714720924E+04  0.00000000000E+00 0. -1.
          1   -1    0    0  501    0 -0.00000000000E+00 -0.00000000000E+00 -0.30270215926E+03  0.30270215926E+03  0.00000000000E+00 0. -1.
         25    2    1    2    0    0 -0.12897118338E+03 -0.13072742897E+02  0.44286074526E+03  0.47807501130E+03  0.12500245593E+03 0.  0.
          2    1    1    2  501    0  0.20229034203E+02  0.42049909279E+02 -0.28002674458E+03  0.28388798209E+03  0.00000000000E+00 0. -1.
          1    1    1    2  502    0  0.10874214918E+03 -0.28977166382E+02  0.10059359325E+04  0.10122112583E+04  0.00000000000E+00 0. -1.
         22    1    3    3    0    0 -0.13104936768E+03  0.30799640133E+02  0.35896379539E+03  0.38337652641E+03  0.00000000000E+00 0. -1.
         22    1    3    3    0    0  0.20781843026E+01 -0.43872383029E+02  0.83896949872E+02  0.94698484890E+02  0.00000000000E+00 0. -1.
</event>
<event>
 7    1  0.5931885E-006  0.1125020E+03  0.7818608E-02  0.1374632E+00
          2   -1    0    0  502    0  0.00000000000E+00  0.00000000000E+00  0.76019634238E+03  0.76019634238E+03  0.00000000000E+00 0. -1.
          1   -1    0    0  501    0 -0.00000000000E+00 -0.00000000000E+00 -0.67856618504E+03  0.67856618504E+03  0.00000000000E+00 0. -1.
         25    2    1    2    0    0  0.28238091190E+02 -0.13482170994E+03 -0.10867912342E+03  0.21540448893E+03  0.12495462663E+03 0.  0.
          2    1    1    2  501    0 -0.45392286166E+02  0.10024574869E+03 -0.51012588702E+03  0.52186022112E+03  0.00000000000E+00 0. -1.
          1    1    1    2  502    0  0.17154194976E+02  0.34575961251E+02  0.70043516779E+03  0.70149781737E+03  0.00000000000E+00 0. -1.
         22    1    3    3    0    0  0.72650349453E+02 -0.11781332541E+03 -0.81757863505E+02  0.16075571891E+03  0.00000000000E+00 0. -1.
         22    1    3    3    0    0 -0.44412258263E+02 -0.17008384538E+02 -0.26921259919E+02  0.54648770016E+02  0.00000000000E+00 0. -1.
</event>
<event>
 7    1  0.5931885E-006  0.1017486E+03  0.7818608E-02  0.1410256E+00
          2   -1    0    0  502    0  0.00000000000E+00  0.00000000000E+00  0.50879471599E+03  0.50879471599E+03  0.00000000000E+00 0. -1.
          1   -1    0    0  501    0 -0.00000000000E+00 -0.00000000000E+00 -0.55469631990E+03  0.55469631990E+03  0.00000000000E+00 0. -1.
         25    2    1    2    0    0 -0.73171687139E+02  0.11000374643E+03  0.99534319927E+02  0.20733390471E+03  0.12500138868E+03 0.  0.
          2    1    1    2  501    0  0.60614207213E+02 -0.80478284173E+02 -0.49498702008E+03  0.50513660171E+03  0.00000000000E+00 0. -1.
          1    1    1    2  502    0  0.12557479926E+02 -0.29525462260E+02  0.34955109625E+03  0.35102052947E+03  0.00000000000E+00 0. -1.
         22    1    3    3    0    0 -0.68818313960E+02  0.58505957159E+02 -0.52693325855E+01  0.90480236655E+02  0.00000000000E+00 0.  1.
         22    1    3    3    0    0 -0.43533731797E+01  0.51497789273E+02  0.10480365251E+03  0.11685366806E+03  0.00000000000E+00 0.  1.
</event>
<event>
 7    1  0.5931885E-006  0.1110173E+03  0.7818608E-02  0.1442121E+00
          2   -1    0    0  502    0  0.00000000000E+00  0.00000000000E+00  0.65002579000E+03  0.65002579000E+03  0.00000000000E+00 0. -1.
          1   -1    0    0  501    0 -0.00000000000E+00 -0.00000000000E+00 -0.10299653972E+03  0.10299653972E+03  0.00000000000E+00 0. -1.
         25    2    1    2    0    0 -0.54397000926E+02 -0.82180704566E+02  0.14876338064E+03  0.21787315850E+03  0.12500187142E+03 0.  0.
          2    1    1    2  501    0 -0.23035682740E+02 -0.11540873523E+01 -0.59314274987E+02  0.63640850199E+02  0.00000000000E+00 0. -1.
          1    1    1    2  502    0  0.77432683666E+02  0.83334791919E+02  0.45758014462E+03  0.47150832102E+03  0.00000000000E+00 0. -1.
         22    1    3    3    0    0 -0.32456325493E+02 -0.39892613651E+01 -0.14311715868E+02  0.35695272542E+02  0.00000000000E+00 0.  1.
         22    1    3    3    0    0 -0.21940675433E+02 -0.78191443201E+02  0.16307509651E+03  0.18217788595E+03  0.00000000000E+00 0.  1.
</event>
<event>
 7    1  0.5931885E-006  0.1041315E+03  0.7818608E-02  0.1419796E+00
          2   -1    0    0  502    0  0.00000000000E+00  0.00000000000E+00  0.11226232858E+04  0.11226232858E+04  0.00000000000E+00 0. -1.
          1   -1    0    0  501    0 -0.00000000000E+00 -0.00000000000E+00 -0.17757610349E+03  0.17757610349E+03  0.00000000000E+00 0. -1.
         25    2    1    2    0    0  0.11929786930E+03 -0.28177869510E+01 -0.41359442121E+02  0.17769677479E+03  0.12500247508E+03 0.  0.
          2    1    1    2  501    0 -0.95879102789E+02 -0.14485303384E+02 -0.33190221524E+02  0.10249008328E+03  0.00000000000E+00 0. -1.
          1    1    1    2  502    0 -0.23418766509E+02  0.17303090335E+02  0.10195968460E+04  0.10200125312E+04  0.00000000000E+00 0. -1.
         22    1    3    3    0    0  0.10550020805E+03 -0.90546406153E+01  0.25689150472E+02  0.10895968460E+03  0.00000000000E+00 0. -1.
         22    1    3    3    0    0  0.13797661248E+02  0.62368536643E+01 -0.67048592592E+02  0.68737090193E+02  0.00000000000E+00 0. -1.
</event>
<event>
 7    1  0.5931885E-006  0.9565417E+02  0.7818608E-02  0.1388910E+00
          2   -1    0    0  502    0  0.00000000000E+00  0.00000000000E+00  0.67980458491E+03  0.67980458491E+03  0.00000000000E+00 0. -1.
          1   -1    0    0  501    0 -0.00000000000E+00 -0.00000000000E+00 -0.93917230888E+03  0.93917230888E+03  0.00000000000E+00 0. -1.
         25    2    1    2    0    0  0.25009007824E+02  0.56852453881E+02  0.38298875419E+03  0.40763102757E+03  0.12500006726E+03 0.  0.
          2    1    1    2  501    0 -0.12015330337E+02 -0.95125176548E+02 -0.92291941178E+03  0.92788652755E+03  0.00000000000E+00 0. -1.
          1    1    1    2  502    0 -0.12993677487E+02  0.38272722667E+02  0.28056293362E+03  0.28345933867E+03  0.00000000000E+00 0. -1.
         22    1    3    3    0    0  0.51184508510E+02  0.98787008542E+01  0.32253939722E+03  0.32672481601E+03  0.00000000000E+00 0.  1.
         22    1    3    3    0    0 -0.26175500686E+02  0.46973753027E+02  0.60449356977E+02  0.80906211557E+02  0.00000000000E+00 0.  1.
</event>
<event>
 7    1  0.5931885E-006  0.1296722E+03  0.7818608E-02  0.1342994E+00
          2   -1    0    0  502    0  0.00000000000E+00  0.00000000000E+00  0.86486000579E+02  0.86486000579E+02  0.00000000000E+00 0. -1.
          1   -1    0    0  501    0 -0.00000000000E+00 -0.00000000000E+00 -0.16016699174E+04  0.16016699174E+04  0.00000000000E+00 0. -1.
         25    2    1    2    0    0 -0.49441219952E+02 -0.76838674555E+02 -0.69885723751E+03  0.71580395199E+03  0.12500097253E+03 0.  0.
          2    1    1    2  501    0 -0.77918577514E+01 -0.43007661389E+02 -0.83682735230E+03  0.83796801225E+03  0.00000000000E+00 0. -1.
          1    1    1    2  502    0  0.57233077703E+02  0.11984633594E+03  0.20500673014E+02  0.13438395372E+03  0.00000000000E+00 0. -1.
         22    1    3    3    0    0 -0.55770431045E+02 -0.90526565969E+02 -0.69034863724E+03  0.69848882673E+03  0.00000000000E+00 0. -1.
         22    1    3    3    0    0  0.63292110929E+01  0.13687891414E+02 -0.85086002686E+01  0.17315125265E+02  0.00000000000E+00 0. -1.
</event>
<event>
 7    1  0.5931885E-006  0.8570649E+02  0.7818608E-02  0.1343284E+00
          2   -1    0    0  502    0  0.00000000000E+00  0.00000000000E+00  0.66568097422E+03  0.66568097422E+03  0.00000000000E+00 0. -1.
          1   -1    0    0  501    0 -0.00000000000E+00 -0.00000000000E+00 -0.56248660288E+03  0.56248660288E+03  0.00000000000E+00 0. -1.
         25    2    1    2    0    0  0.15860625377E+02 -0.18113905613E+02  0.29054264331E+03  0.31720623022E+03  0.12500036757E+03 0.  0.
          2    1    1    2  501    0 -0.80414011163E+02  0.31682029878E+02 -0.54269986233E+03  0.54953917493E+03  0.00000000000E+00 0. -1.
          1    1    1    2  502    0  0.64553385787E+02 -0.13568124265E+02  0.35535159035E+03  0.36142217195E+03  0.00000000000E+00 0. -1.
         22    1    3    3    0    0  0.18061041960E+02 -0.69608238719E+02  0.12963744780E+03  0.14824768465E+03  0.00000000000E+00 0. -1.
         22    1    3    3    0    0 -0.22004165831E+01  0.51494333106E+02  0.16090519552E+03  0.16895854557E+03  0.00000000000E+00 0. -1.
</event>
<event>
 7    1  0.5931885E-006  0.1069203E+03  0.7818608E-02  0.1375615E+00
          2   -1    0    0  502    0  0.00000000000E+00  0.00000000000E+00  0.28665456552E+04  0.28665456552E+04  0.00000000000E+00 0. -1.
          1   -1    0    0  501    0 -0.00000000000E+00 -0.00000000000E+00 -0.86377858204E+03  0.86377858204E+03  0.00000000000E+00 0. -1.
         25    2    1    2    0    0  0.59164008089E+02  0.11074803274E+03  0.37585831746E+03  0.41552382975E+03  0.12500028668E+03 0.  0.
          2    1    1    2  501    0 -0.19282331173E+02 -0.10505653258E+03 -0.84040116759E+03  0.84716161730E+03  0.00000000000E+00 0. -1.
          1    1    1    2  502    0 -0.39881676916E+02 -0.56915001615E+01  0.24673099233E+04  0.24676387902E+04  0.00000000000E+00 0. -1.
         22    1    3    3    0    0 -0.92774023250E+01  0.18199581034E+02 -0.19968210033E+01  0.20525161092E+02  0.00000000000E+00 0. -1.
         22    1    3    3    0    0  0.68441410413E+02  0.92548451706E+02  0.37785513847E+03  0.39499866865E+03  0.00000000000E+00 0. -1.
</event>
<event>
 7    1  0.5931885E-006  0.4559579E+02  0.7818608E-02  0.1505172E+00
          2   -1    0    0  502    0  0.00000000000E+00  0.00000000000E+00  0.27814742340E+03  0.27814742340E+03  0.00000000000E+00 0. -1.
          1   -1    0    0  501    0 -0.00000000000E+00 -0.00000000000E+00 -0.24271318534E+04  0.24271318534E+04  0.00000000000E+00 0. -1.
         25    2    1    2    0    0  0.40274004673E+02  0.62850721232E+02  0.12930189854E+03  0.19472262708E+03  0.12500284764E+03 0.  0.
          2    1    1    2  501    0 -0.94648146285E+01 -0.44569394370E+02 -0.23914365536E+04  0.23918705657E+04  0.00000000000E+00 0. -1.
          1    1    1    2  502    0 -0.30809190044E+02 -0.18281326863E+02  0.11315022502E+03  0.11868608396E+03  0.00000000000E+00 0. -1.
         22    1    3    3    0    0 -0.29456761837E+02 -0.53000304199E+01 -0.33224640884E+01  0.30113616654E+02  0.00000000000E+00 0. -1.
         22    1    3    3    0    0  0.69730766510E+02  0.68150751652E+02  0.13262436263E+03  0.16460901042E+03  0.00000000000E+00 0. -1.
</event>
<event>
 7    1  0.5931885E-006  0.1295660E+03  0.7818608E-02  0.1282539E+00
          2   -1    0    0  502    0  0.00000000000E+00  0.00000000000E+00  0.17351193210E+04  0.17351193210E+04  0.00000000000E+00 0. -1.
          1   -1    0    0  501    0 -0.00000000000E+00 -0.00000000000E+00 -0.38036835629E+03  0.38036835629E+03  0.00000000000E+00 0. -1.
         25    2    1    2    0    0 -0.12525338200E+03 -0.92882475328E+02  0.39672315227E+03  0.44421816214E+03  0.12499980841E+03 0.  0.
          2    1    1    2  501    0 -0.18591394243E+01  0.75531737616E+02 -0.34944401285E+03  0.35751869588E+03  0.00000000000E+00 0. -1.
          1    1    1    2  502    0  0.12711252142E+03  0.17350737712E+02  0.13074718253E+04  0.13137508193E+04  0.00000000000E+00 0. -1.
         22    1    3    3    0    0 -0.40541181425E+01 -0.42925235837E+02  0.21998006244E+03  0.22416565218E+03  0.00000000000E+00 0. -1.
         22    1    3    3    0    0 -0.12119926386E+03 -0.49957239491E+02  0.17674308983E+03  0.22005250996E+03  0.00000000000E+00 0. -1.
</event>
<event>
 7    1  0.5931885E-006  0.1323803E+03  0.7818608E-02  0.1376356E+00
          2   -1    0    0  502    0  0.00000000000E+00  0.00000000000E+00  0.19811778670E+04  0.19811778670E+04  0.00000000000E+00 0. -1.
          1   -1    0    0  501    0 -0.00000000000E+00 -0.00000000000E+00 -0.10282764447E+04  0.10282764447E+04  0.00000000000E+00 0. -1.
         25    2    1    2    0    0  0.40845809205E+01  0.10176018390E+03  0.52032256437E+02  0.16942309366E+03  0.12500004051E+03 0.  0.
          2    1    1    2  501    0  0.80954368686E+01  0.31310979571E+02 -0.96692370409E+03  0.96746439886E+03  0.00000000000E+00 0. -1.
          1    1    1    2  502    0 -0.12180017789E+02 -0.13307116347E+03  0.18677928699E+04  0.18725668192E+04  0.00000000000E+00 0. -1.
         22    1    3    3    0    0  0.35553931612E+02  0.87383468069E+02 -0.13517481544E+02  0.95303068430E+02  0.00000000000E+00 0.  1.
         22    1    3    3    0    0 -0.31469350692E+02  0.14376715832E+02  0.65549737981E+02  0.74120025233E+02  0.00000000000E+00 0.  1.
</event>
<event>
 7    1  0.5931885E-006  0.6997028E+02  0.7818608E-02  0.1451650E+00
          2   -1    0    0  502    0  0.00000000000E+00  0.00000000000E+00  0.57720315356E+03  0.57720315356E+03  0.00000000000E+00 0. -1.
          1   -1    0    0  501    0 -0.00000000000E+00 -0.00000000000E+00 -0.27991270642E+03  0.27991270642E+03  0.00000000000E+00 0. -1.
         25    2    1    2    0    0 -0.45513657594E+02  0.31941250113E+02 -0.12350514276E+03  0.18433531008E+03  0.12503699360E+03 0.  0.
          2    1    1    2  501    0  0.75375625684E+02 -0.15469921428E+02 -0.11364976634E+03  0.13724821604E+03  0.00000000000E+00 0. -1.
          1    1    1    2  502    0 -0.29861968091E+02 -0.16471328685E+02  0.53444535624E+03  0.53553233387E+03  0.00000000000E+00 0. -1.
         22    1    3    3    0    0 -0.78959225382E+02  0.78623767436E+01 -0.11879029459E+03  0.14285485757E+03  0.00000000000E+00 0. -1.
         22    1    3    3    0    0  0.33445567789E+02  0.24078873369E+02 -0.47148481668E+01  0.41480452513E+02  0.00000000000E+00 0. -1.
</event>
<event>
 7    1  0.5931885E-006  0.4080617E+02  0.7818608E-02  0.1588248E+00
          2   -1    0    0  502    0  0.00000000000E+00  0.00000000000E+00  0.16161527549E+04  0.16161527549E+04  0.00000000000E+00 0. -1.
          1   -1    0    0  501    0 -0.00000000000E+00 -0.00000000000E+00 -0.12799959207E+04  0.12799959207E+04  0.00000000000E+00 0. -1.
         25    2    1    2    0    0  0.11246113887E+02 -0.14215377442E+02 -0.14155630250E+03  0.18971274965E+03  0.12499675423E+03 0.  0.
          2    1    1    2  501    0 -0.30141962481E+02  0.28039877114E+02 -0.11138950551E+04  0.11146555371E+04  0.00000000000E+00 0. -1.
          1    1    1    2  502    0  0.18895848593E+02 -0.13824499672E+02  0.15916081918E+04  0.15917803888E+04  0.00000000000E+00 0. -1.
         22    1    3    3    0    0  0.45335204774E+01  0.25366347767E+02  0.13815308821E+02  0.29238111512E+02  0.00000000000E+00 0.  1.
         22    1    3    3    0    0  0.67125934098E+01 -0.39581725209E+02 -0.15537161133E+03  0.16047463814E+03  0.00000000000E+00 0.  1.
</event>
<event>
 7    1  0.5931885E-006  0.6033502E+02  0.7818608E-02  0.1458329E+00
          2   -1    0    0  502    0  0.00000000000E+00  0.00000000000E+00  0.11659543101E+04  0.11659543101E+04  0.00000000000E+00 0. -1.
          1   -1    0    0  501    0 -0.00000000000E+00 -0.00000000000E+00 -0.30189517921E+03  0.30189517921E+03  0.00000000000E+00 0. -1.
         25    2    1    2    0    0  0.40772073464E+02  0.57019336095E+02  0.30065818683E+03  0.33306696041E+03  0.12499875257E+03 0.  0.
          2    1    1    2  501    0 -0.32478406403E+01 -0.60258501639E+02 -0.28208017039E+03  0.28846292313E+03  0.00000000000E+00 0. -1.
          1    1    1    2  502    0 -0.37524232824E+02  0.32391655437E+01  0.84548111444E+03  0.84631960577E+03  0.00000000000E+00 0. -1.
         22    1    3    3    0    0  0.51350656927E+02  0.62422788721E+02  0.30844719475E+03  0.31886230016E+03  0.00000000000E+00 0. -1.
         22    1    3    3    0    0 -0.10578583463E+02 -0.54034526259E+01 -0.77890079149E+01  0.14204660245E+02  0.00000000000E+00 0. -1.
</event>
<event>
 7    1  0.5931885E-006  0.1357329E+03  0.7818608E-02  0.1265426E+00
          2   -1    0    0  502    0  0.00000000000E+00  0.00000000000E+00  0.70712804004E+03  0.70712804004E+03  0.00000000000E+00 0. -1.
          1   -1    0    0  501    0 -0.00000000000E+00 -0.00000000000E+00 -0.42085950439E+03  0.42085950439E+03  0.00000000000E+00 0. -1.
         25    2    1    2    0    0  0.20508135442E+03  0.21401154955E+02 -0.18520860495E+02  0.24183364096E+03  0.12499646500E+03 0.  0.
          2    1    1    2  501    0 -0.12673028942E+03  0.11584102825E+02 -0.27349592486E+03  0.30165340808E+03  0.00000000000E+00 0. -1.
          1    1    1    2  502    0 -0.78351065007E+02 -0.32985257780E+02  0.57828532100E+03  0.58450049538E+03  0.00000000000E+00 0. -1.
         22    1    3    3    0    0  0.12852556477E+02  0.10239419581E+02  0.37796551014E+02  0.41214235283E+02  0.00000000000E+00 0. -1.
         22    1    3    3    0    0  0.19222879795E+03  0.11161735374E+02 -0.56317411509E+02  0.20061940568E+03  0.00000000000E+00 0. -1.
</event>
<event>
 7    1  0.5931885E-006  0.1444300E+03  0.7818608E-02  0.1297348E+00
          2   -1    0    0  502    0  0.00000000000E+00  0.00000000000E+00  0.89470489654E+02  0.89470489654E+02  0.00000000000E+00 0. -1.
          1   -1    0    0  501    0 -0.00000000000E+00 -0.00000000000E+00 -0.93417107723E+03  0.93417107723E+03  0.00000000000E+00 0. -1.
         25    2    1    2    0    0  0.10778254404E+03 -0.11666416883E+02 -0.38531805555E+03  0.41934341869E+03  0.12500286710E+03 0.  0.
          2    1    1    2  501    0  0.42017108275E+02  0.41420072845E+02 -0.44721295491E+03  0.45108811430E+03  0.00000000000E+00 0. -1.
          1    1    1    2  502    0 -0.14979965231E+03 -0.29753655962E+02 -0.12169577106E+02  0.15321003389E+03  0.00000000000E+00 0. -1.
         22    1    3    3    0    0  0.10095822487E+03 -0.59011967662E+02 -0.29017551242E+03  0.31285268659E+03  0.00000000000E+00 0.  1.
         22    1    3    3    0    0  0.68243191641E+01  0.47345550778E+02 -0.95142543132E+02  0.10649073210E+03  0.00000000000E+00 0.  1.
</event>
<event>
 7    1  0.5931885E-006  0.1571332E+03  0.7818608E-02  0.1225580E+00
          2   -1    0    0  502    0  0.00000000000E+00  0.00000000000E+00  0.23718942561E+04  0.23718942561E+04  0.00000000000E+00 0. -1.
          1   -1    0    0  501    0 -0.00000000000E+00 -0.00000000000E+00 -0.38502527191E+04  0.38502527191E+04  0.00000000000E+00 0. -1.
         25    2    1    2    0    0 -0.12164595780E+03  0.10097714946E+03  0.67247808702E+03  0.70203027756E+03  0.12500243728E+03 0.  0.
          2    1    1    2  501    0  0.26218181223E+02 -0.15501894609E+03 -0.38320782045E+04  0.38353020262E+04  0.00000000000E+00 0. -1.
          1    1    1    2  502    0  0.95427776579E+02  0.54041796627E+02  0.16812416545E+04  0.16848146714E+04  0.00000000000E+00 0. -1.
         22    1    3    3    0    0 -0.10994912124E+03  0.67095251801E+02  0.28331707114E+03  0.31122201862E+03  0.00000000000E+00 0.  1.
         22    1    3    3    0    0 -0.11696836564E+02  0.33881897658E+02  0.38916101588E+03  0.39080825894E+03  0.00000000000E+00 0.  1.
</event>
<event>
 7    1  0.1047611E-005  0.5828085E+02  0.7818608E-02  0.1448783E+00
          2   -1    0    0  502    0  0.00000000000E+00  0.00000000000E+00  0.11631328732E+04  0.11631328732E+04  0.00000000000E+00 0. -1.
          1   -1    0    0  501    0 -0.00000000000E+00 -0.00000000000E+00 -0.12932675972E+04  0.12932675972E+04  0.00000000000E+00 0. -1.
         25    2    1    2    0    0  0.25759233110E+02  0.30805200760E+02 -0.40536984415E+03  0.42610118727E+03  0.12500005106E+03 0.  0.
          2    1    1    2  501    0 -0.60684080504E+02 -0.78064455636E+01 -0.87608554701E+03  0.87821943949E+03  0.00000000000E+00 0. -1.
          1    1    1    2  502    0  0.34924847394E+02 -0.22998755197E+02  0.11513206671E+04  0.11520798437E+04  0.00000000000E+00 0. -1.
         22    1    3    3    0    0  0.36886685981E+02 -0.29501501315E+02 -0.65563505325E+02  0.80805565483E+02  0.00000000000E+00 0. -1.
         22    1    3    3    0    0 -0.11127452871E+02  0.60306702075E+02 -0.33980633882E+03  0.34529562179E+03  0.00000000000E+00 0. -1.
</event>
<event>
 7    1  0.5931885E-006  0.6309657E+02  0.7818608E-02  0.1499363E+00
          2   -1    0    0  502    0  0.00000000000E+00  0.00000000000E+00  0.61196123937E+02  0.61196123937E+02  0.00000000000E+00 0. -1.
          1   -1    0    0  501    0 -0.00000000000E+00 -0.00000000000E+00 -0.14460149178E+04  0.14460149178E+04  0.00000000000E+00 0. -1.
         25    2    1    2    0    0 -0.64831673086E+02  0.60587471358E+02 -0.87382502804E+03  0.88716846525E+03  0.12499487425E+03 0.  0.
          2    1    1    2  501    0  0.22970664236E+02 -0.14073421527E+02 -0.54712216142E+03  0.54778496887E+03  0.00000000000E+00 0. -1.
          1    1    1    2  502    0  0.41861008850E+02 -0.46514049831E+02  0.36128395575E+02  0.72257607630E+02  0.00000000000E+00 0. -1.
         22    1    3    3    0    0 -0.49324947940E+02 -0.31992347558E+02 -0.37640332359E+03  0.38096708886E+03  0.00000000000E+00 0. -1.
         22    1    3    3    0    0 -0.15506725146E+02  0.92579818916E+02 -0.49742170445E+03  0.50620137639E+03  0.00000000000E+00 0. -1.
</event>
<event>
 7    1  0.5931885E-006  0.4399700E+02  0.7818608E-02  0.1494870E+00
          2   -1    0    0  502    0  0.00000000000E+00  0.00000000000E+00  0.19747950816E+03  0.19747950816E+03  0.00000000000E+00 0. -1.
          1   -1    0    0  501    0 -0.00000000000E+00 -0.00000000000E+00 -0.58759292498E+03  0.58759292498E+03  0.00000000000E+00 0. -1.
         25    2    1    2    0    0  0.38770627591E+02 -0.53230891941E+01 -0.46991105248E+03  0.48782592478E+03  0.12500495510E+03 0.  0.
          2    1    1    2  501    0 -0.19159100301E+02  0.44707405663E+02 -0.10050360877E+03  0.11165481907E+03  0.00000000000E+00 0. -1.
          1    1    1    2  502    0 -0.19611527290E+02 -0.39384316469E+02  0.18030124444E+03  0.18559168929E+03  0.00000000000E+00 0. -1.
         22    1    3    3    0    0  0.22022148396E+02 -0.65740415182E+01 -0.47046077664E+03  0.47102179928E+03  0.00000000000E+00 0. -1.
         22    1    3    3    0    0  0.16748479195E+02  0.12509523240E+01  0.54972415813E+00  0.16804125496E+02  0.00000000000E+00 0. -1.
</event>
<event>
 7    1  0.5931885E-006  0.6990257E+02  0.7818608E-02  0.1440117E+00
          2   -1    0    0  502    0  0.00000000000E+00  0.00000000000E+00  0.27034618531E+03  0.27034618531E+03  0.00000000000E+00 0. -1.
          1   -1    0    0  501    0 -0.00000000000E+00 -0.00000000000E+00 -0.13602648478E+04  0.13602648478E+04  0.00000000000E+00 0. -1.
         25    2    1    2    0    0  0.51002520358E+02 -0.47829028517E+02 -0.32499673813E+02  0.14686735654E+03  0.12499967426E+03 0.  0.
          2    1    1    2  501    0 -0.31410705055E+02 -0.19897272652E+02 -0.12644708646E+04  0.12650174312E+04  0.00000000000E+00 0. -1.
          1    1    1    2  502    0 -0.19591815304E+02  0.67726301169E+02  0.20705187591E+03  0.21872624537E+03  0.00000000000E+00 0. -1.
         22    1    3    3    0    0  0.69691846100E+02  0.15930332101E+02  0.29687618149E+01  0.71550977913E+02  0.00000000000E+00 0.  1.
         22    1    3    3    0    0 -0.18689325741E+02 -0.63759360618E+02 -0.35468435627E+02  0.75316378623E+02  0.00000000000E+00 0.  1.
</event>
<event>
 7    1  0.5931885E-006  0.2279598E+03  0.7818608E-02  0.1287639E+00
          2   -1    0    0  502    0  0.00000000000E+00  0.00000000000E+00  0.18708998221E+04  0.18708998221E+04  0.00000000000E+00 0. -1.
          1   -1    0    0  501    0 -0.00000000000E+00 -0.00000000000E+00 -0.16505743266E+04  0.16505743266E+04  0.00000000000E+00 0. -1.
         25    2    1    2    0    0  0.17426966147E+03 -0.18670843818E+03 -0.56749029008E+03  0.63474411699E+03  0.12499963566E+03 0.  0.
          2    1    1    2  501    0 -0.13644047955E+03  0.17109371780E+03 -0.10378172477E+04  0.10606383476E+04  0.00000000000E+00 0. -1.
          1    1    1    2  502    0 -0.37829181919E+02  0.15614720388E+02  0.18256330333E+04  0.18260916841E+04  0.00000000000E+00 0. -1.
         22    1    3    3    0    0  0.13104773593E+03 -0.57034069892E+02 -0.34756094502E+03  0.37579915477E+03  0.00000000000E+00 0.  1.
         22    1    3    3    0    0  0.43221925537E+02 -0.12967436829E+03 -0.21992934506E+03  0.25894496222E+03  0.00000000000E+00 0.  1.
</event>
<event>
 7    1  0.5931885E-006  0.7264382E+02  0.7818608E-02  0.1431763E+00
          2   -1    0    0  502    0  0.00000000000E+00  0.00000000000E+00  0.81626971362E+03  0.81626971362E+03  0.00000000000E+00 0. -1.
          1   -1    0    0  501    0 -0.00000000000E+00 -0.00000000000E+00 -0.90719681129E+03  0.90719681129E+03  0.00000000000E+00 0. -1.
         25    2    1    2    0    0  0.28021121206E+02  0.82597400918E+02 -0.15467441698E+03  0.21718071150E+03  0.12504308180E+03 0.  0.
          2    1    1    2  501    0 -0.36616648345E+02 -0.10519753620E+02 -0.71908589531E+03  0.72009441672E+03  0.00000000000E+00 0. -1.
          1    1    1    2  502    0  0.85955271390E+01 -0.72077647297E+02  0.78283321462E+03  0.78619139670E+03  0.00000000000E+00 0. -1.
         22    1    3    3    0    0  0.48807328697E+02  0.10564798881E+03 -0.14214496901E+03  0.18370858741E+03  0.00000000000E+00 0.  1.
         22    1    3    3    0    0 -0.20786207491E+02 -0.23050587895E+02 -0.12529447966E+02  0.33472124081E+02  0.00000000000E+00 0.  1.
</event>
<event>
 7    1  0.5931885E-006  0.9870683E+02  0.7818608E-02  0.1347301E+00
          2   -1    0    0  502    0  0.00000000000E+00  0.00000000000E+00  0.13595038265E+04  0.13595038265E+04  0.00000000000E+00 0. -1.
          1   -1    0    0  501    0 -0.00000000000E+00 -0.00000000000E+00 -0.16567217290E+03  0.16567217290E+03  0.00000000000E+00 0. -1.
         25    2    1    2    0    0  0.46608384492E+01 -0.68026482138E+02  0.44064758348E+03  0.46308099584E+03  0.12499756077E+03 0.  0.
          2    1    1    2  501    0 -0.58347341492E+02  0.81421892652E+02 -0.13726507932E+03  0.16992833449E+03  0.00000000000E+00 0. -1.
          1    1    1    2  502    0  0.53686503043E+02 -0.13395410514E+02  0.89044914945E+03  0.89216666907E+03  0.00000000000E+00 0. -1.
         22    1    3    3    0    0  0.79395209614E+01 -0.84828681153E+02  0.43744519566E+03  0.44566494180E+03  0.00000000000E+00 0. -1.
         22    1    3    3    0    0 -0.32786825122E+01  0.16802199015E+02  0.32023878137E+01  0.17416054044E+02  0.00000000000E+00 0. -1.
</event>
<event>
 7    1  0.5931885E-006  0.3846427E+02  0.7818608E-02  0.1532612E+00
          2   -1    0    0  502    0  0.00000000000E+00  0.00000000000E+00  0.11182965316E+04  0.11182965316E+04  0.00000000000E+00 0. -1.
          1   -1    0    0  501    0 -0.00000000000E+00 -0.00000000000E+00 -0.81876666720E+03  0.81876666720E+03  0.00000000000E+00 0. -1.
         25    2    1    2    0    0  0.45493979062E+02  0.14285657702E+01  0.87492924412E+02  0.15922362203E+03  0.12500162822E+03 0.  0.
          2    1    1    2  501    0 -0.26217930672E+02  0.28189037821E+02 -0.78211395850E+03  0.78306081873E+03  0.00000000000E+00 0. -1.
          1    1    1    2  502    0 -0.19276048391E+02 -0.29617603591E+02  0.99415089854E+03  0.99477875809E+03  0.00000000000E+00 0. -1.
         22    1    3    3    0    0  0.29855147847E+02 -0.86866325057E+01 -0.28238925641E+02  0.42002670851E+02  0.00000000000E+00 0.  1.
         22    1    3    3    0    0  0.15638831216E+02  0.10115198276E+02  0.11573185005E+03  0.11722095118E+03  0.00000000000E+00 0.  1.
</event>
<event>
 7    1  0.5931885E-006  0.6245877E+02  0.7818608E-02  0.1415883E+00
          2   -1    0    0  502    0  0.00000000000E+00  0.00000000000E+00  0.20173064555E+02  0.20173064555E+02  0.00000000000E+00 0. -1.
          1   -1    0    0  501    0 -0.00000000000E+00 -0.00000000000E+00 -0.17158991895E+04  0.17158991895E+04  0.00000000000E+00 0. -1.
         25    2    1    2    0    0  0.58369198530E+00  0.67621417557E+02 -0.79938196658E+03  0.81191706832E+03  0.12499920211E+03 0.  0.
          2    1    1    2  501    0 -0.44961431616E+02 -0.21948618066E+02 -0.83242564614E+03  0.83392789168E+03  0.00000000000E+00 0. -1.
          1    1    1    2  502    0  0.44377739631E+02 -0.45672799490E+02 -0.63918512233E+02  0.90227294064E+02  0.00000000000E+00 0. -1.
         22    1    3    3    0    0 -0.26015023915E+02  0.78483939547E+02 -0.75180316220E+03  0.75633623801E+03  0.00000000000E+00 0. -1.
         22    1    3    3    0    0  0.26598715900E+02 -0.10862521991E+02 -0.47578804380E+02  0.55580830308E+02  0.00000000000E+00 0. -1.
</event>
<event>
 7    1  0.5931885E-006  0.4045419E+02  0.7818608E-02  0.1535526E+00
          2   -1    0    0  502    0  0.00000000000E+00  0.00000000000E+00  0.28386765661E+03  0.28386765661E+03  0.00000000000E+00 0. -1.
          1   -1    0    0  501    0 -0.00000000000E+00 -0.00000000000E+00 -0.15320815838E+03  0.15320815838E+03  0.00000000000E+00 0. -1.
         25    2    1    2    0    0  0.22044843595E+02  0.31905662502E+01  0.13852738095E+03  0.18791591117E+03  0.12500559809E+03 0.  0.
          2    1    1    2  501    0 -0.28950788434E+02  0.29041338804E+02 -0.12286719600E+03  0.12952951541E+03  0.00000000000E+00 0. -1.
          1    1    1    2  502    0  0.69059448390E+01 -0.32231905055E+02  0.11499931327E+03  0.11963038841E+03  0.00000000000E+00 0. -1.
         22    1    3    3    0    0  0.81982804608E+01 -0.12918596676E+02  0.15821509910E+03  0.15895319916E+03  0.00000000000E+00 0. -1.
         22    1    3    3    0    0  0.13846563134E+02  0.16109162926E+02 -0.19687718144E+02  0.28962712002E+02  0.00000000000E+00 0. -1.
</event>
<event>
 7    1  0.5931885E-006  0.7255262E+02  0.7818608E-02  0.1486016E+00
          2   -1    0    0  502    0  0.00000000000E+00  0.00000000000E+00  0.20132916904E+04  0.20132916904E+04  0.00000000000E+00 0. -1.
          1   -1    0    0  501    0 -0.00000000000E+00 -0.00000000000E+00 -0.18463266544E+03  0.18463266544E+03  0.00000000000E+00 0. -1.
         25    2    1    2    0    0 -0.43355963528E+02  0.33653831749E+02  0.70942366688E+03  0.72243988777E+03  0.12500052935E+03 0.  0.
          2    1    1    2  501    0  0.42124145359E+02 -0.59326335034E+02 -0.17056090586E+03  0.18543214462E+03  0.00000000000E+00 0. -1.
          1    1    1    2  502    0  0.12318181690E+01  0.25672503285E+02  0.12897962639E+04  0.12900523234E+04  0.00000000000E+00 0. -1.
         22    1    3    3    0    0 -0.77176869343E+02  0.56337815641E+02  0.47717910487E+03  0.48665194622E+03  0.00000000000E+00 0. -1.
         22    1    3    3    0    0  0.33820905815E+02 -0.22683983893E+02  0.23224456201E+03  0.23578794155E+03  0.00000000000E+00 0. -1.
</event>
<event>
 7    1  0.5931885E-006  0.5745456E+02  0.7818608E-02  0.1469093E+00
          2   -1    0    0  502    0  0.00000000000E+00  0.00000000000E+00  0.83731971088E+02  0.83731971088E+02  0.00000000000E+00 0. -1.
          1   -1    0    0  501    0 -0.00000000000E+00 -0.00000000000E+00 -0.93572586742E+03  0.93572586742E+03  0.00000000000E+00 0. -1.
         25    2    1    2    0    0  0.14879966621E+02  0.32600904819E+02 -0.12049112779E+03  0.17727883429E+03  0.12500176323E+03 0.  0.
          2    1    1    2  501    0 -0.51226487853E+02 -0.28367610669E+02 -0.77957123719E+03  0.78176734919E+03  0.00000000000E+00 0. -1.
          1    1    1    2  502    0  0.36346521231E+02 -0.42332941502E+01  0.48068468650E+02  0.60411655029E+02  0.00000000000E+00 0. -1.
         22    1    3    3    0    0  0.10712480380E+02 -0.42670196271E+02 -0.12790764652E+02  0.45816007531E+02  0.00000000000E+00 0. -1.
         22    1    3    3    0    0  0.41674862410E+01  0.75271101090E+02 -0.10770036313E+03  0.13146282676E+03  0.00000000000E+00 0. -1.
</event>
<event>
 7    1  0.5931885E-006  0.6556897E+02  0.7818608E-02  0.1485443E+00
          2   -1    0    0  502    0  0.00000000000E+00  0.00000000000E+00  0.12878055776E+04  0.12878055776E+04  0.00000000000E+00 0. -1.
          1   -1    0    0  501    0 -0.00000000000E+00 -0.00000000000E+00 -0.17183683578E+03  0.17183683578E+03  0.00000000000E+00 0. -1.
         25    2    1    2    0    0  0.70945101430E+02 -0.12631051971E+02  0.64042182377E+02  0.15789191281E+03  0.12504280914E+03 0.  0.
          2    1    1    2  501    0 -0.16237659435E+02 -0.23487630968E+02 -0.12235392725E+03  0.12564160898E+03  0.00000000000E+00 0. -1.
          1    1    1    2  502    0 -0.54707441995E+02  0.36118682939E+02  0.11742804866E+04  0.11761088915E+04  0.00000000000E+00 0. -1.
         22    1    3    3    0    0  0.72176827926E+02 -0.59207172258E+02  0.23833293290E+02  0.96348376246E+02  0.00000000000E+00 0.  1.
         22    1    3    3    0    0 -0.12317264961E+01  0.46576120287E+02  0.40208889087E+02  0.61543536564E+02  0.00000000000E+00 0.  1.
</event>
<event>
 7    1  0.5931885E-006  0.8800749E+02  0.7818608E-02  0.1378885E+00
          2   -1    0    0  502    0  0.00000000000E+00  0.00000000000E+00  0.25410237296E+03  0.25410237296E+03  0.00000000000E+00 0. -1.
          1   -1    0    0  501    0 -0.00000000000E+00 -0.00000000000E+00 -0.32244480070E+03  0.32244480070E+03  0.00000000000E+00 0. -1.
         25    2    1    2    0    0  0.18722350458E+02 -0.77234020359E+02 -0.38817173714E+01  0.14817524274E+03  0.12500085809E+03 0.  0.
          2    1    1    2  501    0 -0.64303430749E+02  0.63345128578E+02 -0.23476893110E+03  0.25152333397E+03  0.00000000000E+00 0. -1.
          1    1    1    2  502    0  0.45581080291E+02  0.13888891781E+02  0.17030822073E+03  0.17684859696E+03  0.00000000000E+00 0. -1.
         22    1    3    3    0    0 -0.20149991592E+02  0.28805577206E+02  0.36022658302E+00  0.35155557207E+02  0.00000000000E+00 0.  1.
         22    1    3    3    0    0  0.38872342050E+02 -0.10603959757E+03 -0.42419439544E+01  0.11301968553E+03  0.00000000000E+00 0.  1.
</event>
<event>
 7    1  0.5931885E-006  0.6049560E+02  0.7818608E-02  0.1483719E+00
          2   -1    0    0  502    0  0.00000000000E+00  0.00000000000E+00  0.98981545455E+03  0.98981545455E+03  0.00000000000E+00 0. -1.
          1   -1    0    0  501    0 -0.00000000000E+00 -0.00000000000E+00 -0.16306439135E+03  0.16306439135E+03  0.00000000000E+00 0. -1.
         25    2    1    2    0    0 -0.45452834125E+02 -0.24481846999E+02 -0.92090836804E+02  0.16361962188E+03  0.12500134990E+03 0.  0.
          2    1    1    2  501    0  0.71683712524E+02  0.73580821774E+01  0.22110628516E+01  0.72094277259E+02  0.00000000000E+00 0. -1.
          1    1    1    2  502    0 -0.26230878399E+02  0.17123764822E+02  0.91663083715E+03  0.91716594677E+03  0.00000000000E+00 0. -1.
         22    1    3    3    0    0 -0.45351035276E+02 -0.72745846633E+02 -0.69362850199E+02  0.11027184405E+03  0.00000000000E+00 0.  1.
         22    1    3    3    0    0 -0.10179884862E+00  0.48263999634E+02 -0.22727986605E+02  0.53347777824E+02  0.00000000000E+00 0.  1.
</event>
<event>
 7    1  0.5931885E-006  0.1136336E+03  0.7818608E-02  0.1346782E+00
          2   -1    0    0  502    0  0.00000000000E+00  0.00000000000E+00  0.63546657395E+03  0.63546657395E+03  0.00000000000E+00 0. -1.
          1   -1    0    0  501    0 -0.00000000000E+00 -0.00000000000E+00 -0.30192047096E+03  0.30192047096E+03  0.00000000000E+00 0. -1.
         25    2    1    2    0    0 -0.23314983531E+02  0.11121379385E+03  0.30261496800E+03  0.34657277783E+03  0.12499910031E+03 0.  0.
          2    1    1    2  501    0 -0.45380307636E+02 -0.16474814136E+02 -0.26668392223E+03  0.27101864548E+03  0.00000000000E+00 0. -1.
          1    1    1    2  502    0  0.68695291167E+02 -0.94738979716E+02  0.29761505722E+03  0.31979562160E+03  0.00000000000E+00 0. -1.
         22    1    3    3    0    0  0.29217512646E+02  0.10048625798E+03  0.25189284080E+03  0.27276574993E+03  0.00000000000E+00 0. -1.
         22    1    3    3    0    0 -0.52532496177E+02  0.10727535871E+02  0.50722127201E+02  0.73807027906E+02  0.00000000000E+00 0. -1.
</event>
<event>
 7    1  0.5931885E-006  0.1111821E+03  0.7818608E-02  0.1432926E+00
          2   -1    0    0  502    0  0.00000000000E+00  0.00000000000E+00  0.22360713506E+04  0.22360713506E+04  0.00000000000E+00 0. -1.
          1   -1    0    0  501    0 -0.00000000000E+00 -0.00000000000E+00 -0.43102293321E+03  0.43102293321E+03  0.00000000000E+00 0. -1.
         25    2    1    2    0    0  0.12159234201E+03  0.57411451442E+02  0.40991823180E+03  0.44915311342E+03  0.12499916057E+03 0.  0.
          2    1    1    2  501    0 -0.10269714036E+03 -0.41543073374E+02 -0.40386167017E+03  0.41878010724E+03  0.00000000000E+00 0. -1.
          1    1    1    2  502    0 -0.18895201646E+02 -0.15868378068E+02  0.17989918557E+04  0.17991610631E+04  0.00000000000E+00 0. -1.
         22    1    3    3    0    0  0.41922862133E+02  0.17354771812E+02  0.20738264593E+02  0.49887774979E+02  0.00000000000E+00 0. -1.
         22    1    3    3    0    0  0.79669479877E+02  0.40056679630E+02  0.38917996721E+03  0.39926533844E+03  0.00000000000E+00 0. -1.
</event>
<event>
 7    1  0.5931885E-006  0.9761963E+02  0.7818608E-02  0.1405451E+00
          2   -1    0    0  502    0  0.00000000000E+00  0.00000000000E+00  0.73610263867E+02  0.73610263867E+02  0.00000000000E+00 0. -1.
          1   -1    0    0  501    0 -0.00000000000E+00 -0.00000000000E+00 -0.66828974472E+03  0.66828974472E+03  0.00000000000E+00 0. -1.
         25    2    1    2    0    0  0.93718562045E+02 -0.94277037333E+01 -0.17816990598E+03  0.23715370359E+03  0.12500125304E+03 0.  0.
          2    1    1    2  501    0 -0.95926373867E+02 -0.25225847424E+02 -0.44740482945E+03  0.45826770996E+03  0.00000000000E+00 0. -1.
          1    1    1    2  502    0  0.22078118216E+01  0.34653551157E+02  0.30895254575E+02  0.46478595032E+02  0.00000000000E+00 0. -1.
         22    1    3    3    0    0  0.10357787210E+03  0.19777782597E+02 -0.74797772466E+02  0.12928357606E+03  0.00000000000E+00 0.  1.
         22    1    3    3    0    0 -0.98593100536E+01 -0.29205486330E+02 -0.10337213352E+03  0.10787012753E+03  0.00000000000E+00 0.  1.
</event>
<event>
 7    1  0.7575393E-006  0.5635856E+02  0.7818608E-02  0.1474461E+00
          2   -1    0    0  502    0  0.00000000000E+00  0.00000000000E+00  0.21563282656E+04  0.21563282656E+04  0.00000000000E+00 0. -1.
          1   -1    0    0  501    0 -0.00000000000E+00 -0.00000000000E+00 -0.74953755475E+03  0.74953755475E+03  0.00000000000E+00 0. -1.
         25    2    1    2    0    0  0.28654945625E+02  0.10520298726E+02 -0.11441708381E+03  0.17218725384E+03  0.12500159489E+03 0.  0.
          2    1    1    2  501    0 -0.56530008745E+02  0.12102699899E+02 -0.60470526554E+03  0.60746240658E+03  0.00000000000E+00 0. -1.
          1    1    1    2  502    0  0.27875063119E+02 -0.22622998625E+02  0.21259130602E+04  0.21262161600E+04  0.00000000000E+00 0. -1.
         22    1    3    3    0    0 -0.49391492080E+02 -0.12620922928E+01 -0.38062456350E+02  0.62368765822E+02  0.00000000000E+00 0. -1.
         22    1    3    3    0    0  0.78046437705E+02  0.11782391019E+02 -0.76354627462E+02  0.10981848802E+03  0.00000000000E+00 0. -1.
</event>
<event>
 7    1  0.5931885E-006  0.4614035E+02  0.7818608E-02  0.1472517E+00
          2   -1    0    0  502    0  0.00000000000E+00  0.00000000000E+00  0.11102205558E+03  0.11102205558E+03  0.00000000000E+00 0. -1.
          1   -1    0    0  501    0 -0.00000000000E+00 -0.00000000000E+00 -0.96493915850E+03  0.96493915850E+03  0.00000000000E+00 0. -1.
         25    2    1    2    0    0  0.10801304199E+02  0.58609087333E+01 -0.50532744098E+03  0.52070225431E+03  0.12499598636E+03 0.  0.
          2    1    1    2  501    0 -0.53211036076E+02  0.74925581844E+01 -0.44545090009E+03  0.44868035078E+03  0.00000000000E+00 0. -1.
          1    1    1    2  502    0  0.42409731877E+02 -0.13353466918E+02  0.96861238159E+02  0.10657860899E+03  0.00000000000E+00 0. -1.
         22    1    3    3    0    0 -0.78403588289E+01  0.63915458821E+02 -0.24378994048E+03  0.25215112965E+03  0.00000000000E+00 0. -1.
         22    1    3    3    0    0  0.18641663028E+02 -0.58054550088E+02 -0.26153750050E+03  0.26855112466E+03  0.00000000000E+00 0. -1.
</event>
<event>
 7    1  0.5931885E-006  0.9023214E+02  0.7818608E-02  0.1357990E+00
          2   -1    0    0  502    0  0.00000000000E+00  0.00000000000E+00  0.52081429920E+02  0.52081429920E+02  0.00000000000E+00 0. -1.
          1   -1    0    0  501    0 -0.00000000000E+00 -0.00000000000E+00 -0.96132866128E+03  0.96132866128E+03  0.00000000000E+00 0. -1.
         25    2    1    2    0    0  0.28207836660E+02  0.42268399695E+02 -0.28603324307E+03  0.31626370373E+03  0.12500165796E+03 0.  0.
          2    1    1    2  501    0  0.52722747946E+02  0.16598809947E+02 -0.58869593909E+03  0.59128514047E+03  0.00000000000E+00 0. -1.
          1    1    1    2  502    0 -0.80930584606E+02 -0.58867209642E+02 -0.34518049199E+02  0.10586124700E+03  0.00000000000E+00 0. -1.
         22    1    3    3    0    0 -0.38383767019E+01  0.45330555790E+02 -0.27979924318E+03  0.28347347126E+03  0.00000000000E+00 0.  1.
         22    1    3    3    0    0  0.32046213362E+02 -0.30621560951E+01 -0.62339998940E+01  0.32790232470E+02  0.00000000000E+00 0.  1.
</event>
<event>
 7    1  0.8067278E-006  0.9130840E+02  0.7818608E-02  0.1401022E+00
          2   -1    0    0  502    0  0.00000000000E+00  0.00000000000E+00  0.20133680079E+04  0.20133680079E+04  0.00000000000E+00 0. -1.
          1   -1    0    0  501    0 -0.00000000000E+00 -0.00000000000E+00 -0.10194474828E+04  0.10194474828E+04  0.00000000000E+00 0. -1.
         25    2    1    2    0    0  0.79785021474E+02  0.87325003997E+02 -0.64852515010E+03  0.67096958110E+03  0.12499600983E+03 0.  0.
          2    1    1    2  501    0 -0.37937320628E+02 -0.62114859879E+01 -0.35762926672E+03  0.35968947061E+03  0.00000000000E+00 0. -1.
          1    1    1    2  502    0 -0.41847700846E+02 -0.81113518009E+02  0.20000749420E+04  0.20021564390E+04  0.00000000000E+00 0. -1.
         22    1    3    3    0    0  0.42019379486E+02  0.97258202018E+02 -0.26398690012E+03  0.28445363339E+03  0.00000000000E+00 0.  1.
         22    1    3    3    0    0  0.37765641988E+02 -0.99331980207E+01 -0.38453824998E+03  0.38651594771E+03  0.00000000000E+00 0.  1.
</event>
<event>
 7    1  0.5931885E-006  0.6465165E+02  0.7818608E-02  0.1446565E+00
          2   -1    0    0  502    0  0.00000000000E+00  0.00000000000E+00  0.20248239699E+04  0.20248239699E+04  0.00000000000E+00 0. -1.
          1   -1    0    0  501    0 -0.00000000000E+00 -0.00000000000E+00 -0.54150876902E+03  0.54150876902E+03  0.00000000000E+00 0. -1.
         25    2    1    2    0    0  0.81027576441E+02 -0.35990112087E+02  0.67174977575E+02  0.16731974181E+03  0.12499064796E+03 0.  0.
          2    1    1    2  501    0 -0.64322282575E+02  0.15033207902E+01 -0.48913702857E+03  0.49335043198E+03  0.00000000000E+00 0. -1.
          1    1    1    2  502    0 -0.16705293866E+02  0.34486791296E+02  0.19052772519E+04  0.19056625651E+04  0.00000000000E+00 0. -1.
         22    1    3    3    0    0 -0.20179364634E+02 -0.33892957925E+02  0.51521983609E+02  0.64888012367E+02  0.00000000000E+00 0.  1.
         22    1    3    3    0    0  0.10120694108E+03 -0.20971541617E+01  0.15652993967E+02  0.10243172945E+03  0.00000000000E+00 0.  1.
</event>
<event>
 7    1  0.5931885E-006  0.5972556E+02  0.7818608E-02  0.1502619E+00
          2   -1    0    0  502    0  0.00000000000E+00  0.00000000000E+00  0.35000142286E+03  0.35000142286E+03  0.00000000000E+00 0. -1.
          1   -1    0    0  501    0 -0.00000000000E+00 -0.00000000000E+00 -0.12266861329E+04  0.12266861329E+04  0.00000000000E+00 0. -1.
         25    2    1    2    0    0  0.27901315414E+02 -0.75136024714E+02 -0.15355887554E+03  0.21361292634E+03  0.12500499362E+03 0.  0.
          2    1    1    2  501    0  0.69395686245E+01  0.26951661572E+02 -0.10401500702E+04  0.10405223296E+04  0.00000000000E+00 0. -1.
          1    1    1    2  502    0 -0.34840884039E+02  0.48184363142E+02  0.31702423578E+03  0.32255229983E+03  0.00000000000E+00 0. -1.
         22    1    3    3    0    0  0.27252407335E+02  0.30028544223E+02 -0.25489518753E+02  0.47897001367E+02  0.00000000000E+00 0.  1.
         22    1    3    3    0    0  0.64890807945E+00 -0.10516456894E+03 -0.12806935679E+03  0.16571592497E+03  0.00000000000E+00 0.  1.
</event>
<event>
 7    1  0.5931885E-006  0.5263956E+02  0.7818608E-02  0.1481367E+00
          2   -1    0    0  502    0  0.00000000000E+00  0.00000000000E+00  0.10649134428E+03  0.10649134428E+03  0.00000000000E+00 0. -1.
          1   -1    0    0  501    0 -0.00000000000E+00 -0.00000000000E+00 -0.12586565305E+04  0.12586565305E+04  0.00000000000E+00 0. -1.
         25    2    1    2    0    0  0.45490823817E+02  0.67719428159E+02 -0.57537331236E+03  0.59441880809E+03  0.12499573929E+03 0.  0.
          2    1    1    2  501    0 -0.38746926839E+02 -0.31744859163E+02 -0.66933715388E+03  0.67120882443E+03  0.00000000000E+00 0. -1.
          1    1    1    2  502    0 -0.67438969785E+01 -0.35974568996E+02  0.92545280033E+02  0.99520242249E+02  0.00000000000E+00 0. -1.
         22    1    3    3    0    0  0.65738354130E+02  0.58800216601E+02 -0.20230567147E+03  0.22069567596E+03  0.00000000000E+00 0. -1.
         22    1    3    3    0    0 -0.20247530313E+02  0.89192115578E+01 -0.37306764089E+03  0.37372313214E+03  0.00000000000E+00 0. -1.
</event>
<event>
 7    1  0.5931885E-006  0.1031976E+03  0.7818608E-02  0.1338763E+00
          2   -1    0    0  502    0  0.00000000000E+00  0.00000000000E+00  0.81963426303E+03  0.81963426303E+03  0.00000000000E+00 0. -1.
          1   -1    0    0  501    0 -0.00000000000E+00 -0.00000000000E+00 -0.10727217724E+04  0.10727217724E+04  0.00000000000E+00 0. -1.
         25    2    1    2    0    0 -0.84721329106E+02  0.10704341147E+03  0.39211995863E+03  0.43361288253E+03  0.12500429753E+03 0.  0.
          2    1    1    2  501    0  0.54636548432E+02 -0.16129907823E+02 -0.10455530242E+04  0.10471038405E+04  0.00000000000E+00 0. -1.
          1    1    1    2  502    0  0.30084780674E+02 -0.90913503647E+02  0.40034555619E+03  0.41163931243E+03  0.00000000000E+00 0. -1.
         22    1    3    3    0    0 -0.29963557256E+02  0.78716583832E+02  0.82447029694E+02  0.11786275085E+03  0.00000000000E+00 0. -1.
         22    1    3    3    0    0 -0.54757771849E+02  0.28326827638E+02  0.30967292893E+03  0.31575013168E+03  0.00000000000E+00 0. -1.
</event>
<event>
 7    1  0.5931885E-006  0.3154662E+03  0.7818608E-02  0.1197089E+00
          2   -1    0    0  502    0  0.00000000000E+00  0.00000000000E+00  0.80458253954E+03  0.80458253954E+03  0.00000000000E+00 0. -1.
          1   -1    0    0  501    0 -0.00000000000E+00 -0.00000000000E+00 -0.20344291602E+04  0.20344291602E+04  0.00000000000E+00 0. -1.
         25    2    1    2    0    0 -0.35506664924E+03 -0.14686098489E+03 -0.40727940233E+03  0.57370904407E+03  0.12500032559E+03 0.  0.
          2    1    1    2  501    0  0.71030079290E+02  0.20748363402E+02 -0.15095149549E+04  0.15113276170E+04  0.00000000000E+00 0. -1.
          1    1    1    2  502    0  0.28403656995E+03  0.12611262149E+03  0.68694773651E+03  0.75397503875E+03  0.00000000000E+00 0. -1.
         22    1    3    3    0    0 -0.28266385454E+03 -0.10449791874E+03 -0.23522662862E+03  0.38229600639E+03  0.00000000000E+00 0.  1.
         22    1    3    3    0    0 -0.72402794695E+02 -0.42363066144E+02 -0.17205277371E+03  0.19141303768E+03  0.00000000000E+00 0.  1.
</event>
<event>
 7    1  0.5931885E-006  0.9884292E+02  0.7818608E-02  0.1378252E+00
          2   -1    0    0  502    0  0.00000000000E+00  0.00000000000E+00  0.56771407442E+03  0.56771407442E+03  0.00000000000E+00 0. -1.
          1   -1    0    0  501    0 -0.00000000000E+00 -0.00000000000E+00 -0.98181948129E+02  0.98181948129E+02  0.00000000000E+00 0. -1.
         25    2    1    2    0    0 -0.16431012925E+02  0.88516255096E+02  0.14425569393E+02  0.15471892862E+03  0.12499897687E+03 0.  0.
          2    1    1    2  501    0  0.41820141305E+02  0.83555636819E+01 -0.25202277302E+01  0.42721086257E+02  0.00000000000E+00 0. -1.
          1    1    1    2  502    0 -0.25389128380E+02 -0.96871818778E+02  0.45762678462E+03  0.46845600767E+03  0.00000000000E+00 0. -1.
         22    1    3    3    0    0  0.49532741823E+02  0.29760009732E+02  0.29858155452E+02  0.65043524956E+02  0.00000000000E+00 0.  1.
         22    1    3    3    0    0 -0.65963754748E+02  0.58756245364E+02 -0.15432586059E+02  0.89675403664E+02  0.00000000000E+00 0.  1.
</event>
<event>
 7    1  0.5931885E-006  0.8736242E+02  0.7818608E-02  0.1490570E+00
          2   -1    0    0  502    0  0.00000000000E+00  0.00000000000E+00  0.27355349723E+04  0.27355349723E+04  0.00000000000E+00 0. -1.
          1   -1    0    0  501    0 -0.00000000000E+00 -0.00000000000E+00 -0.57153707177E+03  0.57153707177E+03  0.00000000000E+00 0. -1.
         25    2    1    2    0    0  0.89263602681E+02 -0.59551529219E+02 -0.14521176532E+03  0.21960378864E+03  0.12499996721E+03 0.  0.
          2    1    1    2  501    0 -0.14168423918E+02  0.15059618367E+02 -0.38814816840E+03  0.38869851682E+03  0.00000000000E+00 0. -1.
          1    1    1    2  502    0 -0.75095178762E+02  0.44491910852E+02  0.26973578342E+04  0.26987697386E+04  0.00000000000E+00 0. -1.
         22    1    3    3    0    0  0.14078382431E+02 -0.17522284070E+02 -0.13025436900E+03  0.13217954431E+03  0.00000000000E+00 0.  1.
         22    1    3    3    0    0  0.75185220250E+02 -0.42029245149E+02 -0.14957396317E+02  0.87424244328E+02  0.00000000000E+00 0.  1.
</event>
<event>
 7    1  0.5931885E-006  0.9477308E+02  0.7818608E-02  0.1389360E+00
          2   -1    0    0  502    0  0.00000000000E+00  0.00000000000E+00  0.96184588022E+02  0.96184588022E+02  0.00000000000E+00 0. -1.
          1   -1    0    0  501    0 -0.00000000000E+00 -0.00000000000E+00 -0.49527662469E+03  0.49527662469E+03  0.00000000000E+00 0. -1.
         25    2    1    2    0    0 -0.90330086058E+02  0.17091117611E+02 -0.16425956131E+03  0.22596944978E+03  0.12501743081E+03 0.  0.
          2    1    1    2  501    0  0.11584683747E+02  0.38960660731E+02 -0.26196409669E+03  0.26509870980E+03  0.00000000000E+00 0. -1.
          1    1    1    2  502    0  0.78745402311E+02 -0.56051778342E+02  0.27131621331E+02  0.10039305313E+03  0.00000000000E+00 0. -1.
         22    1    3    3    0    0 -0.38142422205E+02 -0.48071184207E+02 -0.31081179631E+02  0.68787519580E+02  0.00000000000E+00 0.  1.
         22    1    3    3    0    0 -0.52187663852E+02  0.65162301817E+02 -0.13317838168E+03  0.15718193020E+03  0.00000000000E+00 0.  1.
</event>
<event>
 7    1  0.5931885E-006  0.9671235E+02  0.7818608E-02  0.1357466E+00
          2   -1    0    0  502    0  0.00000000000E+00  0.00000000000E+00  0.52241794241E+02  0.52241794241E+02  0.00000000000E+00 0. -1.
          1   -1    0    0  501    0 -0.00000000000E+00 -0.00000000000E+00 -0.19341551456E+04  0.19341551456E+04  0.00000000000E+00 0. -1.
         25    2    1    2    0    0  0.11154161421E+03  0.76591325712E+02 -0.10007385019E+04  0.10175513448E+04  0.12500170931E+03 0.  0.
          2    1    1    2  501    0 -0.61904940362E+02 -0.61782446884E+02 -0.90683269121E+03  0.91104051624E+03  0.00000000000E+00 0. -1.
          1    1    1    2  502    0 -0.49636673852E+02 -0.14808878828E+02  0.25657841772E+02  0.57805078736E+02  0.00000000000E+00 0. -1.
         22    1    3    3    0    0  0.95585779353E+02  0.92700019133E+02 -0.53711306475E+03  0.55337182715E+03  0.00000000000E+00 0.  1.
         22    1    3    3    0    0  0.15955834861E+02 -0.16108693421E+02 -0.46362543714E+03  0.46417951768E+03  0.00000000000E+00 0.  1.
</event>
<event>
 7    1  0.6619814E-006  0.1172090E+03  0.7818608E-02  0.1310722E+00
          2   -1    0    0  502    0  0.00000000000E+00  0.00000000000E+00  0.17863999934E+04  0.17863999934E+04  0.00000000000E+00 0. -1.
          1   -1    0    0  501    0 -0.00000000000E+00 -0.00000000000E+00 -0.72620660896E+03  0.72620660896E+03  0.00000000000E+00 0. -1.
         25    2    1    2    0    0 -0.14354685156E+03 -0.99540026172E+02 -0.11799959744E+03  0.24507697357E+03  0.12499961029E+03 0.  0.
          2    1    1    2  501    0  0.84877718075E+02  0.73174747684E+02 -0.53829517393E+03  0.54983676214E+03  0.00000000000E+00 0. -1.
          1    1    1    2  502    0  0.58669133489E+02  0.26365278489E+02  0.17164881558E+04  0.17176928666E+04  0.00000000000E+00 0. -1.
         22    1    3    3    0    0 -0.12962911194E+03 -0.99598662954E+02 -0.14252339311E+03  0.21687903981E+03  0.00000000000E+00 0. -1.
         22    1    3    3    0    0 -0.13917739624E+02  0.58636781536E-01  0.24523795666E+02  0.28197933761E+02  0.00000000000E+00 0. -1.
</event>
<event>
 7    1  0.1141224E-005  0.6070791E+02  0.7818608E-02  0.1445383E+00
          2   -1    0    0  502    0  0.00000000000E+00  0.00000000000E+00  0.96273987697E+03  0.96273987697E+03  0.00000000000E+00 0. -1.
          1   -1    0    0  501    0 -0.00000000000E+00 -0.00000000000E+00 -0.11397086674E+04  0.11397086674E+04  0.00000000000E+00 0. -1.
         25    2    1    2    0    0  0.20024852689E+02 -0.90320621736E+02 -0.34848246502E+03  0.38160789716E+03  0.12500299722E+03 0.  0.
          2    1    1    2  501    0  0.61339670519E+01  0.58531630781E+02 -0.77309673242E+03  0.77533356372E+03  0.00000000000E+00 0. -1.
          1    1    1    2  502    0 -0.26158819741E+02  0.31788990956E+02  0.94461040704E+03  0.94550708346E+03  0.00000000000E+00 0. -1.
         22    1    3    3    0    0  0.12115839345E+02 -0.10496025021E+03 -0.34931820947E+03  0.36494747452E+03  0.00000000000E+00 0.  1.
         22    1    3    3    0    0  0.79090133441E+01  0.14639628477E+02  0.83574444710E+00  0.16660422648E+02  0.00000000000E+00 0.  1.
</event>
<event>
 7    1  0.5931885E-006  0.1649049E+03  0.7818608E-02  0.1285185E+00
          2   -1    0    0  502    0  0.00000000000E+00  0.00000000000E+00  0.38993364635E+03  0.38993364635E+03  0.00000000000E+00 0. -1.
          1   -1    0    0  501    0 -0.00000000000E+00 -0.00000000000E+00 -0.53231698753E+03  0.53231698753E+03  0.00000000000E+00 0. -1.
         25    2    1    2    0    0 -0.53639715957E+02  0.11995086282E+03  0.38638979275E+02  0.18542630356E+03  0.12499805884E+03 0.  0.
          2    1    1    2  501    0  0.16975410037E+02  0.55351495906E+02 -0.42791519159E+03  0.43181403849E+03  0.00000000000E+00 0. -1.
          1    1    1    2  502    0  0.36664305920E+02 -0.17530235873E+03  0.24689287114E+03  0.30501029183E+03  0.00000000000E+00 0. -1.
         22    1    3    3    0    0 -0.15642368154E+02 -0.80199207650E+01 -0.30415969039E+02  0.35130243141E+02  0.00000000000E+00 0.  1.
         22    1    3    3    0    0 -0.37997347803E+02  0.12797078359E+03  0.69054948314E+02  0.15029606042E+03  0.00000000000E+00 0.  1.
</event>
<event>
 7    1  0.5931885E-006  0.6623104E+02  0.7818608E-02  0.1392429E+00
          2   -1    0    0  502    0  0.00000000000E+00  0.00000000000E+00  0.18019010938E+04  0.18019010938E+04  0.00000000000E+00 0. -1.
          1   -1    0    0  501    0 -0.00000000000E+00 -0.00000000000E+00 -0.13284911232E+03  0.13284911232E+03  0.00000000000E+00 0. -1.
         25    2    1    2    0    0 -0.26626490898E+02  0.49807483409E+02 -0.59559988288E+02  0.14954031356E+03  0.12500063101E+03 0.  0.
          2    1    1    2  501    0 -0.38013359404E+02 -0.64238006900E+02  0.22707629592E+02  0.78020340074E+02  0.00000000000E+00 0. -1.
          1    1    1    2  502    0  0.64639850302E+02  0.14430523490E+02  0.17059043402E+04  0.17071895525E+04  0.00000000000E+00 0. -1.
         22    1    3    3    0    0  0.40605089674E+02  0.55802792965E+02 -0.37413855994E+02  0.78501730112E+02  0.00000000000E+00 0. -1.
         22    1    3    3    0    0 -0.67231580572E+02 -0.59953095560E+01 -0.22146132294E+02  0.71038583450E+02  0.00000000000E+00 0. -1.
</event>
<event>
 7    1  0.5931885E-006  0.1829689E+03  0.7818608E-02  0.1294335E+00
          2   -1    0    0  502    0  0.00000000000E+00  0.00000000000E+00  0.80297293311E+03  0.80297293311E+03  0.00000000000E+00 0. -1.
          1   -1    0    0  501    0 -0.00000000000E+00 -0.00000000000E+00 -0.88237875755E+03  0.88237875755E+03  0.00000000000E+00 0. -1.
         25    2    1    2    0    0 -0.93128453749E+02  0.18634359152E+03 -0.45500582090E+03  0.51580285003E+03  0.12500176017E+03 0.  0.
          2    1    1    2  501    0  0.53012148126E+02 -0.16018106572E+03 -0.37825183849E+03  0.41417715411E+03  0.00000000000E+00 0. -1.
          1    1    1    2  502    0  0.40116305622E+02 -0.26162525804E+02  0.75385183496E+03  0.75537168652E+03  0.00000000000E+00 0. -1.
         22    1    3    3    0    0 -0.82544860435E+02  0.58386167633E+02 -0.28743092449E+03  0.30469515078E+03  0.00000000000E+00 0. -1.
         22    1    3    3    0    0 -0.10583593314E+02  0.12795742389E+03 -0.16757489640E+03  0.21110769925E+03  0.00000000000E+00 0. -1.
</event>
<event>
 7    1  0.5931885E-006  0.7766810E+02  0.7818608E-02  0.1401154E+00
          2   -1    0    0  502    0  0.00000000000E+00  0.00000000000E+00  0.50256833167E+02  0.50256833167E+02  0.00000000000E+00 0. -1.
          1   -1    0    0  501    0 -0.00000000000E+00 -0.00000000000E+00 -0.19696843228E+04  0.19696843228E+04  0.00000000000E+00 0. -1.
         25    2    1    2    0    0  0.35386936800E+02 -0.40132458646E+02 -0.21205580642E+03  0.25190429274E+03  0.12500103252E+03 0.  0.
          2    1    1    2  501    0 -0.14738759303E+02 -0.42673192556E+02 -0.16767658538E+04  0.16773735305E+04  0.00000000000E+00 0. -1.
          1    1    1    2  502    0 -0.20648177497E+02  0.82805651202E+02 -0.30605829415E+02  0.90663332716E+02  0.00000000000E+00 0. -1.
         22    1    3    3    0    0 -0.18760052202E+00 -0.56962630048E+02 -0.27600558191E+02  0.63297450410E+02  0.00000000000E+00 0. -1.
         22    1    3    3    0    0  0.35574537322E+02  0.16830171402E+02 -0.18445524823E+03  0.18860684233E+03  0.00000000000E+00 0. -1.
</event>
<event>
 7    1  0.1438558E-005  0.1039199E+03  0.7818608E-02  0.1432300E+00
          2   -1    0    0  502    0  0.00000000000E+00  0.00000000000E+00  0.26262760718E+04  0.26262760718E+04  0.00000000000E+00 0. -1.
          1   -1    0    0  501    0 -0.00000000000E+00 -0.00000000000E+00 -0.18375307051E+04  0.18375307051E+04  0.00000000000E+00 0. -1.
         25    2    1    2    0    0  0.79292934150E+02  0.32842045102E+01 -0.73298661486E+03  0.74779148065E+03  0.12499826228E+03 0.  0.
          2    1    1    2  501    0  0.23481929994E+02  0.12333674134E+02 -0.10959495289E+04  0.10962704459E+04  0.00000000000E+00 0. -1.
          1    1    1    2  502    0 -0.10277486414E+03 -0.15617878644E+02  0.26176815105E+04  0.26197448504E+04  0.00000000000E+00 0. -1.
         22    1    3    3    0    0 -0.63497069243E+01 -0.47080827856E+02 -0.28373047202E+03  0.28768021115E+03  0.00000000000E+00 0. -1.
         22    1    3    3    0    0  0.85642641075E+02  0.50365032366E+02 -0.44925614283E+03  0.46011126951E+03  0.00000000000E+00 0. -1.
</event>
<event>
 7    1  0.5931885E-006  0.6272606E+02  0.7818608E-02  0.1456178E+00
          2   -1    0    0  502    0  0.00000000000E+00  0.00000000000E+00  0.12966951731E+03  0.12966951731E+03  0.00000000000E+00 0. -1.
          1   -1    0    0  501    0 -0.00000000000E+00 -0.00000000000E+00 -0.34959840397E+03  0.34959840397E+03  0.00000000000E+00 0. -1.
         25    2    1    2    0    0  0.44782801148E+02  0.42501599236E+02 -0.15526496767E+03  0.20867244669E+03  0.12500037843E+03 0.  0.
          2    1    1    2  501    0 -0.14480704369E+02 -0.63384303551E+02 -0.15768290129E+03  0.17056130305E+03  0.00000000000E+00 0. -1.
          1    1    1    2  502    0 -0.30302096778E+02  0.20882704316E+02  0.93018982303E+02  0.10003417155E+03  0.00000000000E+00 0. -1.
         22    1    3    3    0    0  0.31387453234E+02 -0.47597782026E+00 -0.16032772917E+03  0.16337190553E+03  0.00000000000E+00 0.  1.
         22    1    3    3    0    0  0.13395347913E+02  0.42977577056E+02  0.50627615038E+01  0.45300541160E+02  0.00000000000E+00 0.  1.
</event>
<event>
 7    1  0.5931885E-006  0.1917747E+03  0.7818608E-02  0.1368347E+00
          2   -1    0    0  502    0  0.00000000000E+00  0.00000000000E+00  0.10395132833E+04  0.10395132833E+04  0.00000000000E+00 0. -1.
          1   -1    0    0  501    0 -0.00000000000E+00 -0.00000000000E+00 -0.15143690939E+04  0.15143690939E+04  0.00000000000E+00 0. -1.
         25    2    1    2    0    0 -0.18268708567E+03 -0.56395713399E+02  0.27051803909E+03  0.35406524102E+03  0.12500855036E+03 0.  0.
          2    1    1    2  501    0  0.18889076807E+03  0.33367647055E+02 -0.14661511260E+04  0.14786454093E+04  0.00000000000E+00 0. -1.
          1    1    1    2  502    0 -0.62036823958E+01  0.23028066344E+02  0.72077727640E+03  0.72117172691E+03  0.00000000000E+00 0. -1.
         22    1    3    3    0    0 -0.13251908049E+03 -0.78367405293E+02  0.25372284330E+03  0.29677944356E+03  0.00000000000E+00 0.  1.
         22    1    3    3    0    0 -0.50168005183E+02  0.21971691894E+02  0.16795195784E+02  0.57285797456E+02  0.00000000000E+00 0.  1.
</event>
<event>
 7    1  0.5931885E-006  0.6503481E+02  0.7818608E-02  0.1445060E+00
          2   -1    0    0  502    0  0.00000000000E+00  0.00000000000E+00  0.42336208002E+03  0.42336208002E+03  0.00000000000E+00 0. -1.
          1   -1    0    0  501    0 -0.00000000000E+00 -0.00000000000E+00 -0.44901849745E+02  0.44901849745E+02  0.00000000000E+00 0. -1.
         25    2    1    2    0    0  0.31834193964E+02 -0.55712296078E+02  0.24882924517E+03  0.28575795501E+03  0.12499735901E+03 0.  0.
          2    1    1    2  501    0  0.29720690262E+02  0.24506628898E+02  0.34378382812E+01  0.38674449209E+02  0.00000000000E+00 0. -1.
          1    1    1    2  502    0 -0.61554884226E+02  0.31205667180E+02  0.12619314682E+03  0.14383152555E+03  0.00000000000E+00 0. -1.
         22    1    3    3    0    0  0.43227344631E+02 -0.63980032183E+02  0.63712062900E+02  0.10010631749E+03  0.00000000000E+00 0. -1.
         22    1    3    3    0    0 -0.11393150667E+02  0.82677361051E+01  0.18511718227E+03  0.18565163752E+03  0.00000000000E+00 0. -1.
</event>
<event>
 7    1  0.5931885E-006  0.6214450E+02  0.7818608E-02  0.1417803E+00
          2   -1    0    0  502    0  0.00000000000E+00  0.00000000000E+00  0.87225605378E+03  0.87225605378E+03  0.00000000000E+00 0. -1.
          1   -1    0    0  501    0 -0.00000000000E+00 -0.00000000000E+00 -0.16406388160E+03  0.16406388160E+03  0.00000000000E+00 0. -1.
         25    2    1    2    0    0  0.15572750959E+02  0.26712175108E+01  0.10548820127E+02  0.12644482305E+03  0.12500947842E+03 0.  0.
          2    1    1    2  501    0  0.35385796520E+02  0.34678369239E+02 -0.99013039142E+02  0.11071732389E+03  0.00000000000E+00 0. -1.
          1    1    1    2  502    0 -0.50958547478E+02 -0.37349586750E+02  0.79665639119E+03  0.79915778844E+03  0.00000000000E+00 0. -1.
         22    1    3    3    0    0  0.68656424521E+02  0.91132591218E+01 -0.82838602259E+01  0.69752264910E+02  0.00000000000E+00 0. -1.
         22    1    3    3    0    0 -0.53083673562E+02 -0.64420416110E+01  0.18832680353E+02  0.56692558138E+02  0.00000000000E+00 0. -1.
</event>
<event>
 7    1  0.5931885E-006  0.1101775E+03  0.7818608E-02  0.1295556E+00
          2   -1    0    0  502    0  0.00000000000E+00  0.00000000000E+00  0.71395040918E+03  0.71395040918E+03  0.00000000000E+00 0. -1.
          1   -1    0    0  501    0 -0.00000000000E+00 -0.00000000000E+00 -0.16843139582E+04  0.16843139582E+04  0.00000000000E+00 0. -1.
         25    2    1    2    0    0 -0.75057120830E+02 -0.15360261544E+03 -0.61169842517E+03  0.64732270255E+03  0.12499753207E+03 0.  0.
          2    1    1    2  501    0  0.16453617161E+02  0.10116549848E+03 -0.10500794595E+04  0.10550696900E+04  0.00000000000E+00 0. -1.
          1    1    1    2  502    0  0.58603503669E+02  0.52437116961E+02  0.69141433560E+03  0.69587197483E+03  0.00000000000E+00 0. -1.
         22    1    3    3    0    0 -0.53038956453E+02 -0.76497058699E+02 -0.50684245397E+03  0.51531951645E+03  0.00000000000E+00 0.  1.
         22    1    3    3    0    0 -0.22018164376E+02 -0.77105556744E+02 -0.10485597120E+03  0.13200318610E+03  0.00000000000E+00 0.  1.
</event>
<event>
 7    1  0.5931885E-006  0.5123062E+02  0.7818608E-02  0.1456060E+00
          2   -1    0    0  502    0  0.00000000000E+00  0.00000000000E+00  0.45770659406E+03  0.45770659406E+03  0.00000000000E+00 0. -1.
          1   -1    0    0  501    0 -0.00000000000E+00 -0.00000000000E+00 -0.40332791492E+03  0.40332791492E+03  0.00000000000E+00 0. -1.
         25    2    1    2    0    0 -0.11328814778E+02  0.22594889793E+02  0.27404752804E+02  0.13043831415E+03  0.12499704890E+03 0.  0.
          2    1    1    2  501    0  0.52073187051E+02 -0.32648607989E+01 -0.34852000971E+03  0.35240384971E+03  0.00000000000E+00 0. -1.
          1    1    1    2  502    0 -0.40744372273E+02 -0.19330028995E+02  0.37549393604E+03  0.37819234511E+03  0.00000000000E+00 0. -1.
         22    1    3    3    0    0  0.50868074361E+02 -0.15314628271E+02  0.15490854296E+01  0.53146011082E+02  0.00000000000E+00 0. -1.
         22    1    3    3    0    0 -0.62196889139E+02  0.37909518064E+02  0.25855667374E+02  0.77292303070E+02  0.00000000000E+00 0. -1.
</event>
<event>
 7    1  0.5931885E-006  0.7453602E+02  0.7818608E-02  0.1359539E+00
          2   -1    0    0  502    0  0.00000000000E+00  0.00000000000E+00  0.22696155454E+04  0.22696155454E+04  0.00000000000E+00 0. -1.
          1   -1    0    0  501    0 -0.00000000000E+00 -0.00000000000E+00 -0.22131295191E+02  0.22131295191E+02  0.00000000000E+00 0. -1.
         25    2    1    2    0    0  0.65527143302E+02 -0.31993453673E+02  0.62861465887E+03  0.64505718148E+03  0.12499996177E+03 0.  0.
          2    1    1    2  501    0  0.44550947341E+01  0.65896656765E+02  0.71384731193E+02  0.97252234367E+02  0.00000000000E+00 0. -1.
          1    1    1    2  502    0 -0.69982238036E+02 -0.33903203092E+02  0.15474848602E+04  0.15494374248E+04  0.00000000000E+00 0. -1.
         22    1    3    3    0    0  0.40843708924E+02 -0.15225893576E+02  0.52792145047E+02  0.68462011163E+02  0.00000000000E+00 0.  1.
         22    1    3    3    0    0  0.24683434377E+02 -0.16767560097E+02  0.57582251383E+03  0.57659517032E+03  0.00000000000E+00 0.  1.
</event>
<event>
 7    1  0.5931885E-006  0.1465821E+03  0.7818608E-02  0.1306850E+00
          2   -1    0    0  502    0  0.00000000000E+00  0.00000000000E+00  0.23748448711E+02  0.23748448711E+02  0.00000000000E+00 0. -1.
          1   -1    0    0  501    0 -0.00000000000E+00 -0.00000000000E+00 -0.23266536779E+04  0.23266536779E+04  0.00000000000E+00 0. -1.
         25    2    1    2    0    0  0.30773322012E+01  0.12457583080E+03 -0.63121037124E+03  0.65542305705E+03  0.12499697342E+03 0.  0.
          2    1    1    2  501    0 -0.30408024916E+02  0.43744139861E+02 -0.10184987906E+04  0.10198911629E+04  0.00000000000E+00 0. -1.
          1    1    1    2  502    0  0.27330692715E+02 -0.16831997066E+03 -0.65319606741E+03  0.67508790669E+03  0.00000000000E+00 0. -1.
         22    1    3    3    0    0  0.39337780375E+01 -0.25209486733E+02 -0.67817541465E+02  0.72458345009E+02  0.00000000000E+00 0. -1.
         22    1    3    3    0    0 -0.85644583635E+00  0.14978531753E+03 -0.56339282977E+03  0.58296471204E+03  0.00000000000E+00 0. -1.
</event>
<event>
 7    1  0.5931885E-006  0.1359243E+03  0.7818608E-02  0.1342187E+00
          2   -1    0    0  502    0  0.00000000000E+00  0.00000000000E+00  0.29112408336E+04  0.29112408336E+04  0.00000000000E+00 0. -1.
          1   -1    0    0  501    0 -0.00000000000E+00 -0.00000000000E+00 -0.12332526776E+03  0.12332526776E+03  0.00000000000E+00 0. -1.
         25    2    1    2    0    0  0.98499785390E+02 -0.94935715228E+01  0.10334217384E+04  0.10456473732E+04  0.12500241633E+03 0.  0.
          2    1    1    2  501    0 -0.13723422098E+03 -0.67141175293E+01 -0.76623771587E+02  0.15731977992E+03  0.00000000000E+00 0. -1.
          1    1    1    2  502    0  0.38734435585E+02  0.16207689052E+02  0.18311175990E+04  0.18315989482E+04  0.00000000000E+00 0. -1.
         22    1    3    3    0    0  0.81420189591E+02 -0.47516734581E+02  0.91984773811E+03  0.92466585783E+03  0.00000000000E+00 0.  1.
         22    1    3    3    0    0  0.17079595800E+02  0.38023163058E+02  0.11357400030E+03  0.12098151539E+03  0.00000000000E+00 0.  1.
</event>
<event>
 7    1  0.5931885E-006  0.9365115E+02  0.7818608E-02  0.1436584E+00
          2   -1    0    0  502    0  0.00000000000E+00  0.00000000000E+00  0.47804045011E+03  0.47804045011E+03  0.00000000000E+00 0. -1.
          1   -1    0    0  501    0 -0.00000000000E+00 -0.00000000000E+00 -0.21129936475E+04  0.21129936475E+04  0.00000000000E+00 0. -1.
         25    2    1    2    0    0 -0.58244197655E+02  0.61522184368E+02  0.49006706135E+02  0.15875627783E+03  0.12499813108E+03 0.  0.
          2    1    1    2  501    0  0.81917875507E+02 -0.45658045093E+02 -0.20565060449E+04  0.20586433174E+04  0.00000000000E+00 0. -1.
          1    1    1    2  502    0 -0.23673677852E+02 -0.15864139275E+02  0.37254614139E+03  0.37363450242E+03  0.00000000000E+00 0. -1.
         22    1    3    3    0    0 -0.31292347034E+01  0.78250597521E+02 -0.67352946002E+01  0.78602241162E+02  0.00000000000E+00 0.  1.
         22    1    3    3    0    0 -0.55114962951E+02 -0.16728413153E+02  0.55742000735E+02  0.80154036665E+02  0.00000000000E+00 0.  1.
</event>
<event>
 7    1  0.5931885E-006  0.8389843E+02  0.7818608E-02  0.1417332E+00
          2   -1    0    0  502    0  0.00000000000E+00  0.00000000000E+00  0.10288120131E+03  0.10288120131E+03  0.00000000000E+00 0. -1.
          1   -1    0    0  501    0 -0.00000000000E+00 -0.00000000000E+00 -0.28420616979E+03  0.28420616979E+03  0.00000000000E+00 0. -1.
         25    2    1    2    0    0  0.25336277397E+02 -0.58751063043E+02 -0.69186798719E+02  0.15654091062E+03  0.12499851687E+03 0.  0.
          2    1    1    2  501    0  0.35683223544E+02 -0.91282281832E+01 -0.13207978233E+03  0.13711923969E+03  0.00000000000E+00 0. -1.
          1    1    1    2  502    0 -0.61019500941E+02  0.67879291227E+02  0.19941612568E+02  0.93427220789E+02  0.00000000000E+00 0. -1.
         22    1    3    3    0    0  0.34297522785E+02 -0.75768092499E+02  0.16033845000E+01  0.83184702632E+02  0.00000000000E+00 0. -1.
         22    1    3    3    0    0 -0.89612453879E+01  0.17017029456E+02 -0.70790183219E+02  0.73356207990E+02  0.00000000000E+00 0. -1.
</event>
<event>
 7    1  0.5931885E-006  0.5475701E+02  0.7818608E-02  0.1517945E+00
          2   -1    0    0  502    0  0.00000000000E+00  0.00000000000E+00  0.70835212913E+03  0.70835212913E+03  0.00000000000E+00 0. -1.
          1   -1    0    0  501    0 -0.00000000000E+00 -0.00000000000E+00 -0.37390740028E+03  0.37390740028E+03  0.00000000000E+00 0. -1.
         25    2    1    2    0    0  0.76688787503E+02  0.24063903956E+02  0.28815876985E+03  0.32422324184E+03  0.12499996924E+03 0.  0.
          2    1    1    2  501    0 -0.53837450807E+02 -0.90139716899E+01 -0.35331132145E+03  0.35750330440E+03  0.00000000000E+00 0. -1.
          1    1    1    2  502    0 -0.22851336697E+02 -0.15049932266E+02  0.39959728046E+03  0.40053298316E+03  0.00000000000E+00 0. -1.
         22    1    3    3    0    0  0.76752612568E+02  0.42929565084E+02  0.92410916805E+02  0.12756836849E+03  0.00000000000E+00 0.  1.
         22    1    3    3    0    0 -0.63825064032E-01 -0.18865661128E+02  0.19574785304E+03  0.19665487335E+03  0.00000000000E+00 0.  1.
</event>
<event>
 7    1  0.5931885E-006  0.7271344E+02  0.7818608E-02  0.1352574E+00
          2   -1    0    0  502    0  0.00000000000E+00  0.00000000000E+00  0.34645913275E+03  0.34645913275E+03  0.00000000000E+00 0. -1.
          1   -1    0    0  501    0 -0.00000000000E+00 -0.00000000000E+00 -0.28444605548E+04  0.28444605548E+04  0.00000000000E+00 0. -1.
         25    2    1    2    0    0 -0.65545029010E+02  0.30308058152E+02 -0.14152839819E+03  0.20216395817E+03  0.12500099708E+03 0.  0.
          2    1    1    2  501    0  0.46768408644E+01 -0.71656114622E+02 -0.26678429190E+04  0.26688091562E+04  0.00000000000E+00 0. -1.
          1    1    1    2  502    0  0.60868188146E+02  0.41348056469E+02  0.31136989515E+03  0.31994657321E+03  0.00000000000E+00 0. -1.
         22    1    3    3    0    0 -0.56480400645E+01 -0.11418743022E+02  0.20678721874E+02  0.24287807375E+02  0.00000000000E+00 0. -1.
         22    1    3    3    0    0 -0.59896988946E+02  0.41726801174E+02 -0.16220712007E+03  0.17787615079E+03  0.00000000000E+00 0. -1.
</event>
<event>
 7    1  0.5931885E-006  0.5357224E+02  0.7818608E-02  0.1492123E+00
          2   -1    0    0  502    0  0.00000000000E+00  0.00000000000E+00  0.12082135419E+04  0.12082135419E+04  0.00000000000E+00 0. -1.
          1   -1    0    0  501    0 -0.00000000000E+00 -0.00000000000E+00 -0.38991058087E+03  0.38991058087E+03  0.00000000000E+00 0. -1.
         25    2    1    2    0    0  0.65935196935E+02  0.59373125434E+01  0.23370157109E+03  0.27316652078E+03  0.12498328636E+03 0.  0.
          2    1    1    2  501    0 -0.22271448803E+02  0.24832212408E+02 -0.36867745637E+03  0.37018336408E+03  0.00000000000E+00 0. -1.
          1    1    1    2  502    0 -0.43663748132E+02 -0.30769524951E+02  0.95327884626E+03  0.95477423787E+03  0.00000000000E+00 0. -1.
         22    1    3    3    0    0  0.21318641458E+02 -0.55602265262E+02  0.65128573842E+02  0.88248668582E+02  0.00000000000E+00 0.  1.
         22    1    3    3    0    0  0.44616555477E+02  0.61539577805E+02  0.16857299725E+03  0.18491785220E+03  0.00000000000E+00 0.  1.
</event>
<event>
 7    1  0.5931885E-006  0.5868669E+02  0.7818608E-02  0.1426003E+00
          2   -1    0    0  502    0  0.00000000000E+00  0.00000000000E+00  0.18675816835E+03  0.18675816835E+03  0.00000000000E+00 0. -1.
          1   -1    0    0  501    0 -0.00000000000E+00 -0.00000000000E+00 -0.66661162829E+03  0.66661162829E+03  0.00000000000E+00 0. -1.
         25    2    1    2    0    0  0.10075242826E+03 -0.13745119399E+02 -0.19800870592E+02  0.16234772025E+03  0.12499891074E+03 0.  0.
          2    1    1    2  501    0 -0.45352739876E+02  0.19243727553E+02 -0.56769844481E+03  0.56983218258E+03  0.00000000000E+00 0. -1.
          1    1    1    2  502    0 -0.55399688389E+02 -0.54986081542E+01  0.10764585546E+03  0.12118989382E+03  0.00000000000E+00 0. -1.
         22    1    3    3    0    0  0.12326946489E+02  0.47756081425E+02 -0.23371194781E+02  0.54578472572E+02  0.00000000000E+00 0. -1.
         22    1    3    3    0    0  0.88425481776E+02 -0.61501200825E+02  0.35703241895E+01  0.10776924768E+03  0.00000000000E+00 0. -1.
</event>
<event>
 7    1  0.5931885E-006  0.3198945E+02  0.7818608E-02  0.1580477E+00
          2   -1    0    0  502    0  0.00000000000E+00  0.00000000000E+00  0.11248562549E+04  0.11248562549E+04  0.00000000000E+00 0. -1.
          1   -1    0    0  501    0 -0.00000000000E+00 -0.00000000000E+00 -0.11779271274E+04  0.11779271274E+04  0.00000000000E+00 0. -1.
         25    2    1    2    0    0  0.31486284997E+02  0.20106342658E+02 -0.46610372947E+03  0.48401807527E+03  0.12500063765E+03 0.  0.
          2    1    1    2  501    0 -0.30358070020E+02  0.11198612909E+02 -0.70227378463E+03  0.70301884037E+03  0.00000000000E+00 0. -1.
          1    1    1    2  502    0 -0.11282149769E+01 -0.31304955567E+02  0.11153066416E+04  0.11157464666E+04  0.00000000000E+00 0. -1.
         22    1    3    3    0    0 -0.37482772688E+02  0.39361034053E+02 -0.26578550920E+03  0.27128617022E+03  0.00000000000E+00 0.  1.
         22    1    3    3    0    0  0.68969057686E+02 -0.19254691395E+02 -0.20031822027E+03  0.21273190506E+03  0.00000000000E+00 0.  1.
</event>
<event>
 7    1  0.5931885E-006  0.1625849E+03  0.7818608E-02  0.1273953E+00
          2   -1    0    0  502    0  0.00000000000E+00  0.00000000000E+00  0.10275015537E+04  0.10275015537E+04  0.00000000000E+00 0. -1.
          1   -1    0    0  501    0 -0.00000000000E+00 -0.00000000000E+00 -0.14340857962E+04  0.14340857962E+04  0.00000000000E+00 0. -1.
         25    2    1    2    0    0 -0.16243145352E+03  0.32745350521E+02 -0.15415008303E+03  0.25854258768E+03  0.12500314584E+03 0.  0.
          2    1    1    2  501    0  0.27891697529E+02  0.59100132554E+02 -0.12200567548E+04  0.12218057364E+04  0.00000000000E+00 0. -1.
          1    1    1    2  502    0  0.13453975599E+03 -0.91845483075E+02  0.96762259542E+03  0.98123902586E+03  0.00000000000E+00 0. -1.
         22    1    3    3    0    0 -0.13457225251E+02  0.47606341724E+02 -0.73187288149E+02  0.88339344747E+02  0.00000000000E+00 0.  1.
         22    1    3    3    0    0 -0.14897422827E+03 -0.14860991203E+02 -0.80962794879E+02  0.17020324293E+03  0.00000000000E+00 0.  1.
</event>
<event>
 7    1  0.5931885E-006  0.7857877E+02  0.7818608E-02  0.1348765E+00
          2   -1    0    0  502    0  0.00000000000E+00  0.00000000000E+00  0.28573665508E+04  0.28573665508E+04  0.00000000000E+00 0. -1.
          1   -1    0    0  501    0 -0.00000000000E+00 -0.00000000000E+00 -0.85170746352E+02  0.85170746352E+02  0.00000000000E+00 0. -1.
         25    2    1    2    0    0 -0.74731203234E+02 -0.32494694775E+02  0.48538148740E+03  0.50780066436E+03  0.12500267396E+03 0.  0.
          2    1    1    2  501    0  0.22106110753E+02  0.76564852433E+02 -0.51843582522E+02  0.95071624629E+02  0.00000000000E+00 0. -1.
          1    1    1    2  502    0  0.52625092481E+02 -0.44070157658E+02  0.23386578995E+04  0.23396650081E+04  0.00000000000E+00 0. -1.
         22    1    3    3    0    0 -0.24025156660E+02 -0.44632163252E+02  0.42505019534E+03  0.42806180244E+03  0.00000000000E+00 0. -1.
         22    1    3    3    0    0 -0.50706046574E+02  0.12137468477E+02  0.60331292058E+02  0.79738861928E+02  0.00000000000E+00 0. -1.
</event>
<event>
 7    1  0.5931885E-006  0.3614176E+02  0.7818608E-02  0.1634679E+00
          2   -1    0    0  502    0  0.00000000000E+00  0.00000000000E+00  0.65489876587E+02  0.65489876587E+02  0.00000000000E+00 0. -1.
          1   -1    0    0  501    0 -0.00000000000E+00 -0.00000000000E+00 -0.59909767726E+03  0.59909767726E+03  0.00000000000E+00 0. -1.
         25    2    1    2    0    0 -0.32977167181E+02  0.20897499534E+02 -0.18044006408E+03  0.22295084462E+03  0.12499705337E+03 0.  0.
          2    1    1    2  501    0  0.16447703411E+02 -0.32285216461E+02 -0.39425079723E+03  0.39591230502E+03  0.00000000000E+00 0. -1.
          1    1    1    2  502    0  0.16529463770E+02  0.11387716927E+02  0.41083060632E+02  0.45724404209E+02  0.00000000000E+00 0. -1.
         22    1    3    3    0    0 -0.44019915552E+02 -0.29968011007E+02 -0.15714975208E+03  0.16592733116E+03  0.00000000000E+00 0.  1.
         22    1    3    3    0    0  0.11042748371E+02  0.50865510541E+02 -0.23290312000E+02  0.57023513459E+02  0.00000000000E+00 0.  1.
</event>
<event>
 7    1  0.5931885E-006  0.1691254E+03  0.7818608E-02  0.1239347E+00
          2   -1    0    0  502    0  0.00000000000E+00  0.00000000000E+00  0.23816970835E+04  0.23816970835E+04  0.00000000000E+00 0. -1.
          1   -1    0    0  501    0 -0.00000000000E+00 -0.00000000000E+00 -0.72684578488E+03  0.72684578488E+03  0.00000000000E+00 0. -1.
         25    2    1    2    0    0  0.18676464179E+03  0.19846838968E+02  0.40479154748E+03  0.46341718079E+03  0.12499743236E+03 0.  0.
          2    1    1    2  501    0 -0.14004473179E+03 -0.94941177993E+02 -0.68624886951E+03  0.70679831995E+03  0.00000000000E+00 0. -1.
          1    1    1    2  502    0 -0.46719909997E+02  0.75094339025E+02  0.19363086207E+04  0.19383273677E+04  0.00000000000E+00 0. -1.
         22    1    3    3    0    0 -0.15650655760E+02  0.12597528651E+02  0.18819054407E+02  0.27528123121E+02  0.00000000000E+00 0. -1.
         22    1    3    3    0    0  0.20241529755E+03  0.72493103174E+01  0.38597249308E+03  0.43588905767E+03  0.00000000000E+00 0. -1.
</event>
<event>
 7    1  0.5931885E-006  0.9807386E+02  0.7818608E-02  0.1430486E+00
          2   -1    0    0  502    0  0.00000000000E+00  0.00000000000E+00  0.33008942253E+04  0.33008942253E+04  0.00000000000E+00 0. -1.
          1   -1    0    0  501    0 -0.00000000000E+00 -0.00000000000E+00 -0.10764637759E+02  0.10764637759E+02  0.00000000000E+00 0. -1.
         25    2    1    2    0    0  0.81369817029E+02  0.51136190546E+02  0.86347066957E+03  0.87774807885E+03  0.12499654238E+03 0.  0.
          2    1    1    2  501    0 -0.16334044945E+02  0.23346708704E+02  0.75882468824E+02  0.81055653142E+02  0.00000000000E+00 0. -1.
          1    1    1    2  502    0 -0.65035772084E+02 -0.74482899250E+02  0.23507764491E+04  0.23528551310E+04  0.00000000000E+00 0. -1.
         22    1    3    3    0    0  0.10730273365E+03  0.67688179071E+02  0.70241586688E+03  0.71378121038E+03  0.00000000000E+00 0. -1.
         22    1    3    3    0    0 -0.25932916618E+02 -0.16551988525E+02  0.16105480268E+03  0.16396686847E+03  0.00000000000E+00 0. -1.
</event>
<event>
 7    1  0.5931885E-006  0.5771654E+02  0.7818608E-02  0.1540319E+00
          2   -1    0    0  502    0  0.00000000000E+00  0.00000000000E+00  0.12756738689E+04  0.12756738689E+04  0.00000000000E+00 0. -1.
          1   -1    0    0  501    0 -0.00000000000E+00 -0.00000000000E+00 -0.22763504570E+03  0.22763504570E+03  0.00000000000E+00 0. -1.
         25    2    1    2    0    0 -0.33056493776E+02  0.23059461005E+02  0.40182765571E+03  0.42274832951E+03  0.12500485864E+03 0.  0.
          2    1    1    2  501    0 -0.64930667609E+01  0.21430735617E+02 -0.21556798951E+03  0.21672792724E+03  0.00000000000E+00 0. -1.
          1    1    1    2  502    0  0.39549560537E+02 -0.44490196622E+02  0.86177915702E+03  0.86383265787E+03  0.00000000000E+00 0. -1.
         22    1    3    3    0    0 -0.71686327563E+02 -0.16246780441E+02  0.27088746967E+03  0.28068293261E+03  0.00000000000E+00 0. -1.
         22    1    3    3    0    0  0.38629833786E+02  0.39306241446E+02  0.13094018604E+03  0.14206539690E+03  0.00000000000E+00 0. -1.
</event>
<event>
 7    1  0.8690652E-006  0.5393531E+02  0.7818608E-02  0.1560122E+00
          2   -1    0    0  502    0  0.00000000000E+00  0.00000000000E+00  0.20059486769E+04  0.20059486769E+04  0.00000000000E+00 0. -1.
          1   -1    0    0  501    0 -0.00000000000E+00 -0.00000000000E+00 -0.11223349672E+04  0.11223349672E+04  0.00000000000E+00 0. -1.
         25    2    1    2    0    0 -0.35396246188E+02  0.23603218879E+02 -0.22933249421E+03  0.26462881351E+03  0.12500003940E+03 0.  0.
          2    1    1    2  501    0  0.44827824087E+01  0.20619664474E+02 -0.87486101488E+03  0.87511545596E+03  0.00000000000E+00 0. -1.
          1    1    1    2  502    0  0.30913463779E+02 -0.44222883354E+02  0.19878072188E+04  0.19885393747E+04  0.00000000000E+00 0. -1.
         22    1    3    3    0    0  0.29879858869E+02  0.35539316668E+02 -0.31875332296E+02  0.56319497550E+02  0.00000000000E+00 0.  1.
         22    1    3    3    0    0 -0.65276105057E+02 -0.11936097789E+02 -0.19745716192E+03  0.20830931596E+03  0.00000000000E+00 0.  1.
</event>
<event>
 7    1  0.5931885E-006  0.1031961E+03  0.7818608E-02  0.1425510E+00
          2   -1    0    0  502    0  0.00000000000E+00  0.00000000000E+00  0.28813422438E+03  0.28813422438E+03  0.00000000000E+00 0. -1.
          1   -1    0    0  501    0 -0.00000000000E+00 -0.00000000000E+00 -0.72737513785E+03  0.72737513785E+03  0.00000000000E+00 0. -1.
         25    2    1    2    0    0 -0.29039458388E+02 -0.12671468333E+03 -0.27854718111E+03  0.33183419604E+03  0.12500200175E+03 0.  0.
          2    1    1    2  501    0  0.10501448781E+02  0.26088779761E+02 -0.41167713751E+03  0.41263660817E+03  0.00000000000E+00 0. -1.
          1    1    1    2  502    0  0.18538009607E+02  0.10062590357E+03  0.25098340516E+03  0.27103855802E+03  0.00000000000E+00 0. -1.
         22    1    3    3    0    0 -0.72438997681E+02 -0.10755664812E+03 -0.22947278553E+03  0.26357845177E+03  0.00000000000E+00 0. -1.
         22    1    3    3    0    0  0.43399539294E+02 -0.19158035211E+02 -0.49074395581E+02  0.68255744269E+02  0.00000000000E+00 0. -1.
</event>
<event>
 7    1  0.5931885E-006  0.6659969E+02  0.7818608E-02  0.1475498E+00
          2   -1    0    0  502    0  0.00000000000E+00  0.00000000000E+00  0.18252661480E+04  0.18252661480E+04  0.00000000000E+00 0. -1.
          1   -1    0    0  501    0 -0.00000000000E+00 -0.00000000000E+00 -0.19349727656E+03  0.19349727656E+03  0.00000000000E+00 0. -1.
         25    2    1    2    0    0  0.16195871133E+02  0.62339979661E+02  0.17118427258E+03  0.22153553709E+03  0.12500143883E+03 0.  0.
          2    1    1    2  501    0 -0.30000968873E+02  0.30579584719E+01 -0.16627918716E+03  0.16899164868E+03  0.00000000000E+00 0. -1.
          1    1    1    2  502    0  0.13805097740E+02 -0.65397938133E+02  0.16268637860E+04  0.16282362388E+04  0.00000000000E+00 0. -1.
         22    1    3    3    0    0 -0.14287389077E+02 -0.33833536090E+02  0.27106676984E+02  0.45646572578E+02  0.00000000000E+00 0.  1.
         22    1    3    3    0    0  0.30483260210E+02  0.96173515751E+02  0.14407759560E+03  0.17588896452E+03  0.00000000000E+00 0.  1.
</event>
<event>
 7    1  0.5931885E-006  0.1486050E+03  0.7818608E-02  0.1315295E+00
          2   -1    0    0  502    0  0.00000000000E+00  0.00000000000E+00  0.70765346437E+03  0.70765346437E+03  0.00000000000E+00 0. -1.
          1   -1    0    0  501    0 -0.00000000000E+00 -0.00000000000E+00 -0.24056928695E+04  0.24056928695E+04  0.00000000000E+00 0. -1.
         25    2    1    2    0    0  0.48512928466E+02 -0.12215988749E+03 -0.35487533550E+03  0.39854826623E+03  0.12501069727E+03 0.  0.
          2    1    1    2  501    0 -0.95115603984E+01  0.15128981528E+03 -0.20252811094E+04  0.20309462450E+04  0.00000000000E+00 0. -1.
          1    1    1    2  502    0 -0.39001368067E+02 -0.29129927789E+02  0.68211703976E+03  0.68385182264E+03  0.00000000000E+00 0. -1.
         22    1    3    3    0    0  0.65134262683E+00 -0.11581518584E+03 -0.31602143946E+03  0.33657559584E+03  0.00000000000E+00 0. -1.
         22    1    3    3    0    0  0.47861585839E+02 -0.63447016513E+01 -0.38853896045E+02  0.61972670396E+02  0.00000000000E+00 0. -1.
</event>
<event>
 7    1  0.5931885E-006  0.5508153E+02  0.7818608E-02  0.1551611E+00
          2   -1    0    0  502    0  0.00000000000E+00  0.00000000000E+00  0.14164930234E+04  0.14164930234E+04  0.00000000000E+00 0. -1.
          1   -1    0    0  501    0 -0.00000000000E+00 -0.00000000000E+00 -0.32075399235E+02  0.32075399235E+02  0.00000000000E+00 0. -1.
         25    2    1    2    0    0 -0.12843725775E+02  0.33387263904E+02  0.22892513439E+03  0.26326992968E+03  0.12499867213E+03 0.  0.
          2    1    1    2  501    0  0.30220452722E+01  0.21603597320E+02 -0.58726997272E+01  0.22590634716E+02  0.00000000000E+00 0. -1.
          1    1    1    2  502    0  0.98216805030E+01 -0.54990861224E+02  0.11613651895E+04  0.11627078582E+04  0.00000000000E+00 0. -1.
         22    1    3    3    0    0  0.96928501974E+01 -0.39138646128E+02  0.29755392429E+02  0.50111558989E+02  0.00000000000E+00 0. -1.
         22    1    3    3    0    0 -0.22536575973E+02  0.72525910032E+02  0.19916974196E+03  0.21315837069E+03  0.00000000000E+00 0. -1.
</event>
<event>
 7    1  0.5931885E-006  0.7481833E+02  0.7818608E-02  0.1438137E+00
          2   -1    0    0  502    0  0.00000000000E+00  0.00000000000E+00  0.18048791829E+03  0.18048791829E+03  0.00000000000E+00 0. -1.
          1   -1    0    0  501    0 -0.00000000000E+00 -0.00000000000E+00 -0.18797299276E+03  0.18797299276E+03  0.00000000000E+00 0. -1.
         25    2    1    2    0    0  0.62853383626E+02 -0.29815459743E+02 -0.37188598212E+02  0.14777830229E+03  0.12496369600E+03 0.  0.
          2    1    1    2  501    0 -0.16672791008E+02 -0.31066668087E+02 -0.79748400142E+02  0.87194765619E+02  0.00000000000E+00 0. -1.
          1    1    1    2  502    0 -0.46180592617E+02  0.60882127830E+02  0.10945192388E+03  0.13348784314E+03  0.00000000000E+00 0. -1.
         22    1    3    3    0    0 -0.94131150955E+01 -0.59679963606E+02  0.17124494375E+01  0.60442015807E+02  0.00000000000E+00 0.  1.
         22    1    3    3    0    0  0.72266498721E+02  0.29864503863E+02 -0.38901047650E+02  0.87336286483E+02  0.00000000000E+00 0.  1.
</event>
<event>
 7    1  0.5931885E-006  0.1124455E+03  0.7818608E-02  0.1293842E+00
          2   -1    0    0  502    0  0.00000000000E+00  0.00000000000E+00  0.16931586617E+04  0.16931586617E+04  0.00000000000E+00 0. -1.
          1   -1    0    0  501    0 -0.00000000000E+00 -0.00000000000E+00 -0.36920587872E+04  0.36920587872E+04  0.00000000000E+00 0. -1.
         25    2    1    2    0    0  0.14281567709E+03 -0.88386397794E+02 -0.46413060405E+03  0.50917774886E+03  0.12504514935E+03 0.  0.
          2    1    1    2  501    0 -0.78213696656E+02 -0.34498110748E+01 -0.32030391423E+04  0.32039957913E+04  0.00000000000E+00 0. -1.
          1    1    1    2  502    0 -0.64601980430E+02  0.91836208868E+02  0.16682696208E+04  0.16720439088E+04  0.00000000000E+00 0. -1.
         22    1    3    3    0    0  0.10252210889E+03 -0.12020892975E+03 -0.35532230779E+03  0.38886361621E+03  0.00000000000E+00 0.  1.
         22    1    3    3    0    0  0.40293568192E+02  0.31822531954E+02 -0.10880829626E+03  0.12031413264E+03  0.00000000000E+00 0.  1.
</event>
<event>
 7    1  0.5931885E-006  0.1304598E+03  0.7818608E-02  0.1327166E+00
          2   -1    0    0  502    0  0.00000000000E+00  0.00000000000E+00  0.53499013129E+03  0.53499013129E+03  0.00000000000E+00 0. -1.
          1   -1    0    0  501    0 -0.00000000000E+00 -0.00000000000E+00 -0.84837190950E+03  0.84837190950E+03  0.00000000000E+00 0. -1.
         25    2    1    2    0    0  0.89216378206E+02  0.24631207990E+02  0.11747257357E+03  0.19493820508E+03  0.12503935265E+03 0.  0.
          2    1    1    2  501    0 -0.13188033212E+03  0.12111158521E+01 -0.80259135601E+03  0.81335525667E+03  0.00000000000E+00 0. -1.
          1    1    1    2  502    0  0.42663953911E+02 -0.25842323842E+02  0.37173700423E+03  0.37506857904E+03  0.00000000000E+00 0. -1.
         22    1    3    3    0    0  0.11940924654E+03  0.83995947269E+01  0.79068774522E+02  0.14346076974E+03  0.00000000000E+00 0. -1.
         22    1    3    3    0    0 -0.30192868335E+02  0.16231613263E+02  0.38403799051E+02  0.51477435338E+02  0.00000000000E+00 0. -1.
</event>
<event>
 7    1  0.5931885E-006  0.5213641E+02  0.7818608E-02  0.1450908E+00
          2   -1    0    0  502    0  0.00000000000E+00  0.00000000000E+00  0.33016427787E+03  0.33016427787E+03  0.00000000000E+00 0. -1.
          1   -1    0    0  501    0 -0.00000000000E+00 -0.00000000000E+00 -0.55009763298E+02  0.55009763298E+02  0.00000000000E+00 0. -1.
         25    2    1    2    0    0  0.10006820857E+02 -0.64973661550E+01  0.16254942277E+03  0.20540048858E+03  0.12499877453E+03 0.  0.
          2    1    1    2  501    0  0.46028608948E+02  0.24486170674E+02 -0.64966573796E+00  0.52140458969E+02  0.00000000000E+00 0. -1.
          1    1    1    2  502    0 -0.56035429805E+02 -0.17988804519E+02  0.11325475754E+03  0.12763309362E+03  0.00000000000E+00 0. -1.
         22    1    3    3    0    0  0.10599125832E+02 -0.38261144297E+02 -0.74820989184E-01  0.39702169078E+02  0.00000000000E+00 0. -1.
         22    1    3    3    0    0 -0.59230497472E+00  0.31763778142E+02  0.16262424376E+03  0.16569831950E+03  0.00000000000E+00 0. -1.
</event>
<event>
 7    1  0.5931885E-006  0.6930688E+02  0.7818608E-02  0.1465448E+00
          2   -1    0    0  502    0  0.00000000000E+00  0.00000000000E+00  0.67972111128E+02  0.67972111128E+02  0.00000000000E+00 0. -1.
          1   -1    0    0  501    0 -0.00000000000E+00 -0.00000000000E+00 -0.17665615099E+04  0.17665615099E+04  0.00000000000E+00 0. -1.
         25    2    1    2    0    0 -0.61770899997E+02 -0.13201755164E+02 -0.32034750408E+03  0.34962527714E+03  0.12500152247E+03 0.  0.
          2    1    1    2  501    0 -0.62193181759E+01  0.30512619108E+02 -0.14082547914E+04  0.14085990407E+04  0.00000000000E+00 0. -1.
          1    1    1    2  502    0  0.67990218173E+02 -0.17310863944E+02  0.30012896767E+02  0.76309303168E+02  0.00000000000E+00 0. -1.
         22    1    3    3    0    0 -0.31978498679E+02 -0.54286269650E+02 -0.69970519443E+02  0.94156768431E+02  0.00000000000E+00 0.  1.
         22    1    3    3    0    0 -0.29792401318E+02  0.41084514486E+02 -0.25037698464E+03  0.25546850871E+03  0.00000000000E+00 0.  1.
</event>
<event>
 7    1  0.5931885E-006  0.7002502E+02  0.7818608E-02  0.1445118E+00
          2   -1    0    0  502    0  0.00000000000E+00  0.00000000000E+00  0.12910149784E+04  0.12910149784E+04  0.00000000000E+00 0. -1.
          1   -1    0    0  501    0 -0.00000000000E+00 -0.00000000000E+00 -0.47032101499E+03  0.47032101499E+03  0.00000000000E+00 0. -1.
         25    2    1    2    0    0 -0.14250302929E+02  0.37849159714E+02  0.29461185388E+03  0.32257838051E+03  0.12500014841E+03 0.  0.
          2    1    1    2  501    0  0.77960365568E+01  0.34900604709E+02 -0.45427668426E+03  0.45568205611E+03  0.00000000000E+00 0. -1.
          1    1    1    2  502    0  0.64542663724E+01 -0.72749764422E+02  0.98035879382E+03  0.98307555681E+03  0.00000000000E+00 0. -1.
         22    1    3    3    0    0 -0.12499931329E+02  0.83924999771E+02  0.20291864084E+03  0.21994460364E+03  0.00000000000E+00 0.  1.
         22    1    3    3    0    0 -0.17503716002E+01 -0.46075840058E+02  0.91693213036E+02  0.10263377687E+03  0.00000000000E+00 0.  1.
</event>
<event>
 7    1  0.5931885E-006  0.9964282E+02  0.7818608E-02  0.1430426E+00
          2   -1    0    0  502    0  0.00000000000E+00  0.00000000000E+00  0.13128981560E+03  0.13128981560E+03  0.00000000000E+00 0. -1.
          1   -1    0    0  501    0 -0.00000000000E+00 -0.00000000000E+00 -0.20723599989E+04  0.20723599989E+04  0.00000000000E+00 0. -1.
         25    2    1    2    0    0  0.55691383679E+01 -0.85188565842E+02 -0.41992290090E+03  0.44637245106E+03  0.12500006128E+03 0.  0.
          2    1    1    2  501    0  0.26156620103E+02 -0.10151327186E+02 -0.16176901134E+04  0.16179334106E+04  0.00000000000E+00 0. -1.
          1    1    1    2  502    0 -0.31725758471E+02  0.95339893027E+02  0.96542831034E+02  0.13934395278E+03  0.00000000000E+00 0. -1.
         22    1    3    3    0    0  0.37356446110E+01 -0.49366334447E+02 -0.40417974407E+03  0.40720051024E+03  0.00000000000E+00 0. -1.
         22    1    3    3    0    0  0.18334937570E+01 -0.35822231394E+02 -0.15743156821E+02  0.39171940826E+02  0.00000000000E+00 0. -1.
</event>
<event>
 7    1  0.5931885E-006  0.5542537E+02  0.7818608E-02  0.1539813E+00
          2   -1    0    0  502    0  0.00000000000E+00  0.00000000000E+00  0.48326910892E+03  0.48326910892E+03  0.00000000000E+00 0. -1.
          1   -1    0    0  501    0 -0.00000000000E+00 -0.00000000000E+00 -0.23122147093E+03  0.23122147093E+03  0.00000000000E+00 0. -1.
         25    2    1    2    0    0  0.71456563419E+02 -0.83382556932E+01  0.23877204451E+03  0.27894887419E+03  0.12499927284E+03 0.  0.
          2    1    1    2  501    0 -0.21431350794E+02 -0.93828998686E+01 -0.20732816416E+03  0.20864397729E+03  0.00000000000E+00 0. -1.
          1    1    1    2  502    0 -0.50025212625E+02  0.17721155562E+02  0.22060375764E+03  0.22689772837E+03  0.00000000000E+00 0. -1.
         22    1    3    3    0    0 -0.16057363283E+02 -0.45390815028E+02  0.96675859923E+02  0.10800179117E+03  0.00000000000E+00 0. -1.
         22    1    3    3    0    0  0.87513926702E+02  0.37052559334E+02  0.14209618458E+03  0.17094708302E+03  0.00000000000E+00 0. -1.
</event>
<event>
 7    1  0.5931885E-006  0.2379024E+03  0.7818608E-02  0.1355555E+00
          2   -1    0    0  502    0  0.00000000000E+00  0.00000000000E+00  0.96807010500E+03  0.96807010500E+03  0.00000000000E+00 0. -1.
          1   -1    0    0  501    0 -0.00000000000E+00 -0.00000000000E+00 -0.10934095891E+03  0.10934095891E+03  0.00000000000E+00 0. -1.
         25    2    1    2    0    0 -0.23196823585E+03  0.15757912003E+02  0.22795006501E+03  0.34877838009E+03  0.12501020777E+03 0.  0.
          2    1    1    2  501    0 -0.52683416225E+01  0.20741338062E+02 -0.23458903878E+02  0.31753404530E+02  0.00000000000E+00 0. -1.
          1    1    1    2  502    0  0.23723657747E+03 -0.36499250065E+02  0.65423798496E+03  0.69687927929E+03  0.00000000000E+00 0. -1.
         22    1    3    3    0    0 -0.20652578235E+03 -0.24354636714E+02  0.21591730200E+03  0.29977713123E+03  0.00000000000E+00 0.  1.
         22    1    3    3    0    0 -0.25442453503E+02  0.40112548716E+02  0.12032763011E+02  0.49001248866E+02  0.00000000000E+00 0.  1.
</event>
<event>
 7    1  0.5931885E-006  0.1249301E+03  0.7818608E-02  0.1282179E+00
          2   -1    0    0  502    0  0.00000000000E+00  0.00000000000E+00  0.13714603275E+04  0.13714603275E+04  0.00000000000E+00 0. -1.
          1   -1    0    0  501    0 -0.00000000000E+00 -0.00000000000E+00 -0.16824446190E+03  0.16824446190E+03  0.00000000000E+00 0. -1.
         25    2    1    2    0    0  0.20804163275E+02  0.68259921683E+02  0.27219056753E+03  0.30790450038E+03  0.12500098474E+03 0.  0.
          2    1    1    2  501    0  0.67674747185E+02  0.40027193338E+02 -0.13522352377E+03  0.15642074349E+03  0.00000000000E+00 0. -1.
          1    1    1    2  502    0 -0.88478910460E+02 -0.10828711502E+03  0.10662488219E+04  0.10753795456E+04  0.00000000000E+00 0. -1.
         22    1    3    3    0    0  0.34814500886E+02  0.82340885209E+02  0.98256176226E+02  0.13283955366E+03  0.00000000000E+00 0. -1.
         22    1    3    3    0    0 -0.14010337611E+02 -0.14080963526E+02  0.17393439131E+03  0.17506494673E+03  0.00000000000E+00 0. -1.
</event>
<event>
 7    1  0.1240585E-005  0.9930434E+02  0.7818608E-02  0.1299273E+00
          2   -1    0    0  502    0  0.00000000000E+00  0.00000000000E+00  0.32785614861E+04  0.32785614861E+04  0.00000000000E+00 0. -1.
          1   -1    0    0  501    0 -0.00000000000E+00 -0.00000000000E+00 -0.12646993220E+04  0.12646993220E+04  0.00000000000E+00 0. -1.
         25    2    1    2    0    0  0.53246779077E+02  0.11613583444E+03 -0.30250586077E+03  0.35136517759E+03  0.12499976279E+03 0.  0.
          2    1    1    2  501    0  0.37393663520E+02 -0.75551120933E+02 -0.93510964492E+03  0.93890164872E+03  0.00000000000E+00 0. -1.
          1    1    1    2  502    0 -0.90640442597E+02 -0.40584713509E+02  0.32514776698E+04  0.32529939818E+04  0.00000000000E+00 0. -1.
         22    1    3    3    0    0  0.90274635223E+02  0.56475085146E+02 -0.20749332501E+03  0.23322183631E+03  0.00000000000E+00 0.  1.
         22    1    3    3    0    0 -0.37027856145E+02  0.59660749297E+02 -0.95012535766E+02  0.11814334129E+03  0.00000000000E+00 0.  1.
</event>
<event>
 7    1  0.5931885E-006  0.3155860E+02  0.7818608E-02  0.1586351E+00
          2   -1    0    0  502    0  0.00000000000E+00  0.00000000000E+00  0.26869684690E+03  0.26869684690E+03  0.00000000000E+00 0. -1.
          1   -1    0    0  501    0 -0.00000000000E+00 -0.00000000000E+00 -0.12881346961E+04  0.12881346961E+04  0.00000000000E+00 0. -1.
         25    2    1    2    0    0 -0.18014682971E+02 -0.44541526462E+02 -0.82262235242E+03  0.83345220329E+03  0.12500625617E+03 0.  0.
          2    1    1    2  501    0 -0.95080387962E+01  0.29113788506E+02 -0.45863955247E+03  0.45966102138E+03  0.00000000000E+00 0. -1.
          1    1    1    2  502    0  0.27522721768E+02  0.15427737957E+02  0.26182405567E+03  0.26371831836E+03  0.00000000000E+00 0. -1.
         22    1    3    3    0    0 -0.61195793629E+02 -0.56907929845E+02 -0.63773796862E+03  0.64318982754E+03  0.00000000000E+00 0. -1.
         22    1    3    3    0    0  0.43181110657E+02  0.12366403383E+02 -0.18488438380E+03  0.19026237575E+03  0.00000000000E+00 0. -1.
</event>
<event>
 7    1  0.5931885E-006  0.8737773E+02  0.7818608E-02  0.1448607E+00
          2   -1    0    0  502    0  0.00000000000E+00  0.00000000000E+00  0.92060874959E+02  0.92060874959E+02  0.00000000000E+00 0. -1.
          1   -1    0    0  501    0 -0.00000000000E+00 -0.00000000000E+00 -0.24218612159E+04  0.24218612159E+04  0.00000000000E+00 0. -1.
         25    2    1    2    0    0  0.34968877229E+02 -0.96044185837E+02 -0.95187031503E+03  0.96546852087E+03  0.12500024058E+03 0.  0.
          2    1    1    2  501    0 -0.26309382810E+02  0.93710721330E+01 -0.14407742726E+04  0.14410449352E+04  0.00000000000E+00 0. -1.
          1    1    1    2  502    0 -0.86594944196E+01  0.86673113704E+02  0.62844246711E+02  0.10740863479E+03  0.00000000000E+00 0. -1.
         22    1    3    3    0    0  0.33152280177E+02 -0.10333616872E+03 -0.95178615586E+03  0.95795319507E+03  0.00000000000E+00 0. -1.
         22    1    3    3    0    0  0.18165970527E+01  0.72919828788E+01 -0.84159167237E-01  0.75153258027E+01  0.00000000000E+00 0. -1.
</event>
<event>
 7    1  0.5931885E-006  0.1179489E+03  0.7818608E-02  0.1333306E+00
          2   -1    0    0  502    0  0.00000000000E+00  0.00000000000E+00  0.23946862178E+04  0.23946862178E+04  0.00000000000E+00 0. -1.
          1   -1    0    0  501    0 -0.00000000000E+00 -0.00000000000E+00 -0.58149932333E+02  0.58149932333E+02  0.00000000000E+00 0. -1.
         25    2    1    2    0    0 -0.27848520516E+02 -0.15924715413E+03  0.87876322899E+03  0.90221116386E+03  0.12499990157E+03 0.  0.
          2    1    1    2  501    0  0.64612789634E+00  0.52266968646E+02 -0.28988635420E+02  0.59771184330E+02  0.00000000000E+00 0. -1.
          1    1    1    2  502    0  0.27202392619E+02  0.10698018548E+03  0.14867616919E+04  0.14908538020E+04  0.00000000000E+00 0. -1.
         22    1    3    3    0    0  0.92921193257E+01  0.87783986653E+01  0.91119608041E+01  0.15698139838E+02  0.00000000000E+00 0.  1.
         22    1    3    3    0    0 -0.37140639841E+02 -0.16802555279E+03  0.86965126818E+03  0.88651302403E+03  0.00000000000E+00 0.  1.
</event>
<event>
 7    1  0.5931885E-006  0.3737690E+02  0.7818608E-02  0.1569862E+00
          2   -1    0    0  502    0  0.00000000000E+00  0.00000000000E+00  0.26164416022E+03  0.26164416022E+03  0.00000000000E+00 0. -1.
          1   -1    0    0  501    0 -0.00000000000E+00 -0.00000000000E+00 -0.40103978369E+03  0.40103978369E+03  0.00000000000E+00 0. -1.
         25    2    1    2    0    0 -0.43312914590E+02  0.20924756585E+02 -0.88852951375E+02  0.16072804152E+03  0.12499920941E+03 0.  0.
          2    1    1    2  501    0  0.66042795342E+01 -0.27866067087E+02 -0.27395183332E+03  0.27544462453E+03  0.00000000000E+00 0. -1.
          1    1    1    2  502    0  0.36708635056E+02  0.69413105011E+01  0.22340916123E+03  0.22651127786E+03  0.00000000000E+00 0. -1.
         22    1    3    3    0    0  0.29442846048E+02 -0.24372097342E+02 -0.13496976381E+01  0.38245287239E+02  0.00000000000E+00 0. -1.
         22    1    3    3    0    0 -0.72755760638E+02  0.45296853928E+02 -0.87503253736E+02  0.12248275428E+03  0.00000000000E+00 0. -1.
</event>
<event>
 7    1  0.5931885E-006  0.6536251E+02  0.7818608E-02  0.1507899E+00
          2   -1    0    0  502    0  0.00000000000E+00  0.00000000000E+00  0.72413352808E+03  0.72413352808E+03  0.00000000000E+00 0. -1.
          1   -1    0    0  501    0 -0.00000000000E+00 -0.00000000000E+00 -0.32263970195E+03  0.32263970195E+03  0.00000000000E+00 0. -1.
         25    2    1    2    0    0  0.61838921137E+02 -0.62628027191E+02  0.66376953662E+02  0.16666676906E+03  0.12500235988E+03 0.  0.
          2    1    1    2  501    0 -0.12207441121E+02  0.21277696572E+02 -0.27022060965E+03  0.27133178927E+03  0.00000000000E+00 0. -1.
          1    1    1    2  502    0 -0.49631480015E+02  0.41350330620E+02  0.60533748212E+03  0.60877467170E+03  0.00000000000E+00 0. -1.
         22    1    3    3    0    0 -0.27910394309E+02 -0.56165624353E+02  0.31242606189E+02  0.70069022477E+02  0.00000000000E+00 0. -1.
         22    1    3    3    0    0  0.89749315445E+02 -0.64624028385E+01  0.35134347473E+02  0.96597746587E+02  0.00000000000E+00 0. -1.
</event>
<event>
 7    1  0.5931885E-006  0.5617204E+02  0.7818608E-02  0.1549377E+00
          2   -1    0    0  502    0  0.00000000000E+00  0.00000000000E+00  0.15595762815E+04  0.15595762815E+04  0.00000000000E+00 0. -1.
          1   -1    0    0  501    0 -0.00000000000E+00 -0.00000000000E+00 -0.14416120879E+04  0.14416120879E+04  0.00000000000E+00 0. -1.
         25    2    1    2    0    0 -0.74291186104E+02  0.22068761870E+01  0.92260273676E+03  0.93399450702E+03  0.12500351449E+03 0.  0.
          2    1    1    2  501    0  0.21619225456E+02 -0.18640202538E+01 -0.14347352721E+04  0.14348993576E+04  0.00000000000E+00 0. -1.
          1    1    1    2  502    0  0.52671960648E+02 -0.34285593313E+00  0.63009672890E+03  0.63229450476E+03  0.00000000000E+00 0. -1.
         22    1    3    3    0    0 -0.36908331867E+02 -0.55505166432E+02  0.62534500480E+03  0.62888744899E+03  0.00000000000E+00 0.  1.
         22    1    3    3    0    0 -0.37382854237E+02  0.57712042619E+02  0.29725773196E+03  0.30510705804E+03  0.00000000000E+00 0.  1.
</event>
<event>
 7    1  0.5931885E-006  0.9479677E+02  0.7818608E-02  0.1364070E+00
          2   -1    0    0  502    0  0.00000000000E+00  0.00000000000E+00  0.20284257018E+03  0.20284257018E+03  0.00000000000E+00 0. -1.
          1   -1    0    0  501    0 -0.00000000000E+00 -0.00000000000E+00 -0.36086734683E+04  0.36086734683E+04  0.00000000000E+00 0. -1.
         25    2    1    2    0    0  0.54868292536E+02  0.69100044685E+02 -0.12739850721E+04  0.12831400267E+04  0.12500007383E+03 0.  0.
          2    1    1    2  501    0 -0.91970456077E+02 -0.35588439904E+02 -0.23258975455E+04  0.23279872195E+04  0.00000000000E+00 0. -1.
          1    1    1    2  502    0  0.37102163541E+02 -0.33511604782E+02  0.19405171956E+03  0.20038879225E+03  0.00000000000E+00 0. -1.
         22    1    3    3    0    0 -0.28937415328E+02  0.60690382547E+02 -0.47668390019E+03  0.48140236522E+03  0.00000000000E+00 0.  1.
         22    1    3    3    0    0  0.83805707864E+02  0.84096621380E+01 -0.79730117195E+03  0.80173766151E+03  0.00000000000E+00 0.  1.
</event>
<event>
 7    1  0.5931885E-006  0.4936059E+02  0.7818608E-02  0.1519747E+00
          2   -1    0    0  502    0  0.00000000000E+00  0.00000000000E+00  0.33052165527E+02  0.33052165527E+02  0.00000000000E+00 0. -1.
          1   -1    0    0  501    0 -0.00000000000E+00 -0.00000000000E+00 -0.87845786428E+03  0.87845786428E+03  0.00000000000E+00 0. -1.
         25    2    1    2    0    0  0.37900360086E+02  0.34332174149E+02 -0.76120950065E+03  0.77309726075E+03  0.12499734086E+03 0.  0.
          2    1    1    2  501    0 -0.26551823456E+02  0.13941214152E+02 -0.83603853990E+02  0.88819824267E+02  0.00000000000E+00 0. -1.
          1    1    1    2  502    0 -0.11348536631E+02 -0.48273388301E+02 -0.59234411672E+00  0.49592944793E+02  0.00000000000E+00 0. -1.
         22    1    3    3    0    0  0.28339533689E+02 -0.37700512377E+02 -0.14175111955E+03  0.14939155832E+03  0.00000000000E+00 0. -1.
         22    1    3    3    0    0  0.95608263974E+01  0.72032686527E+02 -0.61945838110E+03  0.62370570243E+03  0.00000000000E+00 0. -1.
</event>
<event>
 7    1  0.5931885E-006  0.1774266E+03  0.7818608E-02  0.1336364E+00
          2   -1    0    0  502    0  0.00000000000E+00  0.00000000000E+00  0.75521570422E+03  0.75521570422E+03  0.00000000000E+00 0. -1.
          1   -1    0    0  501    0 -0.00000000000E+00 -0.00000000000E+00 -0.44602161357E+03  0.44602161357E+03  0.00000000000E+00 0. -1.
         25    2    1    2    0    0  0.16604432408E+03  0.12207302522E+02  0.36614802071E+03  0.42119756878E+03  0.12499313213E+03 0.  0.
          2    1    1    2  501    0  0.21501888284E+02 -0.26121815266E+02 -0.39326553579E+03  0.39471820590E+03  0.00000000000E+00 0. -1.
          1    1    1    2  502    0 -0.18754621237E+03  0.13914512744E+02  0.33631160573E+03  0.38532154311E+03  0.00000000000E+00 0. -1.
         22    1    3    3    0    0  0.86428544216E+02  0.53938329186E+02  0.11094023817E+03  0.15062195409E+03  0.00000000000E+00 0.  1.
         22    1    3    3    0    0  0.79615779868E+02 -0.41731026663E+02  0.25520778255E+03  0.27057561469E+03  0.00000000000E+00 0.  1.
</event>
<event>
 7    1  0.5931885E-006  0.1199836E+03  0.7818608E-02  0.1319197E+00
          2   -1    0    0  502    0  0.00000000000E+00  0.00000000000E+00  0.19519975714E+04  0.19519975714E+04  0.00000000000E+00 0. -1.
          1   -1    0    0  501    0 -0.00000000000E+00 -0.00000000000E+00 -0.25660355548E+03  0.25660355548E+03  0.00000000000E+00 0. -1.
         25    2    1    2    0    0 -0.26297420238E+02  0.14721552272E+03 -0.46389500744E+02  0.20036827303E+03  0.12502597577E+03 0.  0.
          2    1    1    2  501    0 -0.36516624839E+02 -0.45340457046E+02 -0.12485539929E+03  0.13776099472E+03  0.00000000000E+00 0. -1.
          1    1    1    2  502    0  0.62814045076E+02 -0.10187506568E+03  0.18666389159E+04  0.18704718591E+04  0.00000000000E+00 0. -1.
         22    1    3    3    0    0  0.27254912205E+02  0.13385436949E+03 -0.16480537691E+02  0.13759153533E+03  0.00000000000E+00 0. -1.
         22    1    3    3    0    0 -0.53552332443E+02  0.13361153228E+02 -0.29908963052E+02  0.62776737702E+02  0.00000000000E+00 0. -1.
</event>
<event>
 7    1  0.5931885E-006  0.7351501E+02  0.7818608E-02  0.1478650E+00
          2   -1    0    0  502    0  0.00000000000E+00  0.00000000000E+00  0.16219190844E+04  0.16219190844E+04  0.00000000000E+00 0. -1.
          1   -1    0    0  501    0 -0.00000000000E+00 -0.00000000000E+00 -0.21562130152E+03  0.21562130152E+03  0.00000000000E+00 0. -1.
         25    2    1    2    0    0 -0.95237486721E+01  0.97389529456E+02  0.23839578501E+03  0.28641481888E+03  0.12500190370E+03 0.  0.
          2    1    1    2  501    0 -0.48414860336E+01 -0.26273414529E+02 -0.18970719677E+03  0.19157910326E+03  0.00000000000E+00 0. -1.
          1    1    1    2  502    0  0.14365234706E+02 -0.71116114928E+02  0.13576091946E+04  0.13595464637E+04  0.00000000000E+00 0. -1.
         22    1    3    3    0    0  0.30578042109E+02 -0.18586565535E+02  0.47297840563E+02  0.59309044837E+02  0.00000000000E+00 0.  1.
         22    1    3    3    0    0 -0.40101790781E+02  0.11597609499E+03  0.19109794445E+03  0.22710577405E+03  0.00000000000E+00 0.  1.
</event>
<event>
 7    1  0.5931885E-006  0.1190196E+03  0.7818608E-02  0.1388130E+00
          2   -1    0    0  502    0  0.00000000000E+00  0.00000000000E+00  0.42194217300E+03  0.42194217300E+03  0.00000000000E+00 0. -1.
          1   -1    0    0  501    0 -0.00000000000E+00 -0.00000000000E+00 -0.18281065551E+04  0.18281065551E+04  0.00000000000E+00 0. -1.
         25    2    1    2    0    0  0.13046575876E+03  0.36265740827E+02 -0.25769984418E+03  0.31681372472E+03  0.12500083324E+03 0.  0.
          2    1    1    2  501    0 -0.11783575391E+03 -0.61159570255E+01 -0.15379051063E+04  0.15424249692E+04  0.00000000000E+00 0. -1.
          1    1    1    2  502    0 -0.12630004853E+02 -0.30149783801E+02  0.38944056836E+03  0.39081003413E+03  0.00000000000E+00 0. -1.
         22    1    3    3    0    0 -0.19780797486E+02  0.10348660522E+02 -0.70067457202E+01  0.23398059949E+02  0.00000000000E+00 0. -1.
         22    1    3    3    0    0  0.15024655625E+03  0.25917080304E+02 -0.25069309846E+03  0.29341566477E+03  0.00000000000E+00 0. -1.
</event>
<event>
 7    1  0.5931885E-006  0.5932948E+02  0.7818608E-02  0.1431319E+00
          2   -1    0    0  502    0  0.00000000000E+00  0.00000000000E+00  0.23032484565E+04  0.23032484565E+04  0.00000000000E+00 0. -1.
          1   -1    0    0  501    0 -0.00000000000E+00 -0.00000000000E+00 -0.79604334977E+03  0.79604334977E+03  0.00000000000E+00 0. -1.
         25    2    1    2    0    0 -0.28929915083E+02  0.98481500464E+02  0.15692855196E+03  0.22535904907E+03  0.12499833862E+03 0.  0.
          2    1    1    2  501    0  0.38581323804E+01 -0.58958429271E+02 -0.76042267748E+03  0.76271464520E+03  0.00000000000E+00 0. -1.
          1    1    1    2  502    0  0.25071782703E+02 -0.39523071194E+02  0.21106992323E+04  0.21112181120E+04  0.00000000000E+00 0. -1.
         22    1    3    3    0    0 -0.30146391212E+02  0.52819546756E+02  0.16773490716E+03  0.17842003392E+03  0.00000000000E+00 0.  1.
         22    1    3    3    0    0  0.12164761288E+01  0.45661953708E+02 -0.10806355201E+02  0.46939015151E+02  0.00000000000E+00 0.  1.
</event>
<event>
 7    1  0.5931885E-006  0.3999402E+02  0.7818608E-02  0.1550643E+00
          2   -1    0    0  502    0  0.00000000000E+00  0.00000000000E+00  0.64126574865E+02  0.64126574865E+02  0.00000000000E+00 0. -1.
          1   -1    0    0  501    0 -0.00000000000E+00 -0.00000000000E+00 -0.11004348954E+04  0.11004348954E+04  0.00000000000E+00 0. -1.
         25    2    1    2    0    0 -0.12885824716E+02  0.26013842590E+02 -0.10519437742E+03  0.16593457013E+03  0.12500264012E+03 0.  0.
          2    1    1    2  501    0 -0.15148402085E+02 -0.37325121914E+02 -0.95759295265E+03  0.95843982689E+03  0.00000000000E+00 0. -1.
          1    1    1    2  502    0  0.28034226800E+02  0.11311279324E+02  0.26479009516E+02  0.40187073260E+02  0.00000000000E+00 0. -1.
         22    1    3    3    0    0  0.41726252065E+02  0.48303047313E+02 -0.30455856340E+02  0.70723572283E+02  0.00000000000E+00 0.  1.
         22    1    3    3    0    0 -0.54612076780E+02 -0.22289204723E+02 -0.74738521078E+02  0.95210997844E+02  0.00000000000E+00 0.  1.
</event>
<event>
 7    1  0.5931885E-006  0.5371299E+02  0.7818608E-02  0.1538866E+00
          2   -1    0    0  502    0  0.00000000000E+00  0.00000000000E+00  0.74879133383E+03  0.74879133383E+03  0.00000000000E+00 0. -1.
          1   -1    0    0  501    0 -0.00000000000E+00 -0.00000000000E+00 -0.82163806502E+03  0.82163806502E+03  0.00000000000E+00 0. -1.
         25    2    1    2    0    0  0.70569302891E+02  0.33088863953E+02 -0.63750130203E+03  0.65429910164E+03  0.12499801955E+03 0.  0.
          2    1    1    2  501    0 -0.21586239404E+02 -0.11138388932E+02 -0.17391986471E+03  0.17560794054E+03  0.00000000000E+00 0. -1.
          1    1    1    2  502    0 -0.48983063487E+02 -0.21950475021E+02  0.73857443556E+03  0.74052235666E+03  0.00000000000E+00 0. -1.
         22    1    3    3    0    0  0.49294478269E+02  0.32455777529E+02 -0.62837527282E+03  0.63114087696E+03  0.00000000000E+00 0.  1.
         22    1    3    3    0    0  0.21274824622E+02  0.63308642391E+00 -0.91260292110E+01  0.23158224679E+02  0.00000000000E+00 0.  1.
</event>
<event>
 7    1  0.5931885E-006  0.9286362E+02  0.7818608E-02  0.1374989E+00
          2   -1    0    0  502    0  0.00000000000E+00  0.00000000000E+00  0.35192997378E+03  0.35192997378E+03  0.00000000000E+00 0. -1.
          1   -1    0    0  501    0 -0.00000000000E+00 -0.00000000000E+00 -0.46429671416E+03  0.46429671416E+03  0.00000000000E+00 0. -1.
         25    2    1    2    0    0 -0.75810128192E+02  0.76855696417E+02  0.46252430328E+02  0.17151765246E+03  0.12500017675E+03 0.  0.
          2    1    1    2  501    0  0.45530726666E+02  0.10033470931E+02 -0.39152230255E+03  0.39428851239E+03  0.00000000000E+00 0. -1.
          1    1    1    2  502    0  0.30279401526E+02 -0.86889167348E+02  0.23290313184E+03  0.25042052308E+03  0.00000000000E+00 0. -1.
         22    1    3    3    0    0  0.34829188086E+02  0.24659897373E+02  0.87301305742E+01  0.43559132923E+02  0.00000000000E+00 0. -1.
         22    1    3    3    0    0 -0.11063931628E+03  0.52195799045E+02  0.37522299754E+02  0.12795851954E+03  0.00000000000E+00 0. -1.
</event>
<event>
 7    1  0.5931885E-006  0.3660692E+02  0.7818608E-02  0.1595180E+00
          2   -1    0    0  502    0  0.00000000000E+00  0.00000000000E+00  0.13633105288E+04  0.13633105288E+04  0.00000000000E+00 0. -1.
          1   -1    0    0  501    0 -0.00000000000E+00 -0.00000000000E+00 -0.25689855289E+02  0.25689855289E+02  0.00000000000E+00 0. -1.
         25    2    1    2    0    0  0.48474032830E+01 -0.14170719825E+02  0.28797669577E+03  0.31429405969E+03  0.12500348805E+03 0.  0.
          2    1    1    2  501    0 -0.78286678245E+00  0.38859807808E+02  0.18128687837E+02  0.42887607371E+02  0.00000000000E+00 0. -1.
          1    1    1    2  502    0 -0.40645365005E+01 -0.24689087983E+02  0.10315152899E+04  0.10318187170E+04  0.00000000000E+00 0. -1.
         22    1    3    3    0    0  0.53277823652E+01  0.55723124781E+02  0.12497630444E+03  0.13693987210E+03  0.00000000000E+00 0.  1.
         22    1    3    3    0    0 -0.48037908223E+00 -0.69893844606E+02  0.16300039133E+03  0.17735418758E+03  0.00000000000E+00 0.  1.
</event>
<event>
 7    1  0.5931885E-006  0.2426343E+03  0.7818608E-02  0.1216917E+00
          2   -1    0    0  502    0  0.00000000000E+00  0.00000000000E+00  0.31264775087E+03  0.31264775087E+03  0.00000000000E+00 0. -1.
          1   -1    0    0  501    0 -0.00000000000E+00 -0.00000000000E+00 -0.20032170333E+04  0.20032170333E+04  0.00000000000E+00 0. -1.
         25    2    1    2    0    0  0.94919986293E+02  0.26064142550E+03 -0.68234355329E+03  0.74710240211E+03  0.12500207211E+03 0.  0.
          2    1    1    2  501    0 -0.74963253878E+02 -0.20704635311E+02 -0.12353371582E+04  0.12377827216E+04  0.00000000000E+00 0. -1.
          1    1    1    2  502    0 -0.19956732414E+02 -0.23993679019E+03  0.22711142906E+03  0.33097966050E+03  0.00000000000E+00 0. -1.
         22    1    3    3    0    0  0.26576650162E+02 -0.64220126954E+01 -0.44372676717E+02  0.52120005947E+02  0.00000000000E+00 0.  1.
         22    1    3    3    0    0  0.68343336131E+02  0.26706343820E+03 -0.63797087658E+03  0.69498239616E+03  0.00000000000E+00 0.  1.
</event>
<event>
 7    1  0.5931885E-006  0.9572762E+02  0.7818608E-02  0.1427925E+00
          2   -1    0    0  502    0  0.00000000000E+00  0.00000000000E+00  0.21916879741E+03  0.21916879741E+03  0.00000000000E+00 0. -1.
          1   -1    0    0  501    0 -0.00000000000E+00 -0.00000000000E+00 -0.33643043311E+03  0.33643043311E+03  0.00000000000E+00 0. -1.
         25    2    1    2    0    0 -0.98251027869E+02  0.22177561179E+02 -0.23746152921E+03  0.28662990434E+03  0.12499446192E+03 0.  0.
          2    1    1    2  501    0  0.15297157419E+02  0.25532996391E+02 -0.58851083983E+02  0.65949882606E+02  0.00000000000E+00 0. -1.
          1    1    1    2  502    0  0.82953870450E+02 -0.47710557570E+02  0.17905097749E+03  0.20301944357E+03  0.00000000000E+00 0. -1.
         22    1    3    3    0    0 -0.55641787369E+02 -0.42462790488E+02 -0.57016132212E+02  0.90276998233E+02  0.00000000000E+00 0. -1.
         22    1    3    3    0    0 -0.42609240500E+02  0.64640351667E+02 -0.18044539700E+03  0.19635290611E+03  0.00000000000E+00 0. -1.
</event>
<event>
 7    1  0.5931885E-006  0.6934504E+02  0.7818608E-02  0.1421048E+00
          2   -1    0    0  502    0  0.00000000000E+00  0.00000000000E+00  0.14721167126E+04  0.14721167126E+04  0.00000000000E+00 0. -1.
          1   -1    0    0  501    0 -0.00000000000E+00 -0.00000000000E+00 -0.79038039850E+03  0.79038039850E+03  0.00000000000E+00 0. -1.
         25    2    1    2    0    0  0.53940639944E+02 -0.31593401603E+02  0.15881382777E+03  0.21155255184E+03  0.12499965853E+03 0.  0.
          2    1    1    2  501    0 -0.27646125187E+02 -0.33332500195E+02 -0.76244296585E+03  0.76367181431E+03  0.00000000000E+00 0. -1.
          1    1    1    2  502    0 -0.26294514758E+02  0.64925901798E+02  0.12853654521E+04  0.12872727449E+04  0.00000000000E+00 0. -1.
         22    1    3    3    0    0  0.42144320458E+02  0.57193959827E+01 -0.52798994974E+01  0.42857118148E+02  0.00000000000E+00 0. -1.
         22    1    3    3    0    0  0.11796319487E+02 -0.37312797586E+02  0.16409372727E+03  0.16869543369E+03  0.00000000000E+00 0. -1.
</event>
<event>
 7    1  0.5931885E-006  0.1344013E+03  0.7818608E-02  0.1271961E+00
          2   -1    0    0  502    0  0.00000000000E+00  0.00000000000E+00  0.11681481965E+04  0.11681481965E+04  0.00000000000E+00 0. -1.
          1   -1    0    0  501    0 -0.00000000000E+00 -0.00000000000E+00 -0.96816970621E+03  0.96816970621E+03  0.00000000000E+00 0. -1.
         25    2    1    2    0    0 -0.31955284032E+02  0.12422010476E+03  0.36796537482E+02  0.18283806227E+03  0.12499598890E+03 0.  0.
          2    1    1    2  501    0  0.80531528296E+02  0.29359824289E+01 -0.88894203778E+03  0.89258719102E+03  0.00000000000E+00 0. -1.
          1    1    1    2  502    0 -0.48576244264E+02 -0.12715608719E+03  0.10521239905E+04  0.10608926494E+04  0.00000000000E+00 0. -1.
         22    1    3    3    0    0  0.35887720170E+02  0.96654611531E+02  0.37199415941E+02  0.10960765911E+03  0.00000000000E+00 0.  1.
         22    1    3    3    0    0 -0.67843004202E+02  0.27565493230E+02 -0.40287845895E+00  0.73230403162E+02  0.00000000000E+00 0.  1.
</event>
<event>
 7    1  0.1061707E-005  0.5009805E+02  0.7818608E-02  0.1451866E+00
          2   -1    0    0  502    0  0.00000000000E+00  0.00000000000E+00  0.10700299677E+04  0.10700299677E+04  0.00000000000E+00 0. -1.
          1   -1    0    0  501    0 -0.00000000000E+00 -0.00000000000E+00 -0.11486295222E+04  0.11486295222E+04  0.00000000000E+00 0. -1.
         25    2    1    2    0    0 -0.83222524058E+01  0.52796083959E+02 -0.31160097603E+03  0.33996480078E+03  0.12499684453E+03 0.  0.
          2    1    1    2  501    0 -0.36545023247E+02 -0.30430155564E+02 -0.82156354982E+03  0.82293875804E+03  0.00000000000E+00 0. -1.
          1    1    1    2  502    0  0.44867275652E+02 -0.22365928395E+02  0.10545649713E+04  0.10557559311E+04  0.00000000000E+00 0. -1.
         22    1    3    3    0    0 -0.41648894981E+02 -0.26858522261E+02 -0.11766904342E+03  0.12767934230E+03  0.00000000000E+00 0. -1.
         22    1    3    3    0    0  0.33326642575E+02  0.79654606221E+02 -0.19393193261E+03  0.21228545848E+03  0.00000000000E+00 0. -1.
</event>
<event>
 7    1  0.5931885E-006  0.4188907E+02  0.7818608E-02  0.1512127E+00
          2   -1    0    0  502    0  0.00000000000E+00  0.00000000000E+00  0.47001411111E+03  0.47001411111E+03  0.00000000000E+00 0. -1.
          1   -1    0    0  501    0 -0.00000000000E+00 -0.00000000000E+00 -0.19170856496E+03  0.19170856496E+03  0.00000000000E+00 0. -1.
         25    2    1    2    0    0  0.39479962657E+02  0.41512241856E+00  0.44864831035E+02  0.13855192667E+03  0.12499977417E+03 0.  0.
          2    1    1    2  501    0 -0.25465401083E+02  0.34039605369E+02 -0.14080436175E+03  0.14708177887E+03  0.00000000000E+00 0. -1.
          1    1    1    2  502    0 -0.14014561574E+02 -0.34454727788E+02  0.37424507686E+03  0.37608897053E+03  0.00000000000E+00 0. -1.
         22    1    3    3    0    0 -0.26502261904E+02  0.84862787253E+01  0.63656103536E+02  0.69472917961E+02  0.00000000000E+00 0.  1.
         22    1    3    3    0    0  0.65982224562E+02 -0.80711563068E+01 -0.18791272501E+02  0.69079008710E+02  0.00000000000E+00 0.  1.
</event>
<event>
 7    1  0.5931885E-006  0.9014781E+02  0.7818608E-02  0.1337898E+00
          2   -1    0    0  502    0  0.00000000000E+00  0.00000000000E+00  0.25668244375E+03  0.25668244375E+03  0.00000000000E+00 0. -1.
          1   -1    0    0  501    0 -0.00000000000E+00 -0.00000000000E+00 -0.28325506134E+03  0.28325506134E+03  0.00000000000E+00 0. -1.
         25    2    1    2    0    0  0.12648196941E+03  0.71263013815E+02  0.43805699019E+02  0.19652143655E+03  0.12500252010E+03 0.  0.
          2    1    1    2  501    0 -0.83442079710E+02 -0.21615297958E+02 -0.18904729541E+03  0.20777074307E+03  0.00000000000E+00 0. -1.
          1    1    1    2  502    0 -0.43039889700E+02 -0.49647715856E+02  0.11866897880E+03  0.13564532548E+03  0.00000000000E+00 0. -1.
         22    1    3    3    0    0  0.10403260626E+03  0.48981668385E+02 -0.27749005792E+02  0.11828776067E+03  0.00000000000E+00 0. -1.
         22    1    3    3    0    0  0.22449363154E+02  0.22281345429E+02  0.71554704811E+02  0.78233675874E+02  0.00000000000E+00 0. -1.
</event>
<event>
 7    1  0.5931885E-006  0.5894387E+02  0.7818608E-02  0.1420808E+00
          2   -1    0    0  502    0  0.00000000000E+00  0.00000000000E+00  0.13167177308E+04  0.13167177308E+04  0.00000000000E+00 0. -1.
          1   -1    0    0  501    0 -0.00000000000E+00 -0.00000000000E+00 -0.13447033699E+03  0.13447033699E+03  0.00000000000E+00 0. -1.
         25    2    1    2    0    0  0.21694434450E+02  0.18904424877E+02  0.49540418463E+02  0.13750403521E+03  0.12500032348E+03 0.  0.
          2    1    1    2  501    0  0.25968484541E+01 -0.63794413263E+02 -0.78621411459E+02  0.10128078359E+03  0.00000000000E+00 0. -1.
          1    1    1    2  502    0 -0.24291282904E+02  0.44889988386E+02  0.12113283868E+04  0.12124032490E+04  0.00000000000E+00 0. -1.
         22    1    3    3    0    0 -0.43350667552E+02 -0.22709040453E+02  0.72755668643E+01  0.49476406182E+02  0.00000000000E+00 0.  1.
         22    1    3    3    0    0  0.65045102001E+02  0.41613465331E+02  0.42264851599E+02  0.88027629026E+02  0.00000000000E+00 0.  1.
</event>
<event>
 7    1  0.5931885E-006  0.9123549E+02  0.7818608E-02  0.1385010E+00
          2   -1    0    0  502    0  0.00000000000E+00  0.00000000000E+00  0.35054064852E+03  0.35054064852E+03  0.00000000000E+00 0. -1.
          1   -1    0    0  501    0 -0.00000000000E+00 -0.00000000000E+00 -0.13108164280E+04  0.13108164280E+04  0.00000000000E+00 0. -1.
         25    2    1    2    0    0  0.72694245949E+02  0.66310995374E+02 -0.39639599189E+02  0.16395089052E+03  0.12500798045E+03 0.  0.
          2    1    1    2  501    0 -0.87750470526E+02 -0.25253553305E+02 -0.12056268618E+04  0.12090798224E+04  0.00000000000E+00 0. -1.
          1    1    1    2  502    0  0.15056224577E+02 -0.41057442069E+02  0.28499068147E+03  0.28832636364E+03  0.00000000000E+00 0. -1.
         22    1    3    3    0    0 -0.20732682315E+02 -0.16580500637E+02 -0.27884383757E+02  0.38500597071E+02  0.00000000000E+00 0. -1.
         22    1    3    3    0    0  0.93426928264E+02  0.82891496011E+02 -0.11755215432E+02  0.12545029345E+03  0.00000000000E+00 0. -1.
</event>
<event>
 7    1  0.5931885E-006  0.7292478E+02  0.7818608E-02  0.1424748E+00
          2   -1    0    0  502    0  0.00000000000E+00  0.00000000000E+00  0.43448740204E+03  0.43448740204E+03  0.00000000000E+00 0. -1.
          1   -1    0    0  501    0 -0.00000000000E+00 -0.00000000000E+00 -0.48142156133E+03  0.48142156133E+03  0.00000000000E+00 0. -1.
         25    2    1    2    0    0 -0.52162724068E+02  0.17680583067E+02  0.16962755335E+03  0.21779000729E+03  0.12500171045E+03 0.  0.
          2    1    1    2  501    0  0.45866293078E+02 -0.57211313309E+02 -0.45270594746E+03  0.45860606852E+03  0.00000000000E+00 0. -1.
          1    1    1    2  502    0  0.62964309900E+01  0.39530730242E+02  0.23614423482E+03  0.23951288757E+03  0.00000000000E+00 0. -1.
         22    1    3    3    0    0 -0.18311034226E+02 -0.49905466200E+02  0.35798335152E+02  0.64088769146E+02  0.00000000000E+00 0. -1.
         22    1    3    3    0    0 -0.33851689842E+02  0.67586049267E+02  0.13382921820E+03  0.15370123814E+03  0.00000000000E+00 0. -1.
</event>
<event>
 7    1  0.5931885E-006  0.1433988E+03  0.7818608E-02  0.1213236E+00
          2   -1    0    0  502    0  0.00000000000E+00  0.00000000000E+00  0.11901019851E+04  0.11901019851E+04  0.00000000000E+00 0. -1.
          1   -1    0    0  501    0 -0.00000000000E+00 -0.00000000000E+00 -0.46943782992E+03  0.46943782992E+03  0.00000000000E+00 0. -1.
         25    2    1    2    0    0  0.24570711008E+03 -0.11444130848E+03  0.26552123244E+03  0.39949358071E+03  0.12499919647E+03 0.  0.
          2    1    1    2  501    0 -0.11316068769E+03  0.80526843844E+02 -0.38476662171E+03  0.40906633569E+03  0.00000000000E+00 0. -1.
          1    1    1    2  502    0 -0.13254642239E+03  0.33914464638E+02  0.83990954442E+03  0.85097989859E+03  0.00000000000E+00 0. -1.
         22    1    3    3    0    0  0.25971152932E+03 -0.10316208071E+03  0.25673351260E+03  0.37947936683E+03  0.00000000000E+00 0. -1.
         22    1    3    3    0    0 -0.14004419233E+02 -0.11279227773E+02  0.87877198363E+01  0.20014213878E+02  0.00000000000E+00 0. -1.
</event>
<event>
 7    1  0.5931885E-006  0.1521104E+03  0.7818608E-02  0.1250785E+00
          2   -1    0    0  502    0  0.00000000000E+00  0.00000000000E+00  0.75900661655E+03  0.75900661655E+03  0.00000000000E+00 0. -1.
          1   -1    0    0  501    0 -0.00000000000E+00 -0.00000000000E+00 -0.60280534384E+03  0.60280534384E+03  0.00000000000E+00 0. -1.
         25    2    1    2    0    0  0.10572014144E+03 -0.29521635632E+02 -0.72034207469E+02  0.18127999548E+03  0.12500093776E+03 0.  0.
          2    1    1    2  501    0  0.43336967470E+02  0.76170865990E+02 -0.46333194032E+03  0.47154700773E+03  0.00000000000E+00 0. -1.
          1    1    1    2  502    0 -0.14905710891E+03 -0.46649230358E+02  0.69156742050E+03  0.70898495718E+03  0.00000000000E+00 0. -1.
         22    1    3    3    0    0  0.62705275039E+02  0.43707824297E+02 -0.56238503417E+02  0.94895177375E+02  0.00000000000E+00 0.  1.
         22    1    3    3    0    0  0.43014866398E+02 -0.73229459929E+02 -0.15795704052E+02  0.86384818107E+02  0.00000000000E+00 0.  1.
</event>
<event>
 7    1  0.5931885E-006  0.1466030E+03  0.7818608E-02  0.1288297E+00
          2   -1    0    0  502    0  0.00000000000E+00  0.00000000000E+00  0.11525872207E+04  0.11525872207E+04  0.00000000000E+00 0. -1.
          1   -1    0    0  501    0 -0.00000000000E+00 -0.00000000000E+00 -0.64567251343E+03  0.64567251343E+03  0.00000000000E+00 0. -1.
         25    2    1    2    0    0  0.78065375761E+02 -0.36940670075E+02  0.55637357962E+03  0.57674391533E+03  0.12499267091E+03 0.  0.
          2    1    1    2  501    0 -0.12302981903E+03  0.81415428276E+02 -0.62517001012E+03  0.64234130327E+03  0.00000000000E+00 0. -1.
          1    1    1    2  502    0  0.44964443264E+02 -0.44474758201E+02  0.57571113777E+03  0.57917451552E+03  0.00000000000E+00 0. -1.
         22    1    3    3    0    0  0.10866865252E+03 -0.46639594943E+02  0.40024868387E+03  0.41735253300E+03  0.00000000000E+00 0. -1.
         22    1    3    3    0    0 -0.30603276761E+02  0.96989248682E+01  0.15612489574E+03  0.15939138233E+03  0.00000000000E+00 0. -1.
</event>
<event>
 7    1  0.5931885E-006  0.1380526E+03  0.7818608E-02  0.1323929E+00
          2   -1    0    0  502    0  0.00000000000E+00  0.00000000000E+00  0.11782908712E+04  0.11782908712E+04  0.00000000000E+00 0. -1.
          1   -1    0    0  501    0 -0.00000000000E+00 -0.00000000000E+00 -0.40744574624E+03  0.40744574624E+03  0.00000000000E+00 0. -1.
         25    2    1    2    0    0  0.54692810082E+02 -0.15816655438E+03 -0.10420028146E+02  0.20914422058E+03  0.12499906245E+03 0.  0.
          2    1    1    2  501    0 -0.12887466312E+02  0.13356339833E+03 -0.28196033395E+03  0.31226094549E+03  0.00000000000E+00 0. -1.
          1    1    1    2  502    0 -0.41805343770E+02  0.24603156054E+02  0.10632254871E+04  0.10643314514E+04  0.00000000000E+00 0. -1.
         22    1    3    3    0    0  0.20382320973E+02 -0.54009312459E+01  0.39526859213E+02  0.44799348944E+02  0.00000000000E+00 0. -1.
         22    1    3    3    0    0  0.34310489109E+02 -0.15276562313E+03 -0.49946887360E+02  0.16434487163E+03  0.00000000000E+00 0. -1.
</event>
<event>
 7    1  0.5931885E-006  0.2518076E+03  0.7818608E-02  0.1352128E+00
          2   -1    0    0  502    0  0.00000000000E+00  0.00000000000E+00  0.26425970807E+03  0.26425970807E+03  0.00000000000E+00 0. -1.
          1   -1    0    0  501    0 -0.00000000000E+00 -0.00000000000E+00 -0.79380374462E+03  0.79380374462E+03  0.00000000000E+00 0. -1.
         25    2    1    2    0    0  0.21687306751E+03  0.14157284921E+03  0.37999657173E+02  0.29007941140E+03  0.12500116771E+03 0.  0.
          2    1    1    2  501    0 -0.58299521076E+01 -0.19981388427E+02 -0.51926347355E+03  0.51968047797E+03  0.00000000000E+00 0. -1.
          1    1    1    2  502    0 -0.21104311541E+03 -0.12159146078E+03 -0.48280220170E+02  0.24830356332E+03  0.00000000000E+00 0. -1.
         22    1    3    3    0    0  0.15416698524E+02 -0.94525839441E+01 -0.24697351924E+02  0.30610212816E+02  0.00000000000E+00 0. -1.
         22    1    3    3    0    0  0.20145636899E+03  0.15102543316E+03  0.62697009097E+02  0.25946919859E+03  0.00000000000E+00 0. -1.
</event>
<event>
 7    1  0.5931885E-006  0.3492896E+02  0.7818608E-02  0.1612378E+00
          2   -1    0    0  502    0  0.00000000000E+00  0.00000000000E+00  0.26161290473E+03  0.26161290473E+03  0.00000000000E+00 0. -1.
          1   -1    0    0  501    0 -0.00000000000E+00 -0.00000000000E+00 -0.56788190489E+03  0.56788190489E+03  0.00000000000E+00 0. -1.
         25    2    1    2    0    0  0.24409449077E+02  0.24927140820E+01  0.18309168072E+03  0.22304320956E+03  0.12499469971E+03 0.  0.
          2    1    1    2  501    0  0.60130493807E+01  0.22880583955E+02 -0.54091652499E+03  0.54143362002E+03  0.00000000000E+00 0. -1.
          1    1    1    2  502    0 -0.30422498458E+02 -0.25373298037E+02  0.51555844107E+02  0.65017980031E+02  0.00000000000E+00 0. -1.
         22    1    3    3    0    0 -0.15264966058E+02 -0.16088305588E+02  0.17749734162E+03  0.17887749732E+03  0.00000000000E+00 0. -1.
         22    1    3    3    0    0  0.39674415135E+02  0.18581019671E+02  0.55943391017E+01  0.44165712247E+02  0.00000000000E+00 0. -1.
</event>
<event>
 7    1  0.5931885E-006  0.1243098E+03  0.7818608E-02  0.1297954E+00
          2   -1    0    0  502    0  0.00000000000E+00  0.00000000000E+00  0.19778510513E+04  0.19778510513E+04  0.00000000000E+00 0. -1.
          1   -1    0    0  501    0 -0.00000000000E+00 -0.00000000000E+00 -0.41147499552E+02  0.41147499552E+02  0.00000000000E+00 0. -1.
         25    2    1    2    0    0 -0.85150172468E+01 -0.13648451596E+03  0.65524245592E+03  0.68093210335E+03  0.12500129888E+03 0.  0.
          2    1    1    2  501    0 -0.60067240631E+02  0.32228148714E+02  0.20836636246E+02  0.71280378623E+02  0.00000000000E+00 0. -1.
          1    1    1    2  502    0  0.68582257878E+02  0.10425636724E+03  0.12606244596E+04  0.12667860689E+04  0.00000000000E+00 0. -1.
         22    1    3    3    0    0  0.57490241425E+01 -0.76200343310E+02  0.57245460562E+03  0.57753252644E+03  0.00000000000E+00 0. -1.
         22    1    3    3    0    0 -0.14264041389E+02 -0.60284172648E+02  0.82787850298E+02  0.10339957691E+03  0.00000000000E+00 0. -1.
</event>
<event>
 7    1  0.5931885E-006  0.3318769E+02  0.7818608E-02  0.1583337E+00
          2   -1    0    0  502    0  0.00000000000E+00  0.00000000000E+00  0.27178209356E+03  0.27178209356E+03  0.00000000000E+00 0. -1.
          1   -1    0    0  501    0 -0.00000000000E+00 -0.00000000000E+00 -0.22666024682E+03  0.22666024682E+03  0.00000000000E+00 0. -1.
         25    2    1    2    0    0  0.60568168596E+01 -0.23585899861E+00  0.11713264236E+03  0.17141087585E+03  0.12499956718E+03 0.  0.
          2    1    1    2  501    0 -0.21883249235E+02  0.25328923529E+02 -0.19635984038E+03  0.19919241421E+03  0.00000000000E+00 0. -1.
          1    1    1    2  502    0  0.15826432376E+02 -0.25093064530E+02  0.12434904477E+03  0.12783905031E+03  0.00000000000E+00 0. -1.
         22    1    3    3    0    0  0.54601172423E+02 -0.15698722761E+01  0.10934242994E+03  0.12222732720E+03  0.00000000000E+00 0.  1.
         22    1    3    3    0    0 -0.48544355564E+02  0.13340132775E+01  0.77902124193E+01  0.49183548653E+02  0.00000000000E+00 0.  1.
</event>
<event>
 7    1  0.5931885E-006  0.1379465E+03  0.7818608E-02  0.1253200E+00
          2   -1    0    0  502    0  0.00000000000E+00  0.00000000000E+00  0.98475300287E+03  0.98475300287E+03  0.00000000000E+00 0. -1.
          1   -1    0    0  501    0 -0.00000000000E+00 -0.00000000000E+00 -0.23173518256E+03  0.23173518256E+03  0.00000000000E+00 0. -1.
         25    2    1    2    0    0  0.12762688387E+03 -0.84839860307E+02  0.20104216505E+03  0.28200934252E+03  0.12499957503E+03 0.  0.
          2    1    1    2  501    0 -0.13904832426E+03 -0.88049831257E+01 -0.16235717414E+03  0.21394348834E+03  0.00000000000E+00 0. -1.
          1    1    1    2  502    0  0.11421440392E+02  0.93644843433E+02  0.71433282941E+03  0.72053535456E+03  0.00000000000E+00 0. -1.
         22    1    3    3    0    0  0.79407609680E+02 -0.42679862080E+02  0.19837962849E+03  0.21790276754E+03  0.00000000000E+00 0. -1.
         22    1    3    3    0    0  0.48219274191E+02 -0.42159998227E+02  0.26625365529E+01  0.64106574974E+02  0.00000000000E+00 0. -1.
</event>
<event>
 7    1  0.5931885E-006  0.6223009E+02  0.7818608E-02  0.1424176E+00
          2   -1    0    0  502    0  0.00000000000E+00  0.00000000000E+00  0.85319969881E+03  0.85319969881E+03  0.00000000000E+00 0. -1.
          1   -1    0    0  501    0 -0.00000000000E+00 -0.00000000000E+00 -0.11095934782E+04  0.11095934782E+04  0.00000000000E+00 0. -1.
         25    2    1    2    0    0  0.84003198058E+01  0.13648388629E+02  0.37395357142E+03  0.39461519248E+03  0.12499213047E+03 0.  0.
          2    1    1    2  501    0 -0.45855078192E+02 -0.42229355287E+02 -0.10971922617E+04  0.10989617217E+04  0.00000000000E+00 0. -1.
          1    1    1    2  502    0  0.37454758386E+02  0.28580966659E+02  0.46684491083E+03  0.46921626288E+03  0.00000000000E+00 0. -1.
         22    1    3    3    0    0 -0.20608369927E+02  0.57809322933E+02  0.11526368332E+03  0.13058460637E+03  0.00000000000E+00 0. -1.
         22    1    3    3    0    0  0.29008689733E+02 -0.44160934305E+02  0.25868988810E+03  0.26403058611E+03  0.00000000000E+00 0. -1.
</event>
<event>
 7    1  0.5931885E-006  0.4354160E+02  0.7818608E-02  0.1557619E+00
          2   -1    0    0  502    0  0.00000000000E+00  0.00000000000E+00  0.51983443515E+03  0.51983443515E+03  0.00000000000E+00 0. -1.
          1   -1    0    0  501    0 -0.00000000000E+00 -0.00000000000E+00 -0.12082869213E+03  0.12082869213E+03  0.00000000000E+00 0. -1.
         25    2    1    2    0    0  0.44655526694E+02 -0.27910317081E+02  0.17756957826E+03  0.22344998374E+03  0.12500335294E+03 0.  0.
          2    1    1    2  501    0 -0.12956428723E+01  0.26525317432E+02 -0.94577683756E+02  0.98235479436E+02  0.00000000000E+00 0. -1.
          1    1    1    2  502    0 -0.43359883822E+02  0.13849996486E+01  0.31601384851E+03  0.31897766411E+03  0.00000000000E+00 0. -1.
         22    1    3    3    0    0 -0.33828403966E+02  0.19750479687E+02  0.28778601930E+02  0.48607101248E+02  0.00000000000E+00 0. -1.
         22    1    3    3    0    0  0.78483930660E+02 -0.47660796768E+02  0.14879097633E+03  0.17484288249E+03  0.00000000000E+00 0. -1.
</event>
<event>
 7    1  0.5931885E-006  0.5213177E+02  0.7818608E-02  0.1475067E+00
          2   -1    0    0  502    0  0.00000000000E+00  0.00000000000E+00  0.24884174133E+04  0.24884174133E+04  0.00000000000E+00 0. -1.
          1   -1    0    0  501    0 -0.00000000000E+00 -0.00000000000E+00 -0.41435502475E+03  0.41435502475E+03  0.00000000000E+00 0. -1.
         25    2    1    2    0    0 -0.78213914342E+02  0.42084914606E+02  0.48070698686E+02  0.16070040416E+03  0.12500108556E+03 0.  0.
          2    1    1    2  501    0  0.28942973174E+02 -0.25605649619E+02 -0.35671345200E+03  0.35880054602E+03  0.00000000000E+00 0. -1.
          1    1    1    2  502    0  0.49270941168E+02 -0.16479264987E+02  0.23827051418E+04  0.23832714879E+04  0.00000000000E+00 0. -1.
         22    1    3    3    0    0 -0.56962027656E+02  0.29820721668E+02 -0.35608692730E+02  0.73497802916E+02  0.00000000000E+00 0. -1.
         22    1    3    3    0    0 -0.21251886686E+02  0.12264192937E+02  0.83679391416E+02  0.87202601245E+02  0.00000000000E+00 0. -1.
</event>
<event>
 7    1  0.5931885E-006  0.9652715E+02  0.7818608E-02  0.1289673E+00
          2   -1    0    0  502    0  0.00000000000E+00  0.00000000000E+00  0.16278140107E+03  0.16278140107E+03  0.00000000000E+00 0. -1.
          1   -1    0    0  501    0 -0.00000000000E+00 -0.00000000000E+00 -0.14041713377E+04  0.14041713377E+04  0.00000000000E+00 0. -1.
         25    2    1    2    0    0  0.53053670042E+02  0.64558053604E+02  0.12872568319E+02  0.15091131804E+03  0.12500435475E+03 0.  0.
          2    1    1    2  501    0  0.64594243256E+02 -0.71729175286E+02 -0.12894320193E+04  0.12930399930E+04  0.00000000000E+00 0. -1.
          1    1    1    2  502    0 -0.11764791330E+03  0.71711216824E+01  0.35169514405E+02  0.12300142777E+03  0.00000000000E+00 0. -1.
         22    1    3    3    0    0  0.82558778379E+02  0.71157920473E+02  0.33831844846E+02  0.11412272017E+03  0.00000000000E+00 0.  1.
         22    1    3    3    0    0 -0.29505108337E+02 -0.65998668689E+01 -0.20959276527E+02  0.36788597870E+02  0.00000000000E+00 0.  1.
</event>
<event>
 7    1  0.5931885E-006  0.9469559E+02  0.7818608E-02  0.1310131E+00
          2   -1    0    0  502    0  0.00000000000E+00  0.00000000000E+00  0.78802985251E+03  0.78802985251E+03  0.00000000000E+00 0. -1.
          1   -1    0    0  501    0 -0.00000000000E+00 -0.00000000000E+00 -0.15555210140E+03  0.15555210140E+03  0.00000000000E+00 0. -1.
         25    2    1    2    0    0 -0.74834536195E+02  0.88607350106E+02  0.30298988226E+02  0.17318854313E+03  0.12499908994E+03 0.  0.
          2    1    1    2  501    0 -0.19629707465E+02 -0.77595813582E+02 -0.60871493493E+02  0.10055731908E+03  0.00000000000E+00 0. -1.
          1    1    1    2  502    0  0.94464243660E+02 -0.11011536524E+02  0.66305025637E+03  0.66983609170E+03  0.00000000000E+00 0. -1.
         22    1    3    3    0    0 -0.93901570838E+01  0.85191457635E+02 -0.22974495293E+02  0.88733234687E+02  0.00000000000E+00 0. -1.
         22    1    3    3    0    0 -0.65444379111E+02  0.34158924705E+01  0.53273483519E+02  0.84455308447E+02  0.00000000000E+00 0. -1.
</event>
<event>
 7    1  0.5931885E-006  0.6561717E+02  0.7818608E-02  0.1399781E+00
          2   -1    0    0  502    0  0.00000000000E+00  0.00000000000E+00  0.25611681114E+03  0.25611681114E+03  0.00000000000E+00 0. -1.
          1   -1    0    0  501    0 -0.00000000000E+00 -0.00000000000E+00 -0.36058876880E+03  0.36058876880E+03  0.00000000000E+00 0. -1.
         25    2    1    2    0    0 -0.94976913308E+02  0.51222740509E+02 -0.13632929254E+03  0.21413731280E+03  0.12499891808E+03 0.  0.
          2    1    1    2  501    0  0.30680185134E+02 -0.44464827841E+02 -0.17641043636E+03  0.18449671198E+03  0.00000000000E+00 0. -1.
          1    1    1    2  502    0  0.64296728174E+02 -0.67579126682E+01  0.20826777123E+03  0.21807155516E+03  0.00000000000E+00 0. -1.
         22    1    3    3    0    0 -0.81379822570E+01 -0.43013210311E+01 -0.10641408549E+03  0.10681144933E+03  0.00000000000E+00 0. -1.
         22    1    3    3    0    0 -0.86838931051E+02  0.55524061540E+02 -0.29915207048E+02  0.10732586347E+03  0.00000000000E+00 0. -1.
</event>
<event>
 7    1  0.5931885E-006  0.1320558E+03  0.7818608E-02  0.1307178E+00
          2   -1    0    0  502    0  0.00000000000E+00  0.00000000000E+00  0.76554564450E+03  0.76554564450E+03  0.00000000000E+00 0. -1.
          1   -1    0    0  501    0 -0.00000000000E+00 -0.00000000000E+00 -0.86243069334E+03  0.86243069334E+03  0.00000000000E+00 0. -1.
         25    2    1    2    0    0 -0.71077412886E+02 -0.97152052453E+02  0.69964845266E+02  0.18709219630E+03  0.12497155846E+03 0.  0.
          2    1    1    2  501    0  0.11801949602E+03  0.61479461457E+02 -0.79697421839E+03  0.80800756828E+03  0.00000000000E+00 0. -1.
          1    1    1    2  502    0 -0.46942083130E+02  0.35672590996E+02  0.63012432429E+03  0.63287657325E+03  0.00000000000E+00 0. -1.
         22    1    3    3    0    0  0.13986179020E+02 -0.51152173716E+02  0.73132508407E+02  0.90335606852E+02  0.00000000000E+00 0. -1.
         22    1    3    3    0    0 -0.85063591906E+02 -0.45999878738E+02 -0.31676631412E+01  0.96756589448E+02  0.00000000000E+00 0. -1.
</event>
<event>
 7    1  0.5931885E-006  0.1354232E+03  0.7818608E-02  0.1231460E+00
          2   -1    0    0  502    0  0.00000000000E+00  0.00000000000E+00  0.13589239300E+04  0.13589239300E+04  0.00000000000E+00 0. -1.
          1   -1    0    0  501    0 -0.00000000000E+00 -0.00000000000E+00 -0.61267797210E+03  0.61267797210E+03  0.00000000000E+00 0. -1.
         25    2    1    2    0    0  0.11749886289E+03 -0.16885827814E+03 -0.36459840950E+03  0.43689264443E+03  0.12499632664E+03 0.  0.
          2    1    1    2  501    0 -0.11487327216E+03  0.33775452662E+02 -0.19124159506E+03  0.22563243903E+03  0.00000000000E+00 0. -1.
          1    1    1    2  502    0 -0.26255907306E+01  0.13508282548E+03  0.13020859624E+04  0.13090768186E+04  0.00000000000E+00 0. -1.
         22    1    3    3    0    0  0.36440833226E+02 -0.12374664495E+03 -0.29156370553E+03  0.31882685089E+03  0.00000000000E+00 0.  1.
         22    1    3    3    0    0  0.81058029663E+02 -0.45111633191E+02 -0.73034703968E+02  0.11806579355E+03  0.00000000000E+00 0.  1.
</event>
<event>
 7    1  0.5931885E-006  0.6507938E+02  0.7818608E-02  0.1407380E+00
          2   -1    0    0  502    0  0.00000000000E+00  0.00000000000E+00  0.18883057697E+04  0.18883057697E+04  0.00000000000E+00 0. -1.
          1   -1    0    0  501    0 -0.00000000000E+00 -0.00000000000E+00 -0.19678668979E+03  0.19678668979E+03  0.00000000000E+00 0. -1.
         25    2    1    2    0    0  0.49616030087E+01  0.18351554248E+02  0.99980096891E+03  0.10077658839E+04  0.12501480832E+03 0.  0.
          2    1    1    2  501    0  0.23686969934E+02 -0.60911495589E+02 -0.18649564070E+03  0.19761555313E+03  0.00000000000E+00 0. -1.
          1    1    1    2  502    0 -0.28648572943E+02  0.42559941342E+02  0.87821375172E+03  0.87971102247E+03  0.00000000000E+00 0. -1.
         22    1    3    3    0    0  0.13713746587E+02 -0.52632750256E+02  0.47855675000E+03  0.48163766071E+03  0.00000000000E+00 0. -1.
         22    1    3    3    0    0 -0.87521435782E+01  0.70984304504E+02  0.52124421891E+03  0.52612822321E+03  0.00000000000E+00 0. -1.
</event>
<event>
 7    1  0.5931885E-006  0.6152508E+02  0.7818608E-02  0.1394468E+00
          2   -1    0    0  502    0  0.00000000000E+00  0.00000000000E+00  0.17361032475E+04  0.17361032475E+04  0.00000000000E+00 0. -1.
          1   -1    0    0  501    0 -0.00000000000E+00 -0.00000000000E+00 -0.29100187418E+02  0.29100187418E+02  0.00000000000E+00 0. -1.
         25    2    1    2    0    0 -0.23208324492E+02 -0.72465460695E+02  0.25436154634E+03  0.29345391159E+03  0.12500213060E+03 0.  0.
          2    1    1    2  501    0  0.57918356130E+02  0.21666359944E+02  0.99102902306E+02  0.11681332277E+03  0.00000000000E+00 0. -1.
          1    1    1    2  502    0 -0.34710031638E+02  0.50799100752E+02  0.13535386114E+04  0.13549362005E+04  0.00000000000E+00 0. -1.
         22    1    3    3    0    0  0.70641456776E+01 -0.10251310978E+03  0.16401847741E+03  0.19354818719E+03  0.00000000000E+00 0. -1.
         22    1    3    3    0    0 -0.30272470170E+02  0.30047649088E+02  0.90343068929E+02  0.99905724407E+02  0.00000000000E+00 0. -1.
</event>
<event>
 7    1  0.5931885E-006  0.1641017E+03  0.7818608E-02  0.1236285E+00
          2   -1    0    0  502    0  0.00000000000E+00  0.00000000000E+00  0.48186168824E+03  0.48186168824E+03  0.00000000000E+00 0. -1.
          1   -1    0    0  501    0 -0.00000000000E+00 -0.00000000000E+00 -0.28901676426E+03  0.28901676426E+03  0.00000000000E+00 0. -1.
         25    2    1    2    0    0 -0.22825509361E+02 -0.10625251089E+03  0.10372195013E+03  0.19543096830E+03  0.12499768192E+03 0.  0.
          2    1    1    2  501    0 -0.23066176310E+02 -0.91166184033E+02 -0.20078435797E+03  0.22171531297E+03  0.00000000000E+00 0. -1.
          1    1    1    2  502    0  0.45891685671E+02  0.19741869492E+03  0.28990733182E+03  0.35373217123E+03  0.00000000000E+00 0. -1.
         22    1    3    3    0    0  0.35020051328E+02 -0.71270484434E+02  0.10004585607E+03  0.12773041636E+03  0.00000000000E+00 0.  1.
         22    1    3    3    0    0 -0.57845560689E+02 -0.34982026455E+02  0.36760940613E+01  0.67700551947E+02  0.00000000000E+00 0.  1.
</event>
<event>
 7    1  0.5931885E-006  0.1673285E+03  0.7818608E-02  0.1339435E+00
          2   -1    0    0  502    0  0.00000000000E+00  0.00000000000E+00  0.46985261490E+03  0.46985261490E+03  0.00000000000E+00 0. -1.
          1   -1    0    0  501    0 -0.00000000000E+00 -0.00000000000E+00 -0.19345951416E+03  0.19345951416E+03  0.00000000000E+00 0. -1.
         25    2    1    2    0    0 -0.65091894503E+02  0.15231543881E+03  0.35900749914E+03  0.41466875203E+03  0.12500736714E+03 0.  0.
          2    1    1    2  501    0 -0.34197076170E+02 -0.71182660803E+01 -0.62499051073E+02  0.71597773119E+02  0.00000000000E+00 0. -1.
          1    1    1    2  502    0  0.99288970673E+02 -0.14519717273E+03 -0.20115347330E+02  0.17704560391E+03  0.00000000000E+00 0. -1.
         22    1    3    3    0    0 -0.16240706675E+02  0.12317886186E+03  0.32607246750E+03  0.34894132261E+03  0.00000000000E+00 0. -1.
         22    1    3    3    0    0 -0.48851187828E+02  0.29136576949E+02  0.32935031637E+02  0.65727429415E+02  0.00000000000E+00 0. -1.
</event>
<event>
 7    1  0.8337414E-006  0.1027306E+03  0.7818608E-02  0.1364772E+00
          2   -1    0    0  502    0  0.00000000000E+00  0.00000000000E+00  0.13735379850E+04  0.13735379850E+04  0.00000000000E+00 0. -1.
          1   -1    0    0  501    0 -0.00000000000E+00 -0.00000000000E+00 -0.11366521655E+04  0.11366521655E+04  0.00000000000E+00 0. -1.
         25    2    1    2    0    0  0.61031765551E+02  0.27511638584E+02 -0.74847153734E+02  0.16033937990E+03  0.12499941464E+03 0.  0.
          2    1    1    2  501    0  0.13953952215E+02  0.43691075754E+02 -0.10165323211E+04  0.10175665004E+04  0.00000000000E+00 0. -1.
          1    1    1    2  502    0 -0.74985717766E+02 -0.71202714339E+02  0.13282652943E+04  0.13322842702E+04  0.00000000000E+00 0. -1.
         22    1    3    3    0    0  0.52619113538E+01 -0.45072326134E+02 -0.45385090378E+02  0.64179503915E+02  0.00000000000E+00 0. -1.
         22    1    3    3    0    0  0.55769854198E+02  0.72583964718E+02 -0.29462063356E+02  0.96159875981E+02  0.00000000000E+00 0. -1.
</event>
<event>
 7    1  0.5931885E-006  0.7597442E+02  0.7818608E-02  0.1371457E+00
          2   -1    0    0  502    0  0.00000000000E+00  0.00000000000E+00  0.13159928275E+04  0.13159928275E+04  0.00000000000E+00 0. -1.
          1   -1    0    0  501    0 -0.00000000000E+00 -0.00000000000E+00 -0.32268482602E+03  0.32268482602E+03  0.00000000000E+00 0. -1.
         25    2    1    2    0    0  0.70086705431E+02 -0.53269072390E+02 -0.47829234554E+02  0.16019178115E+03  0.12499612281E+03 0.  0.
          2    1    1    2  501    0 -0.15678332316E+02  0.75220925730E+02 -0.21121653157E+03  0.22475858378E+03  0.00000000000E+00 0. -1.
          1    1    1    2  502    0 -0.54408373115E+02 -0.21951853339E+02  0.12523537676E+04  0.12537272886E+04  0.00000000000E+00 0. -1.
         22    1    3    3    0    0  0.61570174802E+02  0.20260630688E+02 -0.56081656348E+02  0.85711911422E+02  0.00000000000E+00 0. -1.
         22    1    3    3    0    0  0.85165306291E+01 -0.73529703079E+02  0.82524217933E+01  0.74479869725E+02  0.00000000000E+00 0. -1.
</event>
<event>
 7    1  0.5931885E-006  0.6665870E+02  0.7818608E-02  0.1381585E+00
          2   -1    0    0  502    0  0.00000000000E+00  0.00000000000E+00  0.16841704338E+02  0.16841704338E+02  0.00000000000E+00 0. -1.
          1   -1    0    0  501    0 -0.00000000000E+00 -0.00000000000E+00 -0.20462649895E+04  0.20462649895E+04  0.00000000000E+00 0. -1.
         25    2    1    2    0    0 -0.63397450933E+02 -0.31565472169E+02 -0.78254601465E+03  0.79562385575E+03  0.12499375571E+03 0.  0.
          2    1    1    2  501    0  0.14098172919E+02  0.68401611371E+02 -0.11537291670E+04  0.11558410486E+04  0.00000000000E+00 0. -1.
          1    1    1    2  502    0  0.49299278014E+02 -0.36836139202E+02 -0.93148103450E+02  0.11164178940E+03  0.00000000000E+00 0. -1.
         22    1    3    3    0    0 -0.11266224083E+02 -0.72329711007E+02 -0.31352514076E+03  0.32195734001E+03  0.00000000000E+00 0. -1.
         22    1    3    3    0    0 -0.52131226850E+02  0.40764238837E+02 -0.46902087390E+03  0.47366651574E+03  0.00000000000E+00 0. -1.
</event>
<event>
 7    1  0.5931885E-006  0.3693343E+02  0.7818608E-02  0.1550383E+00
          2   -1    0    0  502    0  0.00000000000E+00  0.00000000000E+00  0.10129634622E+04  0.10129634622E+04  0.00000000000E+00 0. -1.
          1   -1    0    0  501    0 -0.00000000000E+00 -0.00000000000E+00 -0.11442880132E+02  0.11442880132E+02  0.00000000000E+00 0. -1.
         25    2    1    2    0    0  0.30355451104E+01  0.37301471499E+02  0.54106826880E+03  0.55657936443E+03  0.12500041240E+03 0.  0.
          2    1    1    2  501    0 -0.30971228319E+02 -0.10768673050E+02  0.98161204727E+02  0.10349301144E+03  0.00000000000E+00 0. -1.
          1    1    1    2  502    0  0.27935683209E+02 -0.26532798448E+02  0.36229110853E+03  0.36433396645E+03  0.00000000000E+00 0. -1.
         22    1    3    3    0    0 -0.57999528201E+02  0.34533624573E+00  0.27945588231E+03  0.28541137799E+03  0.00000000000E+00 0. -1.
         22    1    3    3    0    0  0.61035073311E+02  0.36956135253E+02  0.26161238649E+03  0.27116798644E+03  0.00000000000E+00 0. -1.
</event>
<event>
 7    1  0.5931885E-006  0.9028368E+02  0.7818608E-02  0.1318654E+00
          2   -1    0    0  502    0  0.00000000000E+00  0.00000000000E+00  0.98980369966E+02  0.98980369966E+02  0.00000000000E+00 0. -1.
          1   -1    0    0  501    0 -0.00000000000E+00 -0.00000000000E+00 -0.16479326395E+04  0.16479326395E+04  0.00000000000E+00 0. -1.
         25    2    1    2    0    0 -0.18981452194E+02  0.78150370331E+02 -0.10986387362E+03  0.18483285033E+03  0.12500134369E+03 0.  0.
          2    1    1    2  501    0 -0.58423003250E+02 -0.70881298007E+02 -0.14739978528E+04  0.14768571616E+04  0.00000000000E+00 0. -1.
          1    1    1    2  502    0  0.77404455444E+02 -0.72690723234E+01  0.34909456857E+02  0.85222997560E+02  0.00000000000E+00 0. -1.
         22    1    3    3    0    0 -0.14630130638E+02  0.77651676592E+02 -0.42541036182E+01  0.79132300596E+02  0.00000000000E+00 0. -1.
         22    1    3    3    0    0 -0.43513215561E+01  0.49869373868E+00 -0.10560977000E+03  0.10570054974E+03  0.00000000000E+00 0. -1.
</event>
<event>
 7    1  0.5931885E-006  0.7929500E+02  0.7818608E-02  0.1334329E+00
          2   -1    0    0  502    0  0.00000000000E+00  0.00000000000E+00  0.19907646452E+03  0.19907646452E+03  0.00000000000E+00 0. -1.
          1   -1    0    0  501    0 -0.00000000000E+00 -0.00000000000E+00 -0.74249619262E+03  0.74249619262E+03  0.00000000000E+00 0. -1.
         25    2    1    2    0    0  0.49549541556E+02  0.11084615560E+03 -0.46830812080E+02  0.18044030039E+03  0.12499419893E+03 0.  0.
          2    1    1    2  501    0  0.19302398828E+02 -0.76241301624E+02 -0.61491625767E+03  0.61992525568E+03  0.00000000000E+00 0. -1.
          1    1    1    2  502    0 -0.68851940383E+02 -0.34604853974E+02  0.11832734165E+03  0.14120710108E+03  0.00000000000E+00 0. -1.
         22    1    3    3    0    0  0.74937831460E+02  0.20283703606E+02 -0.36607479687E+02  0.85832480944E+02  0.00000000000E+00 0. -1.
         22    1    3    3    0    0 -0.25388289905E+02  0.90562451992E+02 -0.10223332393E+02  0.94607819446E+02  0.00000000000E+00 0. -1.
</event>
<event>
 7    1  0.5931885E-006  0.1079458E+03  0.7818608E-02  0.1426462E+00
          2   -1    0    0  502    0  0.00000000000E+00  0.00000000000E+00  0.10735434348E+04  0.10735434348E+04  0.00000000000E+00 0. -1.
          1   -1    0    0  501    0 -0.00000000000E+00 -0.00000000000E+00 -0.77900538142E+03  0.77900538142E+03  0.00000000000E+00 0. -1.
         25    2    1    2    0    0 -0.93866479556E+02  0.81408511874E+02  0.19561201419E+03  0.26330177411E+03  0.12500200943E+03 0.  0.
          2    1    1    2  501    0  0.25807248878E+01 -0.26566016102E+02 -0.74156055596E+03  0.74204074788E+03  0.00000000000E+00 0. -1.
          1    1    1    2  502    0  0.91285754668E+02 -0.54842495771E+02  0.84048659518E+03  0.84720629426E+03  0.00000000000E+00 0. -1.
         22    1    3    3    0    0 -0.10951548166E+03  0.55161185694E+02  0.86683297247E+02  0.15016787656E+03  0.00000000000E+00 0. -1.
         22    1    3    3    0    0  0.15649002103E+02  0.26247326180E+02  0.10892871694E+03  0.11313389754E+03  0.00000000000E+00 0. -1.
</event>
<event>
 7    1  0.5931885E-006  0.1320112E+03  0.7818608E-02  0.1408830E+00
          2   -1    0    0  502    0  0.00000000000E+00  0.00000000000E+00  0.59466905299E+03  0.59466905299E+03  0.00000000000E+00 0. -1.
          1   -1    0    0  501    0 -0.00000000000E+00 -0.00000000000E+00 -0.31486742467E+03  0.31486742467E+03  0.00000000000E+00 0. -1.
         25    2    1    2    0    0  0.84642815656E+02  0.88602146699E+02  0.21795025790E+03  0.27953880406E+03  0.12499952566E+03 0.  0.
          2    1    1    2  501    0  0.24265247079E+02 -0.60438001146E+01 -0.26997496553E+03  0.27113061751E+03  0.00000000000E+00 0. -1.
          1    1    1    2  502    0 -0.10890806274E+03 -0.82558346584E+02  0.33182633595E+03  0.35886705610E+03  0.00000000000E+00 0. -1.
         22    1    3    3    0    0  0.10677191455E+03  0.34079383588E+02  0.17005849753E+03  0.20367017137E+03  0.00000000000E+00 0. -1.
         22    1    3    3    0    0 -0.22129098896E+02  0.54522763110E+02  0.47891760368E+02  0.75868632690E+02  0.00000000000E+00 0. -1.
</event>
<event>
 7    1  0.5931885E-006  0.6099828E+02  0.7818608E-02  0.1497724E+00
          2   -1    0    0  502    0  0.00000000000E+00  0.00000000000E+00  0.22308826066E+02  0.22308826066E+02  0.00000000000E+00 0. -1.
          1   -1    0    0  501    0 -0.00000000000E+00 -0.00000000000E+00 -0.20930124173E+04  0.20930124173E+04  0.00000000000E+00 0. -1.
         25    2    1    2    0    0  0.28884483838E+02 -0.37537008909E+02 -0.59653808532E+03  0.61133144398E+03  0.12500042684E+03 0.  0.
          2    1    1    2  501    0 -0.55640946299E+02  0.28687547847E+02 -0.14744778281E+04  0.14758061377E+04  0.00000000000E+00 0. -1.
          1    1    1    2  502    0  0.26756462461E+02  0.88494610614E+01  0.31232219745E+00  0.28183661750E+02  0.00000000000E+00 0. -1.
         22    1    3    3    0    0  0.89676179872E+01  0.45828474386E+02 -0.17193417471E+03  0.17816292451E+03  0.00000000000E+00 0.  1.
         22    1    3    3    0    0  0.19916865851E+02 -0.83365483294E+02 -0.42460391061E+03  0.43316851946E+03  0.00000000000E+00 0.  1.
</event>
<event>
 7    1  0.5931885E-006  0.1451083E+03  0.7818608E-02  0.1425092E+00
          2   -1    0    0  502    0  0.00000000000E+00  0.00000000000E+00  0.20356236005E+03  0.20356236005E+03  0.00000000000E+00 0. -1.
          1   -1    0    0  501    0 -0.00000000000E+00 -0.00000000000E+00 -0.35108600138E+03  0.35108600138E+03  0.00000000000E+00 0. -1.
         25    2    1    2    0    0  0.66460592022E+02 -0.11646517816E+03 -0.72917270625E+02  0.19728939961E+03  0.12500012331E+03 0.  0.
          2    1    1    2  501    0  0.19545509394E+02 -0.45323492366E+01 -0.17628661424E+03  0.17742474317E+03  0.00000000000E+00 0. -1.
          1    1    1    2  502    0 -0.86006101416E+02  0.12099752739E+03  0.10168024354E+03  0.17993421865E+03  0.00000000000E+00 0. -1.
         22    1    3    3    0    0  0.21088552858E+02 -0.13325376230E+03 -0.52112954744E+02  0.14462728747E+03  0.00000000000E+00 0. -1.
         22    1    3    3    0    0  0.45372039164E+02  0.16788584148E+02 -0.20804315880E+02  0.52662112138E+02  0.00000000000E+00 0. -1.
</event>
<event>
 7    1  0.5931885E-006  0.4533824E+02  0.7818608E-02  0.1535362E+00
          2   -1    0    0  502    0  0.00000000000E+00  0.00000000000E+00  0.95869029647E+03  0.95869029647E+03  0.00000000000E+00 0. -1.
          1   -1    0    0  501    0 -0.00000000000E+00 -0.00000000000E+00 -0.34586138527E+03  0.34586138527E+03  0.00000000000E+00 0. -1.
         25    2    1    2    0    0  0.45897003419E+02 -0.33326308901E+02 -0.92831404063E+02  0.16571111768E+03  0.12500130861E+03 0.  0.
          2    1    1    2  501    0 -0.44921870295E+02  0.38984301556E+01 -0.21400516195E+03  0.21870386720E+03  0.00000000000E+00 0. -1.
          1    1    1    2  502    0 -0.97513312441E+00  0.29427878746E+02  0.91966547721E+03  0.92013669685E+03  0.00000000000E+00 0. -1.
         22    1    3    3    0    0  0.14388390574E+02 -0.76611399653E+02 -0.30915120428E+02  0.83857480353E+02  0.00000000000E+00 0. -1.
         22    1    3    3    0    0  0.31508612846E+02  0.43285090752E+02 -0.61916283634E+02  0.81853637329E+02  0.00000000000E+00 0. -1.
</event>
<event>
 7    1  0.5931885E-006  0.6074706E+02  0.7818608E-02  0.1523714E+00
          2   -1    0    0  502    0  0.00000000000E+00  0.00000000000E+00  0.48732055767E+03  0.48732055767E+03  0.00000000000E+00 0. -1.
          1   -1    0    0  501    0 -0.00000000000E+00 -0.00000000000E+00 -0.12028930128E+04  0.12028930128E+04  0.00000000000E+00 0. -1.
         25    2    1    2    0    0  0.34684955962E+02 -0.72884794573E+02  0.43693016690E+02  0.15508016099E+03  0.12500214868E+03 0.  0.
          2    1    1    2  501    0 -0.15811983119E+02  0.58497290812E+02 -0.11460352959E+04  0.11476362016E+04  0.00000000000E+00 0. -1.
          1    1    1    2  502    0 -0.18872972843E+02  0.14387503761E+02  0.38676982402E+03  0.38749720791E+03  0.00000000000E+00 0. -1.
         22    1    3    3    0    0  0.31312316131E+01 -0.67624958075E+00 -0.39999371870E+02  0.40127442915E+02  0.00000000000E+00 0.  1.
         22    1    3    3    0    0  0.31553724349E+02 -0.72208544992E+02  0.83692388559E+02  0.11495271808E+03  0.00000000000E+00 0.  1.
</event>
<event>
 7    1  0.5931885E-006  0.8941102E+02  0.7818608E-02  0.1322570E+00
          2   -1    0    0  502    0  0.00000000000E+00  0.00000000000E+00  0.34397952515E+03  0.34397952515E+03  0.00000000000E+00 0. -1.
          1   -1    0    0  501    0 -0.00000000000E+00 -0.00000000000E+00 -0.16023267344E+03  0.16023267344E+03  0.00000000000E+00 0. -1.
         25    2    1    2    0    0  0.21515028489E+02 -0.19870303437E+01  0.57636284617E+02  0.13933322885E+03  0.12499985046E+03 0.  0.
          2    1    1    2  501    0 -0.91484468527E+01 -0.88941763487E+02 -0.91975667566E+02  0.12827258006E+03  0.00000000000E+00 0. -1.
          1    1    1    2  502    0 -0.12366581636E+02  0.90928793831E+02  0.21808623466E+03  0.23660638968E+03  0.00000000000E+00 0. -1.
         22    1    3    3    0    0 -0.47576313959E+02 -0.23764771933E+02  0.34049698974E+02  0.63147858516E+02  0.00000000000E+00 0. -1.
         22    1    3    3    0    0  0.69091342448E+02  0.21777741590E+02  0.23586585643E+02  0.76185370329E+02  0.00000000000E+00 0. -1.
</event>
<event>
 7    1  0.5931885E-006  0.8915312E+02  0.7818608E-02  0.1340492E+00
          2   -1    0    0  502    0  0.00000000000E+00  0.00000000000E+00  0.71933758199E+03  0.71933758199E+03  0.00000000000E+00 0. -1.
          1   -1    0    0  501    0 -0.00000000000E+00 -0.00000000000E+00 -0.11311801866E+03  0.11311801866E+03  0.00000000000E+00 0. -1.
         25    2    1    2    0    0 -0.81991185106E+02  0.23474347702E+02  0.25332628563E+03  0.29508167427E+03  0.12500155226E+03 0.  0.
          2    1    1    2  501    0 -0.30831881378E+01 -0.64888131803E+02 -0.74955096538E+02  0.99187913553E+02  0.00000000000E+00 0. -1.
          1    1    1    2  502    0  0.85074373244E+02  0.41413784101E+02  0.42784837424E+03  0.43818601283E+03  0.00000000000E+00 0. -1.
         22    1    3    3    0    0 -0.42493920869E+01 -0.33501845501E+02  0.13067507955E+02  0.36210367980E+02  0.00000000000E+00 0.  1.
         22    1    3    3    0    0 -0.77741793019E+02  0.56976193203E+02  0.24025877767E+03  0.25887130629E+03  0.00000000000E+00 0.  1.
</event>
<event>
 7    1  0.8395768E-006  0.7132983E+02  0.7818608E-02  0.1359735E+00
          2   -1    0    0  502    0  0.00000000000E+00  0.00000000000E+00  0.23200417427E+04  0.23200417427E+04  0.00000000000E+00 0. -1.
          1   -1    0    0  501    0 -0.00000000000E+00 -0.00000000000E+00 -0.18667240559E+04  0.18667240559E+04  0.00000000000E+00 0. -1.
         25    2    1    2    0    0  0.13120392131E+03  0.42731665723E+02 -0.11375767652E+03  0.21819253521E+03  0.12500683675E+03 0.  0.
          2    1    1    2  501    0 -0.68210782691E+02 -0.97342502173E+01 -0.16994932314E+04  0.17008893879E+04  0.00000000000E+00 0. -1.
          1    1    1    2  502    0 -0.62993138616E+02 -0.32997415506E+02  0.22665685946E+04  0.22676838755E+04  0.00000000000E+00 0. -1.
         22    1    3    3    0    0  0.19150039896E+02 -0.71594073676E+00  0.26998719425E+02  0.33108419620E+02  0.00000000000E+00 0. -1.
         22    1    3    3    0    0  0.11205388141E+03  0.43447606460E+02 -0.14075639594E+03  0.18508411559E+03  0.00000000000E+00 0. -1.
</event>
<event>
 7    1  0.5931885E-006  0.9383974E+02  0.7818608E-02  0.1381529E+00
          2   -1    0    0  502    0  0.00000000000E+00  0.00000000000E+00  0.41920448482E+03  0.41920448482E+03  0.00000000000E+00 0. -1.
          1   -1    0    0  501    0 -0.00000000000E+00 -0.00000000000E+00 -0.59976783788E+03  0.59976783788E+03  0.00000000000E+00 0. -1.
         25    2    1    2    0    0 -0.50250646696E+01  0.12982735852E+03 -0.10764944314E+03  0.20998426084E+03  0.12499837157E+03 0.  0.
          2    1    1    2  501    0 -0.17621814585E+02 -0.40028646661E+02 -0.43400851680E+03  0.43620661797E+03  0.00000000000E+00 0. -1.
          1    1    1    2  502    0  0.22646879255E+02 -0.89798711863E+02  0.36109460688E+03  0.37278144389E+03  0.00000000000E+00 0. -1.
         22    1    3    3    0    0 -0.35508250936E+02 -0.99408298498E+01 -0.16799119369E+02  0.40519950570E+02  0.00000000000E+00 0.  1.
         22    1    3    3    0    0  0.30483186267E+02  0.13976818837E+03 -0.90850323767E+02  0.16946431027E+03  0.00000000000E+00 0.  1.
</event>
<event>
 7    1  0.5931885E-006  0.1219827E+03  0.7818608E-02  0.1313705E+00
          2   -1    0    0  502    0  0.00000000000E+00  0.00000000000E+00  0.11495032270E+04  0.11495032270E+04  0.00000000000E+00 0. -1.
          1   -1    0    0  501    0 -0.00000000000E+00 -0.00000000000E+00 -0.37701049181E+03  0.37701049181E+03  0.00000000000E+00 0. -1.
         25    2    1    2    0    0  0.14482735021E+03 -0.54627787109E+02  0.32511511067E+03  0.38116097845E+03  0.12499879924E+03 0.  0.
          2    1    1    2  501    0 -0.12129540105E+03 -0.73745694901E+00 -0.33726140175E+03  0.35841089725E+03  0.00000000000E+00 0. -1.
          1    1    1    2  502    0 -0.23531949161E+02  0.55365244058E+02  0.78463902628E+03  0.78694184311E+03  0.00000000000E+00 0. -1.
         22    1    3    3    0    0  0.16570350408E+03 -0.53445724693E+02  0.26117919513E+03  0.31389276628E+03  0.00000000000E+00 0. -1.
         22    1    3    3    0    0 -0.20876153875E+02 -0.11820624152E+01  0.63935915543E+02  0.67268212169E+02  0.00000000000E+00 0. -1.
</event>
<event>
 7    1  0.5931885E-006  0.9919111E+02  0.7818608E-02  0.1410401E+00
          2   -1    0    0  502    0  0.00000000000E+00  0.00000000000E+00  0.13176833104E+04  0.13176833104E+04  0.00000000000E+00 0. -1.
          1   -1    0    0  501    0 -0.00000000000E+00 -0.00000000000E+00 -0.35928379282E+03  0.35928379282E+03  0.00000000000E+00 0. -1.
         25    2    1    2    0    0  0.37088486806E+02  0.81581754903E+02  0.51072972814E+03  0.53338632928E+03  0.12499992989E+03 0.  0.
          2    1    1    2  501    0  0.32410973417E+02 -0.55048119054E+01 -0.34383182790E+03  0.34539991319E+03  0.00000000000E+00 0. -1.
          1    1    1    2  502    0 -0.69499460223E+02 -0.76076942998E+02  0.79150161737E+03  0.79818086079E+03  0.00000000000E+00 0. -1.
         22    1    3    3    0    0  0.68255022497E+02  0.91960045323E+02  0.44997365219E+03  0.46431851750E+03  0.00000000000E+00 0. -1.
         22    1    3    3    0    0 -0.31166535691E+02 -0.10378290420E+02  0.60756075950E+02  0.69067811778E+02  0.00000000000E+00 0. -1.
</event>
<event>
 7    1  0.5931885E-006  0.2257926E+03  0.7818608E-02  0.1203471E+00
          2   -1    0    0  502    0  0.00000000000E+00  0.00000000000E+00  0.10161279370E+04  0.10161279370E+04  0.00000000000E+00 0. -1.
          1   -1    0    0  501    0 -0.00000000000E+00 -0.00000000000E+00 -0.51665504938E+03  0.51665504938E+03  0.00000000000E+00 0. -1.
         25    2    1    2    0    0 -0.22741932023E+03  0.11651508218E+03  0.25539606956E+03  0.38229341820E+03  0.12500317462E+03 0.  0.
          2    1    1    2  501    0  0.22376498062E+03 -0.20116543454E+02 -0.42167120028E+03  0.47778870123E+03  0.00000000000E+00 0. -1.
          1    1    1    2  502    0  0.36543396122E+01 -0.96398538726E+02  0.66574801829E+03  0.67270086690E+03  0.00000000000E+00 0. -1.
         22    1    3    3    0    0  0.87228308590E+01 -0.12121990737E+01  0.42076225247E+02  0.42987974316E+02  0.00000000000E+00 0.  1.
         22    1    3    3    0    0 -0.23614215109E+03  0.11772728125E+03  0.21331984431E+03  0.33930544389E+03  0.00000000000E+00 0.  1.
</event>
<event>
 7    1  0.5931885E-006  0.7692068E+02  0.7818608E-02  0.1341822E+00
          2   -1    0    0  502    0  0.00000000000E+00  0.00000000000E+00  0.46400638129E+03  0.46400638129E+03  0.00000000000E+00 0. -1.
          1   -1    0    0  501    0 -0.00000000000E+00 -0.00000000000E+00 -0.41002281926E+04  0.41002281926E+04  0.00000000000E+00 0. -1.
         25    2    1    2    0    0  0.17716563228E+02 -0.80307669409E+02 -0.25883256282E+03  0.29896882536E+03  0.12499945833E+03 0.  0.
          2    1    1    2  501    0  0.52863306946E+02  0.56675912240E+02 -0.38178116486E+04  0.38185982340E+04  0.00000000000E+00 0. -1.
          1    1    1    2  502    0 -0.70579870175E+02  0.23631757168E+02  0.44042240013E+03  0.44666751455E+03  0.00000000000E+00 0. -1.
         22    1    3    3    0    0  0.57487903868E+02 -0.38664347498E+02 -0.21700727127E+03  0.22779803915E+03  0.00000000000E+00 0. -1.
         22    1    3    3    0    0 -0.39771340639E+02 -0.41643321910E+02 -0.41825291553E+02  0.71170786208E+02  0.00000000000E+00 0. -1.
</event>
<event>
 7    1  0.5931885E-006  0.6082947E+02  0.7818608E-02  0.1484702E+00
          2   -1    0    0  502    0  0.00000000000E+00  0.00000000000E+00  0.34983537216E+03  0.34983537216E+03  0.00000000000E+00 0. -1.
          1   -1    0    0  501    0 -0.00000000000E+00 -0.00000000000E+00 -0.73179796030E+03  0.73179796030E+03  0.00000000000E+00 0. -1.
         25    2    1    2    0    0  0.47691379637E+02 -0.69473803292E+02 -0.15379800235E+03  0.21536129851E+03  0.12500234531E+03 0.  0.
          2    1    1    2  501    0 -0.10472571936E+01  0.30921472356E+02 -0.54390533549E+03  0.54478458878E+03  0.00000000000E+00 0. -1.
          1    1    1    2  502    0 -0.46644122443E+02  0.38552330936E+02  0.31574074970E+03  0.32148744517E+03  0.00000000000E+00 0. -1.
         22    1    3    3    0    0  0.17781344140E+02  0.12424238639E+02 -0.11984890114E+03  0.12179612888E+03  0.00000000000E+00 0.  1.
         22    1    3    3    0    0  0.29910035497E+02 -0.81898041930E+02 -0.33949101210E+02  0.93565169633E+02  0.00000000000E+00 0.  1.
</event>
<event>
 7    1  0.5931885E-006  0.1053247E+03  0.7818608E-02  0.1388930E+00
          2   -1    0    0  502    0  0.00000000000E+00  0.00000000000E+00  0.10646532509E+04  0.10646532509E+04  0.00000000000E+00 0. -1.
          1   -1    0    0  501    0 -0.00000000000E+00 -0.00000000000E+00 -0.22926265679E+03  0.22926265679E+03  0.00000000000E+00 0. -1.
         25    2    1    2    0    0  0.68684981743E+02  0.45358395876E+02  0.12181388135E+03  0.19297461247E+03  0.12500227428E+03 0.  0.
          2    1    1    2  501    0 -0.69949323401E+02 -0.82038023857E+02 -0.17827272407E+03  0.20833700907E+03  0.00000000000E+00 0. -1.
          1    1    1    2  502    0  0.12643416583E+01  0.36679627980E+02  0.89184943680E+03  0.89260428611E+03  0.00000000000E+00 0. -1.
         22    1    3    3    0    0  0.84266434737E+02  0.72556719397E+02  0.11673318797E+03  0.16122018089E+03  0.00000000000E+00 0. -1.
         22    1    3    3    0    0 -0.15581452995E+02 -0.27198323521E+02  0.50806933781E+01  0.31754431580E+02  0.00000000000E+00 0. -1.
</event>
<event>
 7    1  0.5931885E-006  0.1070736E+03  0.7818608E-02  0.1369498E+00
          2   -1    0    0  502    0  0.00000000000E+00  0.00000000000E+00  0.11333732172E+04  0.11333732172E+04  0.00000000000E+00 0. -1.
          1   -1    0    0  501    0 -0.00000000000E+00 -0.00000000000E+00 -0.29234675563E+03  0.29234675563E+03  0.00000000000E+00 0. -1.
         25    2    1    2    0    0 -0.11811909238E+03  0.39002464543E+02  0.61099963086E+02  0.18663056570E+03  0.12499780134E+03 0.  0.
          2    1    1    2  501    0  0.11541659175E+02 -0.40704754983E+02 -0.22478875527E+03  0.22873581152E+03  0.00000000000E+00 0. -1.
          1    1    1    2  502    0  0.10657743321E+03  0.17022904401E+01  0.10047152538E+04  0.10103535956E+04  0.00000000000E+00 0. -1.
         22    1    3    3    0    0 -0.10329019214E+03  0.72796729956E+02  0.75286940450E+02  0.14709300149E+03  0.00000000000E+00 0. -1.
         22    1    3    3    0    0 -0.14828900240E+02 -0.33794265413E+02 -0.14186977364E+02  0.39537564212E+02  0.00000000000E+00 0. -1.
</event>
<event>
 7    1  0.5931885E-006  0.6828703E+02  0.7818608E-02  0.1366905E+00
          2   -1    0    0  502    0  0.00000000000E+00  0.00000000000E+00  0.27925812797E+02  0.27925812797E+02  0.00000000000E+00 0. -1.
          1   -1    0    0  501    0 -0.00000000000E+00 -0.00000000000E+00 -0.13972200627E+04  0.13972200627E+04  0.00000000000E+00 0. -1.
         25    2    1    2    0    0 -0.17923526893E+02  0.36131779299E+02 -0.54968327686E+03  0.56515855058E+03  0.12500289655E+03 0.  0.
          2    1    1    2  501    0  0.79856082662E+02 -0.85809688357E+01 -0.77429803250E+03  0.77845235570E+03  0.00000000000E+00 0. -1.
          1    1    1    2  502    0 -0.61932555769E+02 -0.27550810463E+02 -0.45312940508E+02  0.81534969177E+02  0.00000000000E+00 0. -1.
         22    1    3    3    0    0  0.45298433173E+01  0.29636409735E+01  0.59727559867E+01  0.80607978746E+01  0.00000000000E+00 0.  1.
         22    1    3    3    0    0 -0.22453370210E+02  0.33168138325E+02 -0.55565603284E+03  0.55709775270E+03  0.00000000000E+00 0.  1.
</event>
<event>
 7    1  0.5931885E-006  0.1323010E+03  0.7818608E-02  0.1379497E+00
          2   -1    0    0  502    0  0.00000000000E+00  0.00000000000E+00  0.91078022968E+03  0.91078022968E+03  0.00000000000E+00 0. -1.
          1   -1    0    0  501    0 -0.00000000000E+00 -0.00000000000E+00 -0.88105922133E+03  0.88105922133E+03  0.00000000000E+00 0. -1.
         25    2    1    2    0    0  0.48165254166E+02  0.15566145472E+03 -0.72598481580E+03  0.75447345749E+03  0.12500346029E+03 0.  0.
          2    1    1    2  501    0 -0.14824933414E+02 -0.27837726137E+02 -0.13412490756E+03  0.13778319373E+03  0.00000000000E+00 0. -1.
          1    1    1    2  502    0 -0.33340320752E+02 -0.12782372859E+03  0.88983073171E+03  0.89958279979E+03  0.00000000000E+00 0. -1.
         22    1    3    3    0    0  0.83848733022E+02  0.11219574411E+03 -0.60581143433E+03  0.62179256106E+03  0.00000000000E+00 0. -1.
         22    1    3    3    0    0 -0.35683478856E+02  0.43465710617E+02 -0.12017338147E+03  0.13268089643E+03  0.00000000000E+00 0. -1.
</event>
<event>
 7    1  0.5931885E-006  0.8418061E+02  0.7818608E-02  0.1362058E+00
          2   -1    0    0  502    0  0.00000000000E+00  0.00000000000E+00  0.80576456849E+03  0.80576456849E+03  0.00000000000E+00 0. -1.
          1   -1    0    0  501    0 -0.00000000000E+00 -0.00000000000E+00 -0.83619793316E+03  0.83619793316E+03  0.00000000000E+00 0. -1.
         25    2    1    2    0    0  0.50584066664E+01  0.43122400440E+02  0.23863154809E+01  0.13234950240E+03  0.12500226952E+03 0.  0.
          2    1    1    2  501    0 -0.58917203652E+02 -0.62552806169E+02 -0.76770567041E+03  0.77249989438E+03  0.00000000000E+00 0. -1.
          1    1    1    2  502    0  0.53858796986E+02  0.19430405730E+02  0.73488599026E+03  0.73711310486E+03  0.00000000000E+00 0. -1.
         22    1    3    3    0    0 -0.15362088711E+02  0.36031976593E+02  0.59526043848E+02  0.71257610140E+02  0.00000000000E+00 0.  1.
         22    1    3    3    0    0  0.20420495377E+02  0.70904238463E+01 -0.57139728367E+02  0.61091892257E+02  0.00000000000E+00 0.  1.
</event>
<event>
 7    1  0.5931885E-006  0.4992462E+02  0.7818608E-02  0.1474235E+00
          2   -1    0    0  502    0  0.00000000000E+00  0.00000000000E+00  0.11527465168E+04  0.11527465168E+04  0.00000000000E+00 0. -1.
          1   -1    0    0  501    0 -0.00000000000E+00 -0.00000000000E+00 -0.47598668701E+02  0.47598668701E+02  0.00000000000E+00 0. -1.
         25    2    1    2    0    0 -0.10891112135E+02  0.23413228521E+02  0.35259856536E+03  0.37498979883E+03  0.12499922135E+03 0.  0.
          2    1    1    2  501    0  0.50044406025E+02 -0.12701745603E+02 -0.17288044263E+02  0.54448630746E+02  0.00000000000E+00 0. -1.
          1    1    1    2  502    0 -0.39153293890E+02 -0.10711482918E+02  0.76983732704E+03  0.77090675597E+03  0.00000000000E+00 0. -1.
         22    1    3    3    0    0  0.19834754420E+02 -0.44857383667E+02  0.97638955802E+02  0.10926558489E+03  0.00000000000E+00 0.  1.
         22    1    3    3    0    0 -0.30725866555E+02  0.68270612187E+02  0.25495960956E+03  0.26572421394E+03  0.00000000000E+00 0.  1.
</event>
<event>
 7    1  0.5931885E-006  0.4781117E+02  0.7818608E-02  0.1507493E+00
          2   -1    0    0  502    0  0.00000000000E+00  0.00000000000E+00  0.11577798499E+03  0.11577798499E+03  0.00000000000E+00 0. -1.
          1   -1    0    0  501    0 -0.00000000000E+00 -0.00000000000E+00 -0.23530973814E+03  0.23530973814E+03  0.00000000000E+00 0. -1.
         25    2    1    2    0    0 -0.29699416803E+02 -0.12192224761E+01 -0.90072525736E+02  0.15691221315E+03  0.12499936353E+03 0.  0.
          2    1    1    2  501    0 -0.57852334975E+01 -0.33127494242E+02 -0.10144757390E+03  0.10687614351E+03  0.00000000000E+00 0. -1.
          1    1    1    2  502    0  0.35484650301E+02  0.34346716719E+02  0.71988346490E+02  0.87299366474E+02  0.00000000000E+00 0. -1.
         22    1    3    3    0    0 -0.58516831067E+02 -0.46535079723E+02 -0.53706906909E+02  0.92055228057E+02  0.00000000000E+00 0.  1.
         22    1    3    3    0    0  0.28817414264E+02  0.45315857247E+02 -0.36365618828E+02  0.64856985095E+02  0.00000000000E+00 0.  1.
</event>
<event>
 7    1  0.5931885E-006  0.6337569E+02  0.7818608E-02  0.1479271E+00
          2   -1    0    0  502    0  0.00000000000E+00  0.00000000000E+00  0.92650296570E+03  0.92650296570E+03  0.00000000000E+00 0. -1.
          1   -1    0    0  501    0 -0.00000000000E+00 -0.00000000000E+00 -0.89475117668E+02  0.89475117668E+02  0.00000000000E+00 0. -1.
         25    2    1    2    0    0  0.33784357224E+02  0.53355614820E+02  0.26249581934E+02  0.14244683678E+03  0.12495541737E+03 0.  0.
          2    1    1    2  501    0 -0.29184831124E+02  0.10010985729E+02 -0.22277670564E+02  0.38056127086E+02  0.00000000000E+00 0. -1.
          1    1    1    2  502    0 -0.45995261004E+01 -0.63366600549E+02  0.83305593666E+03  0.83547511950E+03  0.00000000000E+00 0. -1.
         22    1    3    3    0    0 -0.34491328036E+02 -0.16393424918E+02  0.23427485002E+02  0.44802267172E+02  0.00000000000E+00 0.  1.
         22    1    3    3    0    0  0.68275685260E+02  0.69749039737E+02  0.28220969312E+01  0.97644569604E+02  0.00000000000E+00 0.  1.
</event>
<event>
 7    1  0.5931885E-006  0.2662870E+03  0.7818608E-02  0.1253924E+00
          2   -1    0    0  502    0  0.00000000000E+00  0.00000000000E+00  0.36799398165E+03  0.36799398165E+03  0.00000000000E+00 0. -1.
          1   -1    0    0  501    0 -0.00000000000E+00 -0.00000000000E+00 -0.56770270498E+03  0.56770270498E+03  0.00000000000E+00 0. -1.
         25    2    1    2    0    0 -0.25928982922E+03 -0.81323274738E+02  0.21519741315E+03  0.36848400009E+03  0.12500336453E+03 0.  0.
          2    1    1    2  501    0  0.23559945883E+03  0.12366748788E+03 -0.43876533574E+03  0.51314303309E+03  0.00000000000E+00 0. -1.
          1    1    1    2  502    0  0.23690370389E+02 -0.42344213139E+02  0.23859199265E+02  0.54069653458E+02  0.00000000000E+00 0. -1.
         22    1    3    3    0    0 -0.19551994052E+03 -0.11267798394E+02  0.18406726792E+03  0.26876712883E+03  0.00000000000E+00 0.  1.
         22    1    3    3    0    0 -0.63769888699E+02 -0.70055476344E+02  0.31130145228E+02  0.99716871253E+02  0.00000000000E+00 0.  1.
</event>
<event>
 7    1  0.5931885E-006  0.1322522E+03  0.7818608E-02  0.1363763E+00
          2   -1    0    0  502    0  0.00000000000E+00  0.00000000000E+00  0.56432580406E+03  0.56432580406E+03  0.00000000000E+00 0. -1.
          1   -1    0    0  501    0 -0.00000000000E+00 -0.00000000000E+00 -0.45525175446E+03  0.45525175446E+03  0.00000000000E+00 0. -1.
         25    2    1    2    0    0 -0.22484134901E+02  0.95988651655E+02  0.12941580705E+03  0.20516319650E+03  0.12499651401E+03 0.  0.
          2    1    1    2  501    0  0.33362075938E+02 -0.13023094878E+03 -0.40569530569E+03  0.42738952864E+03  0.00000000000E+00 0. -1.
          1    1    1    2  502    0 -0.10877941037E+02  0.34242297123E+02  0.38535354824E+03  0.38702483338E+03  0.00000000000E+00 0. -1.
         22    1    3    3    0    0  0.17069474142E+02  0.36218258150E+02 -0.15941643503E+02  0.43095999449E+02  0.00000000000E+00 0.  1.
         22    1    3    3    0    0 -0.39553609043E+02  0.59770393505E+02  0.14535745055E+03  0.16206719705E+03  0.00000000000E+00 0.  1.
</event>
<event>
 7    1  0.5931885E-006  0.3830508E+02  0.7818608E-02  0.1526447E+00
          2   -1    0    0  502    0  0.00000000000E+00  0.00000000000E+00  0.10864918050E+04  0.10864918050E+04  0.00000000000E+00 0. -1.
          1   -1    0    0  501    0 -0.00000000000E+00 -0.00000000000E+00 -0.22430694982E+04  0.22430694982E+04  0.00000000000E+00 0. -1.
         25    2    1    2    0    0  0.70956335138E+02 -0.22374546088E+02  0.11631846223E+03  0.18629004636E+03  0.12505428785E+03 0.  0.
          2    1    1    2  501    0 -0.36281534794E+02  0.70418932358E+01 -0.22075447006E+04  0.22078540584E+04  0.00000000000E+00 0. -1.
          1    1    1    2  502    0 -0.34674800344E+02  0.15332652853E+02  0.93464854523E+03  0.93541719843E+03  0.00000000000E+00 0. -1.
         22    1    3    3    0    0  0.88261481551E+02 -0.58071980991E+02  0.80260388931E+02  0.13268072254E+03  0.00000000000E+00 0. -1.
         22    1    3    3    0    0 -0.17305146413E+02  0.35697434902E+02  0.36058073299E+02  0.53609323826E+02  0.00000000000E+00 0. -1.
</event>
<event>
 7    1  0.5931885E-006  0.6486198E+02  0.7818608E-02  0.1400877E+00
          2   -1    0    0  502    0  0.00000000000E+00  0.00000000000E+00  0.32920640245E+03  0.32920640245E+03  0.00000000000E+00 0. -1.
          1   -1    0    0  501    0 -0.00000000000E+00 -0.00000000000E+00 -0.42218699378E+03  0.42218699378E+03  0.00000000000E+00 0. -1.
         25    2    1    2    0    0  0.48619205456E+02 -0.14626560288E+02 -0.18053228355E+02  0.13611843982E+03  0.12499818878E+03 0.  0.
          2    1    1    2  501    0 -0.53906478564E+02 -0.39293839763E+02 -0.33910239347E+03  0.34560142872E+03  0.00000000000E+00 0. -1.
          1    1    1    2  502    0  0.52872731083E+01  0.53920400051E+02  0.26417503050E+03  0.26967352769E+03  0.00000000000E+00 0. -1.
         22    1    3    3    0    0  0.64085510947E+02 -0.36767359133E+02  0.30998452991E+02  0.80123002307E+02  0.00000000000E+00 0.  1.
         22    1    3    3    0    0 -0.15466305491E+02  0.22140798844E+02 -0.49051681346E+02  0.55995437509E+02  0.00000000000E+00 0.  1.
</event>
<event>
 7    1  0.5931885E-006  0.1036034E+03  0.7818608E-02  0.1307986E+00
          2   -1    0    0  502    0  0.00000000000E+00  0.00000000000E+00  0.58659725619E+02  0.58659725619E+02  0.00000000000E+00 0. -1.
          1   -1    0    0  501    0 -0.00000000000E+00 -0.00000000000E+00 -0.24428649400E+04  0.24428649400E+04  0.00000000000E+00 0. -1.
         25    2    1    2    0    0  0.11785951611E+03  0.89239779636E+02 -0.90872886281E+03  0.92912303232E+03  0.12500743685E+03 0.  0.
          2    1    1    2  501    0 -0.74538704466E+02  0.29992973324E+01 -0.14683537121E+04  0.14702474751E+04  0.00000000000E+00 0. -1.
          1    1    1    2  502    0 -0.43320811642E+02 -0.92239076968E+02 -0.71226394675E+01  0.10215415818E+03  0.00000000000E+00 0. -1.
         22    1    3    3    0    0  0.41452127651E+02  0.71631991169E+02 -0.20554533817E+03  0.22158137803E+03  0.00000000000E+00 0. -1.
         22    1    3    3    0    0  0.76407388457E+02  0.17607788467E+02 -0.70318352464E+03  0.70754165429E+03  0.00000000000E+00 0. -1.
</event>
<event>
 7    1  0.5931885E-006  0.1126146E+03  0.7818608E-02  0.1275419E+00
          2   -1    0    0  502    0  0.00000000000E+00  0.00000000000E+00  0.82958417811E+03  0.82958417811E+03  0.00000000000E+00 0. -1.
          1   -1    0    0  501    0 -0.00000000000E+00 -0.00000000000E+00 -0.59439919722E+02  0.59439919722E+02  0.00000000000E+00 0. -1.
         25    2    1    2    0    0  0.42792280386E+02  0.47602636310E+02  0.20244686593E+03  0.24638685092E+03  0.12499822612E+03 0.  0.
          2    1    1    2  501    0  0.90761951142E+02 -0.20422643461E+02  0.46674397712E+02  0.10408321451E+03  0.00000000000E+00 0. -1.
          1    1    1    2  502    0 -0.13355423153E+03 -0.27179992849E+02  0.52102299474E+03  0.53855403240E+03  0.00000000000E+00 0. -1.
         22    1    3    3    0    0 -0.38195372113E+02 -0.10899743392E+02  0.70000892301E+02  0.80484879200E+02  0.00000000000E+00 0. -1.
         22    1    3    3    0    0  0.80987652498E+02  0.58502379702E+02  0.13244597363E+03  0.16590197172E+03  0.00000000000E+00 0. -1.
</event>
<event>
 7    1  0.5931885E-006  0.5780910E+02  0.7818608E-02  0.1408687E+00
          2   -1    0    0  502    0  0.00000000000E+00  0.00000000000E+00  0.10205480965E+03  0.10205480965E+03  0.00000000000E+00 0. -1.
          1   -1    0    0  501    0 -0.00000000000E+00 -0.00000000000E+00 -0.26085643359E+04  0.26085643359E+04  0.00000000000E+00 0. -1.
         25    2    1    2    0    0  0.42864453217E+01  0.25619266617E+01 -0.40297053047E+02  0.13142593592E+03  0.12499594820E+03 0.  0.
          2    1    1    2  501    0 -0.41557590406E+02  0.40786311245E+02 -0.25078142759E+04  0.25084901831E+04  0.00000000000E+00 0. -1.
          1    1    1    2  502    0  0.37271145084E+02 -0.43348237907E+02  0.41601802621E+02  0.70703026575E+02  0.00000000000E+00 0. -1.
         22    1    3    3    0    0  0.30082543728E+02 -0.47882537437E+02 -0.48094105277E+02  0.74234357214E+02  0.00000000000E+00 0. -1.
         22    1    3    3    0    0 -0.25796098406E+02  0.50444464099E+02  0.77970522298E+01  0.57191578704E+02  0.00000000000E+00 0. -1.
</event>
<event>
 7    1  0.5931885E-006  0.7827704E+02  0.7818608E-02  0.1354171E+00
          2   -1    0    0  502    0  0.00000000000E+00  0.00000000000E+00  0.13695521010E+04  0.13695521010E+04  0.00000000000E+00 0. -1.
          1   -1    0    0  501    0 -0.00000000000E+00 -0.00000000000E+00 -0.10706772095E+03  0.10706772095E+03  0.00000000000E+00 0. -1.
         25    2    1    2    0    0  0.34762988249E+02  0.22587610712E+02  0.25492742146E+03  0.28693464269E+03  0.12499933381E+03 0.  0.
          2    1    1    2  501    0 -0.26109618553E+02  0.60405215206E+02 -0.77360541102E+02  0.10156355412E+03  0.00000000000E+00 0. -1.
          1    1    1    2  502    0 -0.86533696963E+01 -0.82992825918E+02  0.10849174997E+04  0.10881216252E+04  0.00000000000E+00 0. -1.
         22    1    3    3    0    0 -0.39633170234E+02 -0.13707131977E+01  0.15543279537E+03  0.16041203482E+03  0.00000000000E+00 0.  1.
         22    1    3    3    0    0  0.74396158482E+02  0.23958323910E+02  0.99494626090E+02  0.12652260787E+03  0.00000000000E+00 0.  1.
</event>
<event>
 7    1  0.5931885E-006  0.8480330E+02  0.7818608E-02  0.1445034E+00
          2   -1    0    0  502    0  0.00000000000E+00  0.00000000000E+00  0.16021018015E+04  0.16021018015E+04  0.00000000000E+00 0. -1.
          1   -1    0    0  501    0 -0.00000000000E+00 -0.00000000000E+00 -0.43421839332E+03  0.43421839332E+03  0.00000000000E+00 0. -1.
         25    2    1    2    0    0 -0.80407501378E+02 -0.42816170545E+02  0.12613169830E+03  0.19957907126E+03  0.12499603846E+03 0.  0.
          2    1    1    2  501    0 -0.32690443481E+01  0.29365937984E+02 -0.39569576263E+03  0.39679740615E+03  0.00000000000E+00 0. -1.
          1    1    1    2  502    0  0.83676545726E+02  0.13450232561E+02  0.14374474725E+04  0.14399437174E+04  0.00000000000E+00 0. -1.
         22    1    3    3    0    0 -0.27106126330E+02  0.29902737094E+02 -0.47601915309E+01  0.40639576692E+02  0.00000000000E+00 0. -1.
         22    1    3    3    0    0 -0.53301375048E+02 -0.72718907638E+02  0.13089188983E+03  0.15893949457E+03  0.00000000000E+00 0. -1.
</event>
<event>
 7    1  0.5931885E-006  0.4222892E+02  0.7818608E-02  0.1544088E+00
          2   -1    0    0  502    0  0.00000000000E+00  0.00000000000E+00  0.13307851231E+04  0.13307851231E+04  0.00000000000E+00 0. -1.
          1   -1    0    0  501    0 -0.00000000000E+00 -0.00000000000E+00 -0.34648931102E+02  0.34648931102E+02  0.00000000000E+00 0. -1.
         25    2    1    2    0    0 -0.51216045719E+02  0.34791262784E+02  0.61733886580E+03  0.63290378346E+03  0.12500563423E+03 0.  0.
          2    1    1    2  501    0  0.10714433186E+02 -0.27877717540E+02 -0.17769782748E+02  0.34752430025E+02  0.00000000000E+00 0. -1.
          1    1    1    2  502    0  0.40501612533E+02 -0.69135452442E+01  0.69656710891E+03  0.69777784067E+03  0.00000000000E+00 0. -1.
         22    1    3    3    0    0  0.31575791803E+01  0.29045711431E+02  0.52337519221E+03  0.52419005664E+03  0.00000000000E+00 0.  1.
         22    1    3    3    0    0 -0.54373624899E+02  0.57455513526E+01  0.93963673583E+02  0.10871372682E+03  0.00000000000E+00 0.  1.
</event>
<event>
 7    1  0.5931885E-006  0.5481424E+03  0.7818608E-02  0.1264342E+00
          2   -1    0    0  502    0  0.00000000000E+00  0.00000000000E+00  0.17746405244E+04  0.17746405244E+04  0.00000000000E+00 0. -1.
          1   -1    0    0  501    0 -0.00000000000E+00 -0.00000000000E+00 -0.11400935668E+04  0.11400935668E+04  0.00000000000E+00 0. -1.
         25    2    1    2    0    0 -0.27897841113E+03  0.48071175765E+03  0.12715927614E+04  0.13933722585E+04  0.12500140821E+03 0.  0.
          2    1    1    2  501    0  0.29167801825E+03 -0.46364365994E+03 -0.10093753137E+04  0.11484250231E+04  0.00000000000E+00 0. -1.
          1    1    1    2  502    0 -0.12699607114E+02 -0.17068097717E+02  0.37232950994E+03  0.37293680960E+03  0.00000000000E+00 0. -1.
         22    1    3    3    0    0 -0.17885717902E+03  0.35488105031E+03  0.76797809122E+03  0.86470850519E+03  0.00000000000E+00 0.  1.
         22    1    3    3    0    0 -0.10012123211E+03  0.12583070735E+03  0.50361467017E+03  0.52866375329E+03  0.00000000000E+00 0.  1.
</event>
<event>
 7    1  0.5931885E-006  0.5274592E+02  0.7818608E-02  0.1455685E+00
          2   -1    0    0  502    0  0.00000000000E+00  0.00000000000E+00  0.78597539699E+03  0.78597539699E+03  0.00000000000E+00 0. -1.
          1   -1    0    0  501    0 -0.00000000000E+00 -0.00000000000E+00 -0.90566509259E+03  0.90566509259E+03  0.00000000000E+00 0. -1.
         25    2    1    2    0    0 -0.11981506078E+02  0.24288415652E+02  0.19673238917E+03  0.23465324002E+03  0.12500010592E+03 0.  0.
          2    1    1    2  501    0 -0.26250877954E+02 -0.45908091764E+02 -0.88506855431E+03  0.88664705905E+03  0.00000000000E+00 0. -1.
          1    1    1    2  502    0  0.38232384032E+02  0.21619676112E+02  0.56864646955E+03  0.57034019051E+03  0.00000000000E+00 0. -1.
         22    1    3    3    0    0  0.18661168604E+02 -0.46839360219E+02  0.74984630784E+02  0.90359613397E+02  0.00000000000E+00 0.  1.
         22    1    3    3    0    0 -0.30642674682E+02  0.71127775871E+02  0.12174775838E+03  0.14429362662E+03  0.00000000000E+00 0.  1.
</event>
<event>
 7    1  0.5931885E-006  0.1016559E+03  0.7818608E-02  0.1359691E+00
          2   -1    0    0  502    0  0.00000000000E+00  0.00000000000E+00  0.97709821476E+02  0.97709821476E+02  0.00000000000E+00 0. -1.
          1   -1    0    0  501    0 -0.00000000000E+00 -0.00000000000E+00 -0.50721890533E+03  0.50721890533E+03  0.00000000000E+00 0. -1.
         25    2    1    2    0    0 -0.21466193713E+02 -0.60531998703E+02 -0.11261947086E+03  0.18009418688E+03  0.12500340232E+03 0.  0.
          2    1    1    2  501    0  0.25089734539E+02  0.10876113522E+03 -0.34135214765E+03  0.35913753357E+03  0.00000000000E+00 0. -1.
          1    1    1    2  502    0 -0.36235408268E+01 -0.48229136515E+02  0.44462534652E+02  0.65697006361E+02  0.00000000000E+00 0. -1.
         22    1    3    3    0    0 -0.18306262229E+02  0.33295276092E+02 -0.63854358323E+02  0.74303928050E+02  0.00000000000E+00 0.  1.
         22    1    3    3    0    0 -0.31599314836E+01 -0.93827274795E+02 -0.48765112538E+02  0.10579025883E+03  0.00000000000E+00 0.  1.
</event>
<event>
 7    1  0.5931885E-006  0.1137031E+03  0.7818608E-02  0.1343539E+00
          2   -1    0    0  502    0  0.00000000000E+00  0.00000000000E+00  0.11346277564E+04  0.11346277564E+04  0.00000000000E+00 0. -1.
          1   -1    0    0  501    0 -0.00000000000E+00 -0.00000000000E+00 -0.36674231040E+03  0.36674231040E+03  0.00000000000E+00 0. -1.
         25    2    1    2    0    0  0.82933926647E+02  0.21118485447E+02  0.53569844825E+03  0.55670655363E+03  0.12500133114E+03 0.  0.
          2    1    1    2  501    0  0.49584171622E+02  0.16811647077E+01 -0.34676769637E+03  0.35029880337E+03  0.00000000000E+00 0. -1.
          1    1    1    2  502    0 -0.13251809827E+03 -0.22799650155E+02  0.57895469410E+03  0.59436470979E+03  0.00000000000E+00 0. -1.
         22    1    3    3    0    0  0.16560659041E+02 -0.45474940965E+02  0.28248458943E+03  0.28660036453E+03  0.00000000000E+00 0.  1.
         22    1    3    3    0    0  0.66373267606E+02  0.66593426412E+02  0.25321385881E+03  0.27010618910E+03  0.00000000000E+00 0.  1.
</event>
<event>
 7    1  0.5931885E-006  0.4179757E+02  0.7818608E-02  0.1520160E+00
          2   -1    0    0  502    0  0.00000000000E+00  0.00000000000E+00  0.25594230894E+03  0.25594230894E+03  0.00000000000E+00 0. -1.
          1   -1    0    0  501    0 -0.00000000000E+00 -0.00000000000E+00 -0.35887241126E+03  0.35887241126E+03  0.00000000000E+00 0. -1.
         25    2    1    2    0    0 -0.28202344446E+02 -0.12381318061E+02  0.17710769494E+03  0.21895275081E+03  0.12499800884E+03 0.  0.
          2    1    1    2  501    0 -0.20382138232E+02  0.28843274429E+02 -0.32544427065E+03  0.32735506615E+03  0.00000000000E+00 0. -1.
          1    1    1    2  502    0  0.48584482678E+02 -0.16461956368E+02  0.45406473390E+02  0.68506903231E+02  0.00000000000E+00 0. -1.
         22    1    3    3    0    0 -0.37301682535E+02 -0.15369589049E+01 -0.37688516022E+01  0.37523086294E+02  0.00000000000E+00 0. -1.
         22    1    3    3    0    0  0.90993380889E+01 -0.10844359156E+02  0.18087654654E+03  0.18142966452E+03  0.00000000000E+00 0. -1.
</event>
<event>
 7    1  0.5931885E-006  0.6971496E+02  0.7818608E-02  0.1414580E+00
          2   -1    0    0  502    0  0.00000000000E+00  0.00000000000E+00  0.10695517301E+04  0.10695517301E+04  0.00000000000E+00 0. -1.
          1   -1    0    0  501    0 -0.00000000000E+00 -0.00000000000E+00 -0.40852441944E+03  0.40852441944E+03  0.00000000000E+00 0. -1.
         25    2    1    2    0    0  0.54474927142E+02  0.18440046066E+02  0.27923901286E+03  0.31129899023E+03  0.12500032813E+03 0.  0.
          2    1    1    2  501    0  0.13369957939E+02 -0.43260653610E+02 -0.38949492220E+03  0.39211801074E+03  0.00000000000E+00 0. -1.
          1    1    1    2  502    0 -0.67844885082E+02  0.24820607545E+02  0.77128322001E+03  0.77465914856E+03  0.00000000000E+00 0. -1.
         22    1    3    3    0    0  0.69014641553E+02  0.54464842764E+02  0.24204025961E+03  0.25751296495E+03  0.00000000000E+00 0. -1.
         22    1    3    3    0    0 -0.14539714411E+02 -0.36024796698E+02  0.37198753248E+02  0.53786025281E+02  0.00000000000E+00 0. -1.
</event>
<event>
 7    1  0.5931885E-006  0.8581854E+02  0.7818608E-02  0.1360005E+00
          2   -1    0    0  502    0  0.00000000000E+00  0.00000000000E+00  0.81948603039E+03  0.81948603039E+03  0.00000000000E+00 0. -1.
          1   -1    0    0  501    0 -0.00000000000E+00 -0.00000000000E+00 -0.34985296799E+03  0.34985296799E+03  0.00000000000E+00 0. -1.
         25    2    1    2    0    0 -0.44358332136E+02 -0.66486850417E+02 -0.97728989282E+01  0.14868987054E+03  0.12500002056E+03 0.  0.
          2    1    1    2  501    0  0.84345956498E+02  0.25671205540E+02 -0.26231255142E+03  0.27673295034E+03  0.00000000000E+00 0. -1.
          1    1    1    2  502    0 -0.39987624362E+02  0.40815644878E+02  0.74171851275E+03  0.74391617749E+03  0.00000000000E+00 0. -1.
         22    1    3    3    0    0 -0.21301718058E+02 -0.10200610845E+02 -0.63364589232E+02  0.67623123430E+02  0.00000000000E+00 0. -1.
         22    1    3    3    0    0 -0.23056614078E+02 -0.56286239572E+02  0.53591690304E+02  0.81066747113E+02  0.00000000000E+00 0. -1.
</event>
<event>
 7    1  0.5931885E-006  0.4135569E+03  0.7818608E-02  0.1270547E+00
          2   -1    0    0  502    0  0.00000000000E+00  0.00000000000E+00  0.64291472041E+03  0.64291472041E+03  0.00000000000E+00 0. -1.
          1   -1    0    0  501    0 -0.00000000000E+00 -0.00000000000E+00 -0.12896106771E+04  0.12896106771E+04  0.00000000000E+00 0. -1.
         25    2    1    2    0    0  0.41088021526E+03 -0.35031109659E-01 -0.74552691260E+03  0.86038246674E+03  0.12500023662E+03 0.  0.
          2    1    1    2  501    0  0.21463594899E+01  0.26462144239E+02 -0.41303682661E+03  0.41388920265E+03  0.00000000000E+00 0. -1.
          1    1    1    2  502    0 -0.41302657475E+03 -0.26427113129E+02  0.51186778253E+03  0.65825372810E+03  0.00000000000E+00 0. -1.
         22    1    3    3    0    0  0.17652224351E+03 -0.33173904715E+02 -0.42952967052E+03  0.46557099165E+03  0.00000000000E+00 0.  1.
         22    1    3    3    0    0  0.23435797175E+03  0.33138873606E+02 -0.31599724208E+03  0.39481147510E+03  0.00000000000E+00 0.  1.
</event>
<event>
 7    1  0.5931885E-006  0.1858136E+03  0.7818608E-02  0.1231502E+00
          2   -1    0    0  502    0  0.00000000000E+00  0.00000000000E+00  0.59662476968E+03  0.59662476968E+03  0.00000000000E+00 0. -1.
          1   -1    0    0  501    0 -0.00000000000E+00 -0.00000000000E+00 -0.15082904707E+04  0.15082904707E+04  0.00000000000E+00 0. -1.
         25    2    1    2    0    0  0.89685374279E+01  0.16680102529E+03 -0.20744959366E+02  0.20966310828E+03  0.12500099573E+03 0.  0.
          2    1    1    2  501    0  0.87216250866E+02 -0.13673410218E+01 -0.13734215570E+04  0.13761886925E+04  0.00000000000E+00 0. -1.
          1    1    1    2  502    0 -0.96184788294E+02 -0.16543368427E+03  0.48250081543E+03  0.51906343955E+03  0.00000000000E+00 0. -1.
         22    1    3    3    0    0 -0.54386141739E+02  0.10696083672E+03 -0.24357715068E+02  0.12244088896E+03  0.00000000000E+00 0. -1.
         22    1    3    3    0    0  0.63354679167E+02  0.59840188570E+02  0.36127557017E+01  0.87222219326E+02  0.00000000000E+00 0. -1.
</event>
<event>
 7    1  0.5931885E-006  0.1272613E+03  0.7818608E-02  0.1376515E+00
          2   -1    0    0  502    0  0.00000000000E+00  0.00000000000E+00  0.54875290439E+03  0.54875290439E+03  0.00000000000E+00 0. -1.
          1   -1    0    0  501    0 -0.00000000000E+00 -0.00000000000E+00 -0.10274914818E+04  0.10274914818E+04  0.00000000000E+00 0. -1.
         25    2    1    2    0    0  0.28898863912E+02  0.14624124330E+03  0.94709688054E+02  0.21636779632E+03  0.12499381062E+03 0.  0.
          2    1    1    2  501    0 -0.25154317207E+02 -0.22272412354E+02 -0.95658032483E+03  0.95717016140E+03  0.00000000000E+00 0. -1.
          1    1    1    2  502    0 -0.37445467052E+01 -0.12396883095E+03  0.38313205933E+03  0.40270642851E+03  0.00000000000E+00 0. -1.
         22    1    3    3    0    0 -0.25163393852E+02  0.12879145692E+03  0.90492079105E+02  0.15940279843E+03  0.00000000000E+00 0.  1.
         22    1    3    3    0    0  0.54062257765E+02  0.17449786385E+02  0.42176089497E+01  0.56964997891E+02  0.00000000000E+00 0.  1.
</event>
<event>
 7    1  0.5931885E-006  0.2633759E+02  0.7818608E-02  0.1663404E+00
          2   -1    0    0  502    0  0.00000000000E+00  0.00000000000E+00  0.49922902222E+03  0.49922902222E+03  0.00000000000E+00 0. -1.
          1   -1    0    0  501    0 -0.00000000000E+00 -0.00000000000E+00 -0.12154739096E+03  0.12154739096E+03  0.00000000000E+00 0. -1.
         25    2    1    2    0    0 -0.33340157197E+02 -0.13774970503E+02  0.18402599350E+03  0.22536413554E+03  0.12498844511E+03 0.  0.
          2    1    1    2  501    0  0.12007729494E+02  0.23429554236E+02 -0.98684449838E+02  0.10213593990E+03  0.00000000000E+00 0. -1.
          1    1    1    2  502    0  0.21332427703E+02 -0.96545837330E+01  0.29234008760E+03  0.29327633773E+03  0.00000000000E+00 0. -1.
         22    1    3    3    0    0  0.18141158086E+02  0.16358185180E+02 -0.68619512136E+01  0.25372784899E+02  0.00000000000E+00 0. -1.
         22    1    3    3    0    0 -0.51481315282E+02 -0.30133155684E+02  0.19088794472E+03  0.19999135064E+03  0.00000000000E+00 0. -1.
</event>
<event>
 7    1  0.5931885E-006  0.5412552E+02  0.7818608E-02  0.1426955E+00
          2   -1    0    0  502    0  0.00000000000E+00  0.00000000000E+00  0.10487663250E+04  0.10487663250E+04  0.00000000000E+00 0. -1.
          1   -1    0    0  501    0 -0.00000000000E+00 -0.00000000000E+00 -0.49488242193E+02  0.49488242193E+02  0.00000000000E+00 0. -1.
         25    2    1    2    0    0 -0.34020610298E+02  0.85151688576E+01  0.42794341577E+03  0.44720356413E+03  0.12500220256E+03 0.  0.
          2    1    1    2  501    0  0.22933121221E+02  0.49026971930E+02 -0.19339672823E+02  0.57476908149E+02  0.00000000000E+00 0. -1.
          1    1    1    2  502    0  0.11087489077E+02 -0.57542140787E+02  0.59067433988E+03  0.59357409493E+03  0.00000000000E+00 0. -1.
         22    1    3    3    0    0 -0.68100509837E+02  0.42181450338E+01  0.12578582231E+03  0.14309977387E+03  0.00000000000E+00 0.  1.
         22    1    3    3    0    0  0.34079899539E+02  0.42970238238E+01  0.30215759345E+03  0.30410379026E+03  0.00000000000E+00 0.  1.
</event>
<event>
 7    1  0.5931885E-006  0.8116275E+02  0.7818608E-02  0.1386863E+00
          2   -1    0    0  502    0  0.00000000000E+00  0.00000000000E+00  0.25458319297E+04  0.25458319297E+04  0.00000000000E+00 0. -1.
          1   -1    0    0  501    0 -0.00000000000E+00 -0.00000000000E+00 -0.30100982623E+03  0.30100982623E+03  0.00000000000E+00 0. -1.
         25    2    1    2    0    0  0.67300257918E+02 -0.12664794184E+02  0.46312740858E+03  0.48456303167E+03  0.12499845341E+03 0.  0.
          2    1    1    2  501    0 -0.55514172143E+02  0.59636156228E+02 -0.28428575882E+03  0.29573076794E+03  0.00000000000E+00 0. -1.
          1    1    1    2  502    0 -0.11786085775E+02 -0.46971362044E+02  0.20659804537E+04  0.20665479563E+04  0.00000000000E+00 0. -1.
         22    1    3    3    0    0  0.21885811347E+01 -0.15838182119E+02 -0.86648698023E+00  0.16012142265E+02  0.00000000000E+00 0. -1.
         22    1    3    3    0    0  0.65111676783E+02  0.31733879354E+01  0.46399389556E+03  0.46855088940E+03  0.00000000000E+00 0. -1.
</event>
<event>
 7    1  0.5931885E-006  0.5614962E+02  0.7818608E-02  0.1489728E+00
          2   -1    0    0  502    0  0.00000000000E+00  0.00000000000E+00  0.47858247060E+03  0.47858247060E+03  0.00000000000E+00 0. -1.
          1   -1    0    0  501    0 -0.00000000000E+00 -0.00000000000E+00 -0.68287964071E+03  0.68287964071E+03  0.00000000000E+00 0. -1.
         25    2    1    2    0    0 -0.79071261847E+02  0.82170607823E+01  0.21931299767E+03  0.26466363952E+03  0.12501546544E+03 0.  0.
          2    1    1    2  501    0  0.26626293169E+02 -0.18390773874E+02 -0.65678518384E+03  0.65758190194E+03  0.00000000000E+00 0. -1.
          1    1    1    2  502    0  0.52444968678E+02  0.10173713092E+02  0.23317501605E+03  0.23921656985E+03  0.00000000000E+00 0. -1.
         22    1    3    3    0    0 -0.40737995685E+02  0.63735475434E+02  0.14967857396E+03  0.16770650143E+03  0.00000000000E+00 0.  1.
         22    1    3    3    0    0 -0.38333266162E+02 -0.55518414651E+02  0.69634423711E+02  0.96957138085E+02  0.00000000000E+00 0.  1.
</event>
<event>
 7    1  0.5931885E-006  0.8722697E+02  0.7818608E-02  0.1320872E+00
          2   -1    0    0  502    0  0.00000000000E+00  0.00000000000E+00  0.76514616086E+03  0.76514616086E+03  0.00000000000E+00 0. -1.
          1   -1    0    0  501    0 -0.00000000000E+00 -0.00000000000E+00 -0.41910242975E+03  0.41910242975E+03  0.00000000000E+00 0. -1.
         25    2    1    2    0    0  0.52396065339E+02 -0.51432509651E+01  0.96710862297E+01  0.13597907649E+03  0.12499991457E+03 0.  0.
          2    1    1    2  501    0 -0.68786428457E+00  0.78887017069E+02 -0.34859276454E+03  0.35740810023E+03  0.00000000000E+00 0. -1.
          1    1    1    2  502    0 -0.51708201054E+02 -0.73743766104E+02  0.68496540942E+03  0.69086141389E+03  0.00000000000E+00 0. -1.
         22    1    3    3    0    0 -0.10691412378E+02  0.46492409550E+02  0.23679789804E+02  0.53259580260E+02  0.00000000000E+00 0.  1.
         22    1    3    3    0    0  0.63087477716E+02 -0.51635660515E+02 -0.14008703574E+02  0.82719496234E+02  0.00000000000E+00 0.  1.
</event>
<event>
 7    1  0.5931885E-006  0.1263005E+03  0.7818608E-02  0.1287708E+00
          2   -1    0    0  502    0  0.00000000000E+00  0.00000000000E+00  0.11365635755E+03  0.11365635755E+03  0.00000000000E+00 0. -1.
          1   -1    0    0  501    0 -0.00000000000E+00 -0.00000000000E+00 -0.82252941801E+03  0.82252941801E+03  0.00000000000E+00 0. -1.
         25    2    1    2    0    0 -0.55951902861E+02 -0.81907283337E+02 -0.31360956893E+03  0.35187525226E+03  0.12500325170E+03 0.  0.
          2    1    1    2  501    0 -0.66580075776E+02  0.31876283278E+02 -0.43881208872E+03  0.44497758723E+03  0.00000000000E+00 0. -1.
          1    1    1    2  502    0  0.12253197864E+03  0.50031000059E+02  0.43548597193E+02  0.13933293607E+03  0.00000000000E+00 0. -1.
         22    1    3    3    0    0 -0.72571409361E+02 -0.32804322477E+02 -0.81134594915E+02  0.11369061316E+03  0.00000000000E+00 0.  1.
         22    1    3    3    0    0  0.16619506499E+02 -0.49102960860E+02 -0.23247497401E+03  0.23818463910E+03  0.00000000000E+00 0.  1.
</event>
<event>
 7    1  0.5931885E-006  0.1098734E+03  0.7818608E-02  0.1397527E+00
          2   -1    0    0  502    0  0.00000000000E+00  0.00000000000E+00  0.49265341001E+03  0.49265341001E+03  0.00000000000E+00 0. -1.
          1   -1    0    0  501    0 -0.00000000000E+00 -0.00000000000E+00 -0.17759714356E+03  0.17759714356E+03  0.00000000000E+00 0. -1.
         25    2    1    2    0    0 -0.82984856617E+02  0.10210499739E+02  0.56707921348E+02  0.16071970431E+03  0.12499717708E+03 0.  0.
          2    1    1    2  501    0  0.11572535677E+03 -0.12820789298E+02 -0.97686161828E+02  0.15198459478E+03  0.00000000000E+00 0. -1.
          1    1    1    2  502    0 -0.32740500151E+02  0.26102895598E+01  0.35603450693E+03  0.35754625448E+03  0.00000000000E+00 0. -1.
         22    1    3    3    0    0 -0.82106760182E+02  0.59225101675E+02  0.35149849073E+02  0.10716643423E+03  0.00000000000E+00 0. -1.
         22    1    3    3    0    0 -0.87809643487E+00 -0.49014601937E+02  0.21558072275E+02  0.53553270083E+02  0.00000000000E+00 0. -1.
</event>
<event>
 7    1  0.5931885E-006  0.6594548E+02  0.7818608E-02  0.1412970E+00
          2   -1    0    0  502    0  0.00000000000E+00  0.00000000000E+00  0.87545804129E+03  0.87545804129E+03  0.00000000000E+00 0. -1.
          1   -1    0    0  501    0 -0.00000000000E+00 -0.00000000000E+00 -0.95319316860E+02  0.95319316860E+02  0.00000000000E+00 0. -1.
         25    2    1    2    0    0 -0.81729020513E+02  0.48407414807E+02  0.46710249938E+03  0.49278164150E+03  0.12500436259E+03 0.  0.
          2    1    1    2  501    0  0.33858634771E+02 -0.56005230112E+02 -0.67715044918E+02  0.94171759338E+02  0.00000000000E+00 0. -1.
          1    1    1    2  502    0  0.47870385742E+02  0.75978153050E+01  0.38075126996E+03  0.38382395731E+03  0.00000000000E+00 0. -1.
         22    1    3    3    0    0 -0.10656786951E+02 -0.10046409499E+02  0.31265647263E+03  0.31299930883E+03  0.00000000000E+00 0.  1.
         22    1    3    3    0    0 -0.71072233561E+02  0.58453824306E+02  0.15444602676E+03  0.17978233267E+03  0.00000000000E+00 0.  1.
</event>
<event>
 7    1  0.5931885E-006  0.8745736E+02  0.7818608E-02  0.1366632E+00
          2   -1    0    0  502    0  0.00000000000E+00  0.00000000000E+00  0.12486230558E+04  0.12486230558E+04  0.00000000000E+00 0. -1.
          1   -1    0    0  501    0 -0.00000000000E+00 -0.00000000000E+00 -0.11337294425E+04  0.11337294425E+04  0.00000000000E+00 0. -1.
         25    2    1    2    0    0  0.10681332333E+03 -0.87916393300E+01  0.41201618742E+02  0.16973244262E+03  0.12500059891E+03 0.  0.
          2    1    1    2  501    0 -0.72278200359E+02  0.49056466087E+02 -0.10670628917E+04  0.10706324719E+04  0.00000000000E+00 0. -1.
          1    1    1    2  502    0 -0.34535122968E+02 -0.40264826757E+02  0.11407548862E+04  0.11419875838E+04  0.00000000000E+00 0. -1.
         22    1    3    3    0    0  0.35305760111E+02 -0.63647440051E+02  0.61929197423E+01  0.73046872465E+02  0.00000000000E+00 0. -1.
         22    1    3    3    0    0  0.71507563216E+02  0.54855800721E+02  0.35008699000E+02  0.96685570152E+02  0.00000000000E+00 0. -1.
</event>
<event>
 7    1  0.5931885E-006  0.6178549E+02  0.7818608E-02  0.1516263E+00
          2   -1    0    0  502    0  0.00000000000E+00  0.00000000000E+00  0.50410605497E+03  0.50410605497E+03  0.00000000000E+00 0. -1.
          1   -1    0    0  501    0 -0.00000000000E+00 -0.00000000000E+00 -0.35218638898E+03  0.35218638898E+03  0.00000000000E+00 0. -1.
         25    2    1    2    0    0  0.56739415301E+02 -0.38607502645E+02 -0.24151824795E+03  0.28047482811E+03  0.12500065841E+03 0.  0.
          2    1    1    2  501    0 -0.21370905329E+02 -0.12031211573E+02 -0.87529427110E+02  0.90900309442E+02  0.00000000000E+00 0. -1.
          1    1    1    2  502    0 -0.35368509972E+02  0.50638714217E+02  0.48096734105E+03  0.48491730639E+03  0.00000000000E+00 0. -1.
         22    1    3    3    0    0 -0.91048059415E+01 -0.68402984526E+02 -0.98966829328E+02  0.12064948856E+03  0.00000000000E+00 0. -1.
         22    1    3    3    0    0  0.65844221242E+02  0.29795481881E+02 -0.14255141862E+03  0.15982533955E+03  0.00000000000E+00 0. -1.
</event>
<event>
 7    1  0.5931885E-006  0.3802206E+03  0.7818608E-02  0.1164805E+00
          2   -1    0    0  502    0  0.00000000000E+00  0.00000000000E+00  0.27371396787E+03  0.27371396787E+03  0.00000000000E+00 0. -1.
          1   -1    0    0  501    0 -0.00000000000E+00 -0.00000000000E+00 -0.21500816239E+04  0.21500816239E+04  0.00000000000E+00 0. -1.
         25    2    1    2    0    0 -0.37643551375E+03  0.97708108392E+02 -0.10947122916E+04  0.11684480588E+04  0.12500117687E+03 0.  0.
          2    1    1    2  501    0  0.37669441892E+03 -0.95029800321E+01 -0.97367062596E+03  0.10440418956E+04  0.00000000000E+00 0. -1.
          1    1    1    2  502    0 -0.25890517290E+00 -0.88205128360E+02  0.19201526158E+03  0.21130563737E+03  0.00000000000E+00 0. -1.
         22    1    3    3    0    0 -0.28825352139E+03  0.10764934945E+03 -0.71309011115E+03  0.77664405081E+03  0.00000000000E+00 0.  1.
         22    1    3    3    0    0 -0.88181992362E+02 -0.99412410541E+01 -0.38162218048E+03  0.39180400800E+03  0.00000000000E+00 0.  1.
</event>
<event>
 7    1  0.5931885E-006  0.1101866E+03  0.7818608E-02  0.1276590E+00
          2   -1    0    0  502    0  0.00000000000E+00  0.00000000000E+00  0.22500398786E+04  0.22500398786E+04  0.00000000000E+00 0. -1.
          1   -1    0    0  501    0 -0.00000000000E+00 -0.00000000000E+00 -0.75396432751E+03  0.75396432751E+03  0.00000000000E+00 0. -1.
         25    2    1    2    0    0  0.11493512887E+03  0.10052173439E+03  0.79580256652E+02  0.21277550908E+03  0.12500278829E+03 0.  0.
          2    1    1    2  501    0 -0.21194216244E+02 -0.10776817591E+03 -0.68191988025E+03  0.69070825796E+03  0.00000000000E+00 0. -1.
          1    1    1    2  502    0 -0.93740912625E+02  0.72464415116E+01  0.20984151747E+04  0.21005204391E+04  0.00000000000E+00 0. -1.
         22    1    3    3    0    0  0.26551209891E+02  0.57015847130E+01 -0.31838219549E+02  0.41846708819E+02  0.00000000000E+00 0. -1.
         22    1    3    3    0    0  0.88383918978E+02  0.94820149681E+02  0.11141847620E+03  0.17092880026E+03  0.00000000000E+00 0. -1.
</event>
<event>
 7    1  0.5931885E-006  0.1022657E+03  0.7818608E-02  0.1366210E+00
          2   -1    0    0  502    0  0.00000000000E+00  0.00000000000E+00  0.14432178435E+03  0.14432178435E+03  0.00000000000E+00 0. -1.
          1   -1    0    0  501    0 -0.00000000000E+00 -0.00000000000E+00 -0.23098876147E+04  0.23098876147E+04  0.00000000000E+00 0. -1.
         25    2    1    2    0    0 -0.90194950803E+02 -0.70704200709E+02 -0.65399425739E+03  0.67562451663E+03  0.12500314242E+03 0.  0.
          2    1    1    2  501    0  0.41353914811E+02 -0.19035895377E+02 -0.16251654810E+04  0.16258029869E+04  0.00000000000E+00 0. -1.
          1    1    1    2  502    0  0.48841035993E+02  0.89740096085E+02  0.11359390807E+03  0.15278189550E+03  0.00000000000E+00 0. -1.
         22    1    3    3    0    0 -0.78491108883E+01  0.38556781453E+01  0.30456428200E+01  0.92601693226E+01  0.00000000000E+00 0. -1.
         22    1    3    3    0    0 -0.82345839915E+02 -0.74559878854E+02 -0.65703990021E+03  0.66636434730E+03  0.00000000000E+00 0. -1.
</event>
<event>
 7    1  0.5931885E-006  0.1187821E+03  0.7818608E-02  0.1328245E+00
          2   -1    0    0  502    0  0.00000000000E+00  0.00000000000E+00  0.16742771268E+04  0.16742771268E+04  0.00000000000E+00 0. -1.
          1   -1    0    0  501    0 -0.00000000000E+00 -0.00000000000E+00 -0.18333002974E+03  0.18333002974E+03  0.00000000000E+00 0. -1.
         25    2    1    2    0    0 -0.66400478556E+02 -0.66100973856E+01 -0.91953587737E+02  0.16892222674E+03  0.12500615764E+03 0.  0.
          2    1    1    2  501    0 -0.53203670349E+02  0.10678472756E+02 -0.36159024085E+02  0.65208399319E+02  0.00000000000E+00 0. -1.
          1    1    1    2  502    0  0.11960414890E+03 -0.40683753700E+01  0.16190597089E+04  0.16234765305E+04  0.00000000000E+00 0. -1.
         22    1    3    3    0    0  0.10317399714E+02  0.25390305802E+02 -0.80469198601E+02  0.85008283650E+02  0.00000000000E+00 0.  1.
         22    1    3    3    0    0 -0.76717878270E+02 -0.32000403188E+02 -0.11484389136E+02  0.83913943086E+02  0.00000000000E+00 0.  1.
</event>
<event>
 7    1  0.5931885E-006  0.8687968E+02  0.7818608E-02  0.1428715E+00
          2   -1    0    0  502    0  0.00000000000E+00  0.00000000000E+00  0.89374922750E+03  0.89374922750E+03  0.00000000000E+00 0. -1.
          1   -1    0    0  501    0 -0.00000000000E+00 -0.00000000000E+00 -0.19247380070E+04  0.19247380070E+04  0.00000000000E+00 0. -1.
         25    2    1    2    0    0 -0.61113875262E+02 -0.30517151087E+02  0.42175209815E+02  0.14855972693E+03  0.12500016753E+03 0.  0.
          2    1    1    2  501    0  0.60069129644E+02  0.63099935408E+02 -0.18701985139E+04  0.18722265844E+04  0.00000000000E+00 0. -1.
          1    1    1    2  502    0  0.10447456178E+01 -0.32582784321E+02  0.79703452458E+03  0.79770092310E+03  0.00000000000E+00 0. -1.
         22    1    3    3    0    0 -0.14422237933E+02  0.39112903107E+02 -0.17955051954E+02  0.45389470443E+02  0.00000000000E+00 0. -1.
         22    1    3    3    0    0 -0.46691637329E+02 -0.69630054194E+02  0.60130261768E+02  0.10317025649E+03  0.00000000000E+00 0. -1.
</event>
<event>
 7    1  0.5931885E-006  0.9900426E+02  0.7818608E-02  0.1301860E+00
          2   -1    0    0  502    0  0.00000000000E+00  0.00000000000E+00  0.13193238945E+04  0.13193238945E+04  0.00000000000E+00 0. -1.
          1   -1    0    0  501    0 -0.00000000000E+00 -0.00000000000E+00 -0.42047247606E+03  0.42047247606E+03  0.00000000000E+00 0. -1.
         25    2    1    2    0    0  0.50218107220E+02  0.12922949156E+03 -0.83302232437E+02  0.20441651343E+03  0.12499891701E+03 0.  0.
          2    1    1    2  501    0  0.32871620677E+02 -0.75737143772E+02 -0.26845948915E+03  0.28086857373E+03  0.00000000000E+00 0. -1.
          1    1    1    2  502    0 -0.83089727896E+02 -0.53492347788E+02  0.12506131400E+04  0.12545112834E+04  0.00000000000E+00 0. -1.
         22    1    3    3    0    0  0.74942869359E+02  0.43646780822E+02 -0.67995097755E+01  0.86992577137E+02  0.00000000000E+00 0. -1.
         22    1    3    3    0    0 -0.24724762139E+02  0.85582710739E+02 -0.76502722661E+02  0.11742393629E+03  0.00000000000E+00 0. -1.
</event>
<event>
 7    1  0.5931885E-006  0.1127778E+03  0.7818608E-02  0.1263236E+00
          2   -1    0    0  502    0  0.00000000000E+00  0.00000000000E+00  0.17111101472E+04  0.17111101472E+04  0.00000000000E+00 0. -1.
          1   -1    0    0  501    0 -0.00000000000E+00 -0.00000000000E+00 -0.43333722484E+03  0.43333722484E+03  0.00000000000E+00 0. -1.
         25    2    1    2    0    0  0.12813333209E+02 -0.65124830281E+02  0.27001391811E+03  0.30484208762E+03  0.12496302409E+03 0.  0.
          2    1    1    2  501    0 -0.11117562550E+03  0.29765443167E+02 -0.40599487109E+03  0.42199269741E+03  0.00000000000E+00 0. -1.
          1    1    1    2  502    0  0.98362292296E+02  0.35359387114E+02  0.14137538753E+04  0.14176125870E+04  0.00000000000E+00 0. -1.
         22    1    3    3    0    0  0.69074162636E+02 -0.32994368901E+02  0.15337351260E+03  0.17141558474E+03  0.00000000000E+00 0.  1.
         22    1    3    3    0    0 -0.56260829427E+02 -0.32130461380E+02  0.11664040550E+03  0.13342650289E+03  0.00000000000E+00 0.  1.
</event>
<event>
 7    1  0.5931885E-006  0.4833759E+02  0.7818608E-02  0.1461292E+00
          2   -1    0    0  502    0  0.00000000000E+00  0.00000000000E+00  0.38978260770E+04  0.38978260770E+04  0.00000000000E+00 0. -1.
          1   -1    0    0  501    0 -0.00000000000E+00 -0.00000000000E+00 -0.18673430538E+02  0.18673430538E+02  0.00000000000E+00 0. -1.
         25    2    1    2    0    0 -0.88171118179E+01 -0.22036547398E+02  0.67386109800E+03  0.68576822275E+03  0.12500370014E+03 0.  0.
          2    1    1    2  501    0 -0.38970238691E+02  0.29309236145E+02  0.34883403048E+02  0.59954671505E+02  0.00000000000E+00 0. -1.
          1    1    1    2  502    0  0.47787350509E+02 -0.72726887472E+01  0.31704081454E+04  0.31707766133E+04  0.00000000000E+00 0. -1.
         22    1    3    3    0    0  0.32998316488E+02  0.20319194132E+02  0.50933581286E+03  0.51080791772E+03  0.00000000000E+00 0.  1.
         22    1    3    3    0    0 -0.41815428305E+02 -0.42355741531E+02  0.16452528514E+03  0.17496030503E+03  0.00000000000E+00 0.  1.
</event>
<event>
 7    1  0.5931885E-006  0.1144700E+03  0.7818608E-02  0.1254047E+00
          2   -1    0    0  502    0  0.00000000000E+00  0.00000000000E+00  0.42651344422E+03  0.42651344422E+03  0.00000000000E+00 0. -1.
          1   -1    0    0  501    0 -0.00000000000E+00 -0.00000000000E+00 -0.42772813892E+03  0.42772813892E+03  0.00000000000E+00 0. -1.
         25    2    1    2    0    0  0.11156103115E+02 -0.13880006967E+02 -0.25091354186E+03  0.28088943391E+03  0.12499662139E+03 0.  0.
          2    1    1    2  501    0 -0.69371578883E+02 -0.88862168858E+02 -0.13212549440E+03  0.17368375653E+03  0.00000000000E+00 0. -1.
          1    1    1    2  502    0  0.58215475769E+02  0.10274217582E+03  0.38182434157E+03  0.39966839270E+03  0.00000000000E+00 0. -1.
         22    1    3    3    0    0  0.28269596244E+02 -0.41862805898E+02 -0.32587861272E+02  0.60113503406E+02  0.00000000000E+00 0.  1.
         22    1    3    3    0    0 -0.17113493129E+02  0.27982798931E+02 -0.21832568059E+03  0.22077593050E+03  0.00000000000E+00 0.  1.
</event>
<event>
 7    1  0.5931885E-006  0.7986765E+02  0.7818608E-02  0.1413544E+00
          2   -1    0    0  502    0  0.00000000000E+00  0.00000000000E+00  0.72625717341E+03  0.72625717341E+03  0.00000000000E+00 0. -1.
          1   -1    0    0  501    0 -0.00000000000E+00 -0.00000000000E+00 -0.23696202890E+04  0.23696202890E+04  0.00000000000E+00 0. -1.
         25    2    1    2    0    0  0.10384243500E+03 -0.54143088717E+02  0.92932055447E+02  0.19487679902E+03  0.12500349796E+03 0.  0.
          2    1    1    2  501    0 -0.37733969657E+02  0.12789884898E+02 -0.23158655158E+04  0.23162082206E+04  0.00000000000E+00 0. -1.
          1    1    1    2  502    0 -0.66108465346E+02  0.41353203818E+02  0.57957034477E+03  0.58479244284E+03  0.00000000000E+00 0. -1.
         22    1    3    3    0    0  0.37644807879E+02 -0.88790192339E+02  0.48536255913E+02  0.10796572583E+03  0.00000000000E+00 0.  1.
         22    1    3    3    0    0  0.66197627124E+02  0.34647103623E+02  0.44395799533E+02  0.86911073187E+02  0.00000000000E+00 0.  1.
</event>
<event>
 7    1  0.5931885E-006  0.6043005E+02  0.7818608E-02  0.1489369E+00
          2   -1    0    0  502    0  0.00000000000E+00  0.00000000000E+00  0.88517266075E+02  0.88517266075E+02  0.00000000000E+00 0. -1.
          1   -1    0    0  501    0 -0.00000000000E+00 -0.00000000000E+00 -0.62613084969E+03  0.62613084969E+03  0.00000000000E+00 0. -1.
         25    2    1    2    0    0  0.42668008474E+02 -0.11493682915E+02 -0.17659171173E+03  0.22082835933E+03  0.12501147124E+03 0.  0.
          2    1    1    2  501    0 -0.61382090250E+02 -0.12136916037E+02 -0.42156740153E+03  0.42618556964E+03  0.00000000000E+00 0. -1.
          1    1    1    2  502    0  0.18714081776E+02  0.23630598952E+02  0.60545529642E+02  0.67634186794E+02  0.00000000000E+00 0. -1.
         22    1    3    3    0    0  0.85068497746E+01  0.16492541797E+02  0.15218898290E+02  0.23999693606E+02  0.00000000000E+00 0. -1.
         22    1    3    3    0    0  0.34161158699E+02 -0.27986224712E+02 -0.19181061002E+03  0.19682866573E+03  0.00000000000E+00 0. -1.
</event>
<event>
 7    1  0.5931885E-006  0.1083979E+03  0.7818608E-02  0.1313554E+00
          2   -1    0    0  502    0  0.00000000000E+00  0.00000000000E+00  0.54247402765E+03  0.54247402765E+03  0.00000000000E+00 0. -1.
          1   -1    0    0  501    0 -0.00000000000E+00 -0.00000000000E+00 -0.62202764764E+03  0.62202764764E+03  0.00000000000E+00 0. -1.
         25    2    1    2    0    0  0.66487154898E+02  0.11262167441E+03 -0.37969118007E+02  0.18485373879E+03  0.12500027004E+03 0.  0.
          2    1    1    2  501    0  0.28746368655E+02 -0.61393798588E+02 -0.50207495106E+03  0.50663084065E+03  0.00000000000E+00 0. -1.
          1    1    1    2  502    0 -0.95233523553E+02 -0.51227875817E+02  0.46049044908E+03  0.47301709584E+03  0.00000000000E+00 0. -1.
         22    1    3    3    0    0  0.33916446522E+02  0.47492498270E+02  0.45561408107E+02  0.74038534867E+02  0.00000000000E+00 0. -1.
         22    1    3    3    0    0  0.32570708376E+02  0.65129176136E+02 -0.83530526114E+02  0.11081520393E+03  0.00000000000E+00 0. -1.
</event>
<event>
 7    1  0.5931885E-006  0.7610847E+02  0.7818608E-02  0.1415828E+00
          2   -1    0    0  502    0  0.00000000000E+00  0.00000000000E+00  0.82319301528E+03  0.82319301528E+03  0.00000000000E+00 0. -1.
          1   -1    0    0  501    0 -0.00000000000E+00 -0.00000000000E+00 -0.23656096584E+03  0.23656096584E+03  0.00000000000E+00 0. -1.
         25    2    1    2    0    0  0.39267685011E+02  0.53389523576E+01  0.15653414405E+00  0.13113392515E+03  0.12500250527E+03 0.  0.
          2    1    1    2  501    0  0.30837036200E+02  0.27136928245E+02 -0.16660115738E+03  0.17159044646E+03  0.00000000000E+00 0. -1.
          1    1    1    2  502    0 -0.70104721211E+02 -0.32475880603E+02  0.75307667268E+03  0.75702960952E+03  0.00000000000E+00 0. -1.
         22    1    3    3    0    0 -0.13121325986E+02  0.45326509376E+02  0.32917334476E+02  0.57534446698E+02  0.00000000000E+00 0. -1.
         22    1    3    3    0    0  0.52389010997E+02 -0.39987557018E+02 -0.32760800332E+02  0.73599478449E+02  0.00000000000E+00 0. -1.
</event>
<event>
 7    1  0.5931885E-006  0.1204474E+03  0.7818608E-02  0.1277015E+00
          2   -1    0    0  502    0  0.00000000000E+00  0.00000000000E+00  0.71818156443E+03  0.71818156443E+03  0.00000000000E+00 0. -1.
          1   -1    0    0  501    0 -0.00000000000E+00 -0.00000000000E+00 -0.83128607304E+03  0.83128607304E+03  0.00000000000E+00 0. -1.
         25    2    1    2    0    0  0.10205709646E+03  0.16042499039E+03  0.68068767585E+02  0.23750949594E+03  0.12500230022E+03 0.  0.
          2    1    1    2  501    0 -0.29538776291E+02 -0.11482805436E+03 -0.73856541600E+03  0.74802198837E+03  0.00000000000E+00 0. -1.
          1    1    1    2  502    0 -0.72518320165E+02 -0.45596936026E+02  0.55739213980E+03  0.56393615316E+03  0.00000000000E+00 0. -1.
         22    1    3    3    0    0  0.33976254715E+02  0.11150678220E+03 -0.17318351675E+02  0.11784767145E+03  0.00000000000E+00 0.  1.
         22    1    3    3    0    0  0.68080841742E+02  0.48918208190E+02  0.85387119260E+02  0.11966182449E+03  0.00000000000E+00 0.  1.
</event>
<event>
 7    1  0.5931885E-006  0.1346159E+03  0.7818608E-02  0.1263840E+00
          2   -1    0    0  502    0  0.00000000000E+00  0.00000000000E+00  0.15960922236E+04  0.15960922236E+04  0.00000000000E+00 0. -1.
          1   -1    0    0  501    0 -0.00000000000E+00 -0.00000000000E+00 -0.12901484236E+03  0.12901484236E+03  0.00000000000E+00 0. -1.
         25    2    1    2    0    0  0.32841276023E+02 -0.15911418552E+03  0.88905994235E+03  0.91238535488E+03  0.12499432489E+03 0.  0.
          2    1    1    2  501    0 -0.77768060385E+02  0.39118833253E+02 -0.94280008531E+02  0.12832331955E+03  0.00000000000E+00 0. -1.
          1    1    1    2  502    0  0.44926784362E+02  0.11999535227E+03  0.67229744747E+03  0.68439839158E+03  0.00000000000E+00 0. -1.
         22    1    3    3    0    0  0.20154847137E+02 -0.17704562638E+03  0.83907844462E+03  0.85779018875E+03  0.00000000000E+00 0.  1.
         22    1    3    3    0    0  0.12686428886E+02  0.17931440862E+02  0.49981497733E+02  0.54595166132E+02  0.00000000000E+00 0.  1.
</event>
<event>
 7    1  0.5931885E-006  0.1224411E+03  0.7818608E-02  0.1347599E+00
          2   -1    0    0  502    0  0.00000000000E+00  0.00000000000E+00  0.27917865927E+04  0.27917865927E+04  0.00000000000E+00 0. -1.
          1   -1    0    0  501    0 -0.00000000000E+00 -0.00000000000E+00 -0.13545687861E+03  0.13545687861E+03  0.00000000000E+00 0. -1.
         25    2    1    2    0    0  0.89253750107E+02 -0.12174357037E+03  0.18677174818E+04  0.18779727002E+04  0.12500056777E+03 0.  0.
          2    1    1    2  501    0 -0.94288496854E+02  0.77536347997E+02 -0.10106519815E+03  0.15848148213E+03  0.00000000000E+00 0. -1.
          1    1    1    2  502    0  0.50347467470E+01  0.44207222370E+02  0.88967743040E+03  0.89078928897E+03  0.00000000000E+00 0. -1.
         22    1    3    3    0    0 -0.87623371865E+01 -0.49456105000E+02  0.10535483281E+04  0.10547448813E+04  0.00000000000E+00 0. -1.
         22    1    3    3    0    0  0.98016087293E+02 -0.72287465367E+02  0.81416915368E+03  0.82322781891E+03  0.00000000000E+00 0. -1.
</event>
<event>
 7    1  0.5931885E-006  0.9211463E+02  0.7818608E-02  0.1363628E+00
          2   -1    0    0  502    0  0.00000000000E+00  0.00000000000E+00  0.28592522064E+04  0.28592522064E+04  0.00000000000E+00 0. -1.
          1   -1    0    0  501    0 -0.00000000000E+00 -0.00000000000E+00 -0.22983906582E+02  0.22983906582E+02  0.00000000000E+00 0. -1.
         25    2    1    2    0    0  0.79740374960E+02 -0.11210657190E+03  0.11751235679E+04  0.11897338446E+04  0.12499924128E+03 0.  0.
          2    1    1    2  501    0 -0.58209114805E+02  0.65167271538E+02  0.10992360759E+03  0.14042177122E+03  0.00000000000E+00 0. -1.
          1    1    1    2  502    0 -0.21531260155E+02  0.46939300360E+02  0.15512211243E+04  0.15520804971E+04  0.00000000000E+00 0. -1.
         22    1    3    3    0    0 -0.32010227031E+02 -0.99383121150E+01  0.17042631631E+03  0.17369097263E+03  0.00000000000E+00 0. -1.
         22    1    3    3    0    0  0.11175060199E+03 -0.10216825978E+03  0.10046972516E+04  0.10160428720E+04  0.00000000000E+00 0. -1.
</event>
<event>
 7    1  0.5931885E-006  0.6580109E+02  0.7818608E-02  0.1432923E+00
          2   -1    0    0  502    0  0.00000000000E+00  0.00000000000E+00  0.72475925717E+03  0.72475925717E+03  0.00000000000E+00 0. -1.
          1   -1    0    0  501    0 -0.00000000000E+00 -0.00000000000E+00 -0.62977834947E+02  0.62977834947E+02  0.00000000000E+00 0. -1.
         25    2    1    2    0    0  0.74614796454E+02  0.26920071499E+02  0.21822188721E+03  0.26367315042E+03  0.12494270725E+03 0.  0.
          2    1    1    2  501    0 -0.64066172195E+02  0.13416062258E+02 -0.12045748135E+02  0.66554978735E+02  0.00000000000E+00 0. -1.
          1    1    1    2  502    0 -0.10548624259E+02 -0.40336133757E+02  0.45560528314E+03  0.45750896296E+03  0.00000000000E+00 0. -1.
         22    1    3    3    0    0  0.94243056485E+02  0.88708279694E+00  0.20980393763E+03  0.23000050621E+03  0.00000000000E+00 0. -1.
         22    1    3    3    0    0 -0.19628260031E+02  0.26032988702E+02  0.84179495739E+01  0.33672644203E+02  0.00000000000E+00 0. -1.
</event>
<event>
 7    1  0.5931885E-006  0.9843277E+02  0.7818608E-02  0.1343113E+00
          2   -1    0    0  502    0  0.00000000000E+00  0.00000000000E+00  0.83112434519E+03  0.83112434519E+03  0.00000000000E+00 0. -1.
          1   -1    0    0  501    0 -0.00000000000E+00 -0.00000000000E+00 -0.12154795291E+03  0.12154795291E+03  0.00000000000E+00 0. -1.
         25    2    1    2    0    0 -0.31127288530E+02  0.46259384495E+02 -0.11576210160E+02  0.13736062470E+03  0.12500037532E+03 0.  0.
          2    1    1    2  501    0 -0.57501856843E+02  0.14504748835E+01 -0.24771237399E+02  0.62627323270E+02  0.00000000000E+00 0. -1.
          1    1    1    2  502    0  0.88629145373E+02 -0.47709859379E+02  0.74592383984E+03  0.75268435013E+03  0.00000000000E+00 0. -1.
         22    1    3    3    0    0  0.27606988996E+02 -0.28346788991E+02 -0.15078796645E+02  0.42344496641E+02  0.00000000000E+00 0. -1.
         22    1    3    3    0    0 -0.58734277526E+02  0.74606173486E+02  0.35025864853E+01  0.95016128057E+02  0.00000000000E+00 0. -1.
</event>
<event>
 7    1  0.5931885E-006  0.8955552E+02  0.7818608E-02  0.1307536E+00
          2   -1    0    0  502    0  0.00000000000E+00  0.00000000000E+00  0.13089476778E+04  0.13089476778E+04  0.00000000000E+00 0. -1.
          1   -1    0    0  501    0 -0.00000000000E+00 -0.00000000000E+00 -0.23023847709E+04  0.23023847709E+04  0.00000000000E+00 0. -1.
         25    2    1    2    0    0  0.39755748817E+01  0.80390677262E+02  0.47789362806E+03  0.50048394632E+03  0.12499357823E+03 0.  0.
          2    1    1    2  501    0 -0.85219498297E+02 -0.27528696620E+02 -0.22873451378E+04  0.22890976325E+04  0.00000000000E+00 0. -1.
          1    1    1    2  502    0  0.81243923415E+02 -0.52861980642E+02  0.81601441661E+03  0.82175086992E+03  0.00000000000E+00 0. -1.
         22    1    3    3    0    0  0.50832787273E+02  0.13318959993E+02  0.30141853200E+03  0.30596486464E+03  0.00000000000E+00 0.  1.
         22    1    3    3    0    0 -0.46857212392E+02  0.67071717269E+02  0.17647509605E+03  0.19451908168E+03  0.00000000000E+00 0.  1.
</event>
<event>
 7    1  0.5931885E-006  0.1253123E+03  0.7818608E-02  0.1320838E+00
          2   -1    0    0  502    0  0.00000000000E+00  0.00000000000E+00  0.21211890064E+03  0.21211890064E+03  0.00000000000E+00 0. -1.
          1   -1    0    0  501    0 -0.00000000000E+00 -0.00000000000E+00 -0.16068572082E+04  0.16068572082E+04  0.00000000000E+00 0. -1.
         25    2    1    2    0    0  0.78631371611E+02 -0.67118069731E+02  0.42722249736E+01  0.16226729246E+03  0.12499877763E+03 0.  0.
          2    1    1    2  501    0 -0.12185759816E+03  0.33223603666E+02 -0.15192631099E+04  0.15245043389E+04  0.00000000000E+00 0. -1.
          1    1    1    2  502    0  0.43226226547E+02  0.33894466065E+02  0.12025257742E+03  0.13220447749E+03  0.00000000000E+00 0. -1.
         22    1    3    3    0    0  0.16240151967E+02 -0.32632751485E+02  0.61069164239E+02  0.71120192817E+02  0.00000000000E+00 0. -1.
         22    1    3    3    0    0  0.62391219644E+02 -0.34485318246E+02 -0.56796939266E+02  0.91147099642E+02  0.00000000000E+00 0. -1.
</event>
<event>
 7    1  0.5931885E-006  0.1664416E+03  0.7818608E-02  0.1350532E+00
          2   -1    0    0  502    0  0.00000000000E+00  0.00000000000E+00  0.96733678980E+03  0.96733678980E+03  0.00000000000E+00 0. -1.
          1   -1    0    0  501    0 -0.00000000000E+00 -0.00000000000E+00 -0.17431625714E+04  0.17431625714E+04  0.00000000000E+00 0. -1.
         25    2    1    2    0    0  0.19287739634E+03 -0.44709686557E+02  0.37062689560E+03  0.43839477890E+03  0.12500016133E+03 0.  0.
          2    1    1    2  501    0 -0.16143490542E+03  0.39203165050E+02 -0.17047851620E+04  0.17128603462E+04  0.00000000000E+00 0. -1.
          1    1    1    2  502    0 -0.31442490915E+02  0.55065215066E+01  0.55833248483E+03  0.55924423612E+03  0.00000000000E+00 0. -1.
         22    1    3    3    0    0  0.90009873727E+02  0.27130458225E+01  0.27752991638E+03  0.29177387216E+03  0.00000000000E+00 0. -1.
         22    1    3    3    0    0  0.10286752261E+03 -0.47422732379E+02  0.93096979217E+02  0.14662090674E+03  0.00000000000E+00 0. -1.
</event>
<event>
 7    1  0.5931885E-006  0.8781689E+02  0.7818608E-02  0.1312968E+00
          2   -1    0    0  502    0  0.00000000000E+00  0.00000000000E+00  0.27785939229E+04  0.27785939229E+04  0.00000000000E+00 0. -1.
          1   -1    0    0  501    0 -0.00000000000E+00 -0.00000000000E+00 -0.26810661241E+02  0.26810661241E+02  0.00000000000E+00 0. -1.
         25    2    1    2    0    0  0.29390225107E+02  0.15397181952E+02  0.39904009476E+03  0.41947430789E+03  0.12499935683E+03 0.  0.
          2    1    1    2  501    0 -0.95078429264E+02 -0.67947447331E+02  0.20070254430E+03  0.23224615088E+03  0.00000000000E+00 0. -1.
          1    1    1    2  502    0  0.65688204157E+02  0.52550265379E+02  0.21520406226E+04  0.21536841254E+04  0.00000000000E+00 0. -1.
         22    1    3    3    0    0 -0.40600199864E+01 -0.41707231948E+02  0.28134446392E+03  0.28444803451E+03  0.00000000000E+00 0.  1.
         22    1    3    3    0    0  0.33450245093E+02  0.57104413900E+02  0.11769563085E+03  0.13502627339E+03  0.00000000000E+00 0.  1.
</event>
<event>
 7    1  0.5931885E-006  0.4573800E+02  0.7818608E-02  0.1474954E+00
          2   -1    0    0  502    0  0.00000000000E+00  0.00000000000E+00  0.38067148400E+03  0.38067148400E+03  0.00000000000E+00 0. -1.
          1   -1    0    0  501    0 -0.00000000000E+00 -0.00000000000E+00 -0.49382986430E+02  0.49382986430E+02  0.00000000000E+00 0. -1.
         25    2    1    2    0    0  0.67118500573E+01 -0.11067046853E+02  0.20697111678E+03  0.24213641106E+03  0.12500187969E+03 0.  0.
          2    1    1    2  501    0 -0.15819242210E+02 -0.42915220364E+02 -0.64152758001E+01  0.46185715612E+02  0.00000000000E+00 0. -1.
          1    1    1    2  502    0  0.91073921524E+01  0.53982267217E+02  0.13073265660E+03  0.14173234376E+03  0.00000000000E+00 0. -1.
         22    1    3    3    0    0  0.17853294661E+02  0.31731712827E+02  0.66752742089E+01  0.37016226374E+02  0.00000000000E+00 0.  1.
         22    1    3    3    0    0 -0.11141444603E+02 -0.42798759680E+02  0.20029584257E+03  0.20512018469E+03  0.00000000000E+00 0.  1.
</event>
<event>
 7    1  0.5931885E-006  0.1647116E+03  0.7818608E-02  0.1234190E+00
          2   -1    0    0  502    0  0.00000000000E+00  0.00000000000E+00  0.52559727366E+03  0.52559727366E+03  0.00000000000E+00 0. -1.
          1   -1    0    0  501    0 -0.00000000000E+00 -0.00000000000E+00 -0.61357493504E+03  0.61357493504E+03  0.00000000000E+00 0. -1.
         25    2    1    2    0    0  0.15602816090E+03  0.12623847455E+03  0.12033994401E+03  0.26529887861E+03  0.12498341258E+03 0.  0.
          2    1    1    2  501    0 -0.93432873969E+02  0.20805348157E+02 -0.51726075731E+03  0.52604301678E+03  0.00000000000E+00 0. -1.
          1    1    1    2  502    0 -0.62595286930E+02 -0.14704382270E+03  0.30894315192E+03  0.34783031331E+03  0.00000000000E+00 0. -1.
         22    1    3    3    0    0  0.46009253299E+02  0.90506607287E+02  0.10916954922E+03  0.14908483434E+03  0.00000000000E+00 0.  1.
         22    1    3    3    0    0  0.11001890760E+03  0.35731867261E+02  0.11170394788E+02  0.11621404428E+03  0.00000000000E+00 0.  1.
</event>
<event>
 7    1  0.5931885E-006  0.1412410E+03  0.7818608E-02  0.1399837E+00
          2   -1    0    0  502    0  0.00000000000E+00  0.00000000000E+00  0.39820770398E+03  0.39820770398E+03  0.00000000000E+00 0. -1.
          1   -1    0    0  501    0 -0.00000000000E+00 -0.00000000000E+00 -0.38345229957E+03  0.38345229957E+03  0.00000000000E+00 0. -1.
         25    2    1    2    0    0 -0.13497391740E+03  0.10961981912E+02  0.14616452839E+03  0.23521843113E+03  0.12500207023E+03 0.  0.
          2    1    1    2  501    0  0.13721516535E+03 -0.35947805961E+02 -0.32323159002E+03  0.35298570388E+03  0.00000000000E+00 0. -1.
          1    1    1    2  502    0 -0.22412479556E+01  0.24985824048E+02  0.19182246604E+03  0.19345586854E+03  0.00000000000E+00 0. -1.
         22    1    3    3    0    0  0.16791463486E+02  0.26752267022E+02  0.28361897766E+02  0.42450374342E+02  0.00000000000E+00 0.  1.
         22    1    3    3    0    0 -0.15176538088E+03 -0.15790285110E+02  0.11780263062E+03  0.19276805679E+03  0.00000000000E+00 0.  1.
</event>
<event>
 7    1  0.5931885E-006  0.1015234E+03  0.7818608E-02  0.1454050E+00
          2   -1    0    0  502    0  0.00000000000E+00  0.00000000000E+00  0.41676428860E+03  0.41676428860E+03  0.00000000000E+00 0. -1.
          1   -1    0    0  501    0 -0.00000000000E+00 -0.00000000000E+00 -0.83758674218E+03  0.83758674218E+03  0.00000000000E+00 0. -1.
         25    2    1    2    0    0  0.76368340066E+02 -0.28127140274E+02  0.37158551436E+02  0.15373086763E+03  0.12501664822E+03 0.  0.
          2    1    1    2  501    0  0.22008675316E+02 -0.69963285461E+01 -0.77063328036E+03  0.77097923655E+03  0.00000000000E+00 0. -1.
          1    1    1    2  502    0 -0.98377015382E+02  0.35123468820E+02  0.31265227533E+03  0.32964092660E+03  0.00000000000E+00 0. -1.
         22    1    3    3    0    0  0.94670072375E+02  0.15314579958E+02  0.45016690794E+02  0.10594083921E+03  0.00000000000E+00 0.  1.
         22    1    3    3    0    0 -0.18301732309E+02 -0.43441720232E+02 -0.78581393571E+01  0.47790028419E+02  0.00000000000E+00 0.  1.
</event>
<event>
 7    1  0.5931885E-006  0.1134566E+03  0.7818608E-02  0.1413664E+00
          2   -1    0    0  502    0  0.00000000000E+00  0.00000000000E+00  0.15857132730E+04  0.15857132730E+04  0.00000000000E+00 0. -1.
          1   -1    0    0  501    0 -0.00000000000E+00 -0.00000000000E+00 -0.58216137827E+03  0.58216137827E+03  0.00000000000E+00 0. -1.
         25    2    1    2    0    0  0.66661920167E+02  0.11820671060E+03 -0.10005056107E+03  0.20990155179E+03  0.12502763152E+03 0.  0.
          2    1    1    2  501    0 -0.63886005556E+02 -0.90323484860E+02 -0.41989130322E+03  0.43422167167E+03  0.00000000000E+00 0. -1.
          1    1    1    2  502    0 -0.27759146103E+01 -0.27883225736E+02  0.15234937590E+04  0.15237514278E+04  0.00000000000E+00 0. -1.
         22    1    3    3    0    0  0.52602618685E+02  0.12739301705E+03 -0.12075477878E+03  0.18324227919E+03  0.00000000000E+00 0. -1.
         22    1    3    3    0    0  0.14059301481E+02 -0.91863064547E+01  0.20704217711E+02  0.26659272598E+02  0.00000000000E+00 0. -1.
</event>
<event>
 7    1  0.5931885E-006  0.4959859E+02  0.7818608E-02  0.1500565E+00
          2   -1    0    0  502    0  0.00000000000E+00  0.00000000000E+00  0.77176856860E+02  0.77176856860E+02  0.00000000000E+00 0. -1.
          1   -1    0    0  501    0 -0.00000000000E+00 -0.00000000000E+00 -0.72678338875E+03  0.72678338875E+03  0.00000000000E+00 0. -1.
         25    2    1    2    0    0  0.74385946553E+02  0.10795494796E+02 -0.66411892623E+02  0.16026722132E+03  0.12500092397E+03 0.  0.
          2    1    1    2  501    0 -0.28925706970E+02 -0.17846984868E+02 -0.59518305791E+03  0.59615273531E+03  0.00000000000E+00 0. -1.
          1    1    1    2  502    0 -0.45460239583E+02  0.70514900722E+01  0.11988418643E+02  0.47540288985E+02  0.00000000000E+00 0. -1.
         22    1    3    3    0    0  0.10186583343E+03 -0.29708344920E+01 -0.18848655498E+02  0.10363756892E+03  0.00000000000E+00 0. -1.
         22    1    3    3    0    0 -0.27479886875E+02  0.13766329288E+02 -0.47563237125E+02  0.56629652397E+02  0.00000000000E+00 0. -1.
</event>
<event>
 7    1  0.5931885E-006  0.1406071E+03  0.7818608E-02  0.1262262E+00
          2   -1    0    0  502    0  0.00000000000E+00  0.00000000000E+00  0.73292340563E+03  0.73292340563E+03  0.00000000000E+00 0. -1.
          1   -1    0    0  501    0 -0.00000000000E+00 -0.00000000000E+00 -0.45296368343E+03  0.45296368343E+03  0.00000000000E+00 0. -1.
         25    2    1    2    0    0  0.83186720589E+01  0.19246823612E+03 -0.10268576686E+03  0.25156204687E+03  0.12500349791E+03 0.  0.
          2    1    1    2  501    0 -0.57263907262E+02 -0.62327653627E+02 -0.26175284117E+03  0.27509714892E+03  0.00000000000E+00 0. -1.
          1    1    1    2  502    0  0.48945235203E+02 -0.13014058249E+03  0.64439833023E+03  0.65922789327E+03  0.00000000000E+00 0. -1.
         22    1    3    3    0    0  0.42971873364E+02  0.18864237370E+03 -0.96307841468E+02  0.21611970614E+03  0.00000000000E+00 0. -1.
         22    1    3    3    0    0 -0.34653201305E+02  0.38258624229E+01 -0.63779253885E+01  0.35442340727E+02  0.00000000000E+00 0. -1.
</event>
<event>
 7    1  0.5931885E-006  0.6621280E+02  0.7818608E-02  0.1478406E+00
          2   -1    0    0  502    0  0.00000000000E+00  0.00000000000E+00  0.43532803959E+03  0.43532803959E+03  0.00000000000E+00 0. -1.
          1   -1    0    0  501    0 -0.00000000000E+00 -0.00000000000E+00 -0.68940096943E+03  0.68940096943E+03  0.00000000000E+00 0. -1.
         25    2    1    2    0    0 -0.26767080375E+02 -0.87562072076E+02  0.60210809814E+02  0.16623776933E+03  0.12500424503E+03 0.  0.
          2    1    1    2  501    0  0.30928124550E+02  0.58141553934E+02 -0.63399299624E+03  0.63740419552E+03  0.00000000000E+00 0. -1.
          1    1    1    2  502    0 -0.41610441749E+01  0.29420518142E+02  0.31970925660E+03  0.32108704416E+03  0.00000000000E+00 0. -1.
         22    1    3    3    0    0  0.39738248837E+02 -0.32527252048E+02  0.61222158919E+02  0.79908092763E+02  0.00000000000E+00 0.  1.
         22    1    3    3    0    0 -0.66505329213E+02 -0.55034820028E+02 -0.10113491047E+01  0.86329676567E+02  0.00000000000E+00 0.  1.
</event>
<event>
 7    1  0.5931885E-006  0.7526552E+02  0.7818608E-02  0.1463621E+00
          2   -1    0    0  502    0  0.00000000000E+00  0.00000000000E+00  0.40667362494E+03  0.40667362494E+03  0.00000000000E+00 0. -1.
          1   -1    0    0  501    0 -0.00000000000E+00 -0.00000000000E+00 -0.53831414337E+02  0.53831414337E+02  0.00000000000E+00 0. -1.
         25    2    1    2    0    0  0.43263987201E+02  0.28589227303E+02  0.12715619868E+03  0.18569636492E+03  0.12500129829E+03 0.  0.
          2    1    1    2  501    0  0.26152307431E+02  0.12659781273E+02 -0.58132327839E+01  0.29631181570E+02  0.00000000000E+00 0. -1.
          1    1    1    2  502    0 -0.69416294631E+02 -0.41249008577E+02  0.23149924471E+03  0.24517749279E+03  0.00000000000E+00 0. -1.
         22    1    3    3    0    0 -0.31175637996E+02  0.30386416659E+01 -0.51574247261E+01  0.31745122104E+02  0.00000000000E+00 0.  1.
         22    1    3    3    0    0  0.74439625196E+02  0.25550585637E+02  0.13231362340E+03  0.15395124281E+03  0.00000000000E+00 0.  1.
</event>
<event>
 7    1  0.5931885E-006  0.5077455E+02  0.7818608E-02  0.1463533E+00
          2   -1    0    0  502    0  0.00000000000E+00  0.00000000000E+00  0.12832364365E+03  0.12832364365E+03  0.00000000000E+00 0. -1.
          1   -1    0    0  501    0 -0.00000000000E+00 -0.00000000000E+00 -0.10261807473E+04  0.10261807473E+04  0.00000000000E+00 0. -1.
         25    2    1    2    0    0 -0.99291974966E+01  0.85149640750E+01 -0.55629707953E+03  0.57031952202E+03  0.12500729148E+03 0.  0.
          2    1    1    2  501    0 -0.41035625779E+02 -0.13170487435E+02 -0.45641437948E+03  0.45844462056E+03  0.00000000000E+00 0. -1.
          1    1    1    2  502    0  0.50964823275E+02  0.46555233600E+01  0.11485435537E+03  0.12574024836E+03  0.00000000000E+00 0. -1.
         22    1    3    3    0    0  0.26593756109E+01  0.40421353394E+02 -0.57454985455E+02  0.70299597741E+02  0.00000000000E+00 0.  1.
         22    1    3    3    0    0 -0.12588573107E+02 -0.31906389320E+02 -0.49884209408E+03  0.50001992428E+03  0.00000000000E+00 0.  1.
</event>
<event>
 7    1  0.5931885E-006  0.3827918E+02  0.7818608E-02  0.1579929E+00
          2   -1    0    0  502    0  0.00000000000E+00  0.00000000000E+00  0.75100271167E+03  0.75100271167E+03  0.00000000000E+00 0. -1.
          1   -1    0    0  501    0 -0.00000000000E+00 -0.00000000000E+00 -0.21156577852E+02  0.21156577852E+02  0.00000000000E+00 0. -1.
         25    2    1    2    0    0  0.35108998488E+02  0.11899397353E+01  0.20860127468E+03  0.24569442778E+03  0.12496880535E+03 0.  0.
          2    1    1    2  501    0 -0.50510256491E+01 -0.25776626698E+02  0.98565797947E+02  0.10200570508E+03  0.00000000000E+00 0. -1.
          1    1    1    2  502    0 -0.30057972839E+02  0.24586686963E+02  0.42267906119E+03  0.42445915666E+03  0.00000000000E+00 0. -1.
         22    1    3    3    0    0 -0.44480928989E+02  0.16966697316E+02  0.62395977831E+02  0.78483628299E+02  0.00000000000E+00 0. -1.
         22    1    3    3    0    0  0.79589927477E+02 -0.15776757580E+02  0.14620529685E+03  0.16721079948E+03  0.00000000000E+00 0. -1.
</event>
<event>
 7    1  0.5931885E-006  0.6964340E+02  0.7818608E-02  0.1431239E+00
          2   -1    0    0  502    0  0.00000000000E+00  0.00000000000E+00  0.40004437429E+03  0.40004437429E+03  0.00000000000E+00 0. -1.
          1   -1    0    0  501    0 -0.00000000000E+00 -0.00000000000E+00 -0.30169866087E+03  0.30169866087E+03  0.00000000000E+00 0. -1.
         25    2    1    2    0    0  0.36226649291E+02 -0.83152226582E+02  0.73039525584E+01  0.15461213297E+03  0.12499960413E+03 0.  0.
          2    1    1    2  501    0  0.14989362775E+02  0.36974113425E+02 -0.22252370207E+03  0.22607203287E+03  0.00000000000E+00 0. -1.
          1    1    1    2  502    0 -0.51216012066E+02  0.46178113157E+02  0.31356546293E+03  0.32105886932E+03  0.00000000000E+00 0. -1.
         22    1    3    3    0    0 -0.20808481292E+01 -0.10591123275E+03 -0.10874570846E+02  0.10648838173E+03  0.00000000000E+00 0.  1.
         22    1    3    3    0    0  0.38307497420E+02  0.22759006169E+02  0.18178523404E+02  0.48123751241E+02  0.00000000000E+00 0.  1.
</event>
<event>
 7    1  0.5931885E-006  0.7008219E+02  0.7818608E-02  0.1404439E+00
          2   -1    0    0  502    0  0.00000000000E+00  0.00000000000E+00  0.52638630764E+02  0.52638630764E+02  0.00000000000E+00 0. -1.
          1   -1    0    0  501    0 -0.00000000000E+00 -0.00000000000E+00 -0.68808250866E+03  0.68808250866E+03  0.00000000000E+00 0. -1.
         25    2    1    2    0    0 -0.66525223877E+02 -0.45225763807E+02 -0.15221615179E+03  0.21275816212E+03  0.12500121423E+03 0.  0.
          2    1    1    2  501    0  0.43703720164E+02 -0.21609380446E+02 -0.44498800637E+03  0.44765087545E+03  0.00000000000E+00 0. -1.
          1    1    1    2  502    0  0.22821503713E+02  0.66835144253E+02 -0.38239719739E+02  0.80312101858E+02  0.00000000000E+00 0. -1.
         22    1    3    3    0    0 -0.20307416371E+02  0.13178994189E+02 -0.13388473097E+03  0.13605586439E+03  0.00000000000E+00 0. -1.
         22    1    3    3    0    0 -0.46217807506E+02 -0.58404757997E+02 -0.18331420816E+02  0.76702297726E+02  0.00000000000E+00 0. -1.
</event>
<event>
 7    1  0.5931885E-006  0.4534753E+02  0.7818608E-02  0.1481586E+00
          2   -1    0    0  502    0  0.00000000000E+00  0.00000000000E+00  0.47853526385E+03  0.47853526385E+03  0.00000000000E+00 0. -1.
          1   -1    0    0  501    0 -0.00000000000E+00 -0.00000000000E+00 -0.45766258309E+02  0.45766258309E+02  0.00000000000E+00 0. -1.
         25    2    1    2    0    0  0.28468161053E+01  0.13786803845E+02  0.16621996696E+03  0.20845540994E+03  0.12500560065E+03 0.  0.
          2    1    1    2  501    0  0.43260161003E+02 -0.13599883199E+02  0.89947530400E-02  0.45347529524E+02  0.00000000000E+00 0. -1.
          1    1    1    2  502    0 -0.46106977108E+02 -0.18692064646E+00  0.26654004383E+03  0.27049858270E+03  0.00000000000E+00 0. -1.
         22    1    3    3    0    0  0.61953702274E+02  0.22104859315E+02  0.94628992514E+02  0.11524553030E+03  0.00000000000E+00 0. -1.
         22    1    3    3    0    0 -0.59106886168E+02 -0.83180554697E+01  0.71590974443E+02  0.93209879632E+02  0.00000000000E+00 0. -1.
</event>
<event>
 7    1  0.5931885E-006  0.2293666E+03  0.7818608E-02  0.1250445E+00
          2   -1    0    0  502    0  0.00000000000E+00  0.00000000000E+00  0.80995118718E+03  0.80995118718E+03  0.00000000000E+00 0. -1.
          1   -1    0    0  501    0 -0.00000000000E+00 -0.00000000000E+00 -0.33466339698E+03  0.33466339698E+03  0.00000000000E+00 0. -1.
         25    2    1    2    0    0  0.11496249512E+03 -0.19547470081E+03  0.11367767708E+03  0.28279905317E+03  0.12500382502E+03 0.  0.
          2    1    1    2  501    0 -0.63438283377E+02  0.22278717222E+03 -0.19461299227E+03  0.30254380949E+03  0.00000000000E+00 0. -1.
          1    1    1    2  502    0 -0.51524211740E+02 -0.27312471408E+02  0.55622310539E+03  0.55927172149E+03  0.00000000000E+00 0. -1.
         22    1    3    3    0    0  0.99971466984E+01 -0.10399094475E+03  0.97013551532E+02  0.14256818969E+03  0.00000000000E+00 0. -1.
         22    1    3    3    0    0  0.10496534842E+03 -0.91483756062E+02  0.16664125544E+02  0.14023086348E+03  0.00000000000E+00 0. -1.
</event>
<event>
 7    1  0.5931885E-006  0.6662609E+02  0.7818608E-02  0.1534700E+00
          2   -1    0    0  502    0  0.00000000000E+00  0.00000000000E+00  0.14129968184E+03  0.14129968184E+03  0.00000000000E+00 0. -1.
          1   -1    0    0  501    0 -0.00000000000E+00 -0.00000000000E+00 -0.93271519800E+03  0.93271519800E+03  0.00000000000E+00 0. -1.
         25    2    1    2    0    0  0.32084392036E+02  0.51052947992E+02 -0.10743666612E+03  0.17550891635E+03  0.12499972313E+03 0.  0.
          2    1    1    2  501    0 -0.50806326893E+02 -0.43674719704E+02 -0.78886594566E+03  0.79170590765E+03  0.00000000000E+00 0. -1.
          1    1    1    2  502    0  0.18721934857E+02 -0.73782282880E+01  0.10488709562E+03  0.10680005583E+03  0.00000000000E+00 0. -1.
         22    1    3    3    0    0  0.18203399026E+02 -0.17671299406E+02 -0.10208795992E+03  0.10519310871E+03  0.00000000000E+00 0. -1.
         22    1    3    3    0    0  0.13880993010E+02  0.68724247398E+02 -0.53487062050E+01  0.70315807650E+02  0.00000000000E+00 0. -1.
</event>
<event>
 7    1  0.5931885E-006  0.1193711E+03  0.7818608E-02  0.1257296E+00
          2   -1    0    0  502    0  0.00000000000E+00  0.00000000000E+00  0.15419667023E+04  0.15419667023E+04  0.00000000000E+00 0. -1.
          1   -1    0    0  501    0 -0.00000000000E+00 -0.00000000000E+00 -0.55289050361E+03  0.55289050361E+03  0.00000000000E+00 0. -1.
         25    2    1    2    0    0  0.59576552652E+02  0.18150083882E+02  0.76114498820E+03  0.77385388477E+03  0.12501740172E+03 0.  0.
          2    1    1    2  501    0 -0.25977645327E+02 -0.11729661200E+03 -0.53632229564E+03  0.54961344420E+03  0.00000000000E+00 0. -1.
          1    1    1    2  502    0 -0.33598907325E+02  0.99146528122E+02  0.76425350608E+03  0.77138987689E+03  0.00000000000E+00 0. -1.
         22    1    3    3    0    0 -0.25609310743E+02 -0.31865890343E+02  0.21938320041E+03  0.22315971945E+03  0.00000000000E+00 0. -1.
         22    1    3    3    0    0  0.85185863395E+02  0.50015974226E+02  0.54176178779E+03  0.55069416532E+03  0.00000000000E+00 0. -1.
</event>
<event>
 7    1  0.5931885E-006  0.3615326E+03  0.7818608E-02  0.1179054E+00
          2   -1    0    0  502    0  0.00000000000E+00  0.00000000000E+00  0.17992342095E+04  0.17992342095E+04  0.00000000000E+00 0. -1.
          1   -1    0    0  501    0 -0.00000000000E+00 -0.00000000000E+00 -0.12026780849E+04  0.12026780849E+04  0.00000000000E+00 0. -1.
         25    2    1    2    0    0  0.31546683942E+03  0.15563140413E+03  0.11483566540E+04  0.12075134956E+04  0.12500150671E+03 0.  0.
          2    1    1    2  501    0 -0.84582085878E+01  0.78403001543E+02 -0.11116020994E+04  0.11143957104E+04  0.00000000000E+00 0. -1.
          1    1    1    2  502    0 -0.30700863083E+03 -0.23403440567E+03  0.55980156997E+03  0.68000308836E+03  0.00000000000E+00 0. -1.
         22    1    3    3    0    0  0.24765716784E+03  0.58490902409E+02  0.75778863555E+03  0.79937405175E+03  0.00000000000E+00 0.  1.
         22    1    3    3    0    0  0.67809671580E+02  0.97140501717E+02  0.39056801843E+03  0.40813944388E+03  0.00000000000E+00 0.  1.
</event>
<event>
 7    1  0.5931885E-006  0.5611050E+02  0.7818608E-02  0.1444225E+00
          2   -1    0    0  502    0  0.00000000000E+00  0.00000000000E+00  0.76623441772E+03  0.76623441772E+03  0.00000000000E+00 0. -1.
          1   -1    0    0  501    0 -0.00000000000E+00 -0.00000000000E+00 -0.11519346840E+04  0.11519346840E+04  0.00000000000E+00 0. -1.
         25    2    1    2    0    0  0.93914448147E+02 -0.28489639616E+02  0.24591138637E+03  0.29279455684E+03  0.12499863773E+03 0.  0.
          2    1    1    2  501    0 -0.43974824668E+02  0.91948789193E+01 -0.11266019743E+04  0.11274973790E+04  0.00000000000E+00 0. -1.
          1    1    1    2  502    0 -0.49939623479E+02  0.19294760697E+02  0.49499032168E+03  0.49787716591E+03  0.00000000000E+00 0. -1.
         22    1    3    3    0    0  0.11171568613E+03 -0.14319998707E+02  0.11895757540E+03  0.16381807482E+03  0.00000000000E+00 0.  1.
         22    1    3    3    0    0 -0.17801237986E+02 -0.14169640909E+02  0.12695381096E+03  0.12897648203E+03  0.00000000000E+00 0.  1.
</event>
<event>
 7    1  0.5931885E-006  0.8560398E+02  0.7818608E-02  0.1345048E+00
          2   -1    0    0  502    0  0.00000000000E+00  0.00000000000E+00  0.11660962191E+04  0.11660962191E+04  0.00000000000E+00 0. -1.
          1   -1    0    0  501    0 -0.00000000000E+00 -0.00000000000E+00 -0.20595733546E+03  0.20595733546E+03  0.00000000000E+00 0. -1.
         25    2    1    2    0    0  0.33874073513E+02 -0.14401800598E+03  0.42980102169E+02  0.19839767093E+03  0.12500283096E+03 0.  0.
          2    1    1    2  501    0 -0.24394296413E+02  0.60300020435E+02 -0.11817776817E+03  0.13489684597E+03  0.00000000000E+00 0. -1.
          1    1    1    2  502    0 -0.94797771003E+01  0.83717985541E+02  0.10353365497E+04  0.10387590377E+04  0.00000000000E+00 0. -1.
         22    1    3    3    0    0 -0.10480451597E+01 -0.15647726931E+03  0.37560776301E+02  0.16092559189E+03  0.00000000000E+00 0. -1.
         22    1    3    3    0    0  0.34922118673E+02  0.12459263329E+02  0.54193258677E+01  0.37472079048E+02  0.00000000000E+00 0. -1.
</event>
<event>
 7    1  0.5931885E-006  0.8492422E+02  0.7818608E-02  0.1429226E+00
          2   -1    0    0  502    0  0.00000000000E+00  0.00000000000E+00  0.15538117946E+04  0.15538117946E+04  0.00000000000E+00 0. -1.
          1   -1    0    0  501    0 -0.00000000000E+00 -0.00000000000E+00 -0.51008887953E+02  0.51008887953E+02  0.00000000000E+00 0. -1.
         25    2    1    2    0    0 -0.40219445936E+02 -0.10865239730E+03  0.60055465925E+03  0.62427169850E+03  0.12500522998E+03 0.  0.
          2    1    1    2  501    0  0.27043967770E+02  0.78155696719E+02  0.51785777928E+01  0.82864387950E+02  0.00000000000E+00 0. -1.
          1    1    1    2  502    0  0.13175478165E+02  0.30496700577E+02  0.89706966960E+03  0.89768459610E+03  0.00000000000E+00 0. -1.
         22    1    3    3    0    0  0.43184766330E+02 -0.59406512625E+02  0.27142927929E+03  0.28119016953E+03  0.00000000000E+00 0.  1.
         22    1    3    3    0    0 -0.83404212266E+02 -0.49245884671E+02  0.32912537996E+03  0.34308152897E+03  0.00000000000E+00 0.  1.
</event>
<event>
 7    1  0.5931885E-006  0.1383527E+03  0.7818608E-02  0.1400113E+00
          2   -1    0    0  502    0  0.00000000000E+00  0.00000000000E+00  0.20041606172E+04  0.20041606172E+04  0.00000000000E+00 0. -1.
          1   -1    0    0  501    0 -0.00000000000E+00 -0.00000000000E+00 -0.93611621282E+03  0.93611621282E+03  0.00000000000E+00 0. -1.
         25    2    1    2    0    0 -0.44474710207E+02 -0.10728372554E+03  0.18293340769E+03  0.25015484028E+03  0.12500005941E+03 0.  0.
          2    1    1    2  501    0 -0.17841208816E+02 -0.18294672965E+02 -0.89957525725E+03  0.89993813523E+03  0.00000000000E+00 0. -1.
          1    1    1    2  502    0  0.62315919023E+02  0.12557839850E+03  0.17846862540E+04  0.17901838545E+04  0.00000000000E+00 0. -1.
         22    1    3    3    0    0 -0.29442860686E+02  0.12629321497E+02  0.96217395949E+02  0.10141089236E+03  0.00000000000E+00 0.  1.
         22    1    3    3    0    0 -0.15031849520E+02 -0.11991304703E+03  0.86716011737E+02  0.14874394791E+03  0.00000000000E+00 0.  1.
</event>
<event>
 7    1  0.5931885E-006  0.3535042E+02  0.7818608E-02  0.1582029E+00
          2   -1    0    0  502    0  0.00000000000E+00  0.00000000000E+00  0.17238082186E+03  0.17238082186E+03  0.00000000000E+00 0. -1.
          1   -1    0    0  501    0 -0.00000000000E+00 -0.00000000000E+00 -0.12671898868E+04  0.12671898868E+04  0.00000000000E+00 0. -1.
         25    2    1    2    0    0  0.44682775287E+02 -0.15615543773E+02  0.19926783827E+02  0.13513830397E+03  0.12499955549E+03 0.  0.
          2    1    1    2  501    0 -0.33814698429E+02 -0.10272989667E+02 -0.12072419864E+04  0.12077591572E+04  0.00000000000E+00 0. -1.
          1    1    1    2  502    0 -0.10868076858E+02  0.25888533440E+02  0.92506137676E+02  0.96673247416E+02  0.00000000000E+00 0. -1.
         22    1    3    3    0    0  0.69848700647E+02  0.34235708060E+02  0.13013679961E+02  0.78868755249E+02  0.00000000000E+00 0. -1.
         22    1    3    3    0    0 -0.25165925360E+02 -0.49851251833E+02  0.69131038664E+01  0.56269548723E+02  0.00000000000E+00 0. -1.
</event>
<event>
 7    1  0.5931885E-006  0.3966465E+02  0.7818608E-02  0.1547690E+00
          2   -1    0    0  502    0  0.00000000000E+00  0.00000000000E+00  0.60748501227E+03  0.60748501227E+03  0.00000000000E+00 0. -1.
          1   -1    0    0  501    0 -0.00000000000E+00 -0.00000000000E+00 -0.16044471418E+04  0.16044471418E+04  0.00000000000E+00 0. -1.
         25    2    1    2    0    0 -0.67608788325E+02 -0.20680766778E+01  0.30484738423E+03  0.33635122932E+03  0.12499998636E+03 0.  0.
          2    1    1    2  501    0  0.30350327845E+02  0.66279463920E+01 -0.15873147574E+04  0.15876187234E+04  0.00000000000E+00 0. -1.
          1    1    1    2  502    0  0.37258460480E+02 -0.45598697142E+01  0.28550524358E+03  0.28796220134E+03  0.00000000000E+00 0. -1.
         22    1    3    3    0    0 -0.54204329466E+02 -0.21506767181E+02  0.30714081270E+03  0.31262778058E+03  0.00000000000E+00 0.  1.
         22    1    3    3    0    0 -0.13404458859E+02  0.19438690503E+02 -0.22934284657E+01  0.23723448735E+02  0.00000000000E+00 0.  1.
</event>
<event>
 7    1  0.5931885E-006  0.5110340E+02  0.7818608E-02  0.1504913E+00
          2   -1    0    0  502    0  0.00000000000E+00  0.00000000000E+00  0.18121974702E+03  0.18121974702E+03  0.00000000000E+00 0. -1.
          1   -1    0    0  501    0 -0.00000000000E+00 -0.00000000000E+00 -0.61625453702E+03  0.61625453702E+03  0.00000000000E+00 0. -1.
         25    2    1    2    0    0 -0.41147550820E+02 -0.52579127364E+02  0.24547983046E+02  0.14382036401E+03  0.12499603218E+03 0.  0.
          2    1    1    2  501    0  0.46462774786E+02  0.21003108553E+02 -0.55277109872E+03  0.55511783217E+03  0.00000000000E+00 0. -1.
          1    1    1    2  502    0 -0.53152239662E+01  0.31576018811E+02  0.93188325671E+02  0.98536087862E+02  0.00000000000E+00 0. -1.
         22    1    3    3    0    0 -0.72852030054E+00  0.40199615406E+02  0.11244095776E+02  0.41748886338E+02  0.00000000000E+00 0. -1.
         22    1    3    3    0    0 -0.40419030520E+02 -0.92778742770E+02  0.13303887269E+02  0.10207147767E+03  0.00000000000E+00 0. -1.
</event>
<event>
 7    1  0.5931885E-006  0.1315285E+03  0.7818608E-02  0.1309130E+00
          2   -1    0    0  502    0  0.00000000000E+00  0.00000000000E+00  0.12040165123E+04  0.12040165123E+04  0.00000000000E+00 0. -1.
          1   -1    0    0  501    0 -0.00000000000E+00 -0.00000000000E+00 -0.18318121107E+03  0.18318121107E+03  0.00000000000E+00 0. -1.
         25    2    1    2    0    0 -0.86116286762E+02 -0.22649598379E+02  0.43687415773E+03  0.46304228497E+03  0.12498043375E+03 0.  0.
          2    1    1    2  501    0  0.13392546279E+03 -0.10456204103E+02 -0.14223019085E+03  0.19563943615E+03  0.00000000000E+00 0. -1.
          1    1    1    2  502    0 -0.47809176029E+02  0.33105802482E+02  0.72619133436E+03  0.72851600227E+03  0.00000000000E+00 0. -1.
         22    1    3    3    0    0 -0.86211703399E+02  0.31157528055E+02  0.34094127515E+03  0.35304985831E+03  0.00000000000E+00 0.  1.
         22    1    3    3    0    0  0.95416636904E-01 -0.53807126434E+02  0.95932882590E+02  0.10999242665E+03  0.00000000000E+00 0.  1.
</event>
<event>
 7    1  0.5931885E-006  0.3539482E+02  0.7818608E-02  0.1632296E+00
          2   -1    0    0  502    0  0.00000000000E+00  0.00000000000E+00  0.46674791834E+03  0.46674791834E+03  0.00000000000E+00 0. -1.
          1   -1    0    0  501    0 -0.00000000000E+00 -0.00000000000E+00 -0.20501697097E+02  0.20501697097E+02  0.00000000000E+00 0. -1.
         25    2    1    2    0    0  0.68456153336E+01  0.16620644277E+02  0.22901422628E+03  0.26152599843E+03  0.12500089499E+03 0.  0.
          2    1    1    2  501    0  0.15818966513E+02  0.13474128492E+02  0.47263057779E+02  0.51629337308E+02  0.00000000000E+00 0. -1.
          1    1    1    2  502    0 -0.22664581847E+02 -0.30094772770E+02  0.16996893719E+03  0.17409427971E+03  0.00000000000E+00 0. -1.
         22    1    3    3    0    0  0.24729936279E+02  0.40673424787E+02  0.22649968982E+03  0.23144763279E+03  0.00000000000E+00 0.  1.
         22    1    3    3    0    0 -0.17884320946E+02 -0.24052780509E+02  0.25145364561E+01  0.30078365639E+02  0.00000000000E+00 0.  1.
</event>
<event>
 7    1  0.5931885E-006  0.5285620E+02  0.7818608E-02  0.1519589E+00
          2   -1    0    0  502    0  0.00000000000E+00  0.00000000000E+00  0.44677260235E+03  0.44677260235E+03  0.00000000000E+00 0. -1.
          1   -1    0    0  501    0 -0.00000000000E+00 -0.00000000000E+00 -0.10081403418E+04  0.10081403418E+04  0.00000000000E+00 0. -1.
         25    2    1    2    0    0 -0.12538857953E+02  0.29173223645E+02 -0.13285668622E+03  0.18516151399E+03  0.12500234900E+03 0.  0.
          2    1    1    2  501    0 -0.11889144405E+01 -0.53617885135E+02 -0.84781583484E+03  0.84951043603E+03  0.00000000000E+00 0. -1.
          1    1    1    2  502    0  0.13727772393E+02  0.24444661491E+02  0.41930478164E+03  0.42024099409E+03  0.00000000000E+00 0. -1.
         22    1    3    3    0    0  0.54060351822E+02  0.28507109094E+02 -0.50763814070E+02  0.79448988206E+02  0.00000000000E+00 0. -1.
         22    1    3    3    0    0 -0.66599209775E+02  0.66611455073E+00 -0.82092872146E+02  0.10571252579E+03  0.00000000000E+00 0. -1.
</event>
<event>
 7    1  0.5931885E-006  0.4612093E+03  0.7818608E-02  0.1184870E+00
          2   -1    0    0  502    0  0.00000000000E+00  0.00000000000E+00  0.79208590611E+03  0.79208590611E+03  0.00000000000E+00 0. -1.
          1   -1    0    0  501    0 -0.00000000000E+00 -0.00000000000E+00 -0.10262615384E+04  0.10262615384E+04  0.00000000000E+00 0. -1.
         25    2    1    2    0    0 -0.41160977192E+03 -0.13300728948E+03  0.34035350090E+03  0.56442880787E+03  0.12500332067E+03 0.  0.
          2    1    1    2  501    0  0.45542671495E+03  0.95134123626E+02 -0.85184454178E+03  0.97061996555E+03  0.00000000000E+00 0. -1.
          1    1    1    2  502    0 -0.43816943036E+02  0.37873165855E+02  0.27731540860E+03  0.28329867108E+03  0.00000000000E+00 0. -1.
         22    1    3    3    0    0 -0.18869871818E+03 -0.65618363625E+02  0.80218487884E+02  0.21528581394E+03  0.00000000000E+00 0.  1.
         22    1    3    3    0    0 -0.22291105374E+03 -0.67388925856E+02  0.26013501302E+03  0.34914299392E+03  0.00000000000E+00 0.  1.
</event>
<event>
 7    1  0.5931885E-006  0.1243843E+03  0.7818608E-02  0.1307733E+00
          2   -1    0    0  502    0  0.00000000000E+00  0.00000000000E+00  0.51045307887E+02  0.51045307887E+02  0.00000000000E+00 0. -1.
          1   -1    0    0  501    0 -0.00000000000E+00 -0.00000000000E+00 -0.14921002580E+04  0.14921002580E+04  0.00000000000E+00 0. -1.
         25    2    1    2    0    0 -0.80824165128E+02 -0.61524609326E+02 -0.24508182963E+03  0.29327156529E+03  0.12500113829E+03 0.  0.
          2    1    1    2  501    0  0.53767304138E+02  0.11761881493E+03 -0.11779665822E+04  0.11850444622E+04  0.00000000000E+00 0. -1.
          1    1    1    2  502    0  0.27056860990E+02 -0.56094205609E+02 -0.18006538312E+02  0.64829538418E+02  0.00000000000E+00 0. -1.
         22    1    3    3    0    0  0.29792125147E+02  0.50194380703E+01 -0.65240462098E+02  0.71896337695E+02  0.00000000000E+00 0. -1.
         22    1    3    3    0    0 -0.11061629027E+03 -0.66544047396E+02 -0.17984136753E+03  0.22137522760E+03  0.00000000000E+00 0. -1.
</event>
<event>
 7    1  0.5931885E-006  0.7820942E+02  0.7818608E-02  0.1357936E+00
          2   -1    0    0  502    0  0.00000000000E+00  0.00000000000E+00  0.51599977233E+03  0.51599977233E+03  0.00000000000E+00 0. -1.
          1   -1    0    0  501    0 -0.00000000000E+00 -0.00000000000E+00 -0.22750344098E+03  0.22750344098E+03  0.00000000000E+00 0. -1.
         25    2    1    2    0    0 -0.87849768609E+00 -0.31210003340E+02  0.12832806183E+03  0.18184515469E+03  0.12499893106E+03 0.  0.
          2    1    1    2  501    0 -0.46108963849E+02 -0.44095180487E+02 -0.18999449855E+03  0.20042038562E+03  0.00000000000E+00 0. -1.
          1    1    1    2  502    0  0.46987461535E+02  0.75305183827E+02  0.35016276807E+03  0.36123767301E+03  0.00000000000E+00 0. -1.
         22    1    3    3    0    0  0.37202398853E+02  0.23193838247E+02  0.82243197168E+01  0.44605067514E+02  0.00000000000E+00 0.  1.
         22    1    3    3    0    0 -0.38080896539E+02 -0.54403841587E+02  0.12010374211E+03  0.13724008718E+03  0.00000000000E+00 0.  1.
</event>
<event>
 7    1  0.5931885E-006  0.5490839E+02  0.7818608E-02  0.1434353E+00
          2   -1    0    0  502    0  0.00000000000E+00  0.00000000000E+00  0.20563026045E+03  0.20563026045E+03  0.00000000000E+00 0. -1.
          1   -1    0    0  501    0 -0.00000000000E+00 -0.00000000000E+00 -0.21487591027E+04  0.21487591027E+04  0.00000000000E+00 0. -1.
         25    2    1    2    0    0 -0.84673126730E+02 -0.36488483891E+02 -0.17709743242E+03  0.23556193138E+03  0.12499990039E+03 0.  0.
          2    1    1    2  501    0  0.49206346522E+02 -0.46726235891E+01 -0.19379229111E+04  0.19385531479E+04  0.00000000000E+00 0. -1.
          1    1    1    2  502    0  0.35466780208E+02  0.41161107480E+02  0.17189150119E+03  0.18027428394E+03  0.00000000000E+00 0. -1.
         22    1    3    3    0    0 -0.88434065892E+02 -0.55509629848E+02 -0.67654623349E+02  0.12441483463E+03  0.00000000000E+00 0.  1.
         22    1    3    3    0    0  0.37609391618E+01  0.19021145957E+02 -0.10944280907E+03  0.11114709674E+03  0.00000000000E+00 0.  1.
</event>
<event>
 7    1  0.5931885E-006  0.8098727E+02  0.7818608E-02  0.1437056E+00
          2   -1    0    0  502    0  0.00000000000E+00  0.00000000000E+00  0.20182037618E+04  0.20182037618E+04  0.00000000000E+00 0. -1.
          1   -1    0    0  501    0 -0.00000000000E+00 -0.00000000000E+00 -0.31322758963E+02  0.31322758963E+02  0.00000000000E+00 0. -1.
         25    2    1    2    0    0  0.27553992559E+02 -0.44081010467E+02  0.33906836603E+03  0.36509691708E+03  0.12500417606E+03 0.  0.
          2    1    1    2  501    0  0.58492148529E+01 -0.32312090438E+02 -0.16332015701E+01  0.32877832201E+02  0.00000000000E+00 0. -1.
          1    1    1    2  502    0 -0.33403207412E+02  0.76393100905E+02  0.16494458383E+04  0.16515517714E+04  0.00000000000E+00 0. -1.
         22    1    3    3    0    0  0.22496990235E+02 -0.84926125048E+02  0.17332040802E+03  0.19431552980E+03  0.00000000000E+00 0.  1.
         22    1    3    3    0    0  0.50570023243E+01  0.40845114581E+02  0.16574795801E+03  0.17078138729E+03  0.00000000000E+00 0.  1.
</event>
<event>
 7    1  0.5931885E-006  0.4479304E+02  0.7818608E-02  0.1514442E+00
          2   -1    0    0  502    0  0.00000000000E+00  0.00000000000E+00  0.13700091722E+04  0.13700091722E+04  0.00000000000E+00 0. -1.
          1   -1    0    0  501    0 -0.00000000000E+00 -0.00000000000E+00 -0.21808419914E+04  0.21808419914E+04  0.00000000000E+00 0. -1.
         25    2    1    2    0    0  0.70003956763E+02  0.12153680326E+02  0.13236932621E+03  0.19542720933E+03  0.12498755824E+03 0.  0.
          2    1    1    2  501    0 -0.32268658430E+02  0.11466474843E+02 -0.21487657714E+04  0.21490386424E+04  0.00000000000E+00 0. -1.
          1    1    1    2  502    0 -0.37735298333E+02 -0.23620155168E+02  0.12055636260E+04  0.12063853119E+04  0.00000000000E+00 0. -1.
         22    1    3    3    0    0  0.43788925189E+02 -0.17310312399E+02 -0.96231622465E+01  0.48059568622E+02  0.00000000000E+00 0.  1.
         22    1    3    3    0    0  0.26215031574E+02  0.29463992725E+02  0.14199248846E+03  0.14736764070E+03  0.00000000000E+00 0.  1.
</event>
<event>
 7    1  0.5931885E-006  0.6487548E+02  0.7818608E-02  0.1424553E+00
          2   -1    0    0  502    0  0.00000000000E+00  0.00000000000E+00  0.22169083586E+04  0.22169083586E+04  0.00000000000E+00 0. -1.
          1   -1    0    0  501    0 -0.00000000000E+00 -0.00000000000E+00 -0.91868214748E+03  0.91868214748E+03  0.00000000000E+00 0. -1.
         25    2    1    2    0    0 -0.95093394219E+02 -0.38627680180E+02  0.33187406678E+02  0.16511218828E+03  0.12500311779E+03 0.  0.
          2    1    1    2  501    0  0.30714565615E+02  0.32973749669E+02 -0.85163088263E+03  0.85282226341E+03  0.00000000000E+00 0. -1.
          1    1    1    2  502    0  0.64378828604E+02  0.56539305116E+01  0.21166696871E+04  0.21176560544E+04  0.00000000000E+00 0. -1.
         22    1    3    3    0    0 -0.10951446276E+03 -0.24659085547E+02 -0.14673009118E+02  0.11321124172E+03  0.00000000000E+00 0.  1.
         22    1    3    3    0    0  0.14421068545E+02 -0.13968594633E+02  0.47860415796E+02  0.51900946563E+02  0.00000000000E+00 0.  1.
</event>
<event>
 7    1  0.5931885E-006  0.5721600E+02  0.7818608E-02  0.1515103E+00
          2   -1    0    0  502    0  0.00000000000E+00  0.00000000000E+00  0.91244838757E+03  0.91244838757E+03  0.00000000000E+00 0. -1.
          1   -1    0    0  501    0 -0.00000000000E+00 -0.00000000000E+00 -0.30864353485E+03  0.30864353485E+03  0.00000000000E+00 0. -1.
         25    2    1    2    0    0  0.40254866342E+02 -0.67795456990E+02  0.31937526783E+03  0.35191261536E+03  0.12500099557E+03 0.  0.
          2    1    1    2  501    0 -0.17162585519E+02  0.54410944968E+02 -0.28927830391E+03  0.29485088162E+03  0.00000000000E+00 0. -1.
          1    1    1    2  502    0 -0.23092280823E+02  0.13384512021E+02  0.57370788881E+03  0.57432842545E+03  0.00000000000E+00 0. -1.
         22    1    3    3    0    0  0.81605872044E+02 -0.54199301312E+02  0.26324024118E+03  0.28087810024E+03  0.00000000000E+00 0.  1.
         22    1    3    3    0    0 -0.41351005702E+02 -0.13596155678E+02  0.56135026646E+02  0.71034515120E+02  0.00000000000E+00 0.  1.
</event>
<event>
 7    1  0.5931885E-006  0.3126399E+02  0.7818608E-02  0.1631999E+00
          2   -1    0    0  502    0  0.00000000000E+00  0.00000000000E+00  0.22013829131E+04  0.22013829131E+04  0.00000000000E+00 0. -1.
          1   -1    0    0  501    0 -0.00000000000E+00 -0.00000000000E+00 -0.10341589135E+02  0.10341589135E+02  0.00000000000E+00 0. -1.
         25    2    1    2    0    0  0.32197823399E+00  0.17155412019E+02  0.79795587393E+03  0.80786931524E+03  0.12499936775E+03 0.  0.
          2    1    1    2  501    0  0.23107547310E+02  0.46236587880E+01  0.21508831139E+02  0.31905591677E+02  0.00000000000E+00 0. -1.
          1    1    1    2  502    0 -0.23429525544E+02 -0.21779070807E+02  0.13715766188E+04  0.13719495953E+04  0.00000000000E+00 0. -1.
         22    1    3    3    0    0  0.61133970435E+02  0.15031471008E+02  0.32763697938E+03  0.33363048080E+03  0.00000000000E+00 0. -1.
         22    1    3    3    0    0 -0.60811992201E+02  0.21239410105E+01  0.47031889455E+03  0.47423883445E+03  0.00000000000E+00 0. -1.
</event>
<event>
 7    1  0.5931885E-006  0.5232697E+02  0.7818608E-02  0.1528410E+00
          2   -1    0    0  502    0  0.00000000000E+00  0.00000000000E+00  0.22489057561E+03  0.22489057561E+03  0.00000000000E+00 0. -1.
          1   -1    0    0  501    0 -0.00000000000E+00 -0.00000000000E+00 -0.38812967635E+03  0.38812967635E+03  0.00000000000E+00 0. -1.
         25    2    1    2    0    0  0.31928212295E+01 -0.42809083267E+02  0.62777342152E+02  0.14631945352E+03  0.12500230427E+03 0.  0.
          2    1    1    2  501    0 -0.29893822172E+02  0.43302361949E+02 -0.34284471768E+03  0.34685910049E+03  0.00000000000E+00 0. -1.
          1    1    1    2  502    0  0.26701000943E+02 -0.49327868269E+00  0.11682827479E+03  0.11984169794E+03  0.00000000000E+00 0. -1.
         22    1    3    3    0    0  0.26987964136E+01 -0.71504810824E+02  0.84205542776E+02  0.11050246562E+03  0.00000000000E+00 0.  1.
         22    1    3    3    0    0  0.49402481588E+00  0.28695727557E+02 -0.21428200625E+02  0.35816987905E+02  0.00000000000E+00 0.  1.
</event>
<event>
 7    1  0.5931885E-006  0.9475055E+02  0.7818608E-02  0.1413547E+00
          2   -1    0    0  502    0  0.00000000000E+00  0.00000000000E+00  0.38066319704E+04  0.38066319704E+04  0.00000000000E+00 0. -1.
          1   -1    0    0  501    0 -0.00000000000E+00 -0.00000000000E+00 -0.20317835121E+03  0.20317835121E+03  0.00000000000E+00 0. -1.
         25    2    1    2    0    0 -0.30589507790E+02 -0.71617479076E+02 -0.13432175849E+03  0.19932702280E+03  0.12499658364E+03 0.  0.
          2    1    1    2  501    0 -0.33537387250E+02  0.17615534882E+01 -0.27871503326E+02  0.43642640982E+02  0.00000000000E+00 0. -1.
          1    1    1    2  502    0  0.64126895041E+02  0.69855925588E+02  0.37656468810E+04  0.37668406578E+04  0.00000000000E+00 0. -1.
         22    1    3    3    0    0 -0.15849324651E+02 -0.97806503948E+02 -0.13708970143E+03  0.16914756736E+03  0.00000000000E+00 0. -1.
         22    1    3    3    0    0 -0.14740183139E+02  0.26189024872E+02  0.27679429431E+01  0.30179455443E+02  0.00000000000E+00 0. -1.
</event>
<event>
 7    1  0.5931885E-006  0.8125338E+02  0.7818608E-02  0.1341919E+00
          2   -1    0    0  502    0  0.00000000000E+00  0.00000000000E+00  0.12662117317E+03  0.12662117317E+03  0.00000000000E+00 0. -1.
          1   -1    0    0  501    0 -0.00000000000E+00 -0.00000000000E+00 -0.50064722803E+03  0.50064722803E+03  0.00000000000E+00 0. -1.
         25    2    1    2    0    0 -0.64834663676E+02 -0.11335908411E+03 -0.82453632563E+02  0.19868893211E+03  0.12499949863E+03 0.  0.
          2    1    1    2  501    0  0.37717150740E+01  0.78317613779E+02 -0.33620094613E+03  0.34522304477E+03  0.00000000000E+00 0. -1.
          1    1    1    2  502    0  0.61062948602E+02  0.35041470330E+02  0.44628523830E+02  0.83356424312E+02  0.00000000000E+00 0. -1.
         22    1    3    3    0    0 -0.35857252869E+02 -0.20949704329E+02  0.29289473092E+02  0.50818362122E+02  0.00000000000E+00 0.  1.
         22    1    3    3    0    0 -0.28977410807E+02 -0.92409379780E+02 -0.11174310565E+03  0.14787056999E+03  0.00000000000E+00 0.  1.
</event>
<event>
 7    1  0.5931885E-006  0.5010292E+02  0.7818608E-02  0.1472593E+00
          2   -1    0    0  502    0  0.00000000000E+00  0.00000000000E+00  0.10901267634E+04  0.10901267634E+04  0.00000000000E+00 0. -1.
          1   -1    0    0  501    0 -0.00000000000E+00 -0.00000000000E+00 -0.31553474186E+03  0.31553474186E+03  0.00000000000E+00 0. -1.
         25    2    1    2    0    0 -0.19943495104E+02 -0.46728608246E+02 -0.83687744280E+02  0.15877413721E+03  0.12499712908E+03 0.  0.
          2    1    1    2  501    0 -0.27480978847E+02  0.30324038768E+02 -0.19154299524E+03  0.19586595046E+03  0.00000000000E+00 0. -1.
          1    1    1    2  502    0  0.47424473951E+02  0.16404569478E+02  0.10498227611E+04  0.10510214176E+04  0.00000000000E+00 0. -1.
         22    1    3    3    0    0 -0.25675919028E+02 -0.37780402221E+02  0.23287060927E+02  0.51272788265E+02  0.00000000000E+00 0.  1.
         22    1    3    3    0    0  0.57324239245E+01 -0.89482060257E+01 -0.10697480521E+03  0.10750134894E+03  0.00000000000E+00 0.  1.
</event>
<event>
 7    1  0.5931885E-006  0.1252522E+03  0.7818608E-02  0.1390260E+00
          2   -1    0    0  502    0  0.00000000000E+00  0.00000000000E+00  0.68133000369E+03  0.68133000369E+03  0.00000000000E+00 0. -1.
          1   -1    0    0  501    0 -0.00000000000E+00 -0.00000000000E+00 -0.71571116693E+03  0.71571116693E+03  0.00000000000E+00 0. -1.
         25    2    1    2    0    0  0.16812417412E+02  0.11150568412E+03 -0.79446362310E+02  0.18614950582E+03  0.12499495614E+03 0.  0.
          2    1    1    2  501    0 -0.27105569246E+02  0.14057172073E+02 -0.57618624590E+03  0.57699471915E+03  0.00000000000E+00 0. -1.
          1    1    1    2  502    0  0.10293151834E+02 -0.12556285620E+03  0.62125144497E+03  0.63389694565E+03  0.00000000000E+00 0. -1.
         22    1    3    3    0    0  0.23740145294E+02  0.85074099464E+02  0.13427764214E+02  0.89339250892E+02  0.00000000000E+00 0. -1.
         22    1    3    3    0    0 -0.69277278824E+01  0.26431584660E+02 -0.92874126523E+02  0.96810254925E+02  0.00000000000E+00 0. -1.
</event>
<event>
 7    1  0.5931885E-006  0.5343669E+02  0.7818608E-02  0.1524771E+00
          2   -1    0    0  502    0  0.00000000000E+00  0.00000000000E+00  0.11778156719E+04  0.11778156719E+04  0.00000000000E+00 0. -1.
          1   -1    0    0  501    0 -0.00000000000E+00 -0.00000000000E+00 -0.97488602037E+03  0.97488602037E+03  0.00000000000E+00 0. -1.
         25    2    1    2    0    0 -0.13018863715E+02 -0.66815945376E+02  0.79863145273E+03  0.81121605497E+03  0.12500171670E+03 0.  0.
          2    1    1    2  501    0 -0.96547633748E+01  0.52548010767E+02 -0.96737448359E+03  0.96884874949E+03  0.00000000000E+00 0. -1.
          1    1    1    2  502    0  0.22673627090E+02  0.14267934609E+02  0.37167268241E+03  0.37263688783E+03  0.00000000000E+00 0. -1.
         22    1    3    3    0    0 -0.16050628693E+02 -0.77003777831E+02  0.79650064378E+03  0.80037521202E+03  0.00000000000E+00 0.  1.
         22    1    3    3    0    0  0.30317649781E+01  0.10187832455E+02  0.21308089559E+01  0.10840842948E+02  0.00000000000E+00 0.  1.
</event>
<event>
 7    1  0.5931885E-006  0.8021105E+02  0.7818608E-02  0.1446256E+00
          2   -1    0    0  502    0  0.00000000000E+00  0.00000000000E+00  0.12670250501E+03  0.12670250501E+03  0.00000000000E+00 0. -1.
          1   -1    0    0  501    0 -0.00000000000E+00 -0.00000000000E+00 -0.46541432406E+03  0.46541432406E+03  0.00000000000E+00 0. -1.
         25    2    1    2    0    0  0.40021642940E+02  0.31080360692E+02  0.56128943881E+02  0.14609350820E+03  0.12500053628E+03 0.  0.
          2    1    1    2  501    0 -0.67122355302E+02 -0.46043567698E+02 -0.40526486114E+03  0.41335823251E+03  0.00000000000E+00 0. -1.
          1    1    1    2  502    0  0.27100712362E+02  0.14963207006E+02  0.10424098204E+02  0.32665088363E+02  0.00000000000E+00 0. -1.
         22    1    3    3    0    0 -0.27433026121E+02  0.55546064637E+02  0.16445687553E+02  0.64096777282E+02  0.00000000000E+00 0.  1.
         22    1    3    3    0    0  0.67454669061E+02 -0.24465703945E+02  0.39683256328E+02  0.81996730913E+02  0.00000000000E+00 0.  1.
</event>
<event>
 7    1  0.5931885E-006  0.3094079E+03  0.7818608E-02  0.1200896E+00
          2   -1    0    0  502    0  0.00000000000E+00  0.00000000000E+00  0.90413179976E+03  0.90413179976E+03  0.00000000000E+00 0. -1.
          1   -1    0    0  501    0 -0.00000000000E+00 -0.00000000000E+00 -0.25230806225E+04  0.25230806225E+04  0.00000000000E+00 0. -1.
         25    2    1    2    0    0  0.21484869790E+03 -0.20884006413E+03  0.27329299061E+03  0.42436694985E+03  0.12499645608E+03 0.  0.
          2    1    1    2  501    0 -0.26652159398E+03  0.15814773075E+03 -0.24353222616E+04  0.24549621143E+04  0.00000000000E+00 0. -1.
          1    1    1    2  502    0  0.51672896079E+02  0.50692333379E+02  0.54308044824E+03  0.54788335813E+03  0.00000000000E+00 0. -1.
         22    1    3    3    0    0  0.28498933692E+02 -0.66048212591E+02  0.11708113847E+02  0.72880968283E+02  0.00000000000E+00 0. -1.
         22    1    3    3    0    0  0.18634976421E+03 -0.14279185154E+03  0.26158487677E+03  0.35148598157E+03  0.00000000000E+00 0. -1.
</event>
<event>
 7    1  0.5931885E-006  0.5761759E+02  0.7818608E-02  0.1418491E+00
          2   -1    0    0  502    0  0.00000000000E+00  0.00000000000E+00  0.24451290688E+04  0.24451290688E+04  0.00000000000E+00 0. -1.
          1   -1    0    0  501    0 -0.00000000000E+00 -0.00000000000E+00 -0.43926166023E+03  0.43926166023E+03  0.00000000000E+00 0. -1.
         25    2    1    2    0    0 -0.95314960740E+02  0.15845729054E+02  0.80880358818E+03  0.82409061907E+03  0.12500430120E+03 0.  0.
          2    1    1    2  501    0  0.45715903026E+02 -0.34961717913E+02 -0.42926347693E+03  0.43310437325E+03  0.00000000000E+00 0. -1.
          1    1    1    2  502    0  0.49599057715E+02  0.19115988859E+02  0.16263272973E+04  0.16271957367E+04  0.00000000000E+00 0. -1.
         22    1    3    3    0    0 -0.52589181537E+02 -0.38935583147E+02  0.18118269281E+03  0.19263636683E+03  0.00000000000E+00 0. -1.
         22    1    3    3    0    0 -0.42725779204E+02  0.54781312201E+02  0.62762089536E+03  0.63145425224E+03  0.00000000000E+00 0. -1.
</event>
<event>
 7    1  0.5931885E-006  0.7953121E+02  0.7818608E-02  0.1425733E+00
          2   -1    0    0  502    0  0.00000000000E+00  0.00000000000E+00  0.13783621886E+04  0.13783621886E+04  0.00000000000E+00 0. -1.
          1   -1    0    0  501    0 -0.00000000000E+00 -0.00000000000E+00 -0.22622792582E+03  0.22622792582E+03  0.00000000000E+00 0. -1.
         25    2    1    2    0    0 -0.33916832298E+02 -0.56328866952E+02  0.23351550378E+03  0.27289387862E+03  0.12497313998E+03 0.  0.
          2    1    1    2  501    0 -0.34223213136E+02  0.12484282843E+02 -0.20346007873E+03  0.20669564406E+03  0.00000000000E+00 0. -1.
          1    1    1    2  502    0  0.68140045433E+02  0.43844584109E+02  0.11220788377E+04  0.11250005917E+04  0.00000000000E+00 0. -1.
         22    1    3    3    0    0 -0.33319475622E+02  0.27952619494E+02  0.30621887850E+02  0.53190566906E+02  0.00000000000E+00 0.  1.
         22    1    3    3    0    0 -0.59735667600E+00 -0.84281486446E+02  0.20289361593E+03  0.21970331172E+03  0.00000000000E+00 0.  1.
</event>
<event>
 7    1  0.5931885E-006  0.8601093E+02  0.7818608E-02  0.1348694E+00
          2   -1    0    0  502    0  0.00000000000E+00  0.00000000000E+00  0.15581026470E+04  0.15581026470E+04  0.00000000000E+00 0. -1.
          1   -1    0    0  501    0 -0.00000000000E+00 -0.00000000000E+00 -0.56852742360E+02  0.56852742360E+02  0.00000000000E+00 0. -1.
         25    2    1    2    0    0  0.90628914597E+02 -0.38677612743E+01  0.48743637164E+03  0.51130783185E+03  0.12495168174E+03 0.  0.
          2    1    1    2  501    0 -0.21552648449E+02  0.58930150632E+02 -0.20160457776E+02  0.65906929578E+02  0.00000000000E+00 0. -1.
          1    1    1    2  502    0 -0.69076266148E+02 -0.55062389358E+02  0.10339739907E+04  0.10377406279E+04  0.00000000000E+00 0. -1.
         22    1    3    3    0    0  0.23275476758E+02 -0.61054358524E+02  0.18333701077E+03  0.19463258215E+03  0.00000000000E+00 0.  1.
         22    1    3    3    0    0  0.67353437839E+02  0.57186597249E+02  0.30409936087E+03  0.31667524970E+03  0.00000000000E+00 0.  1.
</event>
<event>
 7    1  0.5931885E-006  0.1079503E+03  0.7818608E-02  0.1308817E+00
          2   -1    0    0  502    0  0.00000000000E+00  0.00000000000E+00  0.46850074990E+02  0.46850074990E+02  0.00000000000E+00 0. -1.
          1   -1    0    0  501    0 -0.00000000000E+00 -0.00000000000E+00 -0.17610989023E+04  0.17610989023E+04  0.00000000000E+00 0. -1.
         25    2    1    2    0    0  0.45880362393E+02  0.28929799539E+02 -0.69552392734E+03  0.70874682337E+03  0.12500634058E+03 0.  0.
          2    1    1    2  501    0  0.68731273268E+02 -0.18025182643E+02 -0.97257580073E+03  0.97516797697E+03  0.00000000000E+00 0. -1.
          1    1    1    2  502    0 -0.11461163566E+03 -0.10904616896E+02 -0.46149099288E+02  0.12403417700E+03  0.00000000000E+00 0. -1.
         22    1    3    3    0    0  0.19695426843E+02 -0.45848885153E+02 -0.16631040110E+03  0.17363519119E+03  0.00000000000E+00 0.  1.
         22    1    3    3    0    0  0.26184935551E+02  0.74778684692E+02 -0.52921352624E+03  0.53511163218E+03  0.00000000000E+00 0.  1.
</event>
<event>
 7    1  0.5931885E-006  0.8788615E+02  0.7818608E-02  0.1349754E+00
          2   -1    0    0  502    0  0.00000000000E+00  0.00000000000E+00  0.44586106663E+03  0.44586106663E+03  0.00000000000E+00 0. -1.
          1   -1    0    0  501    0 -0.00000000000E+00 -0.00000000000E+00 -0.13162591889E+04  0.13162591889E+04  0.00000000000E+00 0. -1.
         25    2    1    2    0    0  0.10778182442E+03 -0.96978749654E+02 -0.30841377699E+03  0.36299616519E+03  0.12500143416E+03 0.  0.
          2    1    1    2  501    0 -0.34157256663E+02  0.50365286901E+02 -0.97505999346E+03  0.97695720026E+03  0.00000000000E+00 0. -1.
          1    1    1    2  502    0 -0.73624567761E+02  0.46613462753E+02  0.41307564823E+03  0.42216689004E+03  0.00000000000E+00 0. -1.
         22    1    3    3    0    0 -0.19933014758E+01 -0.15153061118E+01 -0.14174467751E+03  0.14176679091E+03  0.00000000000E+00 0.  1.
         22    1    3    3    0    0  0.10977512590E+03 -0.95463443542E+02 -0.16666909948E+03  0.22122937427E+03  0.00000000000E+00 0.  1.
</event>
<event>
 7    1  0.5931885E-006  0.1129232E+03  0.7818608E-02  0.1297921E+00
          2   -1    0    0  502    0  0.00000000000E+00  0.00000000000E+00  0.95814982752E+03  0.95814982752E+03  0.00000000000E+00 0. -1.
          1   -1    0    0  501    0 -0.00000000000E+00 -0.00000000000E+00 -0.31524538161E+03  0.31524538161E+03  0.00000000000E+00 0. -1.
         25    2    1    2    0    0 -0.46775683276E+02 -0.61160793732E+02 -0.36031364988E+02  0.15116754707E+03  0.12499904315E+03 0.  0.
          2    1    1    2  501    0  0.11213159073E+02  0.12726568363E+03 -0.20150496537E+03  0.23859283358E+03  0.00000000000E+00 0. -1.
          1    1    1    2  502    0  0.35562524203E+02 -0.66104889897E+02  0.88044077626E+03  0.88363482848E+03  0.00000000000E+00 0. -1.
         22    1    3    3    0    0 -0.10344422511E+02 -0.95380514855E+02 -0.31507193031E+02  0.10098095317E+03  0.00000000000E+00 0. -1.
         22    1    3    3    0    0 -0.36431260765E+02  0.34219721123E+02 -0.45241719572E+01  0.50186593893E+02  0.00000000000E+00 0. -1.
</event>
<event>
 7    1  0.5931885E-006  0.1044399E+03  0.7818608E-02  0.1306553E+00
          2   -1    0    0  502    0  0.00000000000E+00  0.00000000000E+00  0.95803102985E+03  0.95803102985E+03  0.00000000000E+00 0. -1.
          1   -1    0    0  501    0 -0.00000000000E+00 -0.00000000000E+00 -0.36458293685E+03  0.36458293685E+03  0.00000000000E+00 0. -1.
         25    2    1    2    0    0 -0.31701888689E+02  0.84622167702E+00  0.24999408189E+03  0.28129580519E+03  0.12499825278E+03 0.  0.
          2    1    1    2  501    0  0.10662232044E+03 -0.36785902107E+01 -0.33867506961E+03  0.35508119356E+03  0.00000000000E+00 0. -1.
          1    1    1    2  502    0 -0.74920431755E+02  0.28323685336E+01  0.68212908072E+03  0.68623696795E+03  0.00000000000E+00 0. -1.
         22    1    3    3    0    0 -0.34102296806E+02  0.30067727474E+02  0.24775335968E+03  0.25189037718E+03  0.00000000000E+00 0.  1.
         22    1    3    3    0    0  0.24004081171E+01 -0.29221505797E+02  0.22407222063E+01  0.29405428006E+02  0.00000000000E+00 0.  1.
</event>
<event>
 7    1  0.5931885E-006  0.4465688E+02  0.7818608E-02  0.1516114E+00
          2   -1    0    0  502    0  0.00000000000E+00  0.00000000000E+00  0.57456803254E+03  0.57456803254E+03  0.00000000000E+00 0. -1.
          1   -1    0    0  501    0 -0.00000000000E+00 -0.00000000000E+00 -0.53526772722E+02  0.53526772722E+02  0.00000000000E+00 0. -1.
         25    2    1    2    0    0 -0.30237653211E+02 -0.58454548535E+02  0.10622952323E+03  0.17675177643E+03  0.12500091579E+03 0.  0.
          2    1    1    2  501    0 -0.61746831455E+01  0.33399397685E+02 -0.21826762296E+00  0.33966073050E+02  0.00000000000E+00 0. -1.
          1    1    1    2  502    0  0.36412336356E+02  0.25055150850E+02  0.41503000421E+03  0.41737695578E+03  0.00000000000E+00 0. -1.
         22    1    3    3    0    0  0.33349241210E+02 -0.69108976544E+02  0.60274144634E+02  0.97576611130E+02  0.00000000000E+00 0. -1.
         22    1    3    3    0    0 -0.63586894421E+02  0.10654428010E+02  0.45955378593E+02  0.79175165298E+02  0.00000000000E+00 0. -1.
</event>
<event>
 7    1  0.5931885E-006  0.1170672E+03  0.7818608E-02  0.1313175E+00
          2   -1    0    0  502    0  0.00000000000E+00  0.00000000000E+00  0.33207716674E+03  0.33207716674E+03  0.00000000000E+00 0. -1.
          1   -1    0    0  501    0 -0.00000000000E+00 -0.00000000000E+00 -0.26476973287E+03  0.26476973287E+03  0.00000000000E+00 0. -1.
         25    2    1    2    0    0 -0.13362796805E+03 -0.11343115865E+03 -0.82415147561E+02  0.23051037319E+03  0.12497885422E+03 0.  0.
          2    1    1    2  501    0  0.46918325809E+02  0.42021302399E+02 -0.85191823864E+02  0.10594699621E+03  0.00000000000E+00 0. -1.
          1    1    1    2  502    0  0.86709642236E+02  0.71409856253E+02  0.23491440530E+03  0.26038953022E+03  0.00000000000E+00 0. -1.
         22    1    3    3    0    0 -0.49192154142E+02 -0.23871856331E+02  0.31242060435E+02  0.62974597212E+02  0.00000000000E+00 0.  1.
         22    1    3    3    0    0 -0.84435813903E+02 -0.89559302322E+02 -0.11365720800E+03  0.16753577597E+03  0.00000000000E+00 0.  1.
</event>
<event>
 7    1  0.5931885E-006  0.6277400E+02  0.7818608E-02  0.1441229E+00
          2   -1    0    0  502    0  0.00000000000E+00  0.00000000000E+00  0.54018965975E+03  0.54018965975E+03  0.00000000000E+00 0. -1.
          1   -1    0    0  501    0 -0.00000000000E+00 -0.00000000000E+00 -0.61471126321E+03  0.61471126321E+03  0.00000000000E+00 0. -1.
         25    2    1    2    0    0  0.62765654622E+02  0.43930397951E+02  0.15791322367E+02  0.14745131543E+03  0.12499246896E+03 0.  0.
          2    1    1    2  501    0 -0.24148911925E+02 -0.57890151904E+02 -0.54616337483E+03  0.54975346442E+03  0.00000000000E+00 0. -1.
          1    1    1    2  502    0 -0.38616742697E+02  0.13959753953E+02  0.45585044902E+03  0.45769614311E+03  0.00000000000E+00 0. -1.
         22    1    3    3    0    0  0.20862498005E+02 -0.19642880219E+02  0.54844678515E+02  0.61879118673E+02  0.00000000000E+00 0.  1.
         22    1    3    3    0    0  0.41903156617E+02  0.63573278170E+02 -0.39053356148E+02  0.85572196759E+02  0.00000000000E+00 0.  1.
</event>
<event>
 7    1  0.5931885E-006  0.9685481E+02  0.7818608E-02  0.1334435E+00
          2   -1    0    0  502    0  0.00000000000E+00  0.00000000000E+00  0.70369015452E+03  0.70369015452E+03  0.00000000000E+00 0. -1.
          1   -1    0    0  501    0 -0.00000000000E+00 -0.00000000000E+00 -0.26142253612E+03  0.26142253612E+03  0.00000000000E+00 0. -1.
         25    2    1    2    0    0 -0.27219197050E+02 -0.22435239418E+02  0.43043809919E+03  0.44960744535E+03  0.12500269207E+03 0.  0.
          2    1    1    2  501    0  0.79161537506E+02  0.58138637956E+02 -0.23819944520E+03  0.25765408193E+03  0.00000000000E+00 0. -1.
          1    1    1    2  502    0 -0.51942340456E+02 -0.35703398538E+02  0.25002896440E+03  0.25785116335E+03  0.00000000000E+00 0. -1.
         22    1    3    3    0    0 -0.51751042446E+02  0.33561480064E+02  0.14292562177E+03  0.15566719853E+03  0.00000000000E+00 0.  1.
         22    1    3    3    0    0  0.24531845396E+02 -0.55996719482E+02  0.28751247742E+03  0.29394024682E+03  0.00000000000E+00 0.  1.
</event>
<event>
 7    1  0.5931885E-006  0.6583941E+02  0.7818608E-02  0.1426401E+00
          2   -1    0    0  502    0  0.00000000000E+00  0.00000000000E+00  0.15578617399E+04  0.15578617399E+04  0.00000000000E+00 0. -1.
          1   -1    0    0  501    0 -0.00000000000E+00 -0.00000000000E+00 -0.29972661169E+03  0.29972661169E+03  0.00000000000E+00 0. -1.
         25    2    1    2    0    0 -0.36767007074E+02 -0.39909241413E+01  0.10665868310E+02  0.13079226865E+03  0.12500046603E+03 0.  0.
          2    1    1    2  501    0 -0.19359619241E+02  0.39268336752E+02 -0.23691796849E+03  0.24092928614E+03  0.00000000000E+00 0. -1.
          1    1    1    2  502    0  0.56126626315E+02 -0.35277412611E+02  0.14843872284E+04  0.14858667968E+04  0.00000000000E+00 0. -1.
         22    1    3    3    0    0 -0.63024615964E+02 -0.16691138388E+02 -0.36959653273E+02  0.74944728221E+02  0.00000000000E+00 0.  1.
         22    1    3    3    0    0  0.26257608890E+02  0.12700214247E+02  0.47625521582E+02  0.55847540434E+02  0.00000000000E+00 0.  1.
</event>
<event>
 7    1  0.5931885E-006  0.3204044E+02  0.7818608E-02  0.1633073E+00
          2   -1    0    0  502    0  0.00000000000E+00  0.00000000000E+00  0.11795595339E+04  0.11795595339E+04  0.00000000000E+00 0. -1.
          1   -1    0    0  501    0 -0.00000000000E+00 -0.00000000000E+00 -0.13071178132E+04  0.13071178132E+04  0.00000000000E+00 0. -1.
         25    2    1    2    0    0  0.47373605800E+02  0.22107405243E+02 -0.11718729763E+03  0.17914024057E+03  0.12500146869E+03 0.  0.
          2    1    1    2  501    0 -0.22796602923E+02 -0.15945716940E+01 -0.11586182912E+04  0.11588436359E+04  0.00000000000E+00 0. -1.
          1    1    1    2  502    0 -0.24577002877E+02 -0.20512833549E+02  0.11482473096E+04  0.11486934706E+04  0.00000000000E+00 0. -1.
         22    1    3    3    0    0  0.68924900096E+02  0.43653704771E+02 -0.30245082103E+02  0.87011796814E+02  0.00000000000E+00 0. -1.
         22    1    3    3    0    0 -0.21551294296E+02 -0.21546299528E+02 -0.86942215523E+02  0.92128443758E+02  0.00000000000E+00 0. -1.
</event>
<event>
 7    1  0.5931885E-006  0.8379828E+02  0.7818608E-02  0.1327370E+00
          2   -1    0    0  502    0  0.00000000000E+00  0.00000000000E+00  0.12856886909E+04  0.12856886909E+04  0.00000000000E+00 0. -1.
          1   -1    0    0  501    0 -0.00000000000E+00 -0.00000000000E+00 -0.62306378825E+03  0.62306378825E+03  0.00000000000E+00 0. -1.
         25    2    1    2    0    0  0.75305292017E+02  0.24872722742E+02  0.25991976614E+03  0.29912101601E+03  0.12500223217E+03 0.  0.
          2    1    1    2  501    0 -0.50468193969E+02  0.58834905086E+02 -0.59906710565E+03  0.60406124005E+03  0.00000000000E+00 0. -1.
          1    1    1    2  502    0 -0.24837098047E+02 -0.83707627828E+02  0.10017722422E+04  0.10055702231E+04  0.00000000000E+00 0. -1.
         22    1    3    3    0    0  0.51740418588E+01 -0.42982374017E+02  0.41853615298E+02  0.60216113282E+02  0.00000000000E+00 0. -1.
         22    1    3    3    0    0  0.70131250158E+02  0.67855096759E+02  0.21806615084E+03  0.23890490273E+03  0.00000000000E+00 0. -1.
</event>
<event>
 7    1  0.5931885E-006  0.9770205E+02  0.7818608E-02  0.1345956E+00
          2   -1    0    0  502    0  0.00000000000E+00  0.00000000000E+00  0.68653155693E+03  0.68653155693E+03  0.00000000000E+00 0. -1.
          1   -1    0    0  501    0 -0.00000000000E+00 -0.00000000000E+00 -0.50136000628E+03  0.50136000628E+03  0.00000000000E+00 0. -1.
         25    2    1    2    0    0  0.17704960159E+01  0.56192863120E+02 -0.32242505666E+02  0.14080058941E+03  0.12499781712E+03 0.  0.
          2    1    1    2  501    0 -0.44750307014E+02 -0.92944170975E+02 -0.40712829294E+03  0.41999363782E+03  0.00000000000E+00 0. -1.
          1    1    1    2  502    0  0.42979810998E+02  0.36751307855E+02  0.62454234926E+03  0.62709733599E+03  0.00000000000E+00 0. -1.
         22    1    3    3    0    0 -0.55143578519E+02  0.48497999414E+02  0.28581405106E+01  0.73491762574E+02  0.00000000000E+00 0.  1.
         22    1    3    3    0    0  0.56914074535E+02  0.76948637061E+01 -0.35100646176E+02  0.67308826833E+02  0.00000000000E+00 0.  1.
</event>
<event>
 7    1  0.5931885E-006  0.1127110E+03  0.7818608E-02  0.1419280E+00
          2   -1    0    0  502    0  0.00000000000E+00  0.00000000000E+00  0.22047343166E+04  0.22047343166E+04  0.00000000000E+00 0. -1.
          1   -1    0    0  501    0 -0.00000000000E+00 -0.00000000000E+00 -0.38194765758E+02  0.38194765758E+02  0.00000000000E+00 0. -1.
         25    2    1    2    0    0  0.61688169170E+02 -0.62950920140E+02  0.27031172968E+03  0.31058462189E+03  0.12500451028E+03 0.  0.
          2    1    1    2  501    0  0.21968101366E+02 -0.15711235793E+02 -0.51563278223E+01  0.27495965602E+02  0.00000000000E+00 0. -1.
          1    1    1    2  502    0 -0.83656270536E+02  0.78662155933E+02  0.19013841490E+04  0.19048484948E+04  0.00000000000E+00 0. -1.
         22    1    3    3    0    0  0.68096037909E+00  0.13397045311E+02 -0.79960067412E+01  0.15616678710E+02  0.00000000000E+00 0.  1.
         22    1    3    3    0    0  0.61007208791E+02 -0.76347965451E+02  0.27830773642E+03  0.29496794318E+03  0.00000000000E+00 0.  1.
</event>
<event>
 7    1  0.5931885E-006  0.1330209E+03  0.7818608E-02  0.1254346E+00
          2   -1    0    0  502    0  0.00000000000E+00  0.00000000000E+00  0.98778960596E+03  0.98778960596E+03  0.00000000000E+00 0. -1.
          1   -1    0    0  501    0 -0.00000000000E+00 -0.00000000000E+00 -0.16578250298E+04  0.16578250298E+04  0.00000000000E+00 0. -1.
         25    2    1    2    0    0  0.16822766485E+03  0.15304472581E+03  0.96846000947E+02  0.27699666564E+03  0.12499907824E+03 0.  0.
          2    1    1    2  501    0 -0.10392246182E+03 -0.80791473528E+02 -0.15620508499E+04  0.15675873175E+04  0.00000000000E+00 0. -1.
          1    1    1    2  502    0 -0.64305203030E+02 -0.72253252279E+02  0.79516942518E+03  0.80103065256E+03  0.00000000000E+00 0. -1.
         22    1    3    3    0    0  0.55390262691E+02  0.99083567361E+02 -0.79894113867E+01  0.11379571704E+03  0.00000000000E+00 0.  1.
         22    1    3    3    0    0  0.11283740216E+03  0.53961158447E+02  0.10483541233E+03  0.16320094861E+03  0.00000000000E+00 0.  1.
</event>
<event>
 7    1  0.5931885E-006  0.8087082E+02  0.7818608E-02  0.1492664E+00
          2   -1    0    0  502    0  0.00000000000E+00  0.00000000000E+00  0.55780572820E+03  0.55780572820E+03  0.00000000000E+00 0. -1.
          1   -1    0    0  501    0 -0.00000000000E+00 -0.00000000000E+00 -0.11876480061E+04  0.11876480061E+04  0.00000000000E+00 0. -1.
         25    2    1    2    0    0  0.63393241052E+02 -0.68226713162E+01 -0.79694678418E+03  0.80920505415E+03  0.12499356380E+03 0.  0.
          2    1    1    2  501    0  0.13950998412E+02 -0.17028913749E+02 -0.38128419949E+03  0.38191917344E+03  0.00000000000E+00 0. -1.
          1    1    1    2  502    0 -0.77344239463E+02  0.23851585065E+02  0.54838870573E+03  0.55432950676E+03  0.00000000000E+00 0. -1.
         22    1    3    3    0    0  0.62733864363E+02 -0.16346108710E+02 -0.16634779151E+03  0.17853380842E+03  0.00000000000E+00 0. -1.
         22    1    3    3    0    0  0.65937668869E+00  0.95234373938E+01 -0.63059899267E+03  0.63067124573E+03  0.00000000000E+00 0. -1.
</event>
<event>
 7    1  0.5931885E-006  0.3364811E+02  0.7818608E-02  0.1589176E+00
          2   -1    0    0  502    0  0.00000000000E+00  0.00000000000E+00  0.24711371427E+03  0.24711371427E+03  0.00000000000E+00 0. -1.
          1   -1    0    0  501    0 -0.00000000000E+00 -0.00000000000E+00 -0.73598095454E+02  0.73598095454E+02  0.00000000000E+00 0. -1.
         25    2    1    2    0    0  0.47398040115E+01 -0.60206684957E+02  0.10842718124E+03  0.17615572342E+03  0.12500829815E+03 0.  0.
          2    1    1    2  501    0 -0.13925179101E+00  0.32350707620E+02 -0.30757270438E+02  0.44638518785E+02  0.00000000000E+00 0. -1.
          1    1    1    2  502    0 -0.46005522205E+01  0.27855977337E+02  0.95845708017E+02  0.99917567522E+02  0.00000000000E+00 0. -1.
         22    1    3    3    0    0  0.33223424134E+02 -0.31795407370E+02  0.12458517497E+03  0.13280139179E+03  0.00000000000E+00 0. -1.
         22    1    3    3    0    0 -0.28483620123E+02 -0.28411277587E+02 -0.16157993727E+02  0.43354331626E+02  0.00000000000E+00 0. -1.
</event>
<event>
 7    1  0.6267823E-006  0.4464211E+02  0.7818608E-02  0.1528924E+00
          2   -1    0    0  502    0  0.00000000000E+00  0.00000000000E+00  0.10654895446E+04  0.10654895446E+04  0.00000000000E+00 0. -1.
          1   -1    0    0  501    0 -0.00000000000E+00 -0.00000000000E+00 -0.67533839515E+03  0.67533839515E+03  0.00000000000E+00 0. -1.
         25    2    1    2    0    0 -0.13883920452E+02 -0.26908656681E+01 -0.15307536746E+03  0.19813401135E+03  0.12500005729E+03 0.  0.
          2    1    1    2  501    0 -0.30778060005E+02  0.50940041894E+01 -0.49876661874E+03  0.49974131091E+03  0.00000000000E+00 0. -1.
          1    1    1    2  502    0  0.44661980457E+02 -0.24031385213E+01  0.10419931356E+04  0.10429526175E+04  0.00000000000E+00 0. -1.
         22    1    3    3    0    0  0.15642300140E+02  0.50278946258E+02 -0.11512371071E+03  0.12659432357E+03  0.00000000000E+00 0. -1.
         22    1    3    3    0    0 -0.29526220592E+02 -0.52969811926E+02 -0.37951656751E+02  0.71539687782E+02  0.00000000000E+00 0. -1.
</event>
<event>
 7    1  0.5931885E-006  0.1286155E+03  0.7818608E-02  0.1301123E+00
          2   -1    0    0  502    0  0.00000000000E+00  0.00000000000E+00  0.16106380333E+04  0.16106380333E+04  0.00000000000E+00 0. -1.
          1   -1    0    0  501    0 -0.00000000000E+00 -0.00000000000E+00 -0.91674060760E+03  0.91674060760E+03  0.00000000000E+00 0. -1.
         25    2    1    2    0    0 -0.11048895672E+03  0.47142576356E+02  0.12293420831E+04  0.12415060338E+04  0.12500017095E+03 0.  0.
          2    1    1    2  501    0 -0.41798561154E+01  0.63850424901E+02 -0.89249201582E+03  0.89478284866E+03  0.00000000000E+00 0. -1.
          1    1    1    2  502    0  0.11466881283E+03 -0.11099300126E+03  0.35704735849E+03  0.39108975845E+03  0.00000000000E+00 0. -1.
         22    1    3    3    0    0 -0.10804884161E+03  0.70798790315E+02  0.11763591297E+04  0.11834305315E+04  0.00000000000E+00 0. -1.
         22    1    3    3    0    0 -0.24401151011E+01 -0.23656213958E+02  0.52982953392E+02  0.58075502328E+02  0.00000000000E+00 0. -1.
</event>
<event>
 7    1  0.5931885E-006  0.3793609E+02  0.7818608E-02  0.1525603E+00
          2   -1    0    0  502    0  0.00000000000E+00  0.00000000000E+00  0.33949577253E+03  0.33949577253E+03  0.00000000000E+00 0. -1.
          1   -1    0    0  501    0 -0.00000000000E+00 -0.00000000000E+00 -0.82376233565E+03  0.82376233565E+03  0.00000000000E+00 0. -1.
         25    2    1    2    0    0 -0.35774311663E+02 -0.40311557930E+00  0.19670378209E+02  0.13149572880E+03  0.12499695611E+03 0.  0.
          2    1    1    2  501    0  0.18169734793E+02 -0.33301764879E+02 -0.76600810269E+03  0.76694690833E+03  0.00000000000E+00 0. -1.
          1    1    1    2  502    0  0.17604576870E+02  0.33704880459E+02  0.26207116136E+03  0.26481547106E+03  0.00000000000E+00 0. -1.
         22    1    3    3    0    0  0.29347832325E+02  0.18418464977E+02  0.47012850021E+02  0.58401568312E+02  0.00000000000E+00 0. -1.
         22    1    3    3    0    0 -0.65122143988E+02 -0.18821580556E+02 -0.27342471811E+02  0.73094160485E+02  0.00000000000E+00 0. -1.
</event>
<event>
 7    1  0.5931885E-006  0.1833529E+03  0.7818608E-02  0.1350261E+00
          2   -1    0    0  502    0  0.00000000000E+00  0.00000000000E+00  0.69227600242E+03  0.69227600242E+03  0.00000000000E+00 0. -1.
          1   -1    0    0  501    0 -0.00000000000E+00 -0.00000000000E+00 -0.45843191502E+03  0.45843191502E+03  0.00000000000E+00 0. -1.
         25    2    1    2    0    0  0.94884698389E+02 -0.15728598765E+03 -0.25400837769E+02  0.22363597237E+03  0.12500343068E+03 0.  0.
          2    1    1    2  501    0 -0.68927537587E+02  0.17031521009E+03 -0.30823928454E+03  0.35884499824E+03  0.00000000000E+00 0. -1.
          1    1    1    2  502    0 -0.25957160801E+02 -0.13029222443E+02  0.56748420971E+03  0.56822694683E+03  0.00000000000E+00 0. -1.
         22    1    3    3    0    0  0.10347926832E+03 -0.17417460529E+03 -0.18378540426E+02  0.20342694720E+03  0.00000000000E+00 0.  1.
         22    1    3    3    0    0 -0.85945699295E+01  0.16888617646E+02 -0.70222973430E+01  0.20209025168E+02  0.00000000000E+00 0.  1.
</event>
<event>
 7    1  0.5931885E-006  0.1082653E+03  0.7818608E-02  0.1277271E+00
          2   -1    0    0  502    0  0.00000000000E+00  0.00000000000E+00  0.17547604658E+04  0.17547604658E+04  0.00000000000E+00 0. -1.
          1   -1    0    0  501    0 -0.00000000000E+00 -0.00000000000E+00 -0.83106214272E+03  0.83106214272E+03  0.00000000000E+00 0. -1.
         25    2    1    2    0    0  0.78769906087E+02 -0.12489645547E+03  0.15019330703E+03  0.24492259503E+03  0.12500090154E+03 0.  0.
          2    1    1    2  501    0  0.24097965655E+02  0.91963858300E+02 -0.77893098152E+03  0.78471111701E+03  0.00000000000E+00 0. -1.
          1    1    1    2  502    0 -0.10286787174E+03  0.32932597174E+02  0.15524359975E+04  0.15561888965E+04  0.00000000000E+00 0. -1.
         22    1    3    3    0    0  0.41013255650E+02 -0.75277149368E+02  0.38053443016E+01  0.85809189492E+02  0.00000000000E+00 0.  1.
         22    1    3    3    0    0  0.37756650437E+02 -0.49619306107E+02  0.14638796272E+03  0.15911340554E+03  0.00000000000E+00 0.  1.
</event>
<event>
 7    1  0.5931885E-006  0.1398229E+03  0.7818608E-02  0.1270687E+00
          2   -1    0    0  502    0  0.00000000000E+00  0.00000000000E+00  0.11145816538E+04  0.11145816538E+04  0.00000000000E+00 0. -1.
          1   -1    0    0  501    0 -0.00000000000E+00 -0.00000000000E+00 -0.14956973676E+03  0.14956973676E+03  0.00000000000E+00 0. -1.
         25    2    1    2    0    0  0.18559508461E+02 -0.10581675231E+03 -0.13574567781E+02  0.16538177484E+03  0.12500088854E+03 0.  0.
          2    1    1    2  501    0 -0.74168404383E+02 -0.25466363311E+02 -0.27143900384E+02  0.82983608003E+02  0.00000000000E+00 0. -1.
          1    1    1    2  502    0  0.55608895922E+02  0.13128311563E+03  0.10057303852E+04  0.10157860077E+04  0.00000000000E+00 0. -1.
         22    1    3    3    0    0 -0.15137278043E+02 -0.11318898270E+03 -0.40979306804E+02  0.12132677601E+03  0.00000000000E+00 0.  1.
         22    1    3    3    0    0  0.33696786504E+02  0.73722303819E+01  0.27404739023E+02  0.44054998836E+02  0.00000000000E+00 0.  1.
</event>
<event>
 7    1  0.5931885E-006  0.8231908E+02  0.7818608E-02  0.1376872E+00
          2   -1    0    0  502    0  0.00000000000E+00  0.00000000000E+00  0.24284056920E+04  0.24284056920E+04  0.00000000000E+00 0. -1.
          1   -1    0    0  501    0 -0.00000000000E+00 -0.00000000000E+00 -0.45294770824E+02  0.45294770824E+02  0.00000000000E+00 0. -1.
         25    2    1    2    0    0 -0.24031756639E+02  0.11494813616E+03  0.98893091141E+03  0.10036947917E+04  0.12501315107E+03 0.  0.
          2    1    1    2  501    0 -0.17393352598E+02 -0.48780512697E+02 -0.18632155213E+02  0.55038389706E+02  0.00000000000E+00 0. -1.
          1    1    1    2  502    0  0.41425109237E+02 -0.66167623460E+02  0.14128121650E+04  0.14149672815E+04  0.00000000000E+00 0. -1.
         22    1    3    3    0    0  0.30452039367E+02 -0.10685020205E+02  0.13177854727E+03  0.13567270130E+03  0.00000000000E+00 0.  1.
         22    1    3    3    0    0 -0.54483796006E+02  0.12563315636E+03  0.85715236414E+03  0.86802209036E+03  0.00000000000E+00 0.  1.
</event>
<event>
 7    1  0.5931885E-006  0.6885608E+02  0.7818608E-02  0.1393113E+00
          2   -1    0    0  502    0  0.00000000000E+00  0.00000000000E+00  0.27976260566E+04  0.27976260566E+04  0.00000000000E+00 0. -1.
          1   -1    0    0  501    0 -0.00000000000E+00 -0.00000000000E+00 -0.15348978952E+03  0.15348978952E+03  0.00000000000E+00 0. -1.
         25    2    1    2    0    0 -0.10407733545E+01 -0.23301891355E+02  0.18398224166E+03  0.22364751805E+03  0.12499874293E+03 0.  0.
          2    1    1    2  501    0  0.44985092143E+02  0.55175828630E+02 -0.12387226271E+03  0.14287185884E+03  0.00000000000E+00 0. -1.
          1    1    1    2  502    0 -0.43944318788E+02 -0.31873937275E+02  0.25840262881E+04  0.25845964693E+04  0.00000000000E+00 0. -1.
         22    1    3    3    0    0 -0.58829816497E+02 -0.33250673492E+02  0.11195384355E+03  0.13076780063E+03  0.00000000000E+00 0.  1.
         22    1    3    3    0    0  0.57789043142E+02  0.99487821372E+01  0.72028398107E+02  0.92879717415E+02  0.00000000000E+00 0.  1.
</event>
<event>
 7    1  0.5931885E-006  0.1556406E+03  0.7818608E-02  0.1246900E+00
          2   -1    0    0  502    0  0.00000000000E+00  0.00000000000E+00  0.16075166378E+03  0.16075166378E+03  0.00000000000E+00 0. -1.
          1   -1    0    0  501    0 -0.00000000000E+00 -0.00000000000E+00 -0.24194448628E+04  0.24194448628E+04  0.00000000000E+00 0. -1.
         25    2    1    2    0    0  0.12685038908E+03  0.19713602525E+03 -0.33113304411E+03  0.42453098521E+03  0.12499532328E+03 0.  0.
          2    1    1    2  501    0 -0.59549331623E+02 -0.13883171718E+03 -0.20209736407E+04  0.20266116611E+04  0.00000000000E+00 0. -1.
          1    1    1    2  502    0 -0.67301057460E+02 -0.58304308073E+02  0.93413485794E+02  0.12905388023E+03  0.00000000000E+00 0. -1.
         22    1    3    3    0    0  0.96419013768E+02  0.20951306545E+03 -0.30592499809E+03  0.38312198484E+03  0.00000000000E+00 0. -1.
         22    1    3    3    0    0  0.30431375315E+02 -0.12377040203E+02 -0.25208046019E+02  0.41409000372E+02  0.00000000000E+00 0. -1.
</event>
<event>
 7    1  0.5931885E-006  0.8386779E+02  0.7818608E-02  0.1328262E+00
          2   -1    0    0  502    0  0.00000000000E+00  0.00000000000E+00  0.85488732285E+03  0.85488732285E+03  0.00000000000E+00 0. -1.
          1   -1    0    0  501    0 -0.00000000000E+00 -0.00000000000E+00 -0.16752081825E+03  0.16752081825E+03  0.00000000000E+00 0. -1.
         25    2    1    2    0    0 -0.68510746972E+01 -0.39115634347E+02  0.39380557978E+03  0.41507237000E+03  0.12500107041E+03 0.  0.
          2    1    1    2  501    0 -0.31504297366E+02 -0.70088821896E+02 -0.13939658115E+03  0.15917402597E+03  0.00000000000E+00 0. -1.
          1    1    1    2  502    0  0.38355372063E+02  0.10920445624E+03  0.43295750596E+03  0.44816174513E+03  0.00000000000E+00 0. -1.
         22    1    3    3    0    0  0.53255985656E+02 -0.49116803734E+01  0.10185420536E+03  0.11504174791E+03  0.00000000000E+00 0. -1.
         22    1    3    3    0    0 -0.60107060353E+02 -0.34203953973E+02  0.29195137441E+03  0.30003062209E+03  0.00000000000E+00 0. -1.
</event>
<event>
 7    1  0.5931885E-006  0.1101808E+03  0.7818608E-02  0.1338746E+00
          2   -1    0    0  502    0  0.00000000000E+00  0.00000000000E+00  0.12705070877E+04  0.12705070877E+04  0.00000000000E+00 0. -1.
          1   -1    0    0  501    0 -0.00000000000E+00 -0.00000000000E+00 -0.14231678673E+04  0.14231678673E+04  0.00000000000E+00 0. -1.
         25    2    1    2    0    0 -0.15544312170E+02 -0.15959036078E+03 -0.21219213052E+03  0.29387218476E+03  0.12499860731E+03 0.  0.
          2    1    1    2  501    0  0.14045780330E+02  0.10624596816E+03 -0.11671004623E+04  0.11720106564E+04  0.00000000000E+00 0. -1.
          1    1    1    2  502    0  0.14985318407E+01  0.53344392623E+02  0.12266318131E+04  0.12277921138E+04  0.00000000000E+00 0. -1.
         22    1    3    3    0    0 -0.30735297244E+02 -0.13187469160E+03 -0.78548646381E+02  0.15654227106E+03  0.00000000000E+00 0.  1.
         22    1    3    3    0    0  0.15190985073E+02 -0.27715669188E+02 -0.13364348414E+03  0.13732991370E+03  0.00000000000E+00 0.  1.
</event>
<event>
 7    1  0.5931885E-006  0.4390344E+02  0.7818608E-02  0.1501886E+00
          2   -1    0    0  502    0  0.00000000000E+00  0.00000000000E+00  0.97351588663E+03  0.97351588663E+03  0.00000000000E+00 0. -1.
          1   -1    0    0  501    0 -0.00000000000E+00 -0.00000000000E+00 -0.10994678459E+03  0.10994678459E+03  0.00000000000E+00 0. -1.
         25    2    1    2    0    0  0.67751816493E+02 -0.27980991356E+02  0.13050049950E+03  0.19501141339E+03  0.12500330583E+03 0.  0.
          2    1    1    2  501    0 -0.43025013837E+02 -0.94073009307E+00 -0.71247241593E+02  0.83235846986E+02  0.00000000000E+00 0. -1.
          1    1    1    2  502    0 -0.24726802656E+02  0.28921721449E+02  0.80431584413E+03  0.80521541084E+03  0.00000000000E+00 0. -1.
         22    1    3    3    0    0 -0.15212105486E+02 -0.53815151913E+02  0.67639795217E+02  0.87764575004E+02  0.00000000000E+00 0.  1.
         22    1    3    3    0    0  0.82963921980E+02  0.25834160557E+02  0.62860704281E+02  0.10724683839E+03  0.00000000000E+00 0.  1.
</event>
<event>
 7    1  0.5931885E-006  0.8477100E+02  0.7818608E-02  0.1335592E+00
          2   -1    0    0  502    0  0.00000000000E+00  0.00000000000E+00  0.29724813973E+04  0.29724813973E+04  0.00000000000E+00 0. -1.
          1   -1    0    0  501    0 -0.00000000000E+00 -0.00000000000E+00 -0.78382919441E+02  0.78382919441E+02  0.00000000000E+00 0. -1.
         25    2    1    2    0    0  0.97794191556E+02  0.52626326594E+02  0.29388068234E+03  0.33811955526E+03  0.12500297614E+03 0.  0.
          2    1    1    2  501    0 -0.66357888953E+02  0.26057895887E+02 -0.32722105868E+02  0.78441822881E+02  0.00000000000E+00 0. -1.
          1    1    1    2  502    0 -0.31436302602E+02 -0.78684222481E+02  0.26329399013E+04  0.26343029385E+04  0.00000000000E+00 0. -1.
         22    1    3    3    0    0  0.37777888505E+02 -0.58214482559E+00  0.23650473199E+03  0.23950364508E+03  0.00000000000E+00 0.  1.
         22    1    3    3    0    0  0.60016303050E+02  0.53208471419E+02  0.57375950352E+02  0.98615910184E+02  0.00000000000E+00 0.  1.
</event>
<event>
 7    1  0.5931885E-006  0.1472894E+03  0.7818608E-02  0.1228640E+00
          2   -1    0    0  502    0  0.00000000000E+00  0.00000000000E+00  0.63028347437E+03  0.63028347437E+03  0.00000000000E+00 0. -1.
          1   -1    0    0  501    0 -0.00000000000E+00 -0.00000000000E+00 -0.11915481608E+03  0.11915481608E+03  0.00000000000E+00 0. -1.
         25    2    1    2    0    0  0.71408774046E+02 -0.32149804336E+02  0.37167624435E+03  0.39987650110E+03  0.12500065033E+03 0.  0.
          2    1    1    2  501    0 -0.77054903492E+02  0.14534979665E+03 -0.66561388312E+01  0.16464606197E+03  0.00000000000E+00 0. -1.
          1    1    1    2  502    0  0.56461294461E+01 -0.11319999232E+03  0.14610855277E+03  0.18491572737E+03  0.00000000000E+00 0. -1.
         22    1    3    3    0    0  0.28627979010E+02 -0.72627320331E+02  0.28187223993E+03  0.29248290289E+03  0.00000000000E+00 0. -1.
         22    1    3    3    0    0  0.42780795036E+02  0.40477515995E+02  0.89804004420E+02  0.10739359820E+03  0.00000000000E+00 0. -1.
</event>
<event>
 7    1  0.5931885E-006  0.1589003E+03  0.7818608E-02  0.1252417E+00
          2   -1    0    0  502    0  0.00000000000E+00  0.00000000000E+00  0.62981256009E+03  0.62981256009E+03  0.00000000000E+00 0. -1.
          1   -1    0    0  501    0 -0.00000000000E+00 -0.00000000000E+00 -0.37470911945E+03  0.37470911945E+03  0.00000000000E+00 0. -1.
         25    2    1    2    0    0  0.12930364913E+03 -0.81208712058E+01 -0.51114848438E+02  0.18714482491E+03  0.12500030213E+03 0.  0.
          2    1    1    2  501    0  0.69482994241E+01 -0.82245257144E+02 -0.23654077386E+03  0.25052764096E+03  0.00000000000E+00 0. -1.
          1    1    1    2  502    0 -0.13625194855E+03  0.90366128350E+02  0.54275906294E+03  0.56684921367E+03  0.00000000000E+00 0. -1.
         22    1    3    3    0    0 -0.11545034976E+02  0.25098997021E+02 -0.30196274348E+02  0.40927527027E+02  0.00000000000E+00 0. -1.
         22    1    3    3    0    0  0.14084868411E+03 -0.33219868227E+02 -0.20918574090E+02  0.14621729789E+03  0.00000000000E+00 0. -1.
</event>
<event>
 7    1  0.6311316E-006  0.7165685E+02  0.7818608E-02  0.1388884E+00
          2   -1    0    0  502    0  0.00000000000E+00  0.00000000000E+00  0.22186229819E+04  0.22186229819E+04  0.00000000000E+00 0. -1.
          1   -1    0    0  501    0 -0.00000000000E+00 -0.00000000000E+00 -0.39311537458E+03  0.39311537458E+03  0.00000000000E+00 0. -1.
         25    2    1    2    0    0  0.20444827618E+02  0.28612253460E+02 -0.51660456353E+02  0.13975996199E+03  0.12500956844E+03 0.  0.
          2    1    1    2  501    0 -0.73793735475E+02 -0.20478865375E+02 -0.29213396840E+03  0.30200522316E+03  0.00000000000E+00 0. -1.
          1    1    1    2  502    0  0.53348907857E+02 -0.81333880853E+01  0.21693020321E+04  0.21699731714E+04  0.00000000000E+00 0. -1.
         22    1    3    3    0    0  0.58717871510E+02  0.18349459349E+02  0.13979812630E+02  0.63086656705E+02  0.00000000000E+00 0.  1.
         22    1    3    3    0    0 -0.38273043892E+02  0.10262794111E+02 -0.65640268982E+02  0.76673305288E+02  0.00000000000E+00 0.  1.
</event>
<event>
 7    1  0.5931885E-006  0.5847161E+02  0.7818608E-02  0.1409968E+00
          2   -1    0    0  502    0  0.00000000000E+00  0.00000000000E+00  0.34838374689E+04  0.34838374689E+04  0.00000000000E+00 0. -1.
          1   -1    0    0  501    0 -0.00000000000E+00 -0.00000000000E+00 -0.93245740979E+02  0.93245740979E+02  0.00000000000E+00 0. -1.
         25    2    1    2    0    0 -0.50988139531E+02  0.57410221773E+02  0.29817777270E+03  0.33231205022E+03  0.12500236258E+03 0.  0.
          2    1    1    2  501    0 -0.49606498588E+01 -0.58428827217E+02 -0.64609355525E+02  0.87251961114E+02  0.00000000000E+00 0. -1.
          1    1    1    2  502    0  0.55948789389E+02  0.10186054442E+01  0.31570233107E+04  0.31575191985E+04  0.00000000000E+00 0. -1.
         22    1    3    3    0    0  0.21223740950E+02  0.65072638657E+02  0.19061483264E+03  0.20253125661E+03  0.00000000000E+00 0.  1.
         22    1    3    3    0    0 -0.72211880481E+02 -0.76624168838E+01  0.10756294006E+03  0.12978079361E+03  0.00000000000E+00 0.  1.
</event>
<event>
 7    1  0.5931885E-006  0.3821981E+02  0.7818608E-02  0.1587449E+00
          2   -1    0    0  502    0  0.00000000000E+00  0.00000000000E+00  0.19251277973E+03  0.19251277973E+03  0.00000000000E+00 0. -1.
          1   -1    0    0  501    0 -0.00000000000E+00 -0.00000000000E+00 -0.18650595322E+04  0.18650595322E+04  0.00000000000E+00 0. -1.
         25    2    1    2    0    0  0.18535873308E+02 -0.16351200248E+02 -0.97924563794E+03  0.98750066512E+03  0.12499841535E+03 0.  0.
          2    1    1    2  501    0 -0.12986763696E+02 -0.21502285112E+02 -0.87956281378E+03  0.87992144404E+03  0.00000000000E+00 0. -1.
          1    1    1    2  502    0 -0.55491096117E+01  0.37853485359E+02  0.18626169929E+03  0.19015020272E+03  0.00000000000E+00 0. -1.
         22    1    3    3    0    0  0.36446785528E+02 -0.44829708931E+02 -0.21843991272E+03  0.22595146923E+03  0.00000000000E+00 0.  1.
         22    1    3    3    0    0 -0.17910912220E+02  0.28478508683E+02 -0.76080572522E+03  0.76154919589E+03  0.00000000000E+00 0.  1.
</event>
<event>
 7    1  0.5931885E-006  0.1053131E+03  0.7818608E-02  0.1285523E+00
          2   -1    0    0  502    0  0.00000000000E+00  0.00000000000E+00  0.96095790271E+03  0.96095790271E+03  0.00000000000E+00 0. -1.
          1   -1    0    0  501    0 -0.00000000000E+00 -0.00000000000E+00 -0.15536252610E+04  0.15536252610E+04  0.00000000000E+00 0. -1.
         25    2    1    2    0    0  0.10098296961E+03 -0.16327995163E+03 -0.21766833409E+03  0.31600910943E+03  0.12499740326E+03 0.  0.
          2    1    1    2  501    0 -0.50274822669E+02  0.88479583636E+02 -0.12825269159E+04  0.12865579989E+04  0.00000000000E+00 0. -1.
          1    1    1    2  502    0 -0.50708146944E+02  0.74800367990E+02  0.90752789166E+03  0.91201605543E+03  0.00000000000E+00 0. -1.
         22    1    3    3    0    0 -0.69511122701E+00 -0.11585803698E+03 -0.12558284221E+03  0.17086432679E+03  0.00000000000E+00 0. -1.
         22    1    3    3    0    0  0.10167808084E+03 -0.47421914643E+02 -0.92085491887E+02  0.14514478264E+03  0.00000000000E+00 0. -1.
</event>
<event>
 7    1  0.5931885E-006  0.1351885E+03  0.7818608E-02  0.1300741E+00
          2   -1    0    0  502    0  0.00000000000E+00  0.00000000000E+00  0.29680344105E+03  0.29680344105E+03  0.00000000000E+00 0. -1.
          1   -1    0    0  501    0 -0.00000000000E+00 -0.00000000000E+00 -0.11751310035E+04  0.11751310035E+04  0.00000000000E+00 0. -1.
         25    2    1    2    0    0  0.50844010941E+02  0.12773935201E+03 -0.38366265195E+03  0.42629149178E+03  0.12499979987E+03 0.  0.
          2    1    1    2  501    0 -0.10122909217E+03 -0.93194977589E+02 -0.76051612145E+03  0.77286312109E+03  0.00000000000E+00 0. -1.
          1    1    1    2  502    0  0.50385081225E+02 -0.34544374422E+02  0.26585121094E+03  0.27277983168E+03  0.00000000000E+00 0. -1.
         22    1    3    3    0    0  0.41436517307E+02  0.15259693987E+03 -0.31035650532E+03  0.34831590751E+03  0.00000000000E+00 0. -1.
         22    1    3    3    0    0  0.94074936340E+01 -0.24857587860E+02 -0.73306146623E+02  0.77975584277E+02  0.00000000000E+00 0. -1.
</event>
<event>
 7    1  0.5931885E-006  0.3110479E+03  0.7818608E-02  0.1158119E+00
          2   -1    0    0  502    0  0.00000000000E+00  0.00000000000E+00  0.59928256060E+03  0.59928256060E+03  0.00000000000E+00 0. -1.
          1   -1    0    0  501    0 -0.00000000000E+00 -0.00000000000E+00 -0.69110263019E+03  0.69110263019E+03  0.00000000000E+00 0. -1.
         25    2    1    2    0    0  0.33012920556E+03 -0.78733891094E+02 -0.23486153851E+03  0.43124558146E+03  0.12501396439E+03 0.  0.
          2    1    1    2  501    0 -0.25108781220E+03  0.16435041321E+03 -0.28600348644E+03  0.41455294235E+03  0.00000000000E+00 0. -1.
          1    1    1    2  502    0 -0.79041393360E+02 -0.85616522114E+02  0.42904495537E+03  0.44458666697E+03  0.00000000000E+00 0. -1.
         22    1    3    3    0    0  0.27814211283E+03 -0.13780325055E+02 -0.18125653926E+03  0.33227528544E+03  0.00000000000E+00 0. -1.
         22    1    3    3    0    0  0.51987092730E+02 -0.64953566039E+02 -0.53604999244E+02  0.98970296026E+02  0.00000000000E+00 0. -1.
</event>
<event>
 7    1  0.5931885E-006  0.6842948E+02  0.7818608E-02  0.1438010E+00
          2   -1    0    0  502    0  0.00000000000E+00  0.00000000000E+00  0.13407274899E+04  0.13407274899E+04  0.00000000000E+00 0. -1.
          1   -1    0    0  501    0 -0.00000000000E+00 -0.00000000000E+00 -0.44890105577E+03  0.44890105577E+03  0.00000000000E+00 0. -1.
         25    2    1    2    0    0 -0.90763952601E+02  0.55908441135E+00  0.60408453903E+02  0.16586618090E+03  0.12499600393E+03 0.  0.
          2    1    1    2  501    0  0.28159843141E+02  0.26380462927E+02 -0.39428369652E+03  0.39616731179E+03  0.00000000000E+00 0. -1.
          1    1    1    2  502    0  0.62604109460E+02 -0.26939547338E+02  0.12257016767E+04  0.12275950530E+04  0.00000000000E+00 0. -1.
         22    1    3    3    0    0 -0.48604045746E+02  0.93422823270E+01 -0.35382206828E+02  0.60840217471E+02  0.00000000000E+00 0. -1.
         22    1    3    3    0    0 -0.42159906855E+02 -0.87831979156E+01  0.95790660731E+02  0.10502596343E+03  0.00000000000E+00 0. -1.
</event>
<event>
 7    1  0.5931885E-006  0.1635815E+03  0.7818608E-02  0.1277440E+00
          2   -1    0    0  502    0  0.00000000000E+00  0.00000000000E+00  0.14660580375E+04  0.14660580375E+04  0.00000000000E+00 0. -1.
          1   -1    0    0  501    0 -0.00000000000E+00 -0.00000000000E+00 -0.90707836332E+03  0.90707836332E+03  0.00000000000E+00 0. -1.
         25    2    1    2    0    0 -0.73051232076E+02  0.13361205489E+03  0.41033691038E+03  0.45518144449E+03  0.12500041467E+03 0.  0.
          2    1    1    2  501    0  0.12777934319E+03 -0.10277286743E+03 -0.87608703321E+03  0.89130147121E+03  0.00000000000E+00 0. -1.
          1    1    1    2  502    0 -0.54728111114E+02 -0.30839187462E+02  0.10247297970E+04  0.10266534851E+04  0.00000000000E+00 0. -1.
         22    1    3    3    0    0 -0.89109224145E+02  0.35243593407E+02  0.22936840081E+03  0.24858082789E+03  0.00000000000E+00 0.  1.
         22    1    3    3    0    0  0.16057992069E+02  0.98368461483E+02  0.18096850957E+03  0.20660061660E+03  0.00000000000E+00 0.  1.
</event>
<event>
 7    1  0.5931885E-006  0.5282372E+02  0.7818608E-02  0.1477986E+00
          2   -1    0    0  502    0  0.00000000000E+00  0.00000000000E+00  0.50033983318E+03  0.50033983318E+03  0.00000000000E+00 0. -1.
          1   -1    0    0  501    0 -0.00000000000E+00 -0.00000000000E+00 -0.93383675991E+03  0.93383675991E+03  0.00000000000E+00 0. -1.
         25    2    1    2    0    0  0.73648454633E+02  0.33234880215E+02 -0.12713375951E+03  0.19574750927E+03  0.12500176977E+03 0.  0.
          2    1    1    2  501    0 -0.37072299872E+02  0.45915407320E+01 -0.77045692831E+03  0.77136198768E+03  0.00000000000E+00 0. -1.
          1    1    1    2  502    0 -0.36576154761E+02 -0.37826420947E+02  0.46409376109E+03  0.46706709614E+03  0.00000000000E+00 0. -1.
         22    1    3    3    0    0 -0.17220105786E+02 -0.30365604354E+02 -0.14901811626E+02  0.37956105712E+02  0.00000000000E+00 0.  1.
         22    1    3    3    0    0  0.90868560419E+02  0.63600484569E+02 -0.11223194788E+03  0.15779140356E+03  0.00000000000E+00 0.  1.
</event>
<event>
 7    1  0.5931885E-006  0.6315201E+02  0.7818608E-02  0.1516471E+00
          2   -1    0    0  502    0  0.00000000000E+00  0.00000000000E+00  0.16457807767E+03  0.16457807767E+03  0.00000000000E+00 0. -1.
          1   -1    0    0  501    0 -0.00000000000E+00 -0.00000000000E+00 -0.85059768263E+03  0.85059768263E+03  0.00000000000E+00 0. -1.
         25    2    1    2    0    0  0.35630403606E+02 -0.27590390736E+02 -0.25273656880E+02  0.13525864048E+03  0.12500154708E+03 0.  0.
          2    1    1    2  501    0  0.23957096660E+02  0.40477931128E+00 -0.76033968245E+03  0.76071712156E+03  0.00000000000E+00 0. -1.
          1    1    1    2  502    0 -0.59587500266E+02  0.27185611424E+02  0.99593734379E+02  0.11919999826E+03  0.00000000000E+00 0. -1.
         22    1    3    3    0    0  0.28294880577E+02 -0.44874908171E+02  0.40572980020E+02  0.66787157134E+02  0.00000000000E+00 0. -1.
         22    1    3    3    0    0  0.73355230291E+01  0.17284517436E+02 -0.65846636900E+02  0.68471483350E+02  0.00000000000E+00 0. -1.
</event>
<event>
 7    1  0.5931885E-006  0.3571223E+02  0.7818608E-02  0.1594005E+00
          2   -1    0    0  502    0  0.00000000000E+00  0.00000000000E+00  0.78656947028E+03  0.78656947028E+03  0.00000000000E+00 0. -1.
          1   -1    0    0  501    0 -0.00000000000E+00 -0.00000000000E+00 -0.57998347432E+02  0.57998347432E+02  0.00000000000E+00 0. -1.
         25    2    1    2    0    0  0.12861035112E+02  0.58303506983E+02  0.34993132295E+03  0.37636007544E+03  0.12502108002E+03 0.  0.
          2    1    1    2  501    0 -0.13727780309E+02 -0.32486503984E+02 -0.37377227795E+02  0.51389513045E+02  0.00000000000E+00 0. -1.
          1    1    1    2  502    0  0.86674519678E+00 -0.25817002999E+02  0.41601702768E+03  0.41681822923E+03  0.00000000000E+00 0. -1.
         22    1    3    3    0    0  0.86207797477E+01  0.32149936124E+02  0.34822273954E+03  0.34980996637E+03  0.00000000000E+00 0.  1.
         22    1    3    3    0    0  0.42402553642E+01  0.26153570859E+02  0.17085834100E+01  0.26550109068E+02  0.00000000000E+00 0.  1.
</event>
<event>
 7    1  0.5931885E-006  0.4141887E+02  0.7818608E-02  0.1506629E+00
          2   -1    0    0  502    0  0.00000000000E+00  0.00000000000E+00  0.95045221045E+03  0.95045221045E+03  0.00000000000E+00 0. -1.
          1   -1    0    0  501    0 -0.00000000000E+00 -0.00000000000E+00 -0.37681850635E+02  0.37681850635E+02  0.00000000000E+00 0. -1.
         25    2    1    2    0    0  0.95310086309E+01 -0.30285303643E+01  0.42785163558E+03  0.44584969350E+03  0.12499966003E+03 0.  0.
          2    1    1    2  501    0 -0.30778929293E+02 -0.29732163138E+02 -0.11515769179E+02  0.44316553940E+02  0.00000000000E+00 0. -1.
          1    1    1    2  502    0  0.21247920662E+02  0.32760693503E+02  0.49643449342E+03  0.49796781365E+03  0.00000000000E+00 0. -1.
         22    1    3    3    0    0  0.20005862426E+02 -0.41736806604E+02  0.38258946255E+03  0.38537889461E+03  0.00000000000E+00 0.  1.
         22    1    3    3    0    0 -0.10474853795E+02  0.38708276240E+02  0.45262173028E+02  0.60470798892E+02  0.00000000000E+00 0.  1.
</event>
<event>
 7    1  0.5931885E-006  0.5681172E+02  0.7818608E-02  0.1459540E+00
          2   -1    0    0  502    0  0.00000000000E+00  0.00000000000E+00  0.13751859671E+03  0.13751859671E+03  0.00000000000E+00 0. -1.
          1   -1    0    0  501    0 -0.00000000000E+00 -0.00000000000E+00 -0.51689926984E+03  0.51689926984E+03  0.00000000000E+00 0. -1.
         25    2    1    2    0    0 -0.47699666122E+02 -0.58280423570E+02 -0.16749939850E+03  0.22215445407E+03  0.12499874818E+03 0.  0.
          2    1    1    2  501    0  0.52708287370E+02  0.18949244349E+02 -0.31596110521E+03  0.32088729708E+03  0.00000000000E+00 0. -1.
          1    1    1    2  502    0 -0.50086212479E+01  0.39331179221E+02  0.10407983058E+03  0.11137611539E+03  0.00000000000E+00 0. -1.
         22    1    3    3    0    0 -0.62933304335E+01 -0.22981906512E+02  0.17342397685E+02  0.29470880413E+02  0.00000000000E+00 0. -1.
         22    1    3    3    0    0 -0.41406335689E+02 -0.35298517058E+02 -0.18484179618E+03  0.19268357366E+03  0.00000000000E+00 0. -1.
</event>
<event>
 7    1  0.5931885E-006  0.1378490E+03  0.7818608E-02  0.1363739E+00
          2   -1    0    0  502    0  0.00000000000E+00  0.00000000000E+00  0.62846769392E+03  0.62846769392E+03  0.00000000000E+00 0. -1.
          1   -1    0    0  501    0 -0.00000000000E+00 -0.00000000000E+00 -0.38010392392E+03  0.38010392392E+03  0.00000000000E+00 0. -1.
         25    2    1    2    0    0 -0.10041206498E+03  0.46445705331E+02  0.52450605794E+02  0.17497583052E+03  0.12500275549E+03 0.  0.
          2    1    1    2  501    0  0.12065060766E+03 -0.74356951256E+02 -0.30246746128E+03  0.33402408665E+03  0.00000000000E+00 0. -1.
          1    1    1    2  502    0 -0.20238542678E+02  0.27911245925E+02  0.49838062548E+03  0.49957170067E+03  0.00000000000E+00 0. -1.
         22    1    3    3    0    0 -0.47637225677E+02  0.76645914723E+02  0.67070259448E+02  0.11243807725E+03  0.00000000000E+00 0.  1.
         22    1    3    3    0    0 -0.52774839305E+02 -0.30200209392E+02 -0.14619653654E+02  0.62537753269E+02  0.00000000000E+00 0.  1.
</event>
<event>
 7    1  0.5931885E-006  0.8031336E+02  0.7818608E-02  0.1431658E+00
          2   -1    0    0  502    0  0.00000000000E+00  0.00000000000E+00  0.74099092892E+03  0.74099092892E+03  0.00000000000E+00 0. -1.
          1   -1    0    0  501    0 -0.00000000000E+00 -0.00000000000E+00 -0.81403644326E+03  0.81403644326E+03  0.00000000000E+00 0. -1.
         25    2    1    2    0    0  0.80751970750E+01 -0.95228463316E+02 -0.20412784476E+03  0.25773500492E+03  0.12500194688E+03 0.  0.
          2    1    1    2  501    0  0.26033432047E+02  0.22618957973E+02 -0.58033875072E+03  0.58136255678E+03  0.00000000000E+00 0. -1.
          1    1    1    2  502    0 -0.34108629122E+02  0.72609505343E+02  0.71142108113E+03  0.71592981047E+03  0.00000000000E+00 0. -1.
         22    1    3    3    0    0 -0.82413990638E+01 -0.12314842701E+03 -0.14565635663E+03  0.19091681424E+03  0.00000000000E+00 0.  1.
         22    1    3    3    0    0  0.16316596139E+02  0.27919963692E+02 -0.58471488123E+02  0.66818190678E+02  0.00000000000E+00 0.  1.
</event>
<event>
 7    1  0.5931885E-006  0.5147598E+02  0.7818608E-02  0.1487364E+00
          2   -1    0    0  502    0  0.00000000000E+00  0.00000000000E+00  0.32114139457E+04  0.32114139457E+04  0.00000000000E+00 0. -1.
          1   -1    0    0  501    0 -0.00000000000E+00 -0.00000000000E+00 -0.54604542304E+03  0.54604542304E+03  0.00000000000E+00 0. -1.
         25    2    1    2    0    0 -0.12691960097E+01  0.35393989082E+02  0.55367303126E+03  0.56871914043E+03  0.12503315493E+03 0.  0.
          2    1    1    2  501    0  0.35652641602E+02  0.40814366141E+01 -0.53766567834E+03  0.53886190313E+03  0.00000000000E+00 0. -1.
          1    1    1    2  502    0 -0.34383445593E+02 -0.39475425696E+02  0.26493611698E+04  0.26498783252E+04  0.00000000000E+00 0. -1.
         22    1    3    3    0    0  0.27474331296E+02  0.59954375757E+02  0.15755437607E+03  0.17080031461E+03  0.00000000000E+00 0. -1.
         22    1    3    3    0    0 -0.28743527305E+02 -0.24560386675E+02  0.39611865519E+03  0.39791882582E+03  0.00000000000E+00 0. -1.
</event>
<event>
 7    1  0.5931885E-006  0.8293749E+02  0.7818608E-02  0.1374564E+00
          2   -1    0    0  502    0  0.00000000000E+00  0.00000000000E+00  0.29348500813E+03  0.29348500813E+03  0.00000000000E+00 0. -1.
          1   -1    0    0  501    0 -0.00000000000E+00 -0.00000000000E+00 -0.69872158844E+03  0.69872158844E+03  0.00000000000E+00 0. -1.
         25    2    1    2    0    0  0.10870649688E+03  0.49965248876E+02  0.11035923772E+03  0.20522656652E+03  0.12500061479E+03 0.  0.
          2    1    1    2  501    0 -0.57180174107E+02 -0.59414597942E+02 -0.64350101495E+03  0.64876284033E+03  0.00000000000E+00 0. -1.
          1    1    1    2  502    0 -0.51526322773E+02  0.94493490665E+01  0.12790519691E+03  0.13821718971E+03  0.00000000000E+00 0. -1.
         22    1    3    3    0    0  0.75965970851E+02  0.61603908843E+02  0.91661463661E+01  0.98233846261E+02  0.00000000000E+00 0. -1.
         22    1    3    3    0    0  0.32740526029E+02 -0.11638659968E+02  0.10119309136E+03  0.10699272026E+03  0.00000000000E+00 0. -1.
</event>
<event>
 7    1  0.5931885E-006  0.1102197E+03  0.7818608E-02  0.1280278E+00
          2   -1    0    0  502    0  0.00000000000E+00  0.00000000000E+00  0.11778794283E+03  0.11778794283E+03  0.00000000000E+00 0. -1.
          1   -1    0    0  501    0 -0.00000000000E+00 -0.00000000000E+00 -0.19610118861E+04  0.19610118861E+04  0.00000000000E+00 0. -1.
         25    2    1    2    0    0 -0.13897205250E+03  0.11460619247E+03 -0.47110893071E+03  0.51963131241E+03  0.12500106205E+03 0.  0.
          2    1    1    2  501    0  0.50982941572E+02 -0.92418345234E+02 -0.14412373929E+04  0.14450971018E+04  0.00000000000E+00 0. -1.
          1    1    1    2  502    0  0.87989110926E+02 -0.22187847234E+02  0.69122380313E+02  0.11407141477E+03  0.00000000000E+00 0. -1.
         22    1    3    3    0    0 -0.81678020739E+02  0.49429662589E+02 -0.38764606452E+03  0.39922933504E+03  0.00000000000E+00 0. -1.
         22    1    3    3    0    0 -0.57294031760E+02  0.65176529879E+02 -0.83462866182E+02  0.12040197737E+03  0.00000000000E+00 0. -1.
</event>
<event>
 7    1  0.5931885E-006  0.1047574E+03  0.7818608E-02  0.1387043E+00
          2   -1    0    0  502    0  0.00000000000E+00  0.00000000000E+00  0.12023846372E+03  0.12023846372E+03  0.00000000000E+00 0. -1.
          1   -1    0    0  501    0 -0.00000000000E+00 -0.00000000000E+00 -0.70416299884E+03  0.70416299884E+03  0.00000000000E+00 0. -1.
         25    2    1    2    0    0  0.68504350037E+02  0.10728783748E+03 -0.35493628105E+03  0.39724927337E+03  0.12499478204E+03 0.  0.
          2    1    1    2  501    0 -0.34663208550E+02 -0.91211922761E+02 -0.31690414979E+03  0.33158617739E+03  0.00000000000E+00 0. -1.
          1    1    1    2  502    0 -0.33841141487E+02 -0.16075914720E+02  0.87915895721E+02  0.95566011801E+02  0.00000000000E+00 0. -1.
         22    1    3    3    0    0  0.27950034813E+02  0.38284758479E+02 -0.29092826759E+03  0.29476462485E+03  0.00000000000E+00 0.  1.
         22    1    3    3    0    0  0.40554315225E+02  0.69003079002E+02 -0.64008013464E+02  0.10248464852E+03  0.00000000000E+00 0.  1.
</event>
<event>
 7    1  0.5931885E-006  0.4047888E+02  0.7818608E-02  0.1534356E+00
          2   -1    0    0  502    0  0.00000000000E+00  0.00000000000E+00  0.16636870955E+02  0.16636870955E+02  0.00000000000E+00 0. -1.
          1   -1    0    0  501    0 -0.00000000000E+00 -0.00000000000E+00 -0.20610098272E+04  0.20610098272E+04  0.00000000000E+00 0. -1.
         25    2    1    2    0    0  0.48504197442E+02  0.99759550518E+01 -0.66701889147E+03  0.68043472530E+03  0.12500014788E+03 0.  0.
          2    1    1    2  501    0 -0.24262379087E+02  0.22657427437E+02 -0.13445907800E+04  0.13450005159E+04  0.00000000000E+00 0. -1.
          1    1    1    2  502    0 -0.24241818355E+02 -0.32633382489E+02 -0.32763284769E+02  0.52211456967E+02  0.00000000000E+00 0. -1.
         22    1    3    3    0    0  0.59330216902E+01 -0.15320238606E+02 -0.58060749746E+03  0.58083988892E+03  0.00000000000E+00 0. -1.
         22    1    3    3    0    0  0.42571175752E+02  0.25296193658E+02 -0.86411394008E+02  0.99594836377E+02  0.00000000000E+00 0. -1.
</event>
<event>
 7    1  0.5931885E-006  0.6514891E+02  0.7818608E-02  0.1517586E+00
          2   -1    0    0  502    0  0.00000000000E+00  0.00000000000E+00  0.12608068843E+03  0.12608068843E+03  0.00000000000E+00 0. -1.
          1   -1    0    0  501    0 -0.00000000000E+00 -0.00000000000E+00 -0.68905566164E+03  0.68905566164E+03  0.00000000000E+00 0. -1.
         25    2    1    2    0    0  0.38931722346E+02 -0.46957775140E+02 -0.31889297973E+03  0.34790613939E+03  0.12500095061E+03 0.  0.
          2    1    1    2  501    0  0.17862531529E+02  0.14572928017E+02 -0.34566167968E+03  0.34642955570E+03  0.00000000000E+00 0. -1.
          1    1    1    2  502    0 -0.56794253875E+02  0.32384847123E+02  0.10157968620E+03  0.12080065498E+03  0.00000000000E+00 0. -1.
         22    1    3    3    0    0 -0.36987275883E+01  0.34371190506E+02 -0.33632190776E+02  0.48230525385E+02  0.00000000000E+00 0. -1.
         22    1    3    3    0    0  0.42630449934E+02 -0.81328965646E+02 -0.28526078896E+03  0.29967561401E+03  0.00000000000E+00 0. -1.
</event>
<event>
 7    1  0.5931885E-006  0.5918710E+02  0.7818608E-02  0.1458179E+00
          2   -1    0    0  502    0  0.00000000000E+00  0.00000000000E+00  0.16745777617E+04  0.16745777617E+04  0.00000000000E+00 0. -1.
          1   -1    0    0  501    0 -0.00000000000E+00 -0.00000000000E+00 -0.91126550791E+03  0.91126550791E+03  0.00000000000E+00 0. -1.
         25    2    1    2    0    0 -0.41318831223E+02 -0.86975576406E+02  0.15899547023E+02  0.15857442786E+03  0.12498422649E+03 0.  0.
          2    1    1    2  501    0  0.22520321235E+02  0.31147675139E+02 -0.83894137330E+03  0.83982139194E+03  0.00000000000E+00 0. -1.
          1    1    1    2  502    0  0.18798509988E+02  0.55827901267E+02  0.15863540801E+04  0.15874474498E+04  0.00000000000E+00 0. -1.
         22    1    3    3    0    0  0.22354982645E+02  0.21745853398E+02  0.86825506986E+01  0.32373045511E+02  0.00000000000E+00 0.  1.
         22    1    3    3    0    0 -0.63673813868E+02 -0.10872142980E+03  0.72169963249E+01  0.12620138235E+03  0.00000000000E+00 0.  1.
</event>
<event>
 7    1  0.5931885E-006  0.1133939E+03  0.7818608E-02  0.1437244E+00
          2   -1    0    0  502    0  0.00000000000E+00  0.00000000000E+00  0.25611161941E+03  0.25611161941E+03  0.00000000000E+00 0. -1.
          1   -1    0    0  501    0 -0.00000000000E+00 -0.00000000000E+00 -0.34898289519E+03  0.34898289519E+03  0.00000000000E+00 0. -1.
         25    2    1    2    0    0 -0.86767512651E+02  0.53781806806E+02  0.10413442545E+03  0.19206513503E+03  0.12499581406E+03 0.  0.
          2    1    1    2  501    0  0.10660322548E+03 -0.41330808763E+02 -0.29284322844E+03  0.31437181788E+03  0.00000000000E+00 0. -1.
          1    1    1    2  502    0 -0.19835712834E+02 -0.12450998043E+02  0.95837527213E+02  0.98657561687E+02  0.00000000000E+00 0. -1.
         22    1    3    3    0    0 -0.19302149594E+02 -0.10095950898E+02 -0.24886662686E+02  0.33073360627E+02  0.00000000000E+00 0.  1.
         22    1    3    3    0    0 -0.67465363057E+02  0.63877757704E+02  0.12902108814E+03  0.15899177440E+03  0.00000000000E+00 0.  1.
</event>
<event>
 7    1  0.5931885E-006  0.2352967E+03  0.7818608E-02  0.1216708E+00
          2   -1    0    0  502    0  0.00000000000E+00  0.00000000000E+00  0.13078273089E+04  0.13078273089E+04  0.00000000000E+00 0. -1.
          1   -1    0    0  501    0 -0.00000000000E+00 -0.00000000000E+00 -0.71132518492E+03  0.71132518492E+03  0.00000000000E+00 0. -1.
         25    2    1    2    0    0 -0.23443709147E+03 -0.19640767654E+03  0.47873373228E+02  0.33384708583E+03  0.12500116637E+03 0.  0.
          2    1    1    2  501    0  0.73354770708E+02  0.32843295965E+02 -0.55361026096E+03  0.55941391251E+03  0.00000000000E+00 0. -1.
          1    1    1    2  502    0  0.16108232077E+03  0.16356438057E+03  0.11022390117E+04  0.11258914955E+04  0.00000000000E+00 0. -1.
         22    1    3    3    0    0 -0.83356923435E+02 -0.20035264813E+01  0.20164311629E+01  0.83405376311E+02  0.00000000000E+00 0.  1.
         22    1    3    3    0    0 -0.15108016804E+03 -0.19440415006E+03  0.45856942065E+02  0.25044170952E+03  0.00000000000E+00 0.  1.
</event>
<event>
 7    1  0.5931885E-006  0.1550271E+03  0.7818608E-02  0.1260359E+00
          2   -1    0    0  502    0  0.00000000000E+00  0.00000000000E+00  0.10218318601E+03  0.10218318601E+03  0.00000000000E+00 0. -1.
          1   -1    0    0  501    0 -0.00000000000E+00 -0.00000000000E+00 -0.20344508152E+04  0.20344508152E+04  0.00000000000E+00 0. -1.
         25    2    1    2    0    0  0.17498725553E+03 -0.70046837712E+02 -0.30435381968E+03  0.37918684265E+03  0.12499726001E+03 0.  0.
          2    1    1    2  501    0 -0.10735516066E+03  0.10933009646E+03 -0.16641913289E+04  0.16712303790E+04  0.00000000000E+00 0. -1.
          1    1    1    2  502    0 -0.67632094868E+02 -0.39283258744E+02  0.36277519359E+02  0.86216779600E+02  0.00000000000E+00 0. -1.
         22    1    3    3    0    0  0.97716151575E+02 -0.21891411720E+02 -0.25855344653E+03  0.27726803800E+03  0.00000000000E+00 0. -1.
         22    1    3    3    0    0  0.77271103957E+02 -0.48155425992E+02 -0.45800373151E+02  0.10191880464E+03  0.00000000000E+00 0. -1.
</event>
<event>
 7    1  0.5931885E-006  0.4947303E+02  0.7818608E-02  0.1537999E+00
          2   -1    0    0  502    0  0.00000000000E+00  0.00000000000E+00  0.20507114345E+04  0.20507114345E+04  0.00000000000E+00 0. -1.
          1   -1    0    0  501    0 -0.00000000000E+00 -0.00000000000E+00 -0.80344194764E+02  0.80344194764E+02  0.00000000000E+00 0. -1.
         25    2    1    2    0    0  0.67684669777E+02  0.22261895135E+02  0.12299654950E+03  0.18928875098E+03  0.12500109424E+03 0.  0.
          2    1    1    2  501    0 -0.18509650386E+02 -0.18994770935E+02 -0.43125600193E+02  0.50628310976E+02  0.00000000000E+00 0. -1.
          1    1    1    2  502    0 -0.49175019391E+02 -0.32671242002E+01  0.18904962904E+04  0.18911385673E+04  0.00000000000E+00 0. -1.
         22    1    3    3    0    0  0.66009655976E+02 -0.19894079964E+02  0.11264137662E+02  0.69856495023E+02  0.00000000000E+00 0.  1.
         22    1    3    3    0    0  0.16750138014E+01  0.42155975099E+02  0.11173241184E+03  0.11943225596E+03  0.00000000000E+00 0.  1.
</event>
<event>
 7    1  0.5931885E-006  0.1496172E+03  0.7818608E-02  0.1323414E+00
          2   -1    0    0  502    0  0.00000000000E+00  0.00000000000E+00  0.14175184324E+04  0.14175184324E+04  0.00000000000E+00 0. -1.
          1   -1    0    0  501    0 -0.00000000000E+00 -0.00000000000E+00 -0.16738183973E+04  0.16738183973E+04  0.00000000000E+00 0. -1.
         25    2    1    2    0    0 -0.12892366653E+03  0.32169454731E+02  0.25704548370E+03  0.31520433639E+03  0.12500082953E+03 0.  0.
          2    1    1    2  501    0  0.12851604837E+03 -0.77131293870E+02 -0.16408751840E+04  0.16477065820E+04  0.00000000000E+00 0. -1.
          1    1    1    2  502    0  0.40761815477E+00  0.44961839139E+02  0.11275297353E+04  0.11284259112E+04  0.00000000000E+00 0. -1.
         22    1    3    3    0    0 -0.38689689611E+01  0.30633837477E+02  0.14185060231E+03  0.14517229176E+03  0.00000000000E+00 0. -1.
         22    1    3    3    0    0 -0.12505469757E+03  0.15356172545E+01  0.11519488139E+03  0.17003204463E+03  0.00000000000E+00 0. -1.
</event>
<event>
 7    1  0.5931885E-006  0.1802508E+03  0.7818608E-02  0.1275646E+00
          2   -1    0    0  502    0  0.00000000000E+00  0.00000000000E+00  0.69644355426E+03  0.69644355426E+03  0.00000000000E+00 0. -1.
          1   -1    0    0  501    0 -0.00000000000E+00 -0.00000000000E+00 -0.51338674942E+03  0.51338674942E+03  0.00000000000E+00 0. -1.
         25    2    1    2    0    0 -0.17513775598E+03  0.10425189718E+03 -0.27858505967E+03  0.36711816308E+03  0.12499767420E+03 0.  0.
          2    1    1    2  501    0  0.15588329273E+03 -0.49545161684E+02 -0.15381470600E+03  0.22452903549E+03  0.00000000000E+00 0. -1.
          1    1    1    2  502    0  0.19254463254E+02 -0.54706735497E+02  0.61545657051E+03  0.61818310511E+03  0.00000000000E+00 0. -1.
         22    1    3    3    0    0  0.99417319525E+01  0.30027296081E+02 -0.11180406003E+02  0.33548144845E+02  0.00000000000E+00 0.  1.
         22    1    3    3    0    0 -0.18507948793E+03  0.74224601100E+02 -0.26740465367E+03  0.33357001824E+03  0.00000000000E+00 0.  1.
</event>
<event>
 7    1  0.5931885E-006  0.1782892E+03  0.7818608E-02  0.1303600E+00
          2   -1    0    0  502    0  0.00000000000E+00  0.00000000000E+00  0.25361330522E+04  0.25361330522E+04  0.00000000000E+00 0. -1.
          1   -1    0    0  501    0 -0.00000000000E+00 -0.00000000000E+00 -0.15636349367E+03  0.15636349367E+03  0.00000000000E+00 0. -1.
         25    2    1    2    0    0  0.82453114462E+02 -0.10775387466E+03  0.13610413310E+04  0.13734874442E+04  0.12499936442E+03 0.  0.
          2    1    1    2  501    0 -0.11703733749E+03  0.13673393492E+03 -0.95579982621E+02  0.20378773369E+03  0.00000000000E+00 0. -1.
          1    1    1    2  502    0  0.34584223029E+02 -0.28980060266E+02  0.11143082101E+04  0.11152213679E+04  0.00000000000E+00 0. -1.
         22    1    3    3    0    0 -0.56594201617E+01  0.96384045684E+01  0.11680223768E+02  0.16166493326E+02  0.00000000000E+00 0.  1.
         22    1    3    3    0    0  0.88112534624E+02 -0.11739227922E+03  0.13493611073E+04  0.13573209509E+04  0.00000000000E+00 0.  1.
</event>
<event>
 7    1  0.5931885E-006  0.1822100E+03  0.7818608E-02  0.1343414E+00
          2   -1    0    0  502    0  0.00000000000E+00  0.00000000000E+00  0.41660740791E+03  0.41660740791E+03  0.00000000000E+00 0. -1.
          1   -1    0    0  501    0 -0.00000000000E+00 -0.00000000000E+00 -0.22559527561E+03  0.22559527561E+03  0.00000000000E+00 0. -1.
         25    2    1    2    0    0  0.17334766696E+03 -0.96426779442E+02  0.81642240026E+02  0.24826120241E+03  0.12498252611E+03 0.  0.
          2    1    1    2  501    0 -0.30218953497E+02 -0.68824663617E+01 -0.10890174905E+03  0.11322607668E+03  0.00000000000E+00 0. -1.
          1    1    1    2  502    0 -0.14312871346E+03  0.10330924580E+03  0.21827164132E+03  0.28071540444E+03  0.00000000000E+00 0. -1.
         22    1    3    3    0    0  0.33586551603E+02  0.17603527530E+01 -0.29286936068E+02  0.44596859920E+02  0.00000000000E+00 0. -1.
         22    1    3    3    0    0  0.13976111535E+03 -0.98187132195E+02  0.11092917609E+03  0.20366434249E+03  0.00000000000E+00 0. -1.
</event>
<event>
 7    1  0.5931885E-006  0.4094486E+02  0.7818608E-02  0.1518601E+00
          2   -1    0    0  502    0  0.00000000000E+00  0.00000000000E+00  0.10727544884E+04  0.10727544884E+04  0.00000000000E+00 0. -1.
          1   -1    0    0  501    0 -0.00000000000E+00 -0.00000000000E+00 -0.19243181517E+03  0.19243181517E+03  0.00000000000E+00 0. -1.
         25    2    1    2    0    0 -0.21397118401E+02 -0.14375741442E+01  0.35721436520E+03  0.37906262182E+03  0.12500586089E+03 0.  0.
          2    1    1    2  501    0  0.16758977380E+02  0.37572813780E+02 -0.17869783801E+03  0.18337256329E+03  0.00000000000E+00 0. -1.
          1    1    1    2  502    0  0.46381410212E+01 -0.36135239635E+02  0.70180614607E+03  0.70275111851E+03  0.00000000000E+00 0. -1.
         22    1    3    3    0    0 -0.52079325774E+02 -0.15424211514E+02  0.64111352445E+02  0.84026352927E+02  0.00000000000E+00 0.  1.
         22    1    3    3    0    0  0.30682207373E+02  0.13986637369E+02  0.29310301276E+03  0.29503626889E+03  0.00000000000E+00 0.  1.
</event>
<event>
 7    1  0.5931885E-006  0.1107056E+03  0.7818608E-02  0.1422490E+00
          2   -1    0    0  502    0  0.00000000000E+00  0.00000000000E+00  0.18762664654E+04  0.18762664654E+04  0.00000000000E+00 0. -1.
          1   -1    0    0  501    0 -0.00000000000E+00 -0.00000000000E+00 -0.11605088303E+04  0.11605088303E+04  0.00000000000E+00 0. -1.
         25    2    1    2    0    0 -0.69590841623E+02 -0.47104054786E+02  0.74911556327E+03  0.76410843162E+03  0.12500356366E+03 0.  0.
          2    1    1    2  501    0  0.92914159656E+02  0.60361232493E+02 -0.11501891016E+04  0.11555135174E+04  0.00000000000E+00 0. -1.
          1    1    1    2  502    0 -0.23323318033E+02 -0.13257177707E+02  0.11168311734E+04  0.11171533466E+04  0.00000000000E+00 0. -1.
         22    1    3    3    0    0 -0.35422332046E+02 -0.71172904507E+02  0.66936717812E+03  0.67407176404E+03  0.00000000000E+00 0.  1.
         22    1    3    3    0    0 -0.34168509578E+02  0.24068849722E+02  0.79748385155E+02  0.90036667577E+02  0.00000000000E+00 0.  1.
</event>
<event>
 7    1  0.5931885E-006  0.5678540E+02  0.7818608E-02  0.1442719E+00
          2   -1    0    0  502    0  0.00000000000E+00  0.00000000000E+00  0.20586341320E+04  0.20586341320E+04  0.00000000000E+00 0. -1.
          1   -1    0    0  501    0 -0.00000000000E+00 -0.00000000000E+00 -0.44836965342E+02  0.44836965342E+02  0.00000000000E+00 0. -1.
         25    2    1    2    0    0 -0.48099480890E+02  0.87809352705E+02  0.37465452677E+03  0.40744901789E+03  0.12499858108E+03 0.  0.
          2    1    1    2  501    0  0.17943562026E+02 -0.41149671304E+02 -0.99604452646E+01  0.45983446331E+02  0.00000000000E+00 0. -1.
          1    1    1    2  502    0  0.30155918865E+02 -0.46659681401E+02  0.16491030852E+04  0.16500386332E+04  0.00000000000E+00 0. -1.
         22    1    3    3    0    0 -0.74788401577E+02  0.10448807290E+03  0.30846801200E+03  0.33416100433E+03  0.00000000000E+00 0.  1.
         22    1    3    3    0    0  0.26688920687E+02 -0.16678720195E+02  0.66186514766E+02  0.73288013560E+02  0.00000000000E+00 0.  1.
</event>
<event>
 7    1  0.5931885E-006  0.9641679E+02  0.7818608E-02  0.1318340E+00
          2   -1    0    0  502    0  0.00000000000E+00  0.00000000000E+00  0.68857545263E+03  0.68857545263E+03  0.00000000000E+00 0. -1.
          1   -1    0    0  501    0 -0.00000000000E+00 -0.00000000000E+00 -0.11294749381E+04  0.11294749381E+04  0.00000000000E+00 0. -1.
         25    2    1    2    0    0  0.15473174794E+03 -0.21514575600E+01  0.11181662154E+03  0.22819964083E+03  0.12500230652E+03 0.  0.
          2    1    1    2  501    0 -0.90261597045E+02 -0.32101369312E+02 -0.10665564193E+04  0.10708502460E+04  0.00000000000E+00 0. -1.
          1    1    1    2  502    0 -0.64470150890E+02  0.34252826872E+02  0.51384031229E+03  0.51900050389E+03  0.00000000000E+00 0. -1.
         22    1    3    3    0    0 -0.63459827364E+01  0.20070738143E+02 -0.11626583793E+02  0.24047525386E+02  0.00000000000E+00 0. -1.
         22    1    3    3    0    0  0.16107773067E+03 -0.22222195703E+02  0.12344320533E+03  0.20415211545E+03  0.00000000000E+00 0. -1.
</event>
<event>
 7    1  0.5931885E-006  0.6849323E+02  0.7818608E-02  0.1429989E+00
          2   -1    0    0  502    0  0.00000000000E+00  0.00000000000E+00  0.29508374657E+03  0.29508374657E+03  0.00000000000E+00 0. -1.
          1   -1    0    0  501    0 -0.00000000000E+00 -0.00000000000E+00 -0.18908542368E+03  0.18908542368E+03  0.00000000000E+00 0. -1.
         25    2    1    2    0    0 -0.36425221119E+02 -0.71862807382E+02  0.14351288405E+03  0.20666717522E+03  0.12499725439E+03 0.  0.
          2    1    1    2  501    0  0.40686061526E+02  0.46681066874E+01 -0.14499861755E+03  0.15067098564E+03  0.00000000000E+00 0. -1.
          1    1    1    2  502    0 -0.42608404071E+01  0.67194700695E+02  0.10748405640E+03  0.12683100939E+03  0.00000000000E+00 0. -1.
         22    1    3    3    0    0  0.33604731332E+02 -0.71008920503E+02  0.79975866424E+02  0.11210568214E+03  0.00000000000E+00 0. -1.
         22    1    3    3    0    0 -0.70029952451E+02 -0.85388687860E+00  0.63537017626E+02  0.94561493072E+02  0.00000000000E+00 0. -1.
</event>
<event>
 7    1  0.5931885E-006  0.1034493E+03  0.7818608E-02  0.1356095E+00
          2   -1    0    0  502    0  0.00000000000E+00  0.00000000000E+00  0.54010035322E+03  0.54010035322E+03  0.00000000000E+00 0. -1.
          1   -1    0    0  501    0 -0.00000000000E+00 -0.00000000000E+00 -0.19674946073E+03  0.19674946073E+03  0.00000000000E+00 0. -1.
         25    2    1    2    0    0  0.43100939812E+02  0.47905428654E+02  0.39524216608E+02  0.14608353109E+03  0.12500245297E+03 0.  0.
          2    1    1    2  501    0  0.67845593314E+01  0.48517175317E+02 -0.13243198195E+03  0.14120260759E+03  0.00000000000E+00 0. -1.
          1    1    1    2  502    0 -0.49885499143E+02 -0.96422603971E+02  0.43625865784E+03  0.44956367527E+03  0.00000000000E+00 0. -1.
         22    1    3    3    0    0  0.64669716584E+02 -0.14300260923E+02  0.44913673317E+02  0.80024419750E+02  0.00000000000E+00 0. -1.
         22    1    3    3    0    0 -0.21568776773E+02  0.62205689577E+02 -0.53894567088E+01  0.66059111338E+02  0.00000000000E+00 0. -1.
</event>
<event>
 7    1  0.5931885E-006  0.3058918E+03  0.7818608E-02  0.1286242E+00
          2   -1    0    0  502    0  0.00000000000E+00  0.00000000000E+00  0.18915744187E+03  0.18915744187E+03  0.00000000000E+00 0. -1.
          1   -1    0    0  501    0 -0.00000000000E+00 -0.00000000000E+00 -0.17088705957E+04  0.17088705957E+04  0.00000000000E+00 0. -1.
         25    2    1    2    0    0  0.88903479667E+02  0.30840385840E+03 -0.69566808464E+03  0.77627049611E+03  0.12500012232E+03 0.  0.
          2    1    1    2  501    0 -0.63545186302E+02 -0.29074308072E+03 -0.94820384698E+03  0.99381087995E+03  0.00000000000E+00 0. -1.
          1    1    1    2  502    0 -0.25358293364E+02 -0.17660777679E+02  0.12415877774E+03  0.12794666155E+03  0.00000000000E+00 0. -1.
         22    1    3    3    0    0  0.12789112901E+02  0.17086567793E+03 -0.47794990300E+03  0.50773492206E+03  0.00000000000E+00 0. -1.
         22    1    3    3    0    0  0.76114366766E+02  0.13753818047E+03 -0.21771818163E+03  0.26853557405E+03  0.00000000000E+00 0. -1.
</event>
<event>
 7    1  0.5931885E-006  0.9443192E+02  0.7818608E-02  0.1416022E+00
          2   -1    0    0  502    0  0.00000000000E+00  0.00000000000E+00  0.22105554694E+03  0.22105554694E+03  0.00000000000E+00 0. -1.
          1   -1    0    0  501    0 -0.00000000000E+00 -0.00000000000E+00 -0.35187046189E+03  0.35187046189E+03  0.00000000000E+00 0. -1.
         25    2    1    2    0    0 -0.74598030478E+02 -0.67032804851E+02  0.13020005250E+03  0.20647908883E+03  0.12499318931E+03 0.  0.
          2    1    1    2  501    0 -0.92679118228E+01  0.31731095577E+02 -0.27270940398E+03  0.27470561632E+03  0.00000000000E+00 0. -1.
          1    1    1    2  502    0  0.83865942301E+02  0.35301709274E+02  0.11694436528E+02  0.91741303682E+02  0.00000000000E+00 0. -1.
         22    1    3    3    0    0 -0.69837487056E+02 -0.21567321362E+01  0.11065185117E+02  0.70741532450E+02  0.00000000000E+00 0. -1.
         22    1    3    3    0    0 -0.47605434223E+01 -0.64876072715E+02  0.11913486738E+03  0.13573755638E+03  0.00000000000E+00 0. -1.
</event>
<event>
 7    1  0.5931885E-006  0.3506612E+03  0.7818608E-02  0.1177195E+00
          2   -1    0    0  502    0  0.00000000000E+00  0.00000000000E+00  0.76146273816E+03  0.76146273816E+03  0.00000000000E+00 0. -1.
          1   -1    0    0  501    0 -0.00000000000E+00 -0.00000000000E+00 -0.83200145462E+03  0.83200145462E+03  0.00000000000E+00 0. -1.
         25    2    1    2    0    0  0.25730178505E+03  0.31332089802E+03  0.17439672868E+03  0.45870869852E+03  0.12500102960E+03 0.  0.
          2    1    1    2  501    0 -0.25515487497E+03 -0.23032288090E+03 -0.64247033890E+03  0.72864310609E+03  0.00000000000E+00 0. -1.
          1    1    1    2  502    0 -0.21469100781E+01 -0.82998017120E+02  0.39753489375E+03  0.40611238816E+03  0.00000000000E+00 0. -1.
         22    1    3    3    0    0  0.12725544492E+03  0.71171986701E+02  0.89289719251E+02  0.17097383986E+03  0.00000000000E+00 0. -1.
         22    1    3    3    0    0  0.13004634013E+03  0.24214891132E+03  0.85107009427E+02  0.28773485866E+03  0.00000000000E+00 0. -1.
</event>
<event>
 7    1  0.5931885E-006  0.6352776E+02  0.7818608E-02  0.1538379E+00
          2   -1    0    0  502    0  0.00000000000E+00  0.00000000000E+00  0.12911494357E+03  0.12911494357E+03  0.00000000000E+00 0. -1.
          1   -1    0    0  501    0 -0.00000000000E+00 -0.00000000000E+00 -0.39997940558E+03  0.39997940558E+03  0.00000000000E+00 0. -1.
         25    2    1    2    0    0 -0.62170356947E+02 -0.57199795369E+00 -0.19516395275E+02  0.14096605902E+03  0.12500023859E+03 0.  0.
          2    1    1    2  501    0  0.60180090202E+02  0.21078773176E+02 -0.31491500619E+03  0.32130580302E+03  0.00000000000E+00 0. -1.
          1    1    1    2  502    0  0.19902667457E+01 -0.20506775222E+02  0.63566939447E+02  0.66822487102E+02  0.00000000000E+00 0. -1.
         22    1    3    3    0    0 -0.97431768938E+02 -0.70458797436E+00  0.57231493068E+01  0.97602256534E+02  0.00000000000E+00 0. -1.
         22    1    3    3    0    0  0.35261411991E+02  0.13259002067E+00 -0.25239544582E+02  0.43363802490E+02  0.00000000000E+00 0. -1.
</event>
<event>
 7    1  0.5931885E-006  0.3419503E+02  0.7818608E-02  0.1567263E+00
          2   -1    0    0  502    0  0.00000000000E+00  0.00000000000E+00  0.23708350632E+04  0.23708350632E+04  0.00000000000E+00 0. -1.
          1   -1    0    0  501    0 -0.00000000000E+00 -0.00000000000E+00 -0.92408846287E+03  0.92408846287E+03  0.00000000000E+00 0. -1.
         25    2    1    2    0    0 -0.38839184864E+02 -0.53197961504E+02  0.14374245118E+03  0.20155791796E+03  0.12500078651E+03 0.  0.
          2    1    1    2  501    0  0.18791279708E+02  0.25674866404E+02 -0.89476609628E+03  0.89533160226E+03  0.00000000000E+00 0. -1.
          1    1    1    2  502    0  0.20047905156E+02  0.27523095100E+02  0.21977702454E+04  0.21980340058E+04  0.00000000000E+00 0. -1.
         22    1    3    3    0    0 -0.82148653046E+02 -0.30337004248E+02  0.11576802487E+03  0.14515843278E+03  0.00000000000E+00 0. -1.
         22    1    3    3    0    0  0.43309468182E+02 -0.22860957255E+02  0.27974426317E+02  0.56399485180E+02  0.00000000000E+00 0. -1.
</event>
<event>
 7    1  0.5931885E-006  0.6635127E+02  0.7818608E-02  0.1476442E+00
          2   -1    0    0  502    0  0.00000000000E+00  0.00000000000E+00  0.90442042871E+03  0.90442042871E+03  0.00000000000E+00 0. -1.
          1   -1    0    0  501    0 -0.00000000000E+00 -0.00000000000E+00 -0.31513680954E+03  0.31513680954E+03  0.00000000000E+00 0. -1.
         25    2    1    2    0    0  0.12206719695E+01  0.92072249181E+02  0.44423329356E+03  0.47058201898E+03  0.12500171347E+03 0.  0.
          2    1    1    2  501    0  0.11993562688E+02 -0.65064678322E+02 -0.29782257863E+03  0.30508285146E+03  0.00000000000E+00 0. -1.
          1    1    1    2  502    0 -0.13214234658E+02 -0.27007570859E+02  0.44287290425E+03  0.44389236781E+03  0.00000000000E+00 0. -1.
         22    1    3    3    0    0  0.42081058064E+02  0.10438349472E+03  0.31766180996E+03  0.33701002200E+03  0.00000000000E+00 0. -1.
         22    1    3    3    0    0 -0.40860386094E+02 -0.12311245534E+02  0.12657148359E+03  0.13357199698E+03  0.00000000000E+00 0. -1.
</event>
<event>
 7    1  0.5931885E-006  0.1117519E+03  0.7818608E-02  0.1442922E+00
          2   -1    0    0  502    0  0.00000000000E+00  0.00000000000E+00  0.34238675453E+03  0.34238675453E+03  0.00000000000E+00 0. -1.
          1   -1    0    0  501    0 -0.00000000000E+00 -0.00000000000E+00 -0.17923273040E+03  0.17923273040E+03  0.00000000000E+00 0. -1.
         25    2    1    2    0    0 -0.14564407420E+02  0.10410139111E+03  0.70211132373E+02  0.17777414672E+03  0.12499929015E+03 0.  0.
          2    1    1    2  501    0 -0.62700266956E+01 -0.11330497819E+03 -0.98977287397E+02  0.15057833423E+03  0.00000000000E+00 0. -1.
          1    1    1    2  502    0  0.20834434116E+02  0.92035870792E+01  0.19192017915E+03  0.19326700397E+03  0.00000000000E+00 0. -1.
         22    1    3    3    0    0  0.31285429553E+02  0.54315121811E+02  0.87767543100E+02  0.10785199201E+03  0.00000000000E+00 0. -1.
         22    1    3    3    0    0 -0.45849836974E+02  0.49786269302E+02 -0.17556410727E+02  0.69922154709E+02  0.00000000000E+00 0. -1.
</event>
<event>
 7    1  0.5931885E-006  0.1514893E+03  0.7818608E-02  0.1220324E+00
          2   -1    0    0  502    0  0.00000000000E+00  0.00000000000E+00  0.10647914733E+04  0.10647914733E+04  0.00000000000E+00 0. -1.
          1   -1    0    0  501    0 -0.00000000000E+00 -0.00000000000E+00 -0.20966953122E+03  0.20966953122E+03  0.00000000000E+00 0. -1.
         25    2    1    2    0    0 -0.17526396687E+03 -0.15995277901E+03  0.26544626694E+03  0.37734438696E+03  0.12499886458E+03 0.  0.
          2    1    1    2  501    0  0.58479123595E+02  0.13161542369E+03 -0.11373400962E+03  0.18351526529E+03  0.00000000000E+00 0. -1.
          1    1    1    2  502    0  0.11678484327E+03  0.28337355316E+02  0.70340968473E+03  0.71360135222E+03  0.00000000000E+00 0. -1.
         22    1    3    3    0    0 -0.54193422204E+00 -0.72491059032E+02  0.80020226627E+02  0.10797445995E+03  0.00000000000E+00 0.  1.
         22    1    3    3    0    0 -0.17472203265E+03 -0.87461719973E+02  0.18542604032E+03  0.26936992701E+03  0.00000000000E+00 0.  1.
</event>
<event>
 7    1  0.5931885E-006  0.3738749E+02  0.7818608E-02  0.1555111E+00
          2   -1    0    0  502    0  0.00000000000E+00  0.00000000000E+00  0.51645899298E+03  0.51645899298E+03  0.00000000000E+00 0. -1.
          1   -1    0    0  501    0 -0.00000000000E+00 -0.00000000000E+00 -0.98207322903E+03  0.98207322903E+03  0.00000000000E+00 0. -1.
         25    2    1    2    0    0  0.12424684648E+02  0.14016903853E+02 -0.32848582461E+03  0.35196443827E+03  0.12500072981E+03 0.  0.
          2    1    1    2  501    0  0.80791003546E+01 -0.37833003244E+02 -0.64077496891E+03  0.64194171758E+03  0.00000000000E+00 0. -1.
          1    1    1    2  502    0 -0.20503785003E+02  0.23816099390E+02  0.50364655747E+03  0.50462606615E+03  0.00000000000E+00 0. -1.
         22    1    3    3    0    0  0.60467387968E+02 -0.23260858470E+02 -0.14961838879E+03  0.16304304587E+03  0.00000000000E+00 0.  1.
         22    1    3    3    0    0 -0.48042703320E+02  0.37277762323E+02 -0.17886743582E+03  0.18892139239E+03  0.00000000000E+00 0.  1.
</event>
<event>
 7    1  0.5931885E-006  0.1846785E+03  0.7818608E-02  0.1176706E+00
          2   -1    0    0  502    0  0.00000000000E+00  0.00000000000E+00  0.89514482441E+03  0.89514482441E+03  0.00000000000E+00 0. -1.
          1   -1    0    0  501    0 -0.00000000000E+00 -0.00000000000E+00 -0.54771589804E+03  0.54771589804E+03  0.00000000000E+00 0. -1.
         25    2    1    2    0    0  0.30353727873E+03  0.95491910879E+02  0.32943222313E+03  0.47476692854E+03  0.12499784868E+03 0.  0.
          2    1    1    2  501    0 -0.14836312603E+03 -0.55826307410E+02 -0.44806511310E+03  0.47527943291E+03  0.00000000000E+00 0. -1.
          1    1    1    2  502    0 -0.15517415270E+03 -0.39665603469E+02  0.46606181635E+03  0.49281436101E+03  0.00000000000E+00 0. -1.
         22    1    3    3    0    0  0.63300589943E+02  0.29422875353E+00  0.14220698566E+03  0.15565949386E+03  0.00000000000E+00 0.  1.
         22    1    3    3    0    0  0.24023668878E+03  0.95197682125E+02  0.18722523747E+03  0.31910743468E+03  0.00000000000E+00 0.  1.
</event>
<event>
 7    1  0.5931885E-006  0.9696516E+02  0.7818608E-02  0.1363213E+00
          2   -1    0    0  502    0  0.00000000000E+00  0.00000000000E+00  0.48014941321E+03  0.48014941321E+03  0.00000000000E+00 0. -1.
          1   -1    0    0  501    0 -0.00000000000E+00 -0.00000000000E+00 -0.70769189681E+03  0.70769189681E+03  0.00000000000E+00 0. -1.
         25    2    1    2    0    0 -0.55176680787E+02 -0.42598225119E+02 -0.13620378790E+03  0.19757320975E+03  0.12499850593E+03 0.  0.
          2    1    1    2  501    0 -0.41572489127E+02  0.26367606803E+02 -0.53430538200E+03  0.53656850800E+03  0.00000000000E+00 0. -1.
          1    1    1    2  502    0  0.96749169914E+02  0.16230618315E+02  0.44296668631E+03  0.45369959227E+03  0.00000000000E+00 0. -1.
         22    1    3    3    0    0 -0.28140226867E+02 -0.86669397254E+02 -0.80730430281E+02  0.12174095105E+03  0.00000000000E+00 0. -1.
         22    1    3    3    0    0 -0.27036453920E+02  0.44071172135E+02 -0.55473357619E+02  0.75832258700E+02  0.00000000000E+00 0. -1.
</event>
<event>
 7    1  0.5931885E-006  0.1053911E+03  0.7818608E-02  0.1279851E+00
          2   -1    0    0  502    0  0.00000000000E+00  0.00000000000E+00  0.12315531324E+03  0.12315531324E+03  0.00000000000E+00 0. -1.
          1   -1    0    0  501    0 -0.00000000000E+00 -0.00000000000E+00 -0.59584014299E+03  0.59584014299E+03  0.00000000000E+00 0. -1.
         25    2    1    2    0    0 -0.57421946091E+02 -0.93744749633E+02 -0.92968657841E+02  0.19066539092E+03  0.12499904791E+03 0.  0.
          2    1    1    2  501    0 -0.37352664787E+02  0.10361693553E+03 -0.41297060233E+03  0.42740660884E+03  0.00000000000E+00 0. -1.
          1    1    1    2  502    0  0.94774610878E+02 -0.98721858994E+01  0.33254430419E+02  0.10092345646E+03  0.00000000000E+00 0. -1.
         22    1    3    3    0    0 -0.56391653099E+02  0.12689617582E+02 -0.47932238279E+02  0.75090241710E+02  0.00000000000E+00 0. -1.
         22    1    3    3    0    0 -0.10302929919E+01 -0.10643436722E+03 -0.45036419562E+02  0.11557514921E+03  0.00000000000E+00 0. -1.
</event>
<event>
 7    1  0.5931885E-006  0.6047177E+02  0.7818608E-02  0.1435616E+00
          2   -1    0    0  502    0  0.00000000000E+00  0.00000000000E+00  0.19450015092E+03  0.19450015092E+03  0.00000000000E+00 0. -1.
          1   -1    0    0  501    0 -0.00000000000E+00 -0.00000000000E+00 -0.45028119540E+03  0.45028119540E+03  0.00000000000E+00 0. -1.
         25    2    1    2    0    0 -0.11014227575E+02  0.26885711112E+02 -0.32272405475E+03  0.34730373679E+03  0.12499966160E+03 0.  0.
          2    1    1    2  501    0 -0.44437992692E+02 -0.12645689280E+01 -0.10552738457E+03  0.11450922768E+03  0.00000000000E+00 0. -1.
          1    1    1    2  502    0  0.55452220267E+02 -0.25621142184E+02  0.17247039484E+03  0.18296838185E+03  0.00000000000E+00 0. -1.
         22    1    3    3    0    0  0.29074487696E+02  0.44790357304E+01 -0.28858194787E+03  0.29007745213E+03  0.00000000000E+00 0. -1.
         22    1    3    3    0    0 -0.40088715271E+02  0.22406675381E+02 -0.34142106879E+02  0.57226284659E+02  0.00000000000E+00 0. -1.
</event>
<event>
 7    1  0.5931885E-006  0.3141475E+03  0.7818608E-02  0.1114198E+00
          2   -1    0    0  502    0  0.00000000000E+00  0.00000000000E+00  0.35604206939E+04  0.35604206939E+04  0.00000000000E+00 0. -1.
          1   -1    0    0  501    0 -0.00000000000E+00 -0.00000000000E+00 -0.14787478598E+04  0.14787478598E+04  0.00000000000E+00 0. -1.
         25    2    1    2    0    0  0.32275786578E+01  0.43726673349E+03  0.45135571409E+03  0.64074904915E+03  0.12499899950E+03 0.  0.
          2    1    1    2  501    0 -0.12689444957E+03 -0.28428504920E+03 -0.13632754901E+04  0.13983705705E+04  0.00000000000E+00 0. -1.
          1    1    1    2  502    0  0.12366687091E+03 -0.15298168429E+03  0.29935926102E+04  0.30000489340E+04  0.00000000000E+00 0. -1.
         22    1    3    3    0    0 -0.13423966852E+02  0.42105967516E+03  0.38595454761E+03  0.57134259928E+03  0.00000000000E+00 0. -1.
         22    1    3    3    0    0  0.16651545510E+02  0.16207058326E+02  0.65401166475E+02  0.69406449871E+02  0.00000000000E+00 0. -1.
</event>
<event>
 7    1  0.5931885E-006  0.4060108E+02  0.7818608E-02  0.1603904E+00
          2   -1    0    0  502    0  0.00000000000E+00  0.00000000000E+00  0.15373023556E+04  0.15373023556E+04  0.00000000000E+00 0. -1.
          1   -1    0    0  501    0 -0.00000000000E+00 -0.00000000000E+00 -0.30618634546E+03  0.30618634546E+03  0.00000000000E+00 0. -1.
         25    2    1    2    0    0 -0.29734628951E+02 -0.34029208912E+02  0.86121915317E+02  0.15838163612E+03  0.12500249256E+03 0.  0.
          2    1    1    2  501    0  0.38013204280E+02  0.14289144847E+02 -0.26844828504E+03  0.27150260607E+03  0.00000000000E+00 0. -1.
          1    1    1    2  502    0 -0.82785753288E+01  0.19740064065E+02  0.14134423799E+04  0.14136044589E+04  0.00000000000E+00 0. -1.
         22    1    3    3    0    0  0.53494392131E+01  0.13768348506E+02 -0.26935658219E+02  0.30719921943E+02  0.00000000000E+00 0.  1.
         22    1    3    3    0    0 -0.35084068165E+02 -0.47797557418E+02  0.11305757354E+03  0.12766171418E+03  0.00000000000E+00 0.  1.
</event>
<event>
 7    1  0.5931885E-006  0.2743149E+03  0.7818608E-02  0.1199870E+00
          2   -1    0    0  502    0  0.00000000000E+00  0.00000000000E+00  0.93404304000E+03  0.93404304000E+03  0.00000000000E+00 0. -1.
          1   -1    0    0  501    0 -0.00000000000E+00 -0.00000000000E+00 -0.22811807106E+04  0.22811807106E+04  0.00000000000E+00 0. -1.
         25    2    1    2    0    0  0.25958493209E+03  0.15545583170E+03 -0.32800223350E+03  0.46342383853E+03  0.12500134545E+03 0.  0.
          2    1    1    2  501    0  0.38263238316E+01 -0.82472358377E+02 -0.18629707537E+04  0.18647992814E+04  0.00000000000E+00 0. -1.
          1    1    1    2  502    0 -0.26341125592E+03 -0.72983473324E+02  0.84383531666E+03  0.88700063064E+03  0.00000000000E+00 0. -1.
         22    1    3    3    0    0  0.17970480100E+03  0.16453740126E+03 -0.27353079022E+03  0.36631334280E+03  0.00000000000E+00 0. -1.
         22    1    3    3    0    0  0.79880131084E+02 -0.90815695633E+01 -0.54471443282E+02  0.97110495731E+02  0.00000000000E+00 0. -1.
</event>
<event>
 7    1  0.5931885E-006  0.8145883E+02  0.7818608E-02  0.1449769E+00
          2   -1    0    0  502    0  0.00000000000E+00  0.00000000000E+00  0.15456424478E+03  0.15456424478E+03  0.00000000000E+00 0. -1.
          1   -1    0    0  501    0 -0.00000000000E+00 -0.00000000000E+00 -0.38596886284E+03  0.38596886284E+03  0.00000000000E+00 0. -1.
         25    2    1    2    0    0  0.38023550701E+02 -0.42621882748E+02 -0.50160017822E+01  0.13752285302E+03  0.12499983813E+03 0.  0.
          2    1    1    2  501    0 -0.42521297471E+02  0.71981527118E+02 -0.30643297213E+03  0.31763275554E+03  0.00000000000E+00 0. -1.
          1    1    1    2  502    0  0.44977467696E+01 -0.29359644370E+02  0.80044355845E+02  0.85377499063E+02  0.00000000000E+00 0. -1.
         22    1    3    3    0    0  0.30957345794E+02  0.30135508740E+02 -0.37802885433E+02  0.57407005607E+02  0.00000000000E+00 0.  1.
         22    1    3    3    0    0  0.70662049071E+01 -0.72757391488E+02  0.32786883651E+02  0.80115847418E+02  0.00000000000E+00 0.  1.
</event>
<event>
 7    1  0.5931885E-006  0.1424347E+03  0.7818608E-02  0.1296356E+00
          2   -1    0    0  502    0  0.00000000000E+00  0.00000000000E+00  0.61985241890E+03  0.61985241890E+03  0.00000000000E+00 0. -1.
          1   -1    0    0  501    0 -0.00000000000E+00 -0.00000000000E+00 -0.32261003702E+03  0.32261003702E+03  0.00000000000E+00 0. -1.
         25    2    1    2    0    0  0.10967402989E+02 -0.13296324401E+03  0.49975962606E+02  0.18953097444E+03  0.12499954100E+03 0.  0.
          2    1    1    2  501    0 -0.60256063964E+02 -0.38615674495E+01 -0.23841581647E+03  0.24594268945E+03  0.00000000000E+00 0. -1.
          1    1    1    2  502    0  0.49288660976E+02  0.13682481146E+03  0.48568223574E+03  0.50698879203E+03  0.00000000000E+00 0. -1.
         22    1    3    3    0    0  0.43509690986E+02 -0.22835793533E+02 -0.22175814072E+02  0.53910420196E+02  0.00000000000E+00 0.  1.
         22    1    3    3    0    0 -0.32542287997E+02 -0.11012745048E+03  0.72151776679E+02  0.13562055425E+03  0.00000000000E+00 0.  1.
</event>
<event>
 7    1  0.5931885E-006  0.4723430E+02  0.7818608E-02  0.1477477E+00
          2   -1    0    0  502    0  0.00000000000E+00  0.00000000000E+00  0.19067708021E+03  0.19067708021E+03  0.00000000000E+00 0. -1.
          1   -1    0    0  501    0 -0.00000000000E+00 -0.00000000000E+00 -0.18897820002E+03  0.18897820002E+03  0.00000000000E+00 0. -1.
         25    2    1    2    0    0 -0.29569805718E+02 -0.19375314814E+02  0.44692661337E+02  0.13737647167E+03  0.12500033903E+03 0.  0.
          2    1    1    2  501    0  0.44274366983E+02 -0.19888630356E+02 -0.13376168190E+03  0.14229534333E+03  0.00000000000E+00 0. -1.
          1    1    1    2  502    0 -0.14704561265E+02  0.39263945170E+02  0.90767900752E+02  0.99983465230E+02  0.00000000000E+00 0. -1.
         22    1    3    3    0    0 -0.63396796491E+02  0.29412280685E+02  0.30979366921E+02  0.76445779708E+02  0.00000000000E+00 0.  1.
         22    1    3    3    0    0  0.33826990773E+02 -0.48787595499E+02  0.13713294415E+02  0.60930691962E+02  0.00000000000E+00 0.  1.
</event>
<event>
 7    1  0.5931885E-006  0.1441235E+03  0.7818608E-02  0.1287388E+00
          2   -1    0    0  502    0  0.00000000000E+00  0.00000000000E+00  0.39250415067E+03  0.39250415067E+03  0.00000000000E+00 0. -1.
          1   -1    0    0  501    0 -0.00000000000E+00 -0.00000000000E+00 -0.17986116099E+03  0.17986116099E+03  0.00000000000E+00 0. -1.
         25    2    1    2    0    0  0.11545928715E+03  0.24146367055E+02  0.34433698582E+02  0.17527212395E+03  0.12498297406E+03 0.  0.
          2    1    1    2  501    0 -0.13904804475E+03 -0.84590647299E+02 -0.41532002389E+02  0.16797274654E+03  0.00000000000E+00 0. -1.
          1    1    1    2  502    0  0.23588757598E+02  0.60444280245E+02  0.21974129349E+03  0.22912044117E+03  0.00000000000E+00 0. -1.
         22    1    3    3    0    0  0.52276191587E+02  0.93855351971E+01  0.79972040678E+02  0.96002165434E+02  0.00000000000E+00 0.  1.
         22    1    3    3    0    0  0.63183095564E+02  0.14760831857E+02 -0.45538342095E+02  0.79269958515E+02  0.00000000000E+00 0.  1.
</event>
<event>
 7    1  0.5931885E-006  0.5657697E+02  0.7818608E-02  0.1428383E+00
          2   -1    0    0  502    0  0.00000000000E+00  0.00000000000E+00  0.20305706987E+04  0.20305706987E+04  0.00000000000E+00 0. -1.
          1   -1    0    0  501    0 -0.00000000000E+00 -0.00000000000E+00 -0.49771219520E+03  0.49771219520E+03  0.00000000000E+00 0. -1.
         25    2    1    2    0    0  0.51583139158E+02  0.21846596070E+02  0.12312712566E+03  0.18418215913E+03  0.12499873865E+03 0.  0.
          2    1    1    2  501    0 -0.37555191655E+02  0.33291049227E+02 -0.46540417043E+03  0.46810226258E+03  0.00000000000E+00 0. -1.
          1    1    1    2  502    0 -0.14027947503E+02 -0.55137645297E+02  0.18751355483E+04  0.18759984722E+04  0.00000000000E+00 0. -1.
         22    1    3    3    0    0 -0.10577848207E+02  0.48979533123E+02  0.10115740922E+03  0.11288802849E+03  0.00000000000E+00 0.  1.
         22    1    3    3    0    0  0.62160987365E+02 -0.27132937053E+02  0.21969716443E+02  0.71294130641E+02  0.00000000000E+00 0.  1.
</event>
<event>
 7    1  0.5931885E-006  0.7693820E+02  0.7818608E-02  0.1408797E+00
          2   -1    0    0  502    0  0.00000000000E+00  0.00000000000E+00  0.30345470033E+03  0.30345470033E+03  0.00000000000E+00 0. -1.
          1   -1    0    0  501    0 -0.00000000000E+00 -0.00000000000E+00 -0.67282923321E+03  0.67282923321E+03  0.00000000000E+00 0. -1.
         25    2    1    2    0    0 -0.24365982106E+02  0.84010953577E+02  0.12610421992E+03  0.19793992992E+03  0.12500560056E+03 0.  0.
          2    1    1    2  501    0 -0.30156612652E+02 -0.30536869438E+02 -0.62581344652E+03  0.62728334230E+03  0.00000000000E+00 0. -1.
          1    1    1    2  502    0  0.54522594759E+02 -0.53474084139E+02  0.13033469372E+03  0.15106066133E+03  0.00000000000E+00 0. -1.
         22    1    3    3    0    0 -0.40271200082E+02 -0.21532416091E+02  0.33566471634E+02  0.56675590131E+02  0.00000000000E+00 0.  1.
         22    1    3    3    0    0  0.15905217976E+02  0.10554336967E+03  0.92537748284E+02  0.14126433979E+03  0.00000000000E+00 0.  1.
</event>
<event>
 7    1  0.5931885E-006  0.1044265E+03  0.7818608E-02  0.1406037E+00
          2   -1    0    0  502    0  0.00000000000E+00  0.00000000000E+00  0.61416520234E+02  0.61416520234E+02  0.00000000000E+00 0. -1.
          1   -1    0    0  501    0 -0.00000000000E+00 -0.00000000000E+00 -0.13147591031E+04  0.13147591031E+04  0.00000000000E+00 0. -1.
         25    2    1    2    0    0 -0.83949467757E+02  0.51438355554E+02 -0.86424319283E+03  0.87876727319E+03  0.12498882555E+03 0.  0.
          2    1    1    2  501    0 -0.18150905909E+02 -0.26731409936E+02 -0.39101097394E+03  0.39234373374E+03  0.00000000000E+00 0. -1.
          1    1    1    2  502    0  0.10210037367E+03 -0.24706945618E+02  0.19115839198E+01  0.10506461639E+03  0.00000000000E+00 0. -1.
         22    1    3    3    0    0 -0.27398807316E+02 -0.40837830122E+02 -0.33304766049E+03  0.33665882904E+03  0.00000000000E+00 0.  1.
         22    1    3    3    0    0 -0.56550660441E+02  0.92276185676E+02 -0.53119553234E+03  0.54210844415E+03  0.00000000000E+00 0.  1.
</event>
<event>
 7    1  0.5931885E-006  0.1290301E+03  0.7818608E-02  0.1356871E+00
          2   -1    0    0  502    0  0.00000000000E+00  0.00000000000E+00  0.33299444361E+04  0.33299444361E+04  0.00000000000E+00 0. -1.
          1   -1    0    0  501    0 -0.00000000000E+00 -0.00000000000E+00 -0.16620008122E+03  0.16620008122E+03  0.00000000000E+00 0. -1.
         25    2    1    2    0    0 -0.10785028074E+03  0.99269244798E+02  0.24616594800E+04  0.24691858885E+04  0.12500196072E+03 0.  0.
          2    1    1    2  501    0  0.14592538031E+02 -0.36189021658E+02 -0.15636342832E+03  0.16115864597E+03  0.00000000000E+00 0. -1.
          1    1    1    2  502    0  0.93257742711E+02 -0.63080223140E+02  0.85844830319E+03  0.86579998289E+03  0.00000000000E+00 0. -1.
         22    1    3    3    0    0 -0.94569033714E+02  0.26736335004E+02  0.19221270698E+04  0.19246377857E+04  0.00000000000E+00 0. -1.
         22    1    3    3    0    0 -0.13281247028E+02  0.72532909794E+02  0.53953241024E+03  0.54454810277E+03  0.00000000000E+00 0. -1.
</event>
<event>
 7    1  0.5931885E-006  0.5453323E+02  0.7818608E-02  0.1452512E+00
          2   -1    0    0  502    0  0.00000000000E+00  0.00000000000E+00  0.16146505910E+04  0.16146505910E+04  0.00000000000E+00 0. -1.
          1   -1    0    0  501    0 -0.00000000000E+00 -0.00000000000E+00 -0.23355605327E+03  0.23355605327E+03  0.00000000000E+00 0. -1.
         25    2    1    2    0    0 -0.36448992839E+02  0.76427455422E+02  0.73162658796E+02  0.16777109915E+03  0.12499872817E+03 0.  0.
          2    1    1    2  501    0  0.37430358058E+02 -0.22126302579E+02 -0.18321302795E+03  0.18830193462E+03  0.00000000000E+00 0. -1.
          1    1    1    2  502    0 -0.98136521887E+00 -0.54301152842E+02  0.14911449069E+04  0.14921336105E+04  0.00000000000E+00 0. -1.
         22    1    3    3    0    0 -0.67127762579E+02  0.90972064671E+02  0.71518331689E+02  0.13377938865E+03  0.00000000000E+00 0.  1.
         22    1    3    3    0    0  0.30678769740E+02 -0.14544609249E+02  0.16443271072E+01  0.33991710498E+02  0.00000000000E+00 0.  1.
</event>
<event>
 7    1  0.5931885E-006  0.5278265E+02  0.7818608E-02  0.1464739E+00
          2   -1    0    0  502    0  0.00000000000E+00  0.00000000000E+00  0.68932992449E+03  0.68932992449E+03  0.00000000000E+00 0. -1.
          1   -1    0    0  501    0 -0.00000000000E+00 -0.00000000000E+00 -0.22420883558E+03  0.22420883558E+03  0.00000000000E+00 0. -1.
         25    2    1    2    0    0 -0.21501595037E+02 -0.54492102587E+02  0.32225252203E+03  0.35057601833E+03  0.12500059537E+03 0.  0.
          2    1    1    2  501    0 -0.27015173640E+02  0.30971683807E+02 -0.20594547395E+03  0.21000619764E+03  0.00000000000E+00 0. -1.
          1    1    1    2  502    0  0.48516768677E+02  0.23520418780E+02  0.34881404084E+03  0.35295654411E+03  0.00000000000E+00 0. -1.
         22    1    3    3    0    0 -0.38357126673E+02 -0.57287450661E+02  0.71797718459E+02  0.99539105610E+02  0.00000000000E+00 0.  1.
         22    1    3    3    0    0  0.16855531636E+02  0.27953480737E+01  0.25045480357E+03  0.25103691272E+03  0.00000000000E+00 0.  1.
</event>
<event>
 7    1  0.5931885E-006  0.9349024E+02  0.7818608E-02  0.1311812E+00
          2   -1    0    0  502    0  0.00000000000E+00  0.00000000000E+00  0.68016631350E+03  0.68016631350E+03  0.00000000000E+00 0. -1.
          1   -1    0    0  501    0 -0.00000000000E+00 -0.00000000000E+00 -0.55032599820E+03  0.55032599820E+03  0.00000000000E+00 0. -1.
         25    2    1    2    0    0 -0.45247179179E+02 -0.16690823832E+02 -0.28689570989E+01  0.13401280452E+03  0.12500124014E+03 0.  0.
          2    1    1    2  501    0  0.82280164481E+02 -0.54048678125E+02 -0.47421499411E+03  0.48432545433E+03  0.00000000000E+00 0. -1.
          1    1    1    2  502    0 -0.37032985302E+02  0.70739501957E+02  0.60692426651E+03  0.61215405284E+03  0.00000000000E+00 0. -1.
         22    1    3    3    0    0 -0.27357793950E+02 -0.59495986274E+02  0.34887014846E+02  0.74197877849E+02  0.00000000000E+00 0.  1.
         22    1    3    3    0    0 -0.17889385229E+02  0.42805162442E+02 -0.37755971945E+02  0.59814926674E+02  0.00000000000E+00 0.  1.
</event>
<event>
 7    1  0.5931885E-006  0.6565412E+02  0.7818608E-02  0.1400937E+00
          2   -1    0    0  502    0  0.00000000000E+00  0.00000000000E+00  0.11743032264E+04  0.11743032264E+04  0.00000000000E+00 0. -1.
          1   -1    0    0  501    0 -0.00000000000E+00 -0.00000000000E+00 -0.17292345245E+03  0.17292345245E+03  0.00000000000E+00 0. -1.
         25    2    1    2    0    0 -0.51154909493E+02 -0.44216483425E+01  0.48496444068E+03  0.50344171911E+03  0.12500672013E+03 0.  0.
          2    1    1    2  501    0  0.80348619707E+01 -0.52893170577E+02 -0.15735840140E+03  0.16620443132E+03  0.00000000000E+00 0. -1.
          1    1    1    2  502    0  0.43120047523E+02  0.57314818920E+02  0.67377373466E+03  0.67758052841E+03  0.00000000000E+00 0. -1.
         22    1    3    3    0    0  0.25637558990E+02  0.32428451534E+02  0.85139675125E+02  0.94644879313E+02  0.00000000000E+00 0.  1.
         22    1    3    3    0    0 -0.76792468483E+02 -0.36850099876E+02  0.39982476556E+03  0.40879683980E+03  0.00000000000E+00 0.  1.
</event>
<event>
 7    1  0.5931885E-006  0.6904957E+02  0.7818608E-02  0.1376090E+00
          2   -1    0    0  502    0  0.00000000000E+00  0.00000000000E+00  0.11112445238E+04  0.11112445238E+04  0.00000000000E+00 0. -1.
          1   -1    0    0  501    0 -0.00000000000E+00 -0.00000000000E+00 -0.22148261930E+03  0.22148261930E+03  0.00000000000E+00 0. -1.
         25    2    1    2    0    0  0.93906285138E+02 -0.22771317628E+02 -0.92091335987E+01  0.15826357697E+03  0.12500251341E+03 0.  0.
          2    1    1    2  501    0 -0.40606286584E+02  0.54712628108E+02 -0.12832413687E+03  0.14529083346E+03  0.00000000000E+00 0. -1.
          1    1    1    2  502    0 -0.53299998553E+02 -0.31941310480E+02  0.10272951749E+04  0.10291727326E+04  0.00000000000E+00 0. -1.
         22    1    3    3    0    0  0.73952091651E+02 -0.59730234566E+02  0.31129603090E+02  0.10002832084E+03  0.00000000000E+00 0.  1.
         22    1    3    3    0    0  0.19954193487E+02  0.36958916938E+02 -0.40338736688E+02  0.58235256130E+02  0.00000000000E+00 0.  1.
</event>
<event>
 7    1  0.5931885E-006  0.4738242E+02  0.7818608E-02  0.1535510E+00
          2   -1    0    0  502    0  0.00000000000E+00  0.00000000000E+00  0.18028912687E+04  0.18028912687E+04  0.00000000000E+00 0. -1.
          1   -1    0    0  501    0 -0.00000000000E+00 -0.00000000000E+00 -0.10059539711E+04  0.10059539711E+04  0.00000000000E+00 0. -1.
         25    2    1    2    0    0 -0.39420856624E+02 -0.54499442280E+02  0.51241380411E+03  0.53171259971E+03  0.12500475552E+03 0.  0.
          2    1    1    2  501    0  0.39357425658E+02  0.26353032993E+02 -0.99558683395E+03  0.99671291415E+03  0.00000000000E+00 0. -1.
          1    1    1    2  502    0  0.63430965262E-01  0.28146409287E+02  0.12801103274E+04  0.12804197259E+04  0.00000000000E+00 0. -1.
         22    1    3    3    0    0 -0.81175806665E+02 -0.54094100839E+02  0.40201348612E+03  0.41367925541E+03  0.00000000000E+00 0.  1.
         22    1    3    3    0    0  0.41754950041E+02 -0.40534144099E+00  0.11040031799E+03  0.11803334430E+03  0.00000000000E+00 0.  1.
</event>
<event>
 7    1  0.5931885E-006  0.7963185E+02  0.7818608E-02  0.1502467E+00
          2   -1    0    0  502    0  0.00000000000E+00  0.00000000000E+00  0.10276676086E+04  0.10276676086E+04  0.00000000000E+00 0. -1.
          1   -1    0    0  501    0 -0.00000000000E+00 -0.00000000000E+00 -0.12148888182E+04  0.12148888182E+04  0.00000000000E+00 0. -1.
         25    2    1    2    0    0  0.33478836524E+02  0.76288045194E+02  0.34505203423E+03  0.37633357203E+03  0.12500141109E+03 0.  0.
          2    1    1    2  501    0 -0.12712458522E+02 -0.78606761352E+02 -0.11977620943E+04  0.12004060414E+04  0.00000000000E+00 0. -1.
          1    1    1    2  502    0 -0.20766378002E+02  0.23187161579E+01  0.66548885053E+03  0.66581681345E+03  0.00000000000E+00 0. -1.
         22    1    3    3    0    0  0.13320514614E+02  0.10931446123E+03  0.27637948714E+03  0.29751085435E+03  0.00000000000E+00 0.  1.
         22    1    3    3    0    0  0.20158321910E+02 -0.33026416035E+02  0.68672547091E+02  0.78822717679E+02  0.00000000000E+00 0.  1.
</event>
<event>
 7    1  0.5931885E-006  0.9632209E+02  0.7818608E-02  0.1449912E+00
          2   -1    0    0  502    0  0.00000000000E+00  0.00000000000E+00  0.34339626592E+03  0.34339626592E+03  0.00000000000E+00 0. -1.
          1   -1    0    0  501    0 -0.00000000000E+00 -0.00000000000E+00 -0.87029377839E+03  0.87029377839E+03  0.00000000000E+00 0. -1.
         25    2    1    2    0    0  0.49004611462E+02 -0.10697741766E+03 -0.48324972099E+03  0.51283488778E+03  0.12499483769E+03 0.  0.
          2    1    1    2  501    0 -0.19717068952E+02  0.15519722363E+02 -0.36479502087E+03  0.36565698659E+03  0.00000000000E+00 0. -1.
          1    1    1    2  502    0 -0.29287542510E+02  0.91457695298E+02  0.32114722940E+03  0.33519816993E+03  0.00000000000E+00 0. -1.
         22    1    3    3    0    0  0.68008522569E+02 -0.72792807720E+02 -0.16911658794E+03  0.19627626529E+03  0.00000000000E+00 0. -1.
         22    1    3    3    0    0 -0.19003911107E+02 -0.34184609941E+02 -0.31413313305E+03  0.31655862249E+03  0.00000000000E+00 0. -1.
</event>
<event>
 7    1  0.5931885E-006  0.7192904E+02  0.7818608E-02  0.1360137E+00
          2   -1    0    0  502    0  0.00000000000E+00  0.00000000000E+00  0.10185691626E+04  0.10185691626E+04  0.00000000000E+00 0. -1.
          1   -1    0    0  501    0 -0.00000000000E+00 -0.00000000000E+00 -0.60827990116E+02  0.60827990116E+02  0.00000000000E+00 0. -1.
         25    2    1    2    0    0  0.21298289577E+01 -0.12471900911E+03  0.27795900987E+03  0.32930982955E+03  0.12499754104E+03 0.  0.
          2    1    1    2  501    0 -0.29503117224E+02  0.61374660518E+02  0.13050995693E+01  0.68110103249E+02  0.00000000000E+00 0. -1.
          1    1    1    2  502    0  0.27373288266E+02  0.63344348591E+02  0.67847706309E+03  0.68197721996E+03  0.00000000000E+00 0. -1.
         22    1    3    3    0    0 -0.29894883312E+02  0.18544830119E+01  0.12341419497E+03  0.12699687664E+03  0.00000000000E+00 0.  1.
         22    1    3    3    0    0  0.32024712270E+02 -0.12657349212E+03  0.15454481490E+03  0.20231295291E+03  0.00000000000E+00 0.  1.
</event>
<event>
 7    1  0.5931885E-006  0.1381750E+03  0.7818608E-02  0.1230459E+00
          2   -1    0    0  502    0  0.00000000000E+00  0.00000000000E+00  0.43931828230E+03  0.43931828230E+03  0.00000000000E+00 0. -1.
          1   -1    0    0  501    0 -0.00000000000E+00 -0.00000000000E+00 -0.20433444490E+04  0.20433444490E+04  0.00000000000E+00 0. -1.
         25    2    1    2    0    0 -0.14065859673E+03  0.41908168112E+01 -0.80976968746E+03  0.83135473901E+03  0.12498540541E+03 0.  0.
          2    1    1    2  501    0  0.54982566746E+02  0.10504959655E+03 -0.12085601698E+04  0.12143624601E+04  0.00000000000E+00 0. -1.
          1    1    1    2  502    0  0.85676029985E+02 -0.10924041336E+03  0.41430369061E+03  0.43694553217E+03  0.00000000000E+00 0. -1.
         22    1    3    3    0    0 -0.29215361047E+00  0.42400289837E+02 -0.20434232140E+03  0.20869512272E+03  0.00000000000E+00 0.  1.
         22    1    3    3    0    0 -0.14036644312E+03 -0.38209473026E+02 -0.60542736606E+03  0.62265961629E+03  0.00000000000E+00 0.  1.
</event>
<event>
 7    1  0.5931885E-006  0.5487809E+02  0.7818608E-02  0.1446938E+00
          2   -1    0    0  502    0  0.00000000000E+00  0.00000000000E+00  0.41528267945E+03  0.41528267945E+03  0.00000000000E+00 0. -1.
          1   -1    0    0  501    0 -0.00000000000E+00 -0.00000000000E+00 -0.21639393832E+04  0.21639393832E+04  0.00000000000E+00 0. -1.
         25    2    1    2    0    0  0.44757661969E+02 -0.87087869756E+02 -0.14441880744E+03  0.21463960555E+03  0.12500329182E+03 0.  0.
          2    1    1    2  501    0 -0.32274299987E+02  0.43833199851E+02 -0.19827025153E+04  0.19834495819E+04  0.00000000000E+00 0. -1.
          1    1    1    2  502    0 -0.12483361982E+02  0.43254669905E+02  0.37846461893E+03  0.38113287523E+03  0.00000000000E+00 0. -1.
         22    1    3    3    0    0  0.17991897956E+02 -0.52442799417E+02  0.80365586311E+01  0.56022690737E+02  0.00000000000E+00 0. -1.
         22    1    3    3    0    0  0.26765764013E+02 -0.34645070339E+02 -0.15245536607E+03  0.15861691482E+03  0.00000000000E+00 0. -1.
</event>
<event>
 7    1  0.5931885E-006  0.3981188E+02  0.7818608E-02  0.1533576E+00
          2   -1    0    0  502    0  0.00000000000E+00  0.00000000000E+00  0.19499464423E+03  0.19499464423E+03  0.00000000000E+00 0. -1.
          1   -1    0    0  501    0 -0.00000000000E+00 -0.00000000000E+00 -0.27140292093E+04  0.27140292093E+04  0.00000000000E+00 0. -1.
         25    2    1    2    0    0 -0.11119638098E+02 -0.39735923468E+02 -0.26147975036E+02  0.13420735166E+03  0.12500122669E+03 0.  0.
          2    1    1    2  501    0  0.36128288677E+02  0.16810967107E+02 -0.26316572627E+04  0.26319589302E+04  0.00000000000E+00 0. -1.
          1    1    1    2  502    0 -0.25008650579E+02  0.22924956361E+02  0.13877067261E+03  0.14285757174E+03  0.00000000000E+00 0. -1.
         22    1    3    3    0    0 -0.16590321094E+02 -0.50072284756E+02 -0.70663925518E+02  0.88180852935E+02  0.00000000000E+00 0. -1.
         22    1    3    3    0    0  0.54706829961E+01  0.10336361288E+02  0.44515950482E+02  0.46026498720E+02  0.00000000000E+00 0. -1.
</event>
<event>
 7    1  0.5931885E-006  0.9272196E+02  0.7818608E-02  0.1379517E+00
          2   -1    0    0  502    0  0.00000000000E+00  0.00000000000E+00  0.16120264319E+03  0.16120264319E+03  0.00000000000E+00 0. -1.
          1   -1    0    0  501    0 -0.00000000000E+00 -0.00000000000E+00 -0.45624758588E+03  0.45624758588E+03  0.00000000000E+00 0. -1.
         25    2    1    2    0    0 -0.75531604403E+02  0.10153584994E+03 -0.92775005961E+02  0.20061850741E+03  0.12500412672E+03 0.  0.
          2    1    1    2  501    0  0.40277931614E+02 -0.20055080346E+02 -0.28914049980E+03  0.29262048228E+03  0.00000000000E+00 0. -1.
          1    1    1    2  502    0  0.35253672789E+02 -0.81480769595E+02  0.86870563078E+02  0.12421123938E+03  0.00000000000E+00 0. -1.
         22    1    3    3    0    0 -0.36935722942E+02  0.64016880272E+02 -0.11951068710E+03  0.14051766052E+03  0.00000000000E+00 0.  1.
         22    1    3    3    0    0 -0.38595881461E+02  0.37518969669E+02  0.26735681135E+02  0.60100846887E+02  0.00000000000E+00 0.  1.
</event>
<event>
 7    1  0.5931885E-006  0.3334867E+02  0.7818608E-02  0.1597600E+00
          2   -1    0    0  502    0  0.00000000000E+00  0.00000000000E+00  0.14343044532E+03  0.14343044532E+03  0.00000000000E+00 0. -1.
          1   -1    0    0  501    0 -0.00000000000E+00 -0.00000000000E+00 -0.84301487936E+03  0.84301487936E+03  0.00000000000E+00 0. -1.
         25    2    1    2    0    0 -0.19859700384E+02 -0.53936185627E+02 -0.31811747532E+03  0.34659427178E+03  0.12500136523E+03 0.  0.
          2    1    1    2  501    0  0.35533631870E+01  0.32331931409E+02 -0.50871615158E+03  0.50975494413E+03  0.00000000000E+00 0. -1.
          1    1    1    2  502    0  0.16306337197E+02  0.21604254217E+02  0.12724919287E+03  0.13009610878E+03  0.00000000000E+00 0. -1.
         22    1    3    3    0    0  0.11354833319E+02 -0.72132562988E+02 -0.91261310202E+02  0.11687885019E+03  0.00000000000E+00 0.  1.
         22    1    3    3    0    0 -0.31214533702E+02  0.18196377361E+02 -0.22685616512E+03  0.22971542159E+03  0.00000000000E+00 0.  1.
</event>
<event>
 7    1  0.5931885E-006  0.1171912E+03  0.7818608E-02  0.1297691E+00
          2   -1    0    0  502    0  0.00000000000E+00  0.00000000000E+00  0.48680445977E+03  0.48680445977E+03  0.00000000000E+00 0. -1.
          1   -1    0    0  501    0 -0.00000000000E+00 -0.00000000000E+00 -0.16921697996E+04  0.16921697996E+04  0.00000000000E+00 0. -1.
         25    2    1    2    0    0 -0.13666575565E+03 -0.10889955813E+03  0.16339403129E+03  0.26992271486E+03  0.12499607996E+03 0.  0.
          2    1    1    2  501    0  0.66314105449E+02  0.29262904446E+02 -0.16276182752E+04  0.16292314531E+04  0.00000000000E+00 0. -1.
          1    1    1    2  502    0  0.70351650201E+02  0.79636653687E+02  0.25885890409E+03  0.27982009135E+03  0.00000000000E+00 0. -1.
         22    1    3    3    0    0  0.17297066483E+02 -0.44898121302E+02  0.36517262295E+02  0.60403147690E+02  0.00000000000E+00 0. -1.
         22    1    3    3    0    0 -0.15396282213E+03 -0.64001436831E+02  0.12687676900E+03  0.20951956717E+03  0.00000000000E+00 0. -1.
</event>
<event>
 7    1  0.5931885E-006  0.6233850E+02  0.7818608E-02  0.1406148E+00
          2   -1    0    0  502    0  0.00000000000E+00  0.00000000000E+00  0.27223895133E+02  0.27223895133E+02  0.00000000000E+00 0. -1.
          1   -1    0    0  501    0 -0.00000000000E+00 -0.00000000000E+00 -0.13723780280E+04  0.13723780280E+04  0.00000000000E+00 0. -1.
         25    2    1    2    0    0  0.28047127709E+02  0.41415343837E+02 -0.89191591916E+03  0.90202114243E+03  0.12500504972E+03 0.  0.
          2    1    1    2  501    0 -0.75864731971E+02 -0.16155595761E+02 -0.43291473197E+03  0.43980862428E+03  0.00000000000E+00 0. -1.
          1    1    1    2  502    0  0.47817604262E+02 -0.25259748076E+02 -0.20323481756E+02  0.57772156450E+02  0.00000000000E+00 0. -1.
         22    1    3    3    0    0 -0.29658601551E+02 -0.18677205361E+02 -0.10474309420E+03  0.11045173800E+03  0.00000000000E+00 0. -1.
         22    1    3    3    0    0  0.57705729260E+02  0.60092549198E+02 -0.78717282496E+03  0.79156940442E+03  0.00000000000E+00 0. -1.
</event>
<event>
 7    1  0.5931885E-006  0.5160024E+02  0.7818608E-02  0.1478690E+00
          2   -1    0    0  502    0  0.00000000000E+00  0.00000000000E+00  0.11221649999E+04  0.11221649999E+04  0.00000000000E+00 0. -1.
          1   -1    0    0  501    0 -0.00000000000E+00 -0.00000000000E+00 -0.15263390230E+04  0.15263390230E+04  0.00000000000E+00 0. -1.
         25    2    1    2    0    0  0.38407024159E+02 -0.41482130149E+02  0.25478673404E+03  0.28937333401E+03  0.12499911987E+03 0.  0.
          2    1    1    2  501    0 -0.17215691648E+01  0.51585866785E+02 -0.15081782150E+04  0.15090611630E+04  0.00000000000E+00 0. -1.
          1    1    1    2  502    0 -0.36685454994E+02 -0.10103736636E+02  0.84921745784E+03  0.85006952586E+03  0.00000000000E+00 0. -1.
         22    1    3    3    0    0  0.62071901006E+02 -0.12334221347E+02  0.24132951474E+03  0.24948945588E+03  0.00000000000E+00 0.  1.
         22    1    3    3    0    0 -0.23664876847E+02 -0.29147908801E+02  0.13457219303E+02  0.39883878134E+02  0.00000000000E+00 0.  1.
</event>
<event>
 7    1  0.5931885E-006  0.9599214E+02  0.7818608E-02  0.1296148E+00
          2   -1    0    0  502    0  0.00000000000E+00  0.00000000000E+00  0.31896633929E+03  0.31896633929E+03  0.00000000000E+00 0. -1.
          1   -1    0    0  501    0 -0.00000000000E+00 -0.00000000000E+00 -0.46707462668E+03  0.46707462668E+03  0.00000000000E+00 0. -1.
         25    2    1    2    0    0 -0.10301624175E+03  0.67452255277E+02 -0.15405679571E+03  0.23349775641E+03  0.12500221253E+03 0.  0.
          2    1    1    2  501    0  0.91265847960E+01 -0.89299957185E+02 -0.25713594963E+03  0.27235394892E+03  0.00000000000E+00 0. -1.
          1    1    1    2  502    0  0.93889656952E+02  0.21847701908E+02  0.26308445795E+03  0.28018926064E+03  0.00000000000E+00 0. -1.
         22    1    3    3    0    0 -0.56299295307E+02  0.34167219978E+02 -0.16266800762E+03  0.17549327701E+03  0.00000000000E+00 0.  1.
         22    1    3    3    0    0 -0.46716946441E+02  0.33285035299E+02  0.86112119065E+01  0.58004479397E+02  0.00000000000E+00 0.  1.
</event>
<event>
 7    1  0.5931885E-006  0.1341406E+03  0.7818608E-02  0.1257771E+00
          2   -1    0    0  502    0  0.00000000000E+00  0.00000000000E+00  0.43174477388E+03  0.43174477388E+03  0.00000000000E+00 0. -1.
          1   -1    0    0  501    0 -0.00000000000E+00 -0.00000000000E+00 -0.14483589517E+04  0.14483589517E+04  0.00000000000E+00 0. -1.
         25    2    1    2    0    0 -0.10664695395E+02 -0.13848938081E+03 -0.19838713817E+03  0.27253509122E+03  0.12499950013E+03 0.  0.
          2    1    1    2  501    0 -0.83211983644E+02  0.40906699523E+02 -0.11994413682E+04  0.12030200281E+04  0.00000000000E+00 0. -1.
          1    1    1    2  502    0  0.93876679038E+02  0.97582681292E+02  0.38121432853E+03  0.40454860626E+03  0.00000000000E+00 0. -1.
         22    1    3    3    0    0  0.27569917160E+02 -0.78669937116E+02 -0.18125056362E+03  0.19950144399E+03  0.00000000000E+00 0. -1.
         22    1    3    3    0    0 -0.38234612555E+02 -0.59819443698E+02 -0.17136574540E+02  0.73033647236E+02  0.00000000000E+00 0. -1.
</event>
<event>
 7    1  0.5931885E-006  0.2395443E+03  0.7818608E-02  0.1249783E+00
          2   -1    0    0  502    0  0.00000000000E+00  0.00000000000E+00  0.26078368755E+03  0.26078368755E+03  0.00000000000E+00 0. -1.
          1   -1    0    0  501    0 -0.00000000000E+00 -0.00000000000E+00 -0.10668970906E+04  0.10668970906E+04  0.00000000000E+00 0. -1.
         25    2    1    2    0    0 -0.55216710390E+02 -0.22251216837E+03 -0.29516459134E+03  0.39409022847E+03  0.12499768802E+03 0.  0.
          2    1    1    2  501    0 -0.55806376884E+02  0.67124936270E+01 -0.65098140756E+03  0.65340355238E+03  0.00000000000E+00 0. -1.
          1    1    1    2  502    0  0.11102308727E+03  0.21579967475E+03  0.14003259589E+03  0.28018699727E+03  0.00000000000E+00 0. -1.
         22    1    3    3    0    0  0.22622186207E+01  0.42997566580E+01  0.90676357087E+01  0.10287252196E+02  0.00000000000E+00 0.  1.
         22    1    3    3    0    0 -0.57478929011E+02 -0.22681192503E+03 -0.30423222705E+03  0.38380297627E+03  0.00000000000E+00 0.  1.
</event>
<event>
 7    1  0.5931885E-006  0.2592523E+03  0.7818608E-02  0.1267013E+00
          2   -1    0    0  502    0  0.00000000000E+00  0.00000000000E+00  0.59527107665E+03  0.59527107665E+03  0.00000000000E+00 0. -1.
          1   -1    0    0  501    0 -0.00000000000E+00 -0.00000000000E+00 -0.13245397616E+04  0.13245397616E+04  0.00000000000E+00 0. -1.
         25    2    1    2    0    0  0.59146218680E+02  0.28897599268E+03 -0.16442135422E+03  0.36008936386E+03  0.12499827484E+03 0.  0.
          2    1    1    2  501    0  0.79535798606E+01 -0.43098204500E+02 -0.10291409196E+04  0.10300736610E+04  0.00000000000E+00 0. -1.
          1    1    1    2  502    0 -0.67099798541E+02 -0.24587778818E+03  0.46429358881E+03  0.52964781345E+03  0.00000000000E+00 0. -1.
         22    1    3    3    0    0 -0.34366016134E+02  0.40463844863E+02 -0.13936317329E+02  0.54886854042E+02  0.00000000000E+00 0.  1.
         22    1    3    3    0    0  0.93512234814E+02  0.24851214782E+03 -0.15048503689E+03  0.30520250982E+03  0.00000000000E+00 0.  1.
</event>
<event>
 7    1  0.5931885E-006  0.9549740E+02  0.7818608E-02  0.1319887E+00
          2   -1    0    0  502    0  0.00000000000E+00  0.00000000000E+00  0.22236396658E+03  0.22236396658E+03  0.00000000000E+00 0. -1.
          1   -1    0    0  501    0 -0.00000000000E+00 -0.00000000000E+00 -0.23967520726E+04  0.23967520726E+04  0.00000000000E+00 0. -1.
         25    2    1    2    0    0  0.42381782116E+02  0.14482340109E+02 -0.46141971697E+02  0.14057228305E+03  0.12500212630E+03 0.  0.
          2    1    1    2  501    0 -0.86772448557E+02  0.43084236869E+02 -0.22947858348E+04  0.22968299320E+04  0.00000000000E+00 0. -1.
          1    1    1    2  502    0  0.44390666440E+02 -0.57566576978E+02  0.16653970043E+03  0.18171382410E+03  0.00000000000E+00 0. -1.
         22    1    3    3    0    0 -0.57953349358E+01  0.18028254141E+02  0.38618944744E+02  0.43011937268E+02  0.00000000000E+00 0.  1.
         22    1    3    3    0    0  0.48177117052E+02 -0.35459140319E+01 -0.84760916441E+02  0.97560345785E+02  0.00000000000E+00 0.  1.
</event>
<event>
 7    1  0.5931885E-006  0.1344452E+03  0.7818608E-02  0.1285671E+00
          2   -1    0    0  502    0  0.00000000000E+00  0.00000000000E+00  0.45662335295E+03  0.45662335295E+03  0.00000000000E+00 0. -1.
          1   -1    0    0  501    0 -0.00000000000E+00 -0.00000000000E+00 -0.37361045839E+03  0.37361045839E+03  0.00000000000E+00 0. -1.
         25    2    1    2    0    0 -0.49224750016E+02 -0.14810217328E+03 -0.13434793216E+03  0.24089767777E+03  0.12499997813E+03 0.  0.
          2    1    1    2  501    0 -0.45988935741E+02  0.53683177061E+02 -0.16748885130E+03  0.18179488723E+03  0.00000000000E+00 0. -1.
          1    1    1    2  502    0  0.95213685757E+02  0.94418996223E+02  0.38484967802E+03  0.40754124635E+03  0.00000000000E+00 0. -1.
         22    1    3    3    0    0 -0.77315890312E+02 -0.14839993687E+03 -0.13118800823E+03  0.21262780077E+03  0.00000000000E+00 0.  1.
         22    1    3    3    0    0  0.28091140296E+02  0.29776358522E+00 -0.31599239320E+01  0.28269876999E+02  0.00000000000E+00 0.  1.
</event>
<event>
 7    1  0.5931885E-006  0.7990193E+02  0.7818608E-02  0.1473120E+00
          2   -1    0    0  502    0  0.00000000000E+00  0.00000000000E+00  0.32052302124E+02  0.32052302124E+02  0.00000000000E+00 0. -1.
          1   -1    0    0  501    0 -0.00000000000E+00 -0.00000000000E+00 -0.10433740991E+04  0.10433740991E+04  0.00000000000E+00 0. -1.
         25    2    1    2    0    0  0.93826236286E+02 -0.38931287215E+02 -0.27195991094E+03  0.31608123125E+03  0.12500457530E+03 0.  0.
          2    1    1    2  501    0 -0.74766171873E+02  0.21893426796E+02 -0.72661309375E+03  0.73077759312E+03  0.00000000000E+00 0. -1.
          1    1    1    2  502    0 -0.19060064413E+02  0.17037860418E+02 -0.12748792282E+02  0.28567576861E+02  0.00000000000E+00 0. -1.
         22    1    3    3    0    0  0.32568060082E+02 -0.61347399745E+02 -0.52313524562E+02  0.86953360171E+02  0.00000000000E+00 0. -1.
         22    1    3    3    0    0  0.61258176204E+02  0.22416112530E+02 -0.21964638638E+03  0.22912787108E+03  0.00000000000E+00 0. -1.
</event>
<event>
 7    1  0.5931885E-006  0.6341533E+02  0.7818608E-02  0.1514458E+00
          2   -1    0    0  502    0  0.00000000000E+00  0.00000000000E+00  0.84218263935E+03  0.84218263935E+03  0.00000000000E+00 0. -1.
          1   -1    0    0  501    0 -0.00000000000E+00 -0.00000000000E+00 -0.95449272447E+02  0.95449272447E+02  0.00000000000E+00 0. -1.
         25    2    1    2    0    0 -0.23517081665E+02  0.59336065078E+02  0.55294662341E+02  0.15085214917E+03  0.12500019790E+03 0.  0.
          2    1    1    2  501    0 -0.20226359202E+02 -0.13261849753E+02 -0.43140711403E+02  0.49458095857E+02  0.00000000000E+00 0. -1.
          1    1    1    2  502    0  0.43743440867E+02 -0.46074215325E+02  0.73457941597E+03  0.73732166678E+03  0.00000000000E+00 0. -1.
         22    1    3    3    0    0 -0.41633792980E+02  0.77496254021E+02 -0.20883589209E+01  0.87996609868E+02  0.00000000000E+00 0. -1.
         22    1    3    3    0    0  0.18116711315E+02 -0.18160188944E+02  0.57383021262E+02  0.62855539298E+02  0.00000000000E+00 0. -1.
</event>
<event>
 7    1  0.5931885E-006  0.5186158E+02  0.7818608E-02  0.1482257E+00
          2   -1    0    0  502    0  0.00000000000E+00  0.00000000000E+00  0.14889391973E+04  0.14889391973E+04  0.00000000000E+00 0. -1.
          1   -1    0    0  501    0 -0.00000000000E+00 -0.00000000000E+00 -0.46786596716E+02  0.46786596716E+02  0.00000000000E+00 0. -1.
         25    2    1    2    0    0  0.70078938066E+01  0.38384145224E+02  0.28875568602E+03  0.31706006069E+03  0.12499913078E+03 0.  0.
          2    1    1    2  501    0 -0.43285089334E+02 -0.31534102957E+02 -0.10172093752E+02  0.54511192422E+02  0.00000000000E+00 0. -1.
          1    1    1    2  502    0  0.36277195527E+02 -0.68500422666E+01  0.11635690083E+04  0.11641545409E+04  0.00000000000E+00 0. -1.
         22    1    3    3    0    0 -0.17087334613E+02  0.80258776274E+02  0.19579257097E+03  0.21229267302E+03  0.00000000000E+00 0. -1.
         22    1    3    3    0    0  0.24095228420E+02 -0.41874631050E+02  0.92963115053E+02  0.10476738767E+03  0.00000000000E+00 0. -1.
</event>
<event>
 7    1  0.5931885E-006  0.7683762E+02  0.7818608E-02  0.1379013E+00
          2   -1    0    0  502    0  0.00000000000E+00  0.00000000000E+00  0.94534062300E+03  0.94534062300E+03  0.00000000000E+00 0. -1.
          1   -1    0    0  501    0 -0.00000000000E+00 -0.00000000000E+00 -0.56323832942E+03  0.56323832942E+03  0.00000000000E+00 0. -1.
         25    2    1    2    0    0  0.13532599271E+02 -0.28586445460E+02  0.45681654946E+03  0.47466564168E+03  0.12500318163E+03 0.  0.
          2    1    1    2  501    0  0.13475924512E+02  0.75946192902E+02 -0.55006481788E+03  0.55544642282E+03  0.00000000000E+00 0. -1.
          1    1    1    2  502    0 -0.27008523783E+02 -0.47359747441E+02  0.47535056200E+03  0.47846688791E+03  0.00000000000E+00 0. -1.
         22    1    3    3    0    0 -0.19545420017E+01  0.30617250151E+02  0.28099774637E+02  0.41603288042E+02  0.00000000000E+00 0.  1.
         22    1    3    3    0    0  0.15487141273E+02 -0.59203695611E+02  0.42871677483E+03  0.43306235364E+03  0.00000000000E+00 0.  1.
</event>
<event>
 7    1  0.5931885E-006  0.1215803E+03  0.7818608E-02  0.1252056E+00
          2   -1    0    0  502    0  0.00000000000E+00  0.00000000000E+00  0.32240277055E+04  0.32240277055E+04  0.00000000000E+00 0. -1.
          1   -1    0    0  501    0 -0.00000000000E+00 -0.00000000000E+00 -0.23625169056E+03  0.23625169056E+03  0.00000000000E+00 0. -1.
         25    2    1    2    0    0 -0.10129609050E+03  0.10318339786E+02  0.16906993723E+04  0.16983688728E+04  0.12500037871E+03 0.  0.
          2    1    1    2  501    0 -0.29228667242E+02 -0.10424282806E+03 -0.21531135943E+03  0.24099764251E+03  0.00000000000E+00 0. -1.
          1    1    1    2  502    0  0.13052475774E+03  0.93924488278E+02  0.15123880022E+04  0.15209128808E+04  0.00000000000E+00 0. -1.
         22    1    3    3    0    0 -0.38304975408E+02  0.51161884419E+02  0.36558968606E+03  0.37113424541E+03  0.00000000000E+00 0. -1.
         22    1    3    3    0    0 -0.62991115087E+02 -0.40843544633E+02  0.13251096862E+04  0.13272346274E+04  0.00000000000E+00 0. -1.
</event>
<event>
 7    1  0.5931885E-006  0.1359334E+03  0.7818608E-02  0.1317394E+00
          2   -1    0    0  502    0  0.00000000000E+00  0.00000000000E+00  0.11859172931E+04  0.11859172931E+04  0.00000000000E+00 0. -1.
          1   -1    0    0  501    0 -0.00000000000E+00 -0.00000000000E+00 -0.18934511176E+03  0.18934511176E+03  0.00000000000E+00 0. -1.
         25    2    1    2    0    0  0.90437203323E+02 -0.59552572560E+02 -0.16577326677E+02  0.16617834942E+03  0.12496015129E+03 0.  0.
          2    1    1    2  501    0 -0.91735162095E+01 -0.51410669262E+02 -0.86405229719E+02  0.10096075493E+03  0.00000000000E+00 0. -1.
          1    1    1    2  502    0 -0.81263687113E+02  0.11096324182E+03  0.10995547378E+04  0.11081233006E+04  0.00000000000E+00 0. -1.
         22    1    3    3    0    0  0.91620971268E+02 -0.76792196407E+02 -0.49189239926E+02  0.12927113030E+03  0.00000000000E+00 0.  1.
         22    1    3    3    0    0 -0.11837679451E+01  0.17239623846E+02  0.32611913249E+02  0.36907219113E+02  0.00000000000E+00 0.  1.
</event>
<event>
 7    1  0.5931885E-006  0.5824686E+02  0.7818608E-02  0.1433312E+00
          2   -1    0    0  502    0  0.00000000000E+00  0.00000000000E+00  0.12784418088E+04  0.12784418088E+04  0.00000000000E+00 0. -1.
          1   -1    0    0  501    0 -0.00000000000E+00 -0.00000000000E+00 -0.45937796419E+03  0.45937796419E+03  0.00000000000E+00 0. -1.
         25    2    1    2    0    0 -0.41031460559E+02 -0.16450215076E+01  0.49275454762E+02  0.14049980561E+03  0.12500335229E+03 0.  0.
          2    1    1    2  501    0  0.34132493036E+02  0.48097291355E+02 -0.41119508363E+03  0.41540314553E+03  0.00000000000E+00 0. -1.
          1    1    1    2  502    0  0.68989675231E+01 -0.46452269847E+02  0.11809834734E+04  0.11819168218E+04  0.00000000000E+00 0. -1.
         22    1    3    3    0    0 -0.56798633475E+02  0.49724354577E+02  0.41679325687E+02  0.86230866819E+02  0.00000000000E+00 0.  1.
         22    1    3    3    0    0  0.15767172916E+02 -0.51369376084E+02  0.75961290750E+01  0.54268938795E+02  0.00000000000E+00 0.  1.
</event>
<event>
 7    1  0.5931885E-006  0.1351808E+03  0.7818608E-02  0.1361804E+00
          2   -1    0    0  502    0  0.00000000000E+00  0.00000000000E+00  0.16406151799E+03  0.16406151799E+03  0.00000000000E+00 0. -1.
          1   -1    0    0  501    0 -0.00000000000E+00 -0.00000000000E+00 -0.62894011073E+03  0.62894011073E+03  0.00000000000E+00 0. -1.
         25    2    1    2    0    0 -0.11487694681E+03 -0.87709800487E+02 -0.23184079725E+03  0.30044167644E+03  0.12500129465E+03 0.  0.
          2    1    1    2  501    0  0.31154691859E+02 -0.17495868351E+02 -0.32673277397E+03  0.32868073540E+03  0.00000000000E+00 0. -1.
          1    1    1    2  502    0  0.83722254949E+02  0.10520566884E+03  0.93694978494E+02  0.16387921688E+03  0.00000000000E+00 0. -1.
         22    1    3    3    0    0 -0.12333450557E+02 -0.87645289828E+02 -0.11034701081E+03  0.14145767433E+03  0.00000000000E+00 0.  1.
         22    1    3    3    0    0 -0.10254349625E+03 -0.64510658976E-01 -0.12149378644E+03  0.15898400212E+03  0.00000000000E+00 0.  1.
</event>
<event>
 7    1  0.5931885E-006  0.7073172E+02  0.7818608E-02  0.1380068E+00
          2   -1    0    0  502    0  0.00000000000E+00  0.00000000000E+00  0.35094852268E+03  0.35094852268E+03  0.00000000000E+00 0. -1.
          1   -1    0    0  501    0 -0.00000000000E+00 -0.00000000000E+00 -0.74894414845E+03  0.74894414845E+03  0.00000000000E+00 0. -1.
         25    2    1    2    0    0 -0.62319839494E+02  0.55413701222E+02  0.77947103336E+00  0.15026778215E+03  0.12500143239E+03 0.  0.
          2    1    1    2  501    0 -0.89291807116E+01 -0.58035776617E+02 -0.66827691384E+03  0.67085163427E+03  0.00000000000E+00 0. -1.
          1    1    1    2  502    0  0.71249020206E+02  0.26220753952E+01  0.26950181703E+03  0.27877325471E+03  0.00000000000E+00 0. -1.
         22    1    3    3    0    0 -0.33606074183E+02 -0.33674543974E+02  0.24776003882E+02  0.53639477087E+02  0.00000000000E+00 0. -1.
         22    1    3    3    0    0 -0.28713765311E+02  0.89088245196E+02 -0.23996532849E+02  0.96628305062E+02  0.00000000000E+00 0. -1.
</event>
<event>
 7    1  0.5931885E-006  0.4016384E+02  0.7818608E-02  0.1535699E+00
          2   -1    0    0  502    0  0.00000000000E+00  0.00000000000E+00  0.13260021460E+04  0.13260021460E+04  0.00000000000E+00 0. -1.
          1   -1    0    0  501    0 -0.00000000000E+00 -0.00000000000E+00 -0.37679137014E+03  0.37679137014E+03  0.00000000000E+00 0. -1.
         25    2    1    2    0    0  0.21641514466E+02  0.65247821655E+02  0.10752243297E+03  0.17863786205E+03  0.12499911515E+03 0.  0.
          2    1    1    2  501    0 -0.18862207826E+00 -0.39956980209E+02 -0.33983045976E+03  0.34217150265E+03  0.00000000000E+00 0. -1.
          1    1    1    2  502    0 -0.21452892388E+02 -0.25290841447E+02  0.11815188027E+04  0.11819841515E+04  0.00000000000E+00 0. -1.
         22    1    3    3    0    0  0.18211639833E+02  0.68340631942E+02 -0.29039226706E+00  0.70726162962E+02  0.00000000000E+00 0. -1.
         22    1    3    3    0    0  0.34298746332E+01 -0.30928102870E+01  0.10781282523E+03  0.10791169909E+03  0.00000000000E+00 0. -1.
</event>
<event>
 7    1  0.5931885E-006  0.1063828E+03  0.7818608E-02  0.1330435E+00
          2   -1    0    0  502    0  0.00000000000E+00  0.00000000000E+00  0.85291098177E+03  0.85291098177E+03  0.00000000000E+00 0. -1.
          1   -1    0    0  501    0 -0.00000000000E+00 -0.00000000000E+00 -0.37265168517E+03  0.37265168517E+03  0.00000000000E+00 0. -1.
         25    2    1    2    0    0 -0.12989183145E+02  0.55338010972E+02  0.10240528597E+03  0.17129753969E+03  0.12499996069E+03 0.  0.
          2    1    1    2  501    0 -0.38499186006E+02  0.45276808344E+02 -0.33108306333E+03  0.33637504593E+03  0.00000000000E+00 0. -1.
          1    1    1    2  502    0  0.51488369151E+02 -0.10061481932E+03  0.70893707396E+03  0.71789008132E+03  0.00000000000E+00 0. -1.
         22    1    3    3    0    0  0.49595059751E+02  0.54484502695E+02  0.65844787119E+02  0.98811775495E+02  0.00000000000E+00 0.  1.
         22    1    3    3    0    0 -0.62584242895E+02  0.85350827737E+00  0.36560498855E+02  0.72485764200E+02  0.00000000000E+00 0.  1.
</event>
<event>
 7    1  0.5931885E-006  0.3083425E+02  0.7818608E-02  0.1626962E+00
          2   -1    0    0  502    0  0.00000000000E+00  0.00000000000E+00  0.16677408812E+04  0.16677408812E+04  0.00000000000E+00 0. -1.
          1   -1    0    0  501    0 -0.00000000000E+00 -0.00000000000E+00 -0.19241965528E+03  0.19241965528E+03  0.00000000000E+00 0. -1.
         25    2    1    2    0    0  0.22588597776E+01  0.85468219106E+01  0.59070543143E+03  0.60385060407E+03  0.12499797877E+03 0.  0.
          2    1    1    2  501    0 -0.24793292268E+02 -0.18417884782E+02 -0.18442135814E+03  0.18698974079E+03  0.00000000000E+00 0. -1.
          1    1    1    2  502    0  0.22534432490E+02  0.98710628719E+01  0.10690371526E+04  0.10693201916E+04  0.00000000000E+00 0. -1.
         22    1    3    3    0    0 -0.16237383032E+01  0.16470031795E+02  0.39316369913E+01  0.17010474503E+02  0.00000000000E+00 0.  1.
         22    1    3    3    0    0  0.38825980808E+01 -0.79232098843E+01  0.58677379444E+03  0.58684012956E+03  0.00000000000E+00 0.  1.
</event>
<event>
 7    1  0.5931885E-006  0.1716636E+03  0.7818608E-02  0.1328847E+00
          2   -1    0    0  502    0  0.00000000000E+00  0.00000000000E+00  0.98464716479E+03  0.98464716479E+03  0.00000000000E+00 0. -1.
          1   -1    0    0  501    0 -0.00000000000E+00 -0.00000000000E+00 -0.71230418804E+02  0.71230418804E+02  0.00000000000E+00 0. -1.
         25    2    1    2    0    0 -0.71390643209E+02 -0.14447328090E+03  0.24756401719E+03  0.32074730518E+03  0.12498695267E+03 0.  0.
          2    1    1    2  501    0 -0.36853341130E+02  0.60664945711E+01 -0.84647694665E+01  0.38296519828E+02  0.00000000000E+00 0. -1.
          1    1    1    2  502    0  0.10824398434E+03  0.13840678633E+03  0.67431749826E+03  0.69683375859E+03  0.00000000000E+00 0. -1.
         22    1    3    3    0    0  0.32953428599E+02 -0.31034191368E+02  0.87638931983E+02  0.98638896433E+02  0.00000000000E+00 0.  1.
         22    1    3    3    0    0 -0.10434407181E+03 -0.11343908953E+03  0.15992508521E+03  0.22210840874E+03  0.00000000000E+00 0.  1.
</event>
<event>
 7    1  0.5931885E-006  0.3832634E+02  0.7818608E-02  0.1536061E+00
          2   -1    0    0  502    0  0.00000000000E+00  0.00000000000E+00  0.32687180674E+03  0.32687180674E+03  0.00000000000E+00 0. -1.
          1   -1    0    0  501    0 -0.00000000000E+00 -0.00000000000E+00 -0.25609163919E+03  0.25609163919E+03  0.00000000000E+00 0. -1.
         25    2    1    2    0    0 -0.33740309444E+01  0.42208694024E+02 -0.39759253055E+02  0.13783642987E+03  0.12500050104E+03 0.  0.
          2    1    1    2  501    0 -0.27820535655E+02 -0.27075093202E+02 -0.16393633316E+03  0.16847006917E+03  0.00000000000E+00 0. -1.
          1    1    1    2  502    0  0.31194566600E+02 -0.15133600822E+02  0.27447575376E+03  0.27665694689E+03  0.00000000000E+00 0. -1.
         22    1    3    3    0    0 -0.43005386348E+01 -0.40113779419E+02 -0.38101957643E+02  0.55492063469E+02  0.00000000000E+00 0. -1.
         22    1    3    3    0    0  0.92650769035E+00  0.82322473443E+02 -0.16572954122E+01  0.82344366404E+02  0.00000000000E+00 0. -1.
</event>
<event>
 7    1  0.5931885E-006  0.7511735E+02  0.7818608E-02  0.1439886E+00
          2   -1    0    0  502    0  0.00000000000E+00  0.00000000000E+00  0.20275563289E+03  0.20275563289E+03  0.00000000000E+00 0. -1.
          1   -1    0    0  501    0 -0.00000000000E+00 -0.00000000000E+00 -0.11163499837E+04  0.11163499837E+04  0.00000000000E+00 0. -1.
         25    2    1    2    0    0 -0.81143764769E+02 -0.56368533470E+02 -0.33973031380E+03  0.37523805494E+03  0.12500075852E+03 0.  0.
          2    1    1    2  501    0  0.34599487893E+02 -0.20612491557E+01 -0.75090868698E+03  0.75170820768E+03  0.00000000000E+00 0. -1.
          1    1    1    2  502    0  0.46544276877E+02  0.58429782626E+02  0.17704465001E+03  0.19215935393E+03  0.00000000000E+00 0. -1.
         22    1    3    3    0    0  0.17070210298E+02  0.25926186868E+02 -0.59851001962E+02  0.67421819028E+02  0.00000000000E+00 0. -1.
         22    1    3    3    0    0 -0.98213975067E+02 -0.82294720338E+02 -0.27987931184E+03  0.30781623591E+03  0.00000000000E+00 0. -1.
</event>
<event>
 7    1  0.5931885E-006  0.9153693E+02  0.7818608E-02  0.1360691E+00
          2   -1    0    0  502    0  0.00000000000E+00  0.00000000000E+00  0.12905102733E+04  0.12905102733E+04  0.00000000000E+00 0. -1.
          1   -1    0    0  501    0 -0.00000000000E+00 -0.00000000000E+00 -0.57446799520E+02  0.57446799520E+02  0.00000000000E+00 0. -1.
         25    2    1    2    0    0  0.13513663993E+03 -0.92564176963E+01  0.29310160627E+03  0.34623892010E+03  0.12500098189E+03 0.  0.
          2    1    1    2  501    0 -0.83578024192E+02 -0.41064672438E+01  0.28054222710E+02  0.88256380013E+02  0.00000000000E+00 0. -1.
          1    1    1    2  502    0 -0.51558615742E+02  0.13362884940E+02  0.91190764477E+03  0.91346177267E+03  0.00000000000E+00 0. -1.
         22    1    3    3    0    0  0.15021804826E+03 -0.28959811588E+02  0.27765297422E+03  0.31700994749E+03  0.00000000000E+00 0. -1.
         22    1    3    3    0    0 -0.15081408327E+02  0.19703393892E+02  0.15448632047E+02  0.29228972615E+02  0.00000000000E+00 0. -1.
</event>
<event>
 7    1  0.5931885E-006  0.6436952E+02  0.7818608E-02  0.1510946E+00
          2   -1    0    0  502    0  0.00000000000E+00  0.00000000000E+00  0.20809399972E+04  0.20809399972E+04  0.00000000000E+00 0. -1.
          1   -1    0    0  501    0 -0.00000000000E+00 -0.00000000000E+00 -0.11297475531E+02  0.11297475531E+02  0.00000000000E+00 0. -1.
         25    2    1    2    0    0 -0.10252462197E+02 -0.48400158584E+02  0.12552233113E+04  0.12624017931E+04  0.12500014983E+03 0.  0.
          2    1    1    2  501    0  0.85806031207E+01 -0.22841146889E+02  0.18214874886E+02  0.30448750520E+02  0.00000000000E+00 0. -1.
          1    1    1    2  502    0  0.16718590762E+01  0.71241305474E+02  0.79620433543E+03  0.79938692914E+03  0.00000000000E+00 0. -1.
         22    1    3    3    0    0  0.40213248244E+02  0.99794886369E+00  0.85852950330E+03  0.85947135454E+03  0.00000000000E+00 0. -1.
         22    1    3    3    0    0 -0.50465710441E+02 -0.49398107448E+02  0.39669380803E+03  0.40293043851E+03  0.00000000000E+00 0. -1.
</event>
<event>
 7    1  0.5931885E-006  0.3838823E+02  0.7818608E-02  0.1541764E+00
          2   -1    0    0  502    0  0.00000000000E+00  0.00000000000E+00  0.18821206029E+03  0.18821206029E+03  0.00000000000E+00 0. -1.
          1   -1    0    0  501    0 -0.00000000000E+00 -0.00000000000E+00 -0.13158413027E+03  0.13158413027E+03  0.00000000000E+00 0. -1.
         25    2    1    2    0    0  0.49174479891E+02  0.46997672811E+01  0.60599210004E+02  0.14743410686E+03  0.12499733728E+03 0.  0.
          2    1    1    2  501    0 -0.18439740631E+02 -0.27791621778E+02 -0.80271360321E+02  0.86924620007E+02  0.00000000000E+00 0. -1.
          1    1    1    2  502    0 -0.30734739260E+02  0.23091854497E+02  0.76300080345E+02  0.85437463692E+02  0.00000000000E+00 0. -1.
         22    1    3    3    0    0  0.14479575860E+02 -0.58919127386E+02  0.17604348477E+02  0.63174637112E+02  0.00000000000E+00 0. -1.
         22    1    3    3    0    0  0.34694904031E+02  0.63618894667E+02  0.42994861528E+02  0.84259469747E+02  0.00000000000E+00 0. -1.
</event>
<event>
 7    1  0.5931885E-006  0.8510375E+02  0.7818608E-02  0.1345609E+00
          2   -1    0    0  502    0  0.00000000000E+00  0.00000000000E+00  0.18899336247E+03  0.18899336247E+03  0.00000000000E+00 0. -1.
          1   -1    0    0  501    0 -0.00000000000E+00 -0.00000000000E+00 -0.32604637242E+03  0.32604637242E+03  0.00000000000E+00 0. -1.
         25    2    1    2    0    0  0.43240481151E+02 -0.72997283571E+02 -0.24739934179E+02  0.15308705859E+03  0.12500096217E+03 0.  0.
          2    1    1    2  501    0 -0.63683057763E+02 -0.13583005829E+02 -0.21584336348E+03  0.22545151907E+03  0.00000000000E+00 0. -1.
          1    1    1    2  502    0  0.20442576612E+02  0.86580289401E+02  0.10353028771E+03  0.13650115723E+03  0.00000000000E+00 0. -1.
         22    1    3    3    0    0  0.34763251556E+02 -0.19969387741E+02  0.48083774005E+02  0.62604388249E+02  0.00000000000E+00 0. -1.
         22    1    3    3    0    0  0.84772295951E+01 -0.53027895830E+02 -0.72823708184E+02  0.90482670337E+02  0.00000000000E+00 0. -1.
</event>
<event>
 7    1  0.5931885E-006  0.7207442E+02  0.7818608E-02  0.1406510E+00
          2   -1    0    0  502    0  0.00000000000E+00  0.00000000000E+00  0.16982442725E+04  0.16982442725E+04  0.00000000000E+00 0. -1.
          1   -1    0    0  501    0 -0.00000000000E+00 -0.00000000000E+00 -0.35116298785E+03  0.35116298785E+03  0.00000000000E+00 0. -1.
         25    2    1    2    0    0 -0.49205522935E+02 -0.73020617344E+02 -0.16475752444E+03  0.22476363848E+03  0.12498182778E+03 0.  0.
          2    1    1    2  501    0 -0.16577180267E+02  0.43596328124E+02 -0.15212779249E+03  0.15911727744E+03  0.00000000000E+00 0. -1.
          1    1    1    2  502    0  0.65782703202E+02  0.29424289220E+02  0.16639666015E+04  0.16655263444E+04  0.00000000000E+00 0. -1.
         22    1    3    3    0    0 -0.35536958701E+02  0.71331621841E+01  0.49503551830E+01  0.36582283320E+02  0.00000000000E+00 0.  1.
         22    1    3    3    0    0 -0.13668564233E+02 -0.80153779528E+02 -0.16970787963E+03  0.18818135516E+03  0.00000000000E+00 0.  1.
</event>
<event>
 7    1  0.5931885E-006  0.5835035E+02  0.7818608E-02  0.1477039E+00
          2   -1    0    0  502    0  0.00000000000E+00  0.00000000000E+00  0.51949114374E+02  0.51949114374E+02  0.00000000000E+00 0. -1.
          1   -1    0    0  501    0 -0.00000000000E+00 -0.00000000000E+00 -0.74753319936E+03  0.74753319936E+03  0.00000000000E+00 0. -1.
         25    2    1    2    0    0  0.55328570165E+02 -0.16293149181E+02 -0.28567878207E+03  0.31711816150E+03  0.12499937777E+03 0.  0.
          2    1    1    2  501    0 -0.38184464233E+02  0.45706809178E+02 -0.43563649391E+03  0.43968889063E+03  0.00000000000E+00 0. -1.
          1    1    1    2  502    0 -0.17144105932E+02 -0.29413659997E+02  0.25731190998E+02  0.42675261602E+02  0.00000000000E+00 0. -1.
         22    1    3    3    0    0 -0.20808259000E+02 -0.48701959589E+02 -0.13837651201E+03  0.14816519020E+03  0.00000000000E+00 0.  1.
         22    1    3    3    0    0  0.76136829165E+02  0.32408810409E+02 -0.14730227005E+03  0.16895297130E+03  0.00000000000E+00 0.  1.
</event>
<event>
 7    1  0.5931885E-006  0.5935703E+02  0.7818608E-02  0.1524441E+00
          2   -1    0    0  502    0  0.00000000000E+00  0.00000000000E+00  0.15539401975E+02  0.15539401975E+02  0.00000000000E+00 0. -1.
          1   -1    0    0  501    0 -0.00000000000E+00 -0.00000000000E+00 -0.88590609081E+03  0.88590609081E+03  0.00000000000E+00 0. -1.
         25    2    1    2    0    0 -0.28446701591E+02  0.29638250612E+02 -0.37331033773E+03  0.39581050278E+03  0.12497081709E+03 0.  0.
          2    1    1    2  501    0  0.43313520664E+02 -0.48695611509E+02 -0.29349542821E+03  0.30064412522E+03  0.00000000000E+00 0. -1.
          1    1    1    2  502    0 -0.14866819073E+02  0.19057360897E+02 -0.20356092289E+03  0.20499086478E+03  0.00000000000E+00 0. -1.
         22    1    3    3    0    0 -0.62026795531E+02 -0.49897703747E+01 -0.31018572453E+03  0.31636593508E+03  0.00000000000E+00 0.  1.
         22    1    3    3    0    0  0.33580093940E+02  0.34628020987E+02 -0.63124613202E+02  0.79444567709E+02  0.00000000000E+00 0.  1.
</event>
<event>
 7    1  0.5931885E-006  0.1158003E+03  0.7818608E-02  0.1358216E+00
          2   -1    0    0  502    0  0.00000000000E+00  0.00000000000E+00  0.32696643395E+03  0.32696643395E+03  0.00000000000E+00 0. -1.
          1   -1    0    0  501    0 -0.00000000000E+00 -0.00000000000E+00 -0.15458757954E+03  0.15458757954E+03  0.00000000000E+00 0. -1.
         25    2    1    2    0    0  0.46424267797E+02 -0.75587848432E+02  0.35611966755E+02  0.15735860878E+03  0.12499913644E+03 0.  0.
          2    1    1    2  501    0 -0.51191006905E+02  0.11831047396E+03 -0.45670824756E+02  0.13676151385E+03  0.00000000000E+00 0. -1.
          1    1    1    2  502    0  0.47667391079E+01 -0.42722625525E+02  0.18243771241E+03  0.18743389086E+03  0.00000000000E+00 0. -1.
         22    1    3    3    0    0  0.95541594681E+01 -0.41468376448E+02  0.79811159593E+02  0.90447384727E+02  0.00000000000E+00 0.  1.
         22    1    3    3    0    0  0.36870108329E+02 -0.34119471983E+02 -0.44199192838E+02  0.66911224052E+02  0.00000000000E+00 0.  1.
</event>
<event>
 7    1  0.5931885E-006  0.4407529E+02  0.7818608E-02  0.1506256E+00
          2   -1    0    0  502    0  0.00000000000E+00  0.00000000000E+00  0.51859870773E+03  0.51859870773E+03  0.00000000000E+00 0. -1.
          1   -1    0    0  501    0 -0.00000000000E+00 -0.00000000000E+00 -0.82792349519E+03  0.82792349519E+03  0.00000000000E+00 0. -1.
         25    2    1    2    0    0  0.19889452383E+02 -0.46012900703E+02 -0.28497480333E+03  0.31519683693E+03  0.12500252049E+03 0.  0.
          2    1    1    2  501    0 -0.41504328949E+02  0.16244927016E+02 -0.52622236332E+03  0.52810650690E+03  0.00000000000E+00 0. -1.
          1    1    1    2  502    0  0.21614876566E+02  0.29767973687E+02  0.50187237919E+03  0.50321885908E+03  0.00000000000E+00 0. -1.
         22    1    3    3    0    0 -0.52184790140E+02 -0.68057338873E+01 -0.11016825638E+03  0.12209264945E+03  0.00000000000E+00 0.  1.
         22    1    3    3    0    0  0.72074242524E+02 -0.39207166816E+02 -0.17480654695E+03  0.19310418748E+03  0.00000000000E+00 0.  1.
</event>
<event>
 7    1  0.5931885E-006  0.4593491E+02  0.7818608E-02  0.1475745E+00
          2   -1    0    0  502    0  0.00000000000E+00  0.00000000000E+00  0.21148887517E+03  0.21148887517E+03  0.00000000000E+00 0. -1.
          1   -1    0    0  501    0 -0.00000000000E+00 -0.00000000000E+00 -0.46565605146E+03  0.46565605146E+03  0.00000000000E+00 0. -1.
         25    2    1    2    0    0  0.39556879885E+02  0.38412761082E+02 -0.15162161951E+02  0.13745715210E+03  0.12499716216E+03 0.  0.
          2    1    1    2  501    0 -0.45916559864E+02  0.47675690311E+01 -0.38476959978E+03  0.38752897324E+03  0.00000000000E+00 0. -1.
          1    1    1    2  502    0  0.63596799794E+01 -0.43180330113E+02  0.14576458545E+03  0.15215880128E+03  0.00000000000E+00 0. -1.
         22    1    3    3    0    0  0.46012863489E+02 -0.35152016097E+02 -0.24785080238E+02  0.62985300226E+02  0.00000000000E+00 0.  1.
         22    1    3    3    0    0 -0.64559836038E+01  0.73564777179E+02  0.96229182870E+01  0.74471851878E+02  0.00000000000E+00 0.  1.
</event>
<event>
 7    1  0.5931885E-006  0.6129600E+02  0.7818608E-02  0.1535716E+00
          2   -1    0    0  502    0  0.00000000000E+00  0.00000000000E+00  0.11135884500E+04  0.11135884500E+04  0.00000000000E+00 0. -1.
          1   -1    0    0  501    0 -0.00000000000E+00 -0.00000000000E+00 -0.39335383826E+03  0.39335383826E+03  0.00000000000E+00 0. -1.
         25    2    1    2    0    0 -0.45076575383E+02  0.36232084448E+02  0.60752623755E+02  0.15053369954E+03  0.12499940724E+03 0.  0.
          2    1    1    2  501    0 -0.13332301830E+02 -0.17156930072E+02 -0.34718693839E+03  0.34786618219E+03  0.00000000000E+00 0. -1.
          1    1    1    2  502    0  0.58408877213E+02 -0.19075154376E+02  0.10066689263E+04  0.10085424065E+04  0.00000000000E+00 0. -1.
         22    1    3    3    0    0 -0.15786353012E+02  0.65745290388E+02  0.79973594680E+02  0.10472548876E+03  0.00000000000E+00 0.  1.
         22    1    3    3    0    0 -0.29290222371E+02 -0.29513205940E+02 -0.19220970924E+02  0.45808210778E+02  0.00000000000E+00 0.  1.
</event>
<event>
 7    1  0.5931885E-006  0.3807621E+02  0.7818608E-02  0.1621637E+00
          2   -1    0    0  502    0  0.00000000000E+00  0.00000000000E+00  0.62606022810E+02  0.62606022810E+02  0.00000000000E+00 0. -1.
          1   -1    0    0  501    0 -0.00000000000E+00 -0.00000000000E+00 -0.30419611957E+03  0.30419611957E+03  0.00000000000E+00 0. -1.
         25    2    1    2    0    0  0.69312409405E-01  0.53267384958E+02 -0.18085624066E+03  0.22621159033E+03  0.12500113883E+03 0.  0.
          2    1    1    2  501    0 -0.10957185689E+02 -0.17386216503E+02 -0.90444496682E+02  0.92749918720E+02  0.00000000000E+00 0. -1.
          1    1    1    2  502    0  0.10887873280E+02 -0.35881168455E+02  0.29710640578E+02  0.47840633334E+02  0.00000000000E+00 0. -1.
         22    1    3    3    0    0  0.56056313124E+02  0.53455961458E+01 -0.11197683107E+03  0.12533832748E+03  0.00000000000E+00 0. -1.
         22    1    3    3    0    0 -0.55987000715E+02  0.47921788812E+02 -0.68879409583E+02  0.10087326284E+03  0.00000000000E+00 0. -1.
</event>
<event>
 7    1  0.5931885E-006  0.2854276E+02  0.7818608E-02  0.1664769E+00
          2   -1    0    0  502    0  0.00000000000E+00  0.00000000000E+00  0.18176328051E+04  0.18176328051E+04  0.00000000000E+00 0. -1.
          1   -1    0    0  501    0 -0.00000000000E+00 -0.00000000000E+00 -0.32065584863E+03  0.32065584863E+03  0.00000000000E+00 0. -1.
         25    2    1    2    0    0  0.21459657859E+01  0.41860439142E+02  0.35952215562E+03  0.38293747975E+03  0.12501212533E+03 0.  0.
          2    1    1    2  501    0 -0.14175666777E+02 -0.16089361640E+02 -0.30843609359E+03  0.30918059595E+03  0.00000000000E+00 0. -1.
          1    1    1    2  502    0  0.12029700991E+02 -0.25771077502E+02  0.14458908944E+04  0.14461705780E+04  0.00000000000E+00 0. -1.
         22    1    3    3    0    0 -0.93601156254E+01 -0.43903542365E+02  0.13782158877E+03  0.14494800146E+03  0.00000000000E+00 0. -1.
         22    1    3    3    0    0  0.11506081411E+02  0.85763981507E+02  0.22170056685E+03  0.23798947829E+03  0.00000000000E+00 0. -1.
</event>
<event>
 7    1  0.5931885E-006  0.7978471E+02  0.7818608E-02  0.1506209E+00
          2   -1    0    0  502    0  0.00000000000E+00  0.00000000000E+00  0.46353995979E+03  0.46353995979E+03  0.00000000000E+00 0. -1.
          1   -1    0    0  501    0 -0.00000000000E+00 -0.00000000000E+00 -0.13762581993E+03  0.13762581993E+03  0.00000000000E+00 0. -1.
         25    2    1    2    0    0  0.77935237405E+01 -0.70542264692E+02 -0.24422595859E+02  0.14580804679E+03  0.12500629264E+03 0.  0.
          2    1    1    2  501    0  0.19733283075E+02 -0.48852454277E+01 -0.46357545016E+02  0.50619068183E+02  0.00000000000E+00 0. -1.
          1    1    1    2  502    0 -0.27526806815E+02  0.75427510120E+02  0.39669428073E+03  0.40473866475E+03  0.00000000000E+00 0. -1.
         22    1    3    3    0    0 -0.32538819403E+02 -0.85924314804E+02  0.74048547232E+01  0.92176973894E+02  0.00000000000E+00 0. -1.
         22    1    3    3    0    0  0.40332343143E+02  0.15382050112E+02 -0.31827450583E+02  0.53631072893E+02  0.00000000000E+00 0. -1.
</event>
<event>
 7    1  0.5931885E-006  0.5524037E+02  0.7818608E-02  0.1512912E+00
          2   -1    0    0  502    0  0.00000000000E+00  0.00000000000E+00  0.36966630684E+03  0.36966630684E+03  0.00000000000E+00 0. -1.
          1   -1    0    0  501    0 -0.00000000000E+00 -0.00000000000E+00 -0.22933738972E+03  0.22933738972E+03  0.00000000000E+00 0. -1.
         25    2    1    2    0    0 -0.62920561341E+02 -0.40651034490E+02  0.35128528018E+02  0.14990510338E+03  0.12500409151E+03 0.  0.
          2    1    1    2  501    0  0.34888590678E+02  0.41828592620E+02 -0.16689603855E+03  0.17555948452E+03  0.00000000000E+00 0. -1.
          1    1    1    2  502    0  0.28031970663E+02 -0.11775581295E+01  0.27209642766E+03  0.27353910866E+03  0.00000000000E+00 0. -1.
         22    1    3    3    0    0 -0.25591958303E+02 -0.11321577560E+02  0.79894994015E+02  0.84654217361E+02  0.00000000000E+00 0.  1.
         22    1    3    3    0    0 -0.37328603038E+02 -0.29329456931E+02 -0.44766465997E+02  0.65250886021E+02  0.00000000000E+00 0.  1.
</event>
<event>
 7    1  0.5931885E-006  0.2552991E+03  0.7818608E-02  0.1249729E+00
          2   -1    0    0  502    0  0.00000000000E+00  0.00000000000E+00  0.41627392037E+03  0.41627392037E+03  0.00000000000E+00 0. -1.
          1   -1    0    0  501    0 -0.00000000000E+00 -0.00000000000E+00 -0.10590251306E+04  0.10590251306E+04  0.00000000000E+00 0. -1.
         25    2    1    2    0    0  0.53031030610E+02  0.25505770435E+03 -0.73582136701E+02  0.29817045709E+03  0.12499827153E+03 0.  0.
          2    1    1    2  501    0 -0.26321313064E+00 -0.25520037361E+03 -0.85200921352E+03  0.88940823017E+03  0.00000000000E+00 0. -1.
          1    1    1    2  502    0 -0.52767817479E+02  0.14266926048E+00  0.28284013998E+03  0.28772036372E+03  0.00000000000E+00 0. -1.
         22    1    3    3    0    0 -0.33267603570E+02  0.14469595542E+03 -0.45501577574E+02  0.15528698118E+03  0.00000000000E+00 0.  1.
         22    1    3    3    0    0  0.86298634180E+02  0.11036174893E+03 -0.28080559127E+02  0.14288347591E+03  0.00000000000E+00 0.  1.
</event>
<event>
 7    1  0.5931885E-006  0.3173739E+02  0.7818608E-02  0.1624657E+00
          2   -1    0    0  502    0  0.00000000000E+00  0.00000000000E+00  0.80935878007E+03  0.80935878007E+03  0.00000000000E+00 0. -1.
          1   -1    0    0  501    0 -0.00000000000E+00 -0.00000000000E+00 -0.42248626054E+03  0.42248626054E+03  0.00000000000E+00 0. -1.
         25    2    1    2    0    0  0.53921618597E+02 -0.84805572223E+01 -0.15901050911E+03  0.20949638919E+03  0.12499973709E+03 0.  0.
          2    1    1    2  501    0 -0.29697611122E+02  0.83417550677E+01 -0.23704615749E+03  0.23904479448E+03  0.00000000000E+00 0. -1.
          1    1    1    2  502    0 -0.24224007476E+02  0.13880215451E+00  0.78292918613E+03  0.78330385694E+03  0.00000000000E+00 0. -1.
         22    1    3    3    0    0 -0.10238828249E+01  0.40221452872E+02 -0.11955568069E+03  0.12614426024E+03  0.00000000000E+00 0.  1.
         22    1    3    3    0    0  0.54945501422E+02 -0.48702010094E+02 -0.39454828422E+02  0.83352128944E+02  0.00000000000E+00 0.  1.
</event>
<event>
 7    1  0.5931885E-006  0.1606622E+03  0.7818608E-02  0.1203507E+00
          2   -1    0    0  502    0  0.00000000000E+00  0.00000000000E+00  0.12736136437E+04  0.12736136437E+04  0.00000000000E+00 0. -1.
          1   -1    0    0  501    0 -0.00000000000E+00 -0.00000000000E+00 -0.31515807194E+03  0.31515807194E+03  0.00000000000E+00 0. -1.
         25    2    1    2    0    0  0.10281363378E+03 -0.12012211785E+03  0.12265043577E+03  0.23594590309E+03  0.12500949285E+03 0.  0.
          2    1    1    2  501    0 -0.12795253701E+03 -0.44655287982E+02 -0.23383948389E+03  0.27027180892E+03  0.00000000000E+00 0. -1.
          1    1    1    2  502    0  0.25138903224E+02  0.16477740583E+03  0.10696446198E+04  0.10825540036E+04  0.00000000000E+00 0. -1.
         22    1    3    3    0    0  0.66521127816E+02 -0.17993438424E+02 -0.42702754715E+01  0.69043895638E+02  0.00000000000E+00 0. -1.
         22    1    3    3    0    0  0.36292505966E+02 -0.10212867942E+03  0.12692071124E+03  0.16690200746E+03  0.00000000000E+00 0. -1.
</event>
<event>
 7    1  0.5931885E-006  0.4188122E+02  0.7818608E-02  0.1504589E+00
          2   -1    0    0  502    0  0.00000000000E+00  0.00000000000E+00  0.29584645930E+04  0.29584645930E+04  0.00000000000E+00 0. -1.
          1   -1    0    0  501    0 -0.00000000000E+00 -0.00000000000E+00 -0.47853452065E+03  0.47853452065E+03  0.00000000000E+00 0. -1.
         25    2    1    2    0    0  0.51223185712E+02  0.31923794312E+02  0.22663250009E+04  0.22705719420E+04  0.12499996382E+03 0.  0.
          2    1    1    2  501    0 -0.11946363308E+02 -0.37290836642E+02 -0.47503543799E+03  0.47664660855E+03  0.00000000000E+00 0. -1.
          1    1    1    2  502    0 -0.39276822405E+02  0.53670423304E+01  0.68864050945E+03  0.68978056306E+03  0.00000000000E+00 0. -1.
         22    1    3    3    0    0  0.15451281872E+02 -0.93909145865E+01  0.19095627564E+04  0.19096483582E+04  0.00000000000E+00 0. -1.
         22    1    3    3    0    0  0.35771903840E+02  0.41314708898E+02  0.35676224451E+03  0.36092358386E+03  0.00000000000E+00 0. -1.
</event>
<event>
 7    1  0.5931885E-006  0.1825494E+03  0.7818608E-02  0.1314525E+00
          2   -1    0    0  502    0  0.00000000000E+00  0.00000000000E+00  0.13130003843E+04  0.13130003843E+04  0.00000000000E+00 0. -1.
          1   -1    0    0  501    0 -0.00000000000E+00 -0.00000000000E+00 -0.39117757999E+03  0.39117757999E+03  0.00000000000E+00 0. -1.
         25    2    1    2    0    0 -0.57846816515E+02  0.15379477875E+03 -0.16152180005E+03  0.26213118447E+03  0.12499751130E+03 0.  0.
          2    1    1    2  501    0  0.78873965169E+02 -0.18770816124E+03 -0.12112869949E+03  0.23691268015E+03  0.00000000000E+00 0. -1.
          1    1    1    2  502    0 -0.21027148655E+02  0.33913382491E+02  0.12044733038E+04  0.12051340997E+04  0.00000000000E+00 0. -1.
         22    1    3    3    0    0 -0.36459821382E+02  0.17058018377E+03 -0.11724788361E+03  0.21017607828E+03  0.00000000000E+00 0. -1.
         22    1    3    3    0    0 -0.21386995133E+02 -0.16785405022E+02 -0.44273916442E+02  0.51955106194E+02  0.00000000000E+00 0. -1.
</event>
<event>
 7    1  0.5931885E-006  0.5068436E+02  0.7818608E-02  0.1450394E+00
          2   -1    0    0  502    0  0.00000000000E+00  0.00000000000E+00  0.40650201399E+04  0.40650201399E+04  0.00000000000E+00 0. -1.
          1   -1    0    0  501    0 -0.00000000000E+00 -0.00000000000E+00 -0.71279361789E+03  0.71279361789E+03  0.00000000000E+00 0. -1.
         25    2    1    2    0    0 -0.18128451082E+02  0.11997991168E+02  0.27599361042E+04  0.27628512005E+04  0.12500745709E+03 0.  0.
          2    1    1    2  501    0 -0.33020913833E+02  0.34168665771E+02 -0.70963049894E+03  0.71121960286E+03  0.00000000000E+00 0. -1.
          1    1    1    2  502    0  0.51149364915E+02 -0.46166656939E+02  0.13019209168E+04  0.13037429544E+04  0.00000000000E+00 0. -1.
         22    1    3    3    0    0 -0.59246625832E+02 -0.17400338545E+02  0.84720190901E+03  0.84944923867E+03  0.00000000000E+00 0.  1.
         22    1    3    3    0    0  0.41118174750E+02  0.29398329712E+02  0.19127341952E+04  0.19134019618E+04  0.00000000000E+00 0.  1.
</event>
<event>
 7    1  0.5931885E-006  0.5986075E+02  0.7818608E-02  0.1536843E+00
          2   -1    0    0  502    0  0.00000000000E+00  0.00000000000E+00  0.57429877768E+02  0.57429877768E+02  0.00000000000E+00 0. -1.
          1   -1    0    0  501    0 -0.00000000000E+00 -0.00000000000E+00 -0.13537863308E+04  0.13537863308E+04  0.00000000000E+00 0. -1.
         25    2    1    2    0    0 -0.30991841362E+01  0.39252516239E+02 -0.20619094738E+03  0.24434604491E+03  0.12505965739E+03 0.  0.
          2    1    1    2  501    0 -0.21093236372E+01 -0.60715234941E+02 -0.11244488124E+04  0.11260887712E+04  0.00000000000E+00 0. -1.
          1    1    1    2  502    0  0.52085077734E+01  0.21462718702E+02  0.34283306741E+02  0.40781392429E+02  0.00000000000E+00 0. -1.
         22    1    3    3    0    0 -0.41339776424E+01  0.11774030953E+01  0.17201130772E+02  0.17730057785E+02  0.00000000000E+00 0. -1.
         22    1    3    3    0    0  0.10347935062E+01  0.38075113144E+02 -0.22339207816E+03  0.22661598713E+03  0.00000000000E+00 0. -1.
</event>
<event>
 7    1  0.5931885E-006  0.5097403E+02  0.7818608E-02  0.1542204E+00
          2   -1    0    0  502    0  0.00000000000E+00  0.00000000000E+00  0.20059879198E+04  0.20059879198E+04  0.00000000000E+00 0. -1.
          1   -1    0    0  501    0 -0.00000000000E+00 -0.00000000000E+00 -0.12388560899E+04  0.12388560899E+04  0.00000000000E+00 0. -1.
         25    2    1    2    0    0  0.26470225544E+02  0.32232873493E+02  0.70392181640E+03  0.71614877964E+03  0.12499407987E+03 0.  0.
          2    1    1    2  501    0 -0.90037589985E+01 -0.50183534970E+02 -0.12320943261E+04  0.12331487677E+04  0.00000000000E+00 0. -1.
          1    1    1    2  502    0 -0.17466466545E+02  0.17950661477E+02  0.12953043397E+04  0.12955464623E+04  0.00000000000E+00 0. -1.
         22    1    3    3    0    0  0.49535899245E+02  0.58576289814E+02  0.62647712953E+03  0.63115654229E+03  0.00000000000E+00 0.  1.
         22    1    3    3    0    0 -0.23065673701E+02 -0.26343416320E+02  0.77444686868E+02  0.84992237356E+02  0.00000000000E+00 0.  1.
</event>
<event>
 7    1  0.5931885E-006  0.7442300E+02  0.7818608E-02  0.1448272E+00
          2   -1    0    0  502    0  0.00000000000E+00  0.00000000000E+00  0.74063700344E+03  0.74063700344E+03  0.00000000000E+00 0. -1.
          1   -1    0    0  501    0 -0.00000000000E+00 -0.00000000000E+00 -0.44173498232E+03  0.44173498232E+03  0.00000000000E+00 0. -1.
         25    2    1    2    0    0 -0.42116923277E+02  0.38832233671E+02 -0.14548999991E+03  0.20018463357E+03  0.12499907938E+03 0.  0.
          2    1    1    2  501    0 -0.28883241171E+02 -0.15693150341E+02 -0.26592846372E+03  0.26795235473E+03  0.00000000000E+00 0. -1.
          1    1    1    2  502    0  0.71000164448E+02 -0.23139083330E+02  0.71032048475E+03  0.71423499745E+03  0.00000000000E+00 0. -1.
         22    1    3    3    0    0 -0.79676363718E+00  0.55695357942E+02 -0.87979424236E+01  0.56391590857E+02  0.00000000000E+00 0. -1.
         22    1    3    3    0    0 -0.41320159640E+02 -0.16863124271E+02 -0.13669205749E+03  0.14379304271E+03  0.00000000000E+00 0. -1.
</event>
<event>
 7    1  0.5931885E-006  0.1659005E+03  0.7818608E-02  0.1208224E+00
          2   -1    0    0  502    0  0.00000000000E+00  0.00000000000E+00  0.12540042915E+04  0.12540042915E+04  0.00000000000E+00 0. -1.
          1   -1    0    0  501    0 -0.00000000000E+00 -0.00000000000E+00 -0.51249448993E+03  0.51249448993E+03  0.00000000000E+00 0. -1.
         25    2    1    2    0    0 -0.20800590789E+03  0.89901944368E+02  0.62040756950E+02  0.26612292477E+03  0.12499415286E+03 0.  0.
          2    1    1    2  501    0  0.45890180959E+02 -0.11600535971E+03 -0.39458813814E+03  0.41383928155E+03  0.00000000000E+00 0. -1.
          1    1    1    2  502    0  0.16211572693E+03  0.26103415338E+02  0.10740571828E+04  0.10865365751E+04  0.00000000000E+00 0. -1.
         22    1    3    3    0    0 -0.17258443002E+03  0.88376621048E+02 -0.88279480057E+00  0.19389840629E+03  0.00000000000E+00 0. -1.
         22    1    3    3    0    0 -0.35421477865E+02  0.15253233199E+01  0.62923551751E+02  0.72224518484E+02  0.00000000000E+00 0. -1.
</event>
<event>
 7    1  0.5931885E-006  0.7895829E+02  0.7818608E-02  0.1360065E+00
          2   -1    0    0  502    0  0.00000000000E+00  0.00000000000E+00  0.17507209672E+04  0.17507209672E+04  0.00000000000E+00 0. -1.
          1   -1    0    0  501    0 -0.00000000000E+00 -0.00000000000E+00 -0.37845960909E+02  0.37845960909E+02  0.00000000000E+00 0. -1.
         25    2    1    2    0    0 -0.80396635880E+02 -0.22387022496E+02  0.39527325344E+03  0.42288325171E+03  0.12499800740E+03 0.  0.
          2    1    1    2  501    0  0.41255139374E+02  0.70563668741E+02  0.48458557483E+02  0.95023416400E+02  0.00000000000E+00 0. -1.
          1    1    1    2  502    0  0.39141496506E+02 -0.48176646244E+02  0.12691431954E+04  0.12706602600E+04  0.00000000000E+00 0. -1.
         22    1    3    3    0    0  0.14275991828E+02 -0.22349771827E+02  0.23683056850E+03  0.23831079375E+03  0.00000000000E+00 0. -1.
         22    1    3    3    0    0 -0.94672627708E+02 -0.37250668943E-01  0.15844268494E+03  0.18457245795E+03  0.00000000000E+00 0. -1.
</event>
<event>
 7    1  0.5931885E-006  0.2078846E+03  0.7818608E-02  0.1356743E+00
          2   -1    0    0  502    0  0.00000000000E+00  0.00000000000E+00  0.12797743775E+04  0.12797743775E+04  0.00000000000E+00 0. -1.
          1   -1    0    0  501    0 -0.00000000000E+00 -0.00000000000E+00 -0.12926950848E+03  0.12926950848E+03  0.00000000000E+00 0. -1.
         25    2    1    2    0    0  0.11203879663E+03 -0.18252795852E+03  0.51469090760E+03  0.57131235646E+03  0.12498772211E+03 0.  0.
          2    1    1    2  501    0  0.13376568158E+02  0.20221499807E+02 -0.84953913019E+02  0.88345961806E+02  0.00000000000E+00 0. -1.
          1    1    1    2  502    0 -0.12541536479E+03  0.16230645872E+03  0.72076787439E+03  0.74938556767E+03  0.00000000000E+00 0. -1.
         22    1    3    3    0    0  0.13136869710E+03 -0.10990178501E+03  0.32716670507E+03  0.36928876213E+03  0.00000000000E+00 0.  1.
         22    1    3    3    0    0 -0.19329900465E+02 -0.72626173519E+02  0.18752420253E+03  0.20202359433E+03  0.00000000000E+00 0.  1.
</event>
<event>
 7    1  0.5931885E-006  0.2405225E+02  0.7818608E-02  0.1683186E+00
          2   -1    0    0  502    0  0.00000000000E+00  0.00000000000E+00  0.22475851485E+04  0.22475851485E+04  0.00000000000E+00 0. -1.
          1   -1    0    0  501    0 -0.00000000000E+00 -0.00000000000E+00 -0.37881305503E+02  0.37881305503E+02  0.00000000000E+00 0. -1.
         25    2    1    2    0    0 -0.33720143525E+02 -0.99395450942E+00  0.15535135415E+04  0.15588993614E+04  0.12499943746E+03 0.  0.
          2    1    1    2  501    0  0.15726540801E+02  0.16787906370E+02 -0.31198119535E+02  0.38761843975E+02  0.00000000000E+00 0. -1.
          1    1    1    2  502    0  0.17993602724E+02 -0.15793951861E+02  0.68738842105E+03  0.68780524863E+03  0.00000000000E+00 0. -1.
         22    1    3    3    0    0 -0.15072538791E+02 -0.42093839202E+02  0.13362411183E+04  0.13369889300E+04  0.00000000000E+00 0.  1.
         22    1    3    3    0    0 -0.18647604734E+02  0.41099884692E+02  0.21727242324E+03  0.22191043145E+03  0.00000000000E+00 0.  1.
</event>
<event>
 7    1  0.5931885E-006  0.3446206E+03  0.7818608E-02  0.1192264E+00
          2   -1    0    0  502    0  0.00000000000E+00  0.00000000000E+00  0.57479914334E+03  0.57479914334E+03  0.00000000000E+00 0. -1.
          1   -1    0    0  501    0 -0.00000000000E+00 -0.00000000000E+00 -0.61745391582E+03  0.61745391582E+03  0.00000000000E+00 0. -1.
         25    2    1    2    0    0 -0.91681761675E+02  0.37582200127E+03 -0.20003950632E+03  0.45308750129E+03  0.12499903068E+03 0.  0.
          2    1    1    2  501    0  0.80359364333E+02 -0.30530887340E+03 -0.20065223997E+03  0.37407546968E+03  0.00000000000E+00 0. -1.
          1    1    1    2  502    0  0.11322397342E+02 -0.70513127875E+02  0.35803697381E+03  0.36509008820E+03  0.00000000000E+00 0. -1.
         22    1    3    3    0    0 -0.18207588794E+01  0.23613006076E+02 -0.58320767924E+02  0.62946018063E+02  0.00000000000E+00 0. -1.
         22    1    3    3    0    0 -0.89861002796E+02  0.35220899520E+03 -0.14171873840E+03  0.39014148323E+03  0.00000000000E+00 0. -1.
</event>
<event>
 7    1  0.5931885E-006  0.1732695E+03  0.7818608E-02  0.1247060E+00
          2   -1    0    0  502    0  0.00000000000E+00  0.00000000000E+00  0.11227663297E+04  0.11227663297E+04  0.00000000000E+00 0. -1.
          1   -1    0    0  501    0 -0.00000000000E+00 -0.00000000000E+00 -0.82464408676E+03  0.82464408676E+03  0.00000000000E+00 0. -1.
         25    2    1    2    0    0 -0.34767331121E+02 -0.14613926392E+03 -0.68614557511E+02  0.20711984636E+03  0.12500088592E+03 0.  0.
          2    1    1    2  501    0 -0.78853533771E+02  0.12613442776E+02 -0.67711992061E+03  0.68181255901E+03  0.00000000000E+00 0. -1.
          1    1    1    2  502    0  0.11362086489E+03  0.13352582114E+03  0.10438567211E+04  0.10584780111E+04  0.00000000000E+00 0. -1.
         22    1    3    3    0    0  0.14160471775E+02  0.16723779210E+02  0.38870308661E+01  0.22255623130E+02  0.00000000000E+00 0. -1.
         22    1    3    3    0    0 -0.48927802896E+02 -0.16286304313E+03 -0.72501588377E+02  0.18486422323E+03  0.00000000000E+00 0. -1.
</event>
<event>
 7    1  0.5931885E-006  0.1055231E+03  0.7818608E-02  0.1288312E+00
          2   -1    0    0  502    0  0.00000000000E+00  0.00000000000E+00  0.58831930675E+03  0.58831930675E+03  0.00000000000E+00 0. -1.
          1   -1    0    0  501    0 -0.00000000000E+00 -0.00000000000E+00 -0.27234529873E+03  0.27234529873E+03  0.00000000000E+00 0. -1.
         25    2    1    2    0    0  0.88251011347E+02  0.13744007914E+02  0.32662370296E+03  0.36095467505E+03  0.12501238077E+03 0.  0.
          2    1    1    2  501    0 -0.78042132277E+02  0.73513299254E+02 -0.23525539748E+03  0.25853410147E+03  0.00000000000E+00 0. -1.
          1    1    1    2  502    0 -0.10208879071E+02 -0.87257307168E+02  0.22460570254E+03  0.24117582897E+03  0.00000000000E+00 0. -1.
         22    1    3    3    0    0  0.39896885237E+02 -0.55749388283E+02  0.13290832197E+03  0.14954724268E+03  0.00000000000E+00 0. -1.
         22    1    3    3    0    0  0.48354126110E+02  0.69493396197E+02  0.19371538099E+03  0.21140743236E+03  0.00000000000E+00 0. -1.
</event>
<event>
 7    1  0.5931885E-006  0.1228118E+03  0.7818608E-02  0.1256040E+00
          2   -1    0    0  502    0  0.00000000000E+00  0.00000000000E+00  0.21790438637E+04  0.21790438637E+04  0.00000000000E+00 0. -1.
          1   -1    0    0  501    0 -0.00000000000E+00 -0.00000000000E+00 -0.10422761122E+04  0.10422761122E+04  0.00000000000E+00 0. -1.
         25    2    1    2    0    0 -0.18234230047E+03  0.89064640730E+02  0.60876275575E+03  0.65375651590E+03  0.12499705804E+03 0.  0.
          2    1    1    2  501    0  0.12232605989E+03 -0.53291112158E+01 -0.10143793003E+04  0.10217423497E+04  0.00000000000E+00 0. -1.
          1    1    1    2  502    0  0.60016240580E+02 -0.83735529514E+02  0.15423842961E+04  0.15458211102E+04  0.00000000000E+00 0. -1.
         22    1    3    3    0    0 -0.10451132027E+03  0.11551640547E+03  0.41524325275E+03  0.44350153884E+03  0.00000000000E+00 0.  1.
         22    1    3    3    0    0 -0.77830980194E+02 -0.26451764736E+02  0.19351950300E+03  0.21025497706E+03  0.00000000000E+00 0.  1.
</event>
<event>
 7    1  0.5931885E-006  0.1061175E+03  0.7818608E-02  0.1316917E+00
          2   -1    0    0  502    0  0.00000000000E+00  0.00000000000E+00  0.25356110814E+04  0.25356110814E+04  0.00000000000E+00 0. -1.
          1   -1    0    0  501    0 -0.00000000000E+00 -0.00000000000E+00 -0.67639184547E+03  0.67639184547E+03  0.00000000000E+00 0. -1.
         25    2    1    2    0    0 -0.14191084356E+03  0.52860541330E+02 -0.11223573364E+03  0.22617332432E+03  0.12499835350E+03 0.  0.
          2    1    1    2  501    0  0.10279992964E+03  0.17643402569E+01 -0.50151585310E+03  0.51194637350E+03  0.00000000000E+00 0. -1.
          1    1    1    2  502    0  0.39110913923E+02 -0.54624881587E+02  0.24729708227E+04  0.24738832291E+04  0.00000000000E+00 0. -1.
         22    1    3    3    0    0  0.22968600777E+02 -0.62988700820E+00 -0.11610908269E+02  0.25744253148E+02  0.00000000000E+00 0. -1.
         22    1    3    3    0    0 -0.16487944434E+03  0.53490428339E+02 -0.10062482537E+03  0.20042907117E+03  0.00000000000E+00 0. -1.
</event>
<event>
 7    1  0.5931885E-006  0.5935537E+02  0.7818608E-02  0.1422998E+00
          2   -1    0    0  502    0  0.00000000000E+00  0.00000000000E+00  0.10583837383E+04  0.10583837383E+04  0.00000000000E+00 0. -1.
          1   -1    0    0  501    0 -0.00000000000E+00 -0.00000000000E+00 -0.19596284016E+03  0.19596284016E+03  0.00000000000E+00 0. -1.
         25    2    1    2    0    0 -0.30098341632E+02  0.70162549142E+02  0.79423139870E+02  0.16661676682E+03  0.12499767345E+03 0.  0.
          2    1    1    2  501    0 -0.17872136102E+02 -0.56628567548E+02 -0.14588663820E+03  0.15750910804E+03  0.00000000000E+00 0. -1.
          1    1    1    2  502    0  0.47970477735E+02 -0.13533981594E+02  0.92888439647E+03  0.93022070360E+03  0.00000000000E+00 0. -1.
         22    1    3    3    0    0 -0.79211619512E+02  0.43860682183E+02  0.44789523759E+02  0.10101654095E+03  0.00000000000E+00 0. -1.
         22    1    3    3    0    0  0.49113277880E+02  0.26301866959E+02  0.34633616111E+02  0.65600225873E+02  0.00000000000E+00 0. -1.
</event>
<event>
 7    1  0.5931885E-006  0.1723229E+03  0.7818608E-02  0.1220882E+00
          2   -1    0    0  502    0  0.00000000000E+00  0.00000000000E+00  0.65619210371E+03  0.65619210371E+03  0.00000000000E+00 0. -1.
          1   -1    0    0  501    0 -0.00000000000E+00 -0.00000000000E+00 -0.31980450671E+04  0.31980450671E+04  0.00000000000E+00 0. -1.
         25    2    1    2    0    0 -0.13082284615E+02 -0.15108028442E+03  0.77414962838E+02  0.21122056178E+03  0.12499860293E+03 0.  0.
          2    1    1    2  501    0  0.10477099992E+03 -0.73520939958E+01 -0.31138633578E+04  0.31156341292E+04  0.00000000000E+00 0. -1.
          1    1    1    2  502    0 -0.91688715301E+02  0.15843237842E+03  0.49459543163E+03  0.52738247983E+03  0.00000000000E+00 0. -1.
         22    1    3    3    0    0 -0.66674651217E+02 -0.10676006766E+03  0.39009282882E+02  0.13177611814E+03  0.00000000000E+00 0.  1.
         22    1    3    3    0    0  0.53592366602E+02 -0.44320216764E+02  0.38405679956E+02  0.79444443637E+02  0.00000000000E+00 0.  1.
</event>
<event>
 7    1  0.5931885E-006  0.7646646E+02  0.7818608E-02  0.1343153E+00
          2   -1    0    0  502    0  0.00000000000E+00  0.00000000000E+00  0.25918011876E+04  0.25918011876E+04  0.00000000000E+00 0. -1.
          1   -1    0    0  501    0 -0.00000000000E+00 -0.00000000000E+00 -0.69334726151E+02  0.69334726151E+02  0.00000000000E+00 0. -1.
         25    2    1    2    0    0 -0.16530019645E+01  0.60392912011E+02  0.34063305421E+03  0.36784105259E+03  0.12500450436E+03 0.  0.
          2    1    1    2  501    0 -0.70016425192E+02 -0.33735596857E+02 -0.27647577974E+02  0.82491083517E+02  0.00000000000E+00 0. -1.
          1    1    1    2  502    0  0.71669427157E+02 -0.26657315154E+02  0.22094809852E+04  0.22108037777E+04  0.00000000000E+00 0. -1.
         22    1    3    3    0    0 -0.40049195006E+02 -0.82519963280E+00  0.33194320271E+02  0.52023858693E+02  0.00000000000E+00 0. -1.
         22    1    3    3    0    0  0.38396193041E+02  0.61218111644E+02  0.30743873394E+03  0.31581719390E+03  0.00000000000E+00 0. -1.
</event>
<event>
 7    1  0.5931885E-006  0.6337239E+02  0.7818608E-02  0.1519341E+00
          2   -1    0    0  502    0  0.00000000000E+00  0.00000000000E+00  0.77736850722E+03  0.77736850722E+03  0.00000000000E+00 0. -1.
          1   -1    0    0  501    0 -0.00000000000E+00 -0.00000000000E+00 -0.56440070741E+02  0.56440070741E+02  0.00000000000E+00 0. -1.
         25    2    1    2    0    0  0.25273258484E+02  0.37709497606E+02  0.21273389634E+03  0.25088191716E+03  0.12500112760E+03 0.  0.
          2    1    1    2  501    0  0.22339150204E+02  0.70395541505E+01 -0.31520906650E+02  0.39270351545E+02  0.00000000000E+00 0. -1.
          1    1    1    2  502    0 -0.47612408687E+02 -0.44749051757E+02  0.53971544679E+03  0.54365630926E+03  0.00000000000E+00 0. -1.
         22    1    3    3    0    0 -0.93880800455E+01  0.68039040438E+02  0.59486610672E+02  0.90863105383E+02  0.00000000000E+00 0.  1.
         22    1    3    3    0    0  0.34661338529E+02 -0.30329542832E+02  0.15324728567E+03  0.16001881178E+03  0.00000000000E+00 0.  1.
</event>
<event>
 7    1  0.5931885E-006  0.1513380E+03  0.7818608E-02  0.1232008E+00
          2   -1    0    0  502    0  0.00000000000E+00  0.00000000000E+00  0.20364048059E+04  0.20364048059E+04  0.00000000000E+00 0. -1.
          1   -1    0    0  501    0 -0.00000000000E+00 -0.00000000000E+00 -0.59083997049E+03  0.59083997049E+03  0.00000000000E+00 0. -1.
         25    2    1    2    0    0 -0.19445262495E+03 -0.36895404152E+02  0.72195020109E+03  0.75895087563E+03  0.12498497737E+03 0.  0.
          2    1    1    2  501    0  0.11074797065E+03  0.10280808398E+03 -0.56012004618E+03  0.58014574140E+03  0.00000000000E+00 0. -1.
          1    1    1    2  502    0  0.83704654297E+02 -0.65912679831E+02  0.12837346805E+04  0.12881481593E+04  0.00000000000E+00 0. -1.
         22    1    3    3    0    0 -0.13310253592E+03 -0.81119664499E+02  0.53613640815E+03  0.55833586056E+03  0.00000000000E+00 0.  1.
         22    1    3    3    0    0 -0.61350089034E+02  0.44224260347E+02  0.18581379294E+03  0.20061501508E+03  0.00000000000E+00 0.  1.
</event>
<event>
 7    1  0.5931885E-006  0.1096443E+03  0.7818608E-02  0.1268168E+00
          2   -1    0    0  502    0  0.00000000000E+00  0.00000000000E+00  0.57836404308E+03  0.57836404308E+03  0.00000000000E+00 0. -1.
          1   -1    0    0  501    0 -0.00000000000E+00 -0.00000000000E+00 -0.72604100849E+03  0.72604100849E+03  0.00000000000E+00 0. -1.
         25    2    1    2    0    0 -0.17278734335E+02 -0.45209869710E+02  0.34483563131E+03  0.36997162666E+03  0.12499961973E+03 0.  0.
          2    1    1    2  501    0 -0.80401197014E+02  0.76176484494E+02 -0.69698016829E+03  0.70572555875E+03  0.00000000000E+00 0. -1.
          1    1    1    2  502    0  0.97679931349E+02 -0.30966614784E+02  0.20446757157E+03  0.22870786616E+03  0.00000000000E+00 0. -1.
         22    1    3    3    0    0  0.39827900017E+02 -0.58420214632E+02  0.23589486334E+03  0.24626321213E+03  0.00000000000E+00 0.  1.
         22    1    3    3    0    0 -0.57106634352E+02  0.13210344923E+02  0.10894076797E+03  0.12370841453E+03  0.00000000000E+00 0.  1.
</event>
<event>
 7    1  0.5931885E-006  0.8684672E+02  0.7818608E-02  0.1384666E+00
          2   -1    0    0  502    0  0.00000000000E+00  0.00000000000E+00  0.21184678182E+04  0.21184678182E+04  0.00000000000E+00 0. -1.
          1   -1    0    0  501    0 -0.00000000000E+00 -0.00000000000E+00 -0.74904259207E+02  0.74904259207E+02  0.00000000000E+00 0. -1.
         25    2    1    2    0    0 -0.41331680949E+02  0.18934014784E+02  0.13913626141E+03  0.19249066595E+03  0.12500780965E+03 0.  0.
          2    1    1    2  501    0 -0.45885132940E+02 -0.41117539497E+01 -0.35982533914E+02  0.58455920934E+02  0.00000000000E+00 0. -1.
          1    1    1    2  502    0  0.87216813889E+02 -0.14822260835E+02  0.19404098315E+04  0.19424254905E+04  0.00000000000E+00 0. -1.
         22    1    3    3    0    0 -0.40323692789E+02 -0.95067547518E+01  0.15463274741E+03  0.16008643027E+03  0.00000000000E+00 0.  1.
         22    1    3    3    0    0 -0.10079881603E+01  0.28440769536E+02 -0.15496485998E+02  0.32404235683E+02  0.00000000000E+00 0.  1.
</event>
<event>
 7    1  0.5931885E-006  0.1029975E+03  0.7818608E-02  0.1429424E+00
          2   -1    0    0  502    0  0.00000000000E+00  0.00000000000E+00  0.23042152798E+03  0.23042152798E+03  0.00000000000E+00 0. -1.
          1   -1    0    0  501    0 -0.00000000000E+00 -0.00000000000E+00 -0.10765155060E+04  0.10765155060E+04  0.00000000000E+00 0. -1.
         25    2    1    2    0    0  0.11889833570E+03  0.96101867478E+00  0.93435347257E+02  0.19619583405E+03  0.12499961356E+03 0.  0.
          2    1    1    2  501    0 -0.10086793729E+03  0.19605016394E+02 -0.10203021431E+04  0.10254633883E+04  0.00000000000E+00 0. -1.
          1    1    1    2  502    0 -0.18030398414E+02 -0.20566035069E+02  0.80772817825E+02  0.85277811679E+02  0.00000000000E+00 0. -1.
         22    1    3    3    0    0 -0.13408519598E+02  0.19426132519E+02  0.50720214982E+02  0.55943750592E+02  0.00000000000E+00 0.  1.
         22    1    3    3    0    0  0.13230685530E+03 -0.18465113844E+02  0.42715132275E+02  0.14025208345E+03  0.00000000000E+00 0.  1.
</event>
<event>
 7    1  0.5931885E-006  0.6683096E+02  0.7818608E-02  0.1402341E+00
          2   -1    0    0  502    0  0.00000000000E+00  0.00000000000E+00  0.59166046302E+03  0.59166046302E+03  0.00000000000E+00 0. -1.
          1   -1    0    0  501    0 -0.00000000000E+00 -0.00000000000E+00 -0.45180484784E+03  0.45180484784E+03  0.00000000000E+00 0. -1.
         25    2    1    2    0    0  0.23141449578E+02  0.11259531162E+03 -0.68531620185E+02  0.18312583158E+03  0.12500102535E+03 0.  0.
          2    1    1    2  501    0 -0.45568897388E+01 -0.64053032545E+02 -0.32152971598E+03  0.32787942064E+03  0.00000000000E+00 0. -1.
          1    1    1    2  502    0 -0.18584559839E+02 -0.48542279079E+02  0.52991695135E+03  0.53246005864E+03  0.00000000000E+00 0. -1.
         22    1    3    3    0    0  0.66507309729E+02  0.10604923054E+03 -0.42887359097E+02  0.13232152929E+03  0.00000000000E+00 0.  1.
         22    1    3    3    0    0 -0.43365860151E+02  0.65460810885E+01 -0.25644261089E+02  0.50804302289E+02  0.00000000000E+00 0.  1.
</event>
<event>
 7    1  0.5931885E-006  0.9109746E+02  0.7818608E-02  0.1438484E+00
          2   -1    0    0  502    0  0.00000000000E+00  0.00000000000E+00  0.25834032341E+04  0.25834032341E+04  0.00000000000E+00 0. -1.
          1   -1    0    0  501    0 -0.00000000000E+00 -0.00000000000E+00 -0.78729543263E+03  0.78729543263E+03  0.00000000000E+00 0. -1.
         25    2    1    2    0    0  0.51164027540E+02  0.89634160786E+02  0.13155409541E+04  0.13254907112E+04  0.12500233235E+03 0.  0.
          2    1    1    2  501    0 -0.22312638336E+02 -0.88305376226E+02 -0.77950352542E+03  0.78480662551E+03  0.00000000000E+00 0. -1.
          1    1    1    2  502    0 -0.28851389204E+02 -0.13287845597E+01  0.12600703728E+04  0.12604013301E+04  0.00000000000E+00 0. -1.
         22    1    3    3    0    0 -0.20743612229E+02  0.83308634936E+02  0.56485473840E+03  0.57134184303E+03  0.00000000000E+00 0. -1.
         22    1    3    3    0    0  0.71907639769E+02  0.63255258498E+01  0.75068621569E+03  0.75414886817E+03  0.00000000000E+00 0. -1.
</event>
<event>
 7    1  0.5931885E-006  0.9062540E+02  0.7818608E-02  0.1372244E+00
          2   -1    0    0  502    0  0.00000000000E+00  0.00000000000E+00  0.31717980060E+04  0.31717980060E+04  0.00000000000E+00 0. -1.
          1   -1    0    0  501    0 -0.00000000000E+00 -0.00000000000E+00 -0.27718776396E+03  0.27718776396E+03  0.00000000000E+00 0. -1.
         25    2    1    2    0    0  0.47070248947E+02 -0.10903696025E+02  0.13766000267E+02  0.13472191389E+03  0.12500396952E+03 0.  0.
          2    1    1    2  501    0 -0.92059427585E+02  0.29980357999E+02 -0.20569301978E+03  0.22733978635E+03  0.00000000000E+00 0. -1.
          1    1    1    2  502    0  0.44989178639E+02 -0.19076661974E+02  0.30865372615E+04  0.30869240697E+04  0.00000000000E+00 0. -1.
         22    1    3    3    0    0  0.32989140617E+02 -0.15645800452E+02 -0.54089301441E+02  0.65258922768E+02  0.00000000000E+00 0. -1.
         22    1    3    3    0    0  0.14081108329E+02  0.47421044274E+01  0.67855301708E+02  0.69462991126E+02  0.00000000000E+00 0. -1.
</event>
<event>
 7    1  0.5931885E-006  0.8790807E+02  0.7818608E-02  0.1324439E+00
          2   -1    0    0  502    0  0.00000000000E+00  0.00000000000E+00  0.82093153101E+02  0.82093153101E+02  0.00000000000E+00 0. -1.
          1   -1    0    0  501    0 -0.00000000000E+00 -0.00000000000E+00 -0.12227418377E+04  0.12227418377E+04  0.00000000000E+00 0. -1.
         25    2    1    2    0    0  0.82352894097E+02 -0.36797765625E+02 -0.65085565523E+02  0.16732053991E+03  0.12499582999E+03 0.  0.
          2    1    1    2  501    0  0.90381763857E+01  0.75292711498E+02 -0.10219931241E+04  0.10248027258E+04  0.00000000000E+00 0. -1.
          1    1    1    2  502    0 -0.91391070482E+02 -0.38494945873E+02 -0.53569995008E+02  0.11271172515E+03  0.00000000000E+00 0. -1.
         22    1    3    3    0    0  0.11064463071E+03 -0.40444000243E+01 -0.50016141383E+02  0.12149158768E+03  0.00000000000E+00 0. -1.
         22    1    3    3    0    0 -0.28291736617E+02 -0.32753365601E+02 -0.15069424140E+02  0.45828952234E+02  0.00000000000E+00 0. -1.
</event>
<event>
 7    1  0.5931885E-006  0.8153630E+02  0.7818608E-02  0.1388425E+00
          2   -1    0    0  502    0  0.00000000000E+00  0.00000000000E+00  0.11035909711E+04  0.11035909711E+04  0.00000000000E+00 0. -1.
          1   -1    0    0  501    0 -0.00000000000E+00 -0.00000000000E+00 -0.41637251770E+03  0.41637251770E+03  0.00000000000E+00 0. -1.
         25    2    1    2    0    0  0.20475279592E+01  0.12543499021E+03  0.20629440491E+03  0.27188543272E+03  0.12500471145E+03 0.  0.
          2    1    1    2  501    0  0.11855120032E+02 -0.79908159342E+02 -0.37865786876E+03  0.38717907920E+03  0.00000000000E+00 0. -1.
          1    1    1    2  502    0 -0.13902647991E+02 -0.45526830869E+02  0.85958191729E+03  0.86089897693E+03  0.00000000000E+00 0. -1.
         22    1    3    3    0    0  0.53589732481E+02  0.56889773686E+02  0.15046611713E+03  0.16955340805E+03  0.00000000000E+00 0. -1.
         22    1    3    3    0    0 -0.51542204522E+02  0.68545216525E+02  0.55828287781E+02  0.10233202466E+03  0.00000000000E+00 0. -1.
</event>
<event>
 7    1  0.5931885E-006  0.6323553E+02  0.7818608E-02  0.1447457E+00
          2   -1    0    0  502    0  0.00000000000E+00  0.00000000000E+00  0.68207287471E+03  0.68207287471E+03  0.00000000000E+00 0. -1.
          1   -1    0    0  501    0 -0.00000000000E+00 -0.00000000000E+00 -0.30189691270E+03  0.30189691270E+03  0.00000000000E+00 0. -1.
         25    2    1    2    0    0  0.54654033195E+02 -0.19873044143E+02  0.25232725182E+02  0.14016485427E+03  0.12500997850E+03 0.  0.
          2    1    1    2  501    0  0.63131977438E+01  0.38404843976E+02 -0.24117267551E+03  0.24429295511E+03  0.00000000000E+00 0. -1.
          1    1    1    2  502    0 -0.60967230939E+02 -0.18531799832E+02  0.59611591233E+03  0.59951197802E+03  0.00000000000E+00 0. -1.
         22    1    3    3    0    0 -0.36191074933E+02  0.83778869901E+01 -0.10396532091E+02  0.38575520408E+02  0.00000000000E+00 0.  1.
         22    1    3    3    0    0  0.90845108128E+02 -0.28250931133E+02  0.35629257273E+02  0.10158933386E+03  0.00000000000E+00 0.  1.
</event>
<event>
 7    1  0.5931885E-006  0.6462472E+02  0.7818608E-02  0.1411791E+00
          2   -1    0    0  502    0  0.00000000000E+00  0.00000000000E+00  0.63406301645E+03  0.63406301645E+03  0.00000000000E+00 0. -1.
          1   -1    0    0  501    0 -0.00000000000E+00 -0.00000000000E+00 -0.32323391701E+03  0.32323391701E+03  0.00000000000E+00 0. -1.
         25    2    1    2    0    0 -0.43201051597E+02  0.41146827249E+01 -0.11044239094E+03  0.17234298244E+03  0.12498528076E+03 0.  0.
          2    1    1    2  501    0  0.63261176535E+01  0.49513370239E+02 -0.17661622471E+03  0.18353442300E+03  0.00000000000E+00 0. -1.
          1    1    1    2  502    0  0.36874933944E+02 -0.53628052964E+02  0.59788771509E+03  0.60141952801E+03  0.00000000000E+00 0. -1.
         22    1    3    3    0    0 -0.51021443385E+02  0.56960471583E+02 -0.48532384687E+02  0.90570830688E+02  0.00000000000E+00 0.  1.
         22    1    3    3    0    0  0.78203917876E+01 -0.52845788858E+02 -0.61910006257E+02  0.81772151754E+02  0.00000000000E+00 0.  1.
</event>
<event>
 7    1  0.5931885E-006  0.9935859E+02  0.7818608E-02  0.1359547E+00
          2   -1    0    0  502    0  0.00000000000E+00  0.00000000000E+00  0.10906513804E+04  0.10906513804E+04  0.00000000000E+00 0. -1.
          1   -1    0    0  501    0 -0.00000000000E+00 -0.00000000000E+00 -0.13733193392E+03  0.13733193392E+03  0.00000000000E+00 0. -1.
         25    2    1    2    0    0  0.40948439179E+02  0.12143270857E+03  0.36090418434E+03  0.40286276663E+03  0.12499560424E+03 0.  0.
          2    1    1    2  501    0  0.27835272541E+01 -0.98150491232E+02 -0.94584923012E+02  0.13633625568E+03  0.00000000000E+00 0. -1.
          1    1    1    2  502    0 -0.43731966434E+02 -0.23282217334E+02  0.68700018517E+03  0.68878429204E+03  0.00000000000E+00 0. -1.
         22    1    3    3    0    0  0.19656711153E+02  0.94244734278E+02  0.96846511280E+02  0.13655659259E+03  0.00000000000E+00 0. -1.
         22    1    3    3    0    0  0.21291728027E+02  0.27187974288E+02  0.26405767306E+03  0.26630617404E+03  0.00000000000E+00 0. -1.
</event>
<event>
 7    1  0.5931885E-006  0.8419766E+02  0.7818608E-02  0.1338370E+00
          2   -1    0    0  502    0  0.00000000000E+00  0.00000000000E+00  0.10479394486E+04  0.10479394486E+04  0.00000000000E+00 0. -1.
          1   -1    0    0  501    0 -0.00000000000E+00 -0.00000000000E+00 -0.58563144753E+02  0.58563144753E+02  0.00000000000E+00 0. -1.
         25    2    1    2    0    0 -0.39106889337E+02 -0.56768915384E+02  0.38015882782E+03  0.40607609144E+03  0.12499999647E+03 0.  0.
          2    1    1    2  501    0 -0.53763946622E+02  0.44923104182E+02 -0.12954932246E+02  0.71249403613E+02  0.00000000000E+00 0. -1.
          1    1    1    2  502    0  0.92870835960E+02  0.11845811202E+02  0.62217240829E+03  0.62917709833E+03  0.00000000000E+00 0. -1.
         22    1    3    3    0    0 -0.68743473379E+02 -0.27795575270E+02  0.10938673468E+03  0.13215035702E+03  0.00000000000E+00 0. -1.
         22    1    3    3    0    0  0.29636584042E+02 -0.28973340114E+02  0.27077209314E+03  0.27392573442E+03  0.00000000000E+00 0. -1.
</event>
<event>
 7    1  0.5931885E-006  0.6252914E+02  0.7818608E-02  0.1414454E+00
          2   -1    0    0  502    0  0.00000000000E+00  0.00000000000E+00  0.22303449004E+03  0.22303449004E+03  0.00000000000E+00 0. -1.
          1   -1    0    0  501    0 -0.00000000000E+00 -0.00000000000E+00 -0.29328717361E+03  0.29328717361E+03  0.00000000000E+00 0. -1.
         25    2    1    2    0    0 -0.39442297383E+02 -0.22807862308E+02  0.81158093602E+02  0.15584440554E+03  0.12499979670E+03 0.  0.
          2    1    1    2  501    0  0.19854249499E+02 -0.46468691259E+02 -0.24060475031E+03  0.24585397366E+03  0.00000000000E+00 0. -1.
          1    1    1    2  502    0  0.19588047884E+02  0.69276553567E+02  0.89193973142E+02  0.11462328445E+03  0.00000000000E+00 0. -1.
         22    1    3    3    0    0 -0.63223753406E+02 -0.50410950909E+02  0.17861093725E+02  0.82810178332E+02  0.00000000000E+00 0.  1.
         22    1    3    3    0    0  0.23781456022E+02  0.27603088602E+02  0.63296999877E+02  0.73034227211E+02  0.00000000000E+00 0.  1.
</event>
<event>
 7    1  0.5931885E-006  0.1031499E+03  0.7818608E-02  0.1286421E+00
          2   -1    0    0  502    0  0.00000000000E+00  0.00000000000E+00  0.10684652532E+03  0.10684652532E+03  0.00000000000E+00 0. -1.
          1   -1    0    0  501    0 -0.00000000000E+00 -0.00000000000E+00 -0.44945343329E+03  0.44945343329E+03  0.00000000000E+00 0. -1.
         25    2    1    2    0    0 -0.34322014047E+02 -0.44643384685E+02 -0.13781250840E+03  0.19439189033E+03  0.12499954844E+03 0.  0.
          2    1    1    2  501    0 -0.40572882492E+02  0.11557050677E+03 -0.22557643807E+03  0.25668546948E+03  0.00000000000E+00 0. -1.
          1    1    1    2  502    0  0.74894896539E+02 -0.70927122087E+02  0.20782038490E+02  0.10522259880E+03  0.00000000000E+00 0. -1.
         22    1    3    3    0    0 -0.81570175645E+02 -0.22808095236E+02 -0.92011646559E+02  0.12506016898E+03  0.00000000000E+00 0. -1.
         22    1    3    3    0    0  0.47248161597E+02 -0.21835289449E+02 -0.45800861844E+02  0.69331721350E+02  0.00000000000E+00 0. -1.
</event>
<event>
 7    1  0.5931885E-006  0.8230244E+02  0.7818608E-02  0.1406942E+00
          2   -1    0    0  502    0  0.00000000000E+00  0.00000000000E+00  0.94700683756E+03  0.94700683756E+03  0.00000000000E+00 0. -1.
          1   -1    0    0  501    0 -0.00000000000E+00 -0.00000000000E+00 -0.96998636858E+02  0.96998636858E+02  0.00000000000E+00 0. -1.
         25    2    1    2    0    0 -0.30454250649E+02  0.87092735386E+02  0.96184543972E+02  0.18272825680E+03  0.12500217357E+03 0.  0.
          2    1    1    2  501    0 -0.98213603248E+01 -0.81179551830E+02 -0.21766987500E+02  0.84619031540E+02  0.00000000000E+00 0. -1.
          1    1    1    2  502    0  0.40275610974E+02 -0.59131835565E+01  0.77559064423E+03  0.77665818607E+03  0.00000000000E+00 0. -1.
         22    1    3    3    0    0 -0.50086717376E+01 -0.37447231211E+01  0.87799825861E+02  0.88022265167E+02  0.00000000000E+00 0. -1.
         22    1    3    3    0    0 -0.25445578911E+02  0.90837458507E+02  0.83847181105E+01  0.94705991637E+02  0.00000000000E+00 0. -1.
</event>
<event>
 7    1  0.5931885E-006  0.1033375E+03  0.7818608E-02  0.1275581E+00
          2   -1    0    0  502    0  0.00000000000E+00  0.00000000000E+00  0.33489046347E+04  0.33489046347E+04  0.00000000000E+00 0. -1.
          1   -1    0    0  501    0 -0.00000000000E+00 -0.00000000000E+00 -0.29648348581E+03  0.29648348581E+03  0.00000000000E+00 0. -1.
         25    2    1    2    0    0 -0.11973460082E+03 -0.78499533555E+02  0.27526179375E+03  0.33450737779E+03  0.12501031677E+03 0.  0.
          2    1    1    2  501    0  0.18537119872E+02  0.99513951208E+02 -0.25634955649E+03  0.27561158613E+03  0.00000000000E+00 0. -1.
          1    1    1    2  502    0  0.10119748094E+03 -0.21014417652E+02  0.30335089116E+04  0.30352691566E+04  0.00000000000E+00 0. -1.
         22    1    3    3    0    0 -0.47017288009E+02 -0.95490550679E+02  0.10952782995E+03  0.15272660598E+03  0.00000000000E+00 0.  1.
         22    1    3    3    0    0 -0.72717312808E+02  0.16991017124E+02  0.16573396379E+03  0.18178077181E+03  0.00000000000E+00 0.  1.
</event>
<event>
 7    1  0.5931885E-006  0.1067930E+03  0.7818608E-02  0.1344979E+00
          2   -1    0    0  502    0  0.00000000000E+00  0.00000000000E+00  0.98030141304E+02  0.98030141304E+02  0.00000000000E+00 0. -1.
          1   -1    0    0  501    0 -0.00000000000E+00 -0.00000000000E+00 -0.43661973120E+03  0.43661973120E+03  0.00000000000E+00 0. -1.
         25    2    1    2    0    0  0.37572625709E+01 -0.71610681858E+02 -0.63756055717E+02  0.15759764657E+03  0.12501990555E+03 0.  0.
          2    1    1    2  501    0 -0.41148255570E+02  0.10799547780E+03 -0.29825577620E+03  0.31986358060E+03  0.00000000000E+00 0. -1.
          1    1    1    2  502    0  0.37390992999E+02 -0.36384795945E+02  0.23422242020E+02  0.57188645330E+02  0.00000000000E+00 0. -1.
         22    1    3    3    0    0  0.40284446241E+00 -0.83141615186E+02  0.92089200707E+01  0.83651029093E+02  0.00000000000E+00 0. -1.
         22    1    3    3    0    0  0.33544181084E+01  0.11530933328E+02 -0.72964975788E+02  0.73946617475E+02  0.00000000000E+00 0. -1.
</event>
<event>
 7    1  0.5931885E-006  0.1283178E+03  0.7818608E-02  0.1246207E+00
          2   -1    0    0  502    0  0.00000000000E+00  0.00000000000E+00  0.77514707531E+03  0.77514707531E+03  0.00000000000E+00 0. -1.
          1   -1    0    0  501    0 -0.00000000000E+00 -0.00000000000E+00 -0.66302677899E+03  0.66302677899E+03  0.00000000000E+00 0. -1.
         25    2    1    2    0    0 -0.44480262887E+01  0.33614368708E+02  0.40556451897E+02  0.13572455837E+03  0.12500647677E+03 0.  0.
          2    1    1    2  501    0  0.82823191598E+02 -0.10901860416E+03 -0.60342121846E+03  0.61875835671E+03  0.00000000000E+00 0. -1.
          1    1    1    2  502    0 -0.78375165309E+02  0.75404235449E+02  0.67498506287E+03  0.68369093921E+03  0.00000000000E+00 0. -1.
         22    1    3    3    0    0  0.10156463123E+02  0.18683617338E+02 -0.43870280422E+02  0.48752772273E+02  0.00000000000E+00 0.  1.
         22    1    3    3    0    0 -0.14604489412E+02  0.14930751370E+02  0.84426732318E+02  0.86971786100E+02  0.00000000000E+00 0.  1.
</event>
<event>
 7    1  0.5931885E-006  0.6575731E+02  0.7818608E-02  0.1375381E+00
          2   -1    0    0  502    0  0.00000000000E+00  0.00000000000E+00  0.32611938817E+03  0.32611938817E+03  0.00000000000E+00 0. -1.
          1   -1    0    0  501    0 -0.00000000000E+00 -0.00000000000E+00 -0.17829666835E+03  0.17829666835E+03  0.00000000000E+00 0. -1.
         25    2    1    2    0    0  0.33604450540E+01  0.57644949706E+02  0.37775613943E+02  0.14277952837E+03  0.12499905558E+03 0.  0.
          2    1    1    2  501    0  0.59038243974E+02 -0.36898201603E+02 -0.11099406102E+03  0.13102165132E+03  0.00000000000E+00 0. -1.
          1    1    1    2  502    0 -0.62398689028E+02 -0.20746748103E+02  0.22104116690E+03  0.23061487682E+03  0.00000000000E+00 0. -1.
         22    1    3    3    0    0  0.16954588406E+02  0.74366245430E+02  0.70322352143E+02  0.10374502272E+03  0.00000000000E+00 0.  1.
         22    1    3    3    0    0 -0.13594143352E+02 -0.16721295725E+02 -0.32546738200E+02  0.39034505654E+02  0.00000000000E+00 0.  1.
</event>
<event>
 7    1  0.5931885E-006  0.8148054E+02  0.7818608E-02  0.1355199E+00
          2   -1    0    0  502    0  0.00000000000E+00  0.00000000000E+00  0.96183862173E+03  0.96183862173E+03  0.00000000000E+00 0. -1.
          1   -1    0    0  501    0 -0.00000000000E+00 -0.00000000000E+00 -0.11782829868E+04  0.11782829868E+04  0.00000000000E+00 0. -1.
         25    2    1    2    0    0 -0.27418909450E+02  0.13097303899E+03 -0.10206563299E+03  0.20963651548E+03  0.12499736656E+03 0.  0.
          2    1    1    2  501    0 -0.85801173012E+01 -0.79672655406E+02 -0.10197769148E+04  0.10229204791E+04  0.00000000000E+00 0. -1.
          1    1    1    2  502    0  0.35999026751E+02 -0.51300383587E+02  0.90539818275E+03  0.90756461401E+03  0.00000000000E+00 0. -1.
         22    1    3    3    0    0 -0.38709934395E+02 -0.11351876608E+02 -0.22481480430E+02  0.46181609821E+02  0.00000000000E+00 0. -1.
         22    1    3    3    0    0  0.11291024945E+02  0.14232491560E+03 -0.79584152557E+02  0.16345490566E+03  0.00000000000E+00 0. -1.
</event>
<event>
 7    1  0.5931885E-006  0.1871272E+03  0.7818608E-02  0.1289989E+00
          2   -1    0    0  502    0  0.00000000000E+00  0.00000000000E+00  0.39952872534E+03  0.39952872534E+03  0.00000000000E+00 0. -1.
          1   -1    0    0  501    0 -0.00000000000E+00 -0.00000000000E+00 -0.19133918658E+03  0.19133918658E+03  0.00000000000E+00 0. -1.
         25    2    1    2    0    0 -0.12720534296E+03  0.16985315701E+03  0.13115869887E+03  0.27903303967E+03  0.12500215483E+03 0.  0.
          2    1    1    2  501    0  0.79283956268E+02 -0.16080687256E+03 -0.41181251713E+02  0.18395839605E+03  0.00000000000E+00 0. -1.
          1    1    1    2  502    0  0.47921386689E+02 -0.90462844568E+01  0.11821209161E+03  0.12787647621E+03  0.00000000000E+00 0. -1.
         22    1    3    3    0    0 -0.13613878604E+02 -0.19234973885E+02  0.24577433155E+02  0.34049554057E+02  0.00000000000E+00 0.  1.
         22    1    3    3    0    0 -0.11359146435E+03  0.18908813090E+03  0.10658126571E+03  0.24498348561E+03  0.00000000000E+00 0.  1.
</event>
<event>
 7    1  0.5931885E-006  0.5861231E+02  0.7818608E-02  0.1478410E+00
          2   -1    0    0  502    0  0.00000000000E+00  0.00000000000E+00  0.11555713814E+04  0.11555713814E+04  0.00000000000E+00 0. -1.
          1   -1    0    0  501    0 -0.00000000000E+00 -0.00000000000E+00 -0.30163154905E+03  0.30163154905E+03  0.00000000000E+00 0. -1.
         25    2    1    2    0    0  0.74022534474E+02 -0.25705492574E+02  0.99775716133E+03  0.10086054008E+04  0.12500157458E+03 0.  0.
          2    1    1    2  501    0 -0.28636329018E+02  0.17509960056E+02 -0.29173343755E+03  0.29365802667E+03  0.00000000000E+00 0. -1.
          1    1    1    2  502    0 -0.45386205456E+02  0.81955325177E+01  0.14791610858E+03  0.15493950296E+03  0.00000000000E+00 0. -1.
         22    1    3    3    0    0  0.44384944956E+02  0.14388558588E+02  0.87311592223E+03  0.87436174871E+03  0.00000000000E+00 0.  1.
         22    1    3    3    0    0  0.29637589519E+02 -0.40094051162E+02  0.12464123910E+03  0.13424365213E+03  0.00000000000E+00 0.  1.
</event>
<event>
 7    1  0.5931885E-006  0.5556347E+02  0.7818608E-02  0.1475147E+00
          2   -1    0    0  502    0  0.00000000000E+00  0.00000000000E+00  0.50285722646E+03  0.50285722646E+03  0.00000000000E+00 0. -1.
          1   -1    0    0  501    0 -0.00000000000E+00 -0.00000000000E+00 -0.83147648592E+03  0.83147648592E+03  0.00000000000E+00 0. -1.
         25    2    1    2    0    0 -0.23232443695E+02  0.17529703496E+02 -0.93295142799E+01  0.12868034343E+03  0.12499821601E+03 0.  0.
          2    1    1    2  501    0  0.17504761844E+02 -0.53310642503E+02 -0.76069579257E+03  0.76276243361E+03  0.00000000000E+00 0. -1.
          1    1    1    2  502    0  0.57276818508E+01  0.35780939007E+02  0.44140604739E+03  0.44289093534E+03  0.00000000000E+00 0. -1.
         22    1    3    3    0    0 -0.31102971789E+02 -0.50744502327E+02 -0.68284681730E+01  0.59908491453E+02  0.00000000000E+00 0. -1.
         22    1    3    3    0    0  0.78705280942E+01  0.68274205823E+02 -0.25010461069E+01  0.68771851981E+02  0.00000000000E+00 0. -1.
</event>
<event>
 7    1  0.5931885E-006  0.2058945E+03  0.7818608E-02  0.1344137E+00
          2   -1    0    0  502    0  0.00000000000E+00  0.00000000000E+00  0.41334279304E+03  0.41334279304E+03  0.00000000000E+00 0. -1.
          1   -1    0    0  501    0 -0.00000000000E+00 -0.00000000000E+00 -0.67086990960E+03  0.67086990960E+03  0.00000000000E+00 0. -1.
         25    2    1    2    0    0  0.10803506252E+03  0.15685221486E+03 -0.22130867801E+03  0.31761252088E+03  0.12500396160E+03 0.  0.
          2    1    1    2  501    0  0.27247226295E+02  0.74274037654E+00 -0.37133857316E+03  0.37233761417E+03  0.00000000000E+00 0. -1.
          1    1    1    2  502    0 -0.13528228882E+03 -0.15759495524E+03  0.33512013461E+03  0.39426256760E+03  0.00000000000E+00 0. -1.
         22    1    3    3    0    0  0.47582760272E+02  0.15980562930E+03 -0.17189827146E+03  0.23948063379E+03  0.00000000000E+00 0. -1.
         22    1    3    3    0    0  0.60452302252E+02 -0.29534144343E+01 -0.49410406549E+02  0.78131887087E+02  0.00000000000E+00 0. -1.
</event>
<event>
 7    1  0.5931885E-006  0.6301648E+02  0.7818608E-02  0.1402885E+00
          2   -1    0    0  502    0  0.00000000000E+00  0.00000000000E+00  0.18629089865E+04  0.18629089865E+04  0.00000000000E+00 0. -1.
          1   -1    0    0  501    0 -0.00000000000E+00 -0.00000000000E+00 -0.12209879166E+02  0.12209879166E+02  0.00000000000E+00 0. -1.
         25    2    1    2    0    0  0.32421580220E+01 -0.34520006861E+02  0.71401877731E+03  0.72570530755E+03  0.12499294615E+03 0.  0.
          2    1    1    2  501    0  0.59587548473E+02  0.29671811351E+02  0.20355600789E+03  0.21416381737E+03  0.00000000000E+00 0. -1.
          1    1    1    2  502    0 -0.62829706495E+02  0.48481955098E+01  0.93312432212E+03  0.93524974074E+03  0.00000000000E+00 0. -1.
         22    1    3    3    0    0  0.24843159896E+02  0.35682478296E+02  0.12982590067E+03  0.13691306123E+03  0.00000000000E+00 0.  1.
         22    1    3    3    0    0 -0.21601001874E+02 -0.70202485157E+02  0.58419287664E+03  0.58879224631E+03  0.00000000000E+00 0.  1.
</event>
<event>
 7    1  0.5931885E-006  0.6340215E+02  0.7818608E-02  0.1435720E+00
          2   -1    0    0  502    0  0.00000000000E+00  0.00000000000E+00  0.48114727608E+02  0.48114727608E+02  0.00000000000E+00 0. -1.
          1   -1    0    0  501    0 -0.00000000000E+00 -0.00000000000E+00 -0.13072069126E+04  0.13072069126E+04  0.00000000000E+00 0. -1.
         25    2    1    2    0    0  0.33064490285E+01 -0.60579875268E+02 -0.11375118045E+03  0.17956940060E+03  0.12499993875E+03 0.  0.
          2    1    1    2  501    0  0.41714274982E+02  0.74148004506E+01 -0.10780894693E+04  0.10789216672E+04  0.00000000000E+00 0. -1.
          1    1    1    2  502    0 -0.45020724010E+02  0.53165074817E+02 -0.67251535221E+02  0.96830572446E+02  0.00000000000E+00 0. -1.
         22    1    3    3    0    0  0.64079633330E+02 -0.28493274881E+02 -0.60733896799E+02  0.92772152834E+02  0.00000000000E+00 0.  1.
         22    1    3    3    0    0 -0.60773184302E+02 -0.32086600387E+02 -0.53017283651E+02  0.86797247769E+02  0.00000000000E+00 0.  1.
</event>
<event>
 7    1  0.5931885E-006  0.2053416E+03  0.7818608E-02  0.1194053E+00
          2   -1    0    0  502    0  0.00000000000E+00  0.00000000000E+00  0.11354582265E+04  0.11354582265E+04  0.00000000000E+00 0. -1.
          1   -1    0    0  501    0 -0.00000000000E+00 -0.00000000000E+00 -0.19777845866E+04  0.19777845866E+04  0.00000000000E+00 0. -1.
         25    2    1    2    0    0  0.14317071079E+03 -0.15438867558E+03 -0.24101685112E+03  0.34356904510E+03  0.12496739834E+03 0.  0.
          2    1    1    2  501    0 -0.20169976728E+03  0.52475936031E+02 -0.16758327288E+04  0.16887426846E+04  0.00000000000E+00 0. -1.
          1    1    1    2  502    0  0.58529056490E+02  0.10191273955E+03  0.10745232198E+04  0.10809310833E+04  0.00000000000E+00 0. -1.
         22    1    3    3    0    0 -0.25198035625E+00  0.17165433181E+02 -0.38170962323E+01  0.17586523649E+02  0.00000000000E+00 0.  1.
         22    1    3    3    0    0  0.14342269115E+03 -0.17155410876E+03 -0.23719975489E+03  0.32598252145E+03  0.00000000000E+00 0.  1.
</event>
<event>
 7    1  0.5931885E-006  0.1141634E+03  0.7818608E-02  0.1285178E+00
          2   -1    0    0  502    0  0.00000000000E+00  0.00000000000E+00  0.32940160944E+04  0.32940160944E+04  0.00000000000E+00 0. -1.
          1   -1    0    0  501    0 -0.00000000000E+00 -0.00000000000E+00 -0.24720680677E+03  0.24720680677E+03  0.00000000000E+00 0. -1.
         25    2    1    2    0    0  0.39136026025E+02 -0.76872180655E+01  0.14560923198E+03  0.19599723232E+03  0.12498857861E+03 0.  0.
          2    1    1    2  501    0 -0.12127614804E+03 -0.80526958203E+01 -0.20477259624E+03  0.23812720585E+03  0.00000000000E+00 0. -1.
          1    1    1    2  502    0  0.82140122014E+02  0.15739913886E+02  0.31059726519E+04  0.31070984630E+04  0.00000000000E+00 0. -1.
         22    1    3    3    0    0  0.82817148973E+02 -0.21137332818E+02  0.93205846490E+02  0.12646263014E+03  0.00000000000E+00 0. -1.
         22    1    3    3    0    0 -0.43681122947E+02  0.13450114753E+02  0.52403385494E+02  0.69534602178E+02  0.00000000000E+00 0. -1.
</event>
<event>
 7    1  0.8155958E-006  0.1098991E+03  0.7818608E-02  0.1293344E+00
          2   -1    0    0  502    0  0.00000000000E+00  0.00000000000E+00  0.11630579637E+04  0.11630579637E+04  0.00000000000E+00 0. -1.
          1   -1    0    0  501    0 -0.00000000000E+00 -0.00000000000E+00 -0.17011072981E+04  0.17011072981E+04  0.00000000000E+00 0. -1.
         25    2    1    2    0    0  0.14295016675E+03  0.54537923085E+01 -0.13887066926E+03  0.23531396469E+03  0.12499242046E+03 0.  0.
          2    1    1    2  501    0 -0.49672740995E+02 -0.63317300939E+02 -0.15102391144E+04  0.15123817787E+04  0.00000000000E+00 0. -1.
          1    1    1    2  502    0 -0.93277425757E+02  0.57863508630E+02  0.11110604493E+04  0.11164695185E+04  0.00000000000E+00 0. -1.
         22    1    3    3    0    0  0.71872663313E+02 -0.55498567236E+02 -0.96605428698E+02  0.13258348144E+03  0.00000000000E+00 0. -1.
         22    1    3    3    0    0  0.71077503440E+02  0.60952359544E+02 -0.42265240561E+02  0.10273048325E+03  0.00000000000E+00 0. -1.
</event>
<event>
 7    1  0.5931885E-006  0.1650699E+03  0.7818608E-02  0.1267959E+00
          2   -1    0    0  502    0  0.00000000000E+00  0.00000000000E+00  0.51211423264E+03  0.51211423264E+03  0.00000000000E+00 0. -1.
          1   -1    0    0  501    0 -0.00000000000E+00 -0.00000000000E+00 -0.22269338634E+03  0.22269338634E+03  0.00000000000E+00 0. -1.
         25    2    1    2    0    0 -0.66878754636E+02 -0.19096228926E+03 -0.67586445888E+02  0.24724968044E+03  0.12500045227E+03 0.  0.
          2    1    1    2  501    0  0.51678351876E+02  0.12447528461E+03  0.11369428608E+02  0.13525536011E+03  0.00000000000E+00 0. -1.
          1    1    1    2  502    0  0.15200402760E+02  0.66487004645E+02  0.34563786358E+03  0.35230257844E+03  0.00000000000E+00 0. -1.
         22    1    3    3    0    0 -0.18032173832E+02 -0.15515178804E+03 -0.92755303803E+02  0.18166117640E+03  0.00000000000E+00 0. -1.
         22    1    3    3    0    0 -0.48846580804E+02 -0.35810501217E+02  0.25168857915E+02  0.65588504042E+02  0.00000000000E+00 0. -1.
</event>
<event>
 7    1  0.5931885E-006  0.9684260E+02  0.7818608E-02  0.1319731E+00
          2   -1    0    0  502    0  0.00000000000E+00  0.00000000000E+00  0.10195072838E+04  0.10195072838E+04  0.00000000000E+00 0. -1.
          1   -1    0    0  501    0 -0.00000000000E+00 -0.00000000000E+00 -0.69204748486E+02  0.69204748486E+02  0.00000000000E+00 0. -1.
         25    2    1    2    0    0 -0.56322804981E+00  0.35551936851E+02  0.14739177363E+03  0.19650221324E+03  0.12499810973E+03 0.  0.
          2    1    1    2  501    0  0.26415284095E+02  0.66747405205E+02 -0.10002017800E+02  0.72477746208E+02  0.00000000000E+00 0. -1.
          1    1    1    2  502    0 -0.25852056045E+02 -0.10229934206E+03  0.81291277946E+03  0.81973207281E+03  0.00000000000E+00 0. -1.
         22    1    3    3    0    0  0.44184610118E+02  0.62863816065E+02  0.77505769198E+02  0.10913882627E+03  0.00000000000E+00 0.  1.
         22    1    3    3    0    0 -0.44747838168E+02 -0.27311879215E+02  0.69886004433E+02  0.87363386968E+02  0.00000000000E+00 0.  1.
</event>
<event>
 7    1  0.5931885E-006  0.6603304E+02  0.7818608E-02  0.1403489E+00
          2   -1    0    0  502    0  0.00000000000E+00  0.00000000000E+00  0.19057364270E+04  0.19057364270E+04  0.00000000000E+00 0. -1.
          1   -1    0    0  501    0 -0.00000000000E+00 -0.00000000000E+00 -0.42956706933E+03  0.42956706933E+03  0.00000000000E+00 0. -1.
         25    2    1    2    0    0 -0.47143236863E+01 -0.10562743419E+03  0.12553132041E+04  0.12659445780E+04  0.12500021790E+03 0.  0.
          2    1    1    2  501    0 -0.11417615962E+02  0.50866631151E+02 -0.42137896125E+03  0.42459157446E+03  0.00000000000E+00 0. -1.
          1    1    1    2  502    0  0.16131939648E+02  0.54760803036E+02  0.64223511479E+03  0.64476734385E+03  0.00000000000E+00 0. -1.
         22    1    3    3    0    0  0.27381532328E+02 -0.97589963384E+02  0.11708950573E+04  0.11752739189E+04  0.00000000000E+00 0. -1.
         22    1    3    3    0    0 -0.32095856015E+02 -0.80374708032E+01  0.84418146824E+02  0.90670659110E+02  0.00000000000E+00 0. -1.
</event>
<event>
 7    1  0.5931885E-006  0.6796820E+02  0.7818608E-02  0.1480172E+00
          2   -1    0    0  502    0  0.00000000000E+00  0.00000000000E+00  0.63586405812E+03  0.63586405812E+03  0.00000000000E+00 0. -1.
          1   -1    0    0  501    0 -0.00000000000E+00 -0.00000000000E+00 -0.32019982069E+03  0.32019982069E+03  0.00000000000E+00 0. -1.
         25    2    1    2    0    0  0.46781791342E+02  0.47883584819E+02 -0.14609516560E+02  0.14255616007E+03  0.12500978803E+03 0.  0.
          2    1    1    2  501    0 -0.23408357607E+02 -0.64342064589E+02 -0.23639894276E+03  0.24611442992E+03  0.00000000000E+00 0. -1.
          1    1    1    2  502    0 -0.23373433735E+02  0.16458479770E+02  0.56667269674E+03  0.56739328882E+03  0.00000000000E+00 0. -1.
         22    1    3    3    0    0 -0.34611401810E+01 -0.23544730263E+02  0.34845163447E+02  0.42196199238E+02  0.00000000000E+00 0. -1.
         22    1    3    3    0    0  0.50242931523E+02  0.71428315082E+02 -0.49454680007E+02  0.10035996083E+03  0.00000000000E+00 0. -1.
</event>
<event>
 7    1  0.5931885E-006  0.3667161E+02  0.7818608E-02  0.1534688E+00
          2   -1    0    0  502    0  0.00000000000E+00  0.00000000000E+00  0.32378744731E+03  0.32378744731E+03  0.00000000000E+00 0. -1.
          1   -1    0    0  501    0 -0.00000000000E+00 -0.00000000000E+00 -0.30341858729E+03  0.30341858729E+03  0.00000000000E+00 0. -1.
         25    2    1    2    0    0  0.38565069773E+01 -0.10206891938E+02  0.19433649250E+01  0.12549147770E+03  0.12500112408E+03 0.  0.
          2    1    1    2  501    0  0.31132100335E+02  0.20823030978E+02 -0.23889302482E+03  0.24181125614E+03  0.00000000000E+00 0. -1.
          1    1    1    2  502    0 -0.34988607313E+02 -0.10616139041E+02  0.25731851991E+03  0.25990330075E+03  0.00000000000E+00 0. -1.
         22    1    3    3    0    0  0.16633160293E+01 -0.58729251677E+02 -0.31360458831E+02  0.66598573565E+02  0.00000000000E+00 0.  1.
         22    1    3    3    0    0  0.21931909480E+01  0.48522359739E+02  0.33303823756E+02  0.58892904140E+02  0.00000000000E+00 0.  1.
</event>
<event>
 7    1  0.5931885E-006  0.1134645E+03  0.7818608E-02  0.1281433E+00
          2   -1    0    0  502    0  0.00000000000E+00  0.00000000000E+00  0.50659708622E+03  0.50659708622E+03  0.00000000000E+00 0. -1.
          1   -1    0    0  501    0 -0.00000000000E+00 -0.00000000000E+00 -0.17069854988E+04  0.17069854988E+04  0.00000000000E+00 0. -1.
         25    2    1    2    0    0  0.57615047572E+02 -0.15857148269E+03  0.71858472355E+02  0.22192914627E+03  0.12499798833E+03 0.  0.
          2    1    1    2  501    0  0.15995681764E+02  0.11184944532E+03 -0.16246759734E+04  0.16286000671E+04  0.00000000000E+00 0. -1.
          1    1    1    2  502    0 -0.73610729336E+02  0.46722037373E+02  0.35242908844E+03  0.36305337159E+03  0.00000000000E+00 0. -1.
         22    1    3    3    0    0  0.48171473219E+02 -0.17941402890E+03  0.55777135649E+02  0.19396126793E+03  0.00000000000E+00 0.  1.
         22    1    3    3    0    0  0.94435743532E+01  0.20842546201E+02  0.16081336706E+02  0.27967878342E+02  0.00000000000E+00 0.  1.
</event>
<event>
 7    1  0.5931885E-006  0.4580356E+02  0.7818608E-02  0.1495241E+00
          2   -1    0    0  502    0  0.00000000000E+00  0.00000000000E+00  0.81150250343E+03  0.81150250343E+03  0.00000000000E+00 0. -1.
          1   -1    0    0  501    0 -0.00000000000E+00 -0.00000000000E+00 -0.21202661654E+03  0.21202661654E+03  0.00000000000E+00 0. -1.
         25    2    1    2    0    0  0.40419019887E+02 -0.44223088271E+02 -0.37529566426E+02  0.14360674930E+03  0.12500020554E+03 0.  0.
          2    1    1    2  501    0 -0.45232979600E+02  0.63478602372E+01 -0.11666377530E+03  0.12528668820E+03  0.00000000000E+00 0. -1.
          1    1    1    2  502    0  0.48139597132E+01  0.37875228034E+02  0.75366922861E+03  0.75463568248E+03  0.00000000000E+00 0. -1.
         22    1    3    3    0    0  0.66455369364E+02 -0.46048215817E+02 -0.66447585618E+02  0.10465197529E+03  0.00000000000E+00 0. -1.
         22    1    3    3    0    0 -0.26036349477E+02  0.18251275459E+01  0.28918019191E+02  0.38954774015E+02  0.00000000000E+00 0. -1.
</event>
<event>
 7    1  0.5931885E-006  0.1042160E+03  0.7818608E-02  0.1290712E+00
          2   -1    0    0  502    0  0.00000000000E+00  0.00000000000E+00  0.19115936233E+03  0.19115936233E+03  0.00000000000E+00 0. -1.
          1   -1    0    0  501    0 -0.00000000000E+00 -0.00000000000E+00 -0.10763173618E+04  0.10763173618E+04  0.00000000000E+00 0. -1.
         25    2    1    2    0    0  0.32222046504E+02 -0.17664232529E+02 -0.19118404559E+03  0.23135808747E+03  0.12499975984E+03 0.  0.
          2    1    1    2  501    0 -0.11855915363E+03  0.71470436191E+01 -0.84958674186E+03  0.85784904563E+03  0.00000000000E+00 0. -1.
          1    1    1    2  502    0  0.86337107131E+02  0.10517188910E+02  0.15561278793E+03  0.17826959107E+03  0.00000000000E+00 0. -1.
         22    1    3    3    0    0  0.37523005976E+02 -0.43293388733E+02 -0.19647451262E+03  0.20465709759E+03  0.00000000000E+00 0.  1.
         22    1    3    3    0    0 -0.53009594728E+01  0.25629156204E+02  0.52904670344E+01  0.26700989879E+02  0.00000000000E+00 0.  1.
</event>
<event>
 7    1  0.5931885E-006  0.1111451E+03  0.7818608E-02  0.1382007E+00
          2   -1    0    0  502    0  0.00000000000E+00  0.00000000000E+00  0.33766220358E+03  0.33766220358E+03  0.00000000000E+00 0. -1.
          1   -1    0    0  501    0 -0.00000000000E+00 -0.00000000000E+00 -0.77946270692E+03  0.77946270692E+03  0.00000000000E+00 0. -1.
         25    2    1    2    0    0 -0.11570220948E+03  0.26994957921E+02 -0.60863843317E+03  0.63259886266E+03  0.12499939872E+03 0.  0.
          2    1    1    2  501    0  0.49892736718E+01 -0.36442651483E+02 -0.14703466042E+03  0.15156566585E+03  0.00000000000E+00 0. -1.
          1    1    1    2  502    0  0.11071293581E+03  0.94476935620E+01  0.31387259024E+03  0.33296038199E+03  0.00000000000E+00 0. -1.
         22    1    3    3    0    0 -0.12742345126E+03  0.52356162420E+02 -0.55811086792E+03  0.57486141336E+03  0.00000000000E+00 0.  1.
         22    1    3    3    0    0  0.11721241778E+02 -0.25361204499E+02 -0.50527565242E+02  0.57737449301E+02  0.00000000000E+00 0.  1.
</event>
<event>
 7    1  0.5931885E-006  0.5813829E+02  0.7818608E-02  0.1417054E+00
          2   -1    0    0  502    0  0.00000000000E+00  0.00000000000E+00  0.14282346184E+04  0.14282346184E+04  0.00000000000E+00 0. -1.
          1   -1    0    0  501    0 -0.00000000000E+00 -0.00000000000E+00 -0.17657084050E+04  0.17657084050E+04  0.00000000000E+00 0. -1.
         25    2    1    2    0    0 -0.36710621828E+02 -0.94229396122E+01  0.39609799349E+03  0.41707928746E+03  0.12500020012E+03 0.  0.
          2    1    1    2  501    0  0.12444251112E+02  0.56840742831E+02 -0.17540407038E+04  0.17550055613E+04  0.00000000000E+00 0. -1.
          1    1    1    2  502    0  0.24266370716E+02 -0.47417803219E+02  0.10204689238E+04  0.10218581747E+04  0.00000000000E+00 0. -1.
         22    1    3    3    0    0 -0.33178464190E+02  0.37946818669E+02  0.63344490138E+02  0.80952430254E+02  0.00000000000E+00 0.  1.
         22    1    3    3    0    0 -0.35321576375E+01 -0.47369758281E+02  0.33275350336E+03  0.33612685720E+03  0.00000000000E+00 0.  1.
</event>
<event>
 7    1  0.5931885E-006  0.6993475E+02  0.7818608E-02  0.1379506E+00
          2   -1    0    0  502    0  0.00000000000E+00  0.00000000000E+00  0.10838524448E+04  0.10838524448E+04  0.00000000000E+00 0. -1.
          1   -1    0    0  501    0 -0.00000000000E+00 -0.00000000000E+00 -0.17893711427E+03  0.17893711427E+03  0.00000000000E+00 0. -1.
         25    2    1    2    0    0 -0.11602456879E+03 -0.34315752600E+02  0.37577410801E+03  0.41408983793E+03  0.12499976874E+03 0.  0.
          2    1    1    2  501    0  0.59660857036E+02  0.12578391497E-01 -0.15256103416E+03  0.16381174306E+03  0.00000000000E+00 0. -1.
          1    1    1    2  502    0  0.56363711750E+02  0.34303174208E+02  0.68170225672E+03  0.68488797812E+03  0.00000000000E+00 0. -1.
         22    1    3    3    0    0 -0.56852251941E+02 -0.61718272699E+02  0.99191885535E+02  0.12992441607E+03  0.00000000000E+00 0. -1.
         22    1    3    3    0    0 -0.59172316844E+02  0.27402520099E+02  0.27658222248E+03  0.28416542186E+03  0.00000000000E+00 0. -1.
</event>
<event>
 7    1  0.5931885E-006  0.4095734E+02  0.7818608E-02  0.1600596E+00
          2   -1    0    0  502    0  0.00000000000E+00  0.00000000000E+00  0.75170711689E+02  0.75170711689E+02  0.00000000000E+00 0. -1.
          1   -1    0    0  501    0 -0.00000000000E+00 -0.00000000000E+00 -0.57301089844E+03  0.57301089844E+03  0.00000000000E+00 0. -1.
         25    2    1    2    0    0  0.31078129387E+02 -0.52964721713E+02 -0.20253723616E+03  0.24579871462E+03  0.12499825682E+03 0.  0.
          2    1    1    2  501    0 -0.21684150229E+02  0.33464681197E+02 -0.34546053184E+03  0.34775431891E+03  0.00000000000E+00 0. -1.
          1    1    1    2  502    0 -0.93939791572E+01  0.19500040516E+02  0.50157581249E+02  0.54628576600E+02  0.00000000000E+00 0. -1.
         22    1    3    3    0    0  0.48466133793E+02 -0.52332566476E+02 -0.21359021474E+03  0.22518535359E+03  0.00000000000E+00 0.  1.
         22    1    3    3    0    0 -0.17388004406E+02 -0.63215523700E+00  0.11052978582E+02  0.20613361032E+02  0.00000000000E+00 0.  1.
</event>
<event>
 7    1  0.5931885E-006  0.9326971E+02  0.7818608E-02  0.1300457E+00
          2   -1    0    0  502    0  0.00000000000E+00  0.00000000000E+00  0.65579510343E+03  0.65579510343E+03  0.00000000000E+00 0. -1.
          1   -1    0    0  501    0 -0.00000000000E+00 -0.00000000000E+00 -0.23833370613E+03  0.23833370613E+03  0.00000000000E+00 0. -1.
         25    2    1    2    0    0  0.54603183104E+02 -0.56896196441E+02  0.10227967619E+03  0.17971563110E+03  0.12497156127E+03 0.  0.
          2    1    1    2  501    0  0.42659721775E+02  0.77857414730E+02 -0.18459228058E+03  0.20483148913E+03  0.00000000000E+00 0. -1.
          1    1    1    2  502    0 -0.97262904879E+02 -0.20961218288E+02  0.49977400168E+03  0.50958168933E+03  0.00000000000E+00 0. -1.
         22    1    3    3    0    0  0.92393155604E+02 -0.59285649276E+02  0.79275279361E+02  0.13540994546E+03  0.00000000000E+00 0.  1.
         22    1    3    3    0    0 -0.37789972500E+02  0.23894528344E+01  0.23004396829E+02  0.44305685638E+02  0.00000000000E+00 0.  1.
</event>
<event>
 7    1  0.5931885E-006  0.1227062E+03  0.7818608E-02  0.1312946E+00
          2   -1    0    0  502    0  0.00000000000E+00  0.00000000000E+00  0.13842537781E+04  0.13842537781E+04  0.00000000000E+00 0. -1.
          1   -1    0    0  501    0 -0.00000000000E+00 -0.00000000000E+00 -0.32541500687E+03  0.32541500687E+03  0.00000000000E+00 0. -1.
         25    2    1    2    0    0  0.64512364780E+02  0.14443112284E+02  0.42918842881E+03  0.45188504906E+03  0.12500776550E+03 0.  0.
          2    1    1    2  501    0 -0.12416259830E+03 -0.62148229077E+01 -0.30075290015E+03  0.32543398991E+03  0.00000000000E+00 0. -1.
          1    1    1    2  502    0  0.59650233515E+02 -0.82282893767E+01  0.93040324256E+03  0.93234974601E+03  0.00000000000E+00 0. -1.
         22    1    3    3    0    0  0.15319634315E+02 -0.49056012359E+02  0.25417827356E+03  0.25932176595E+03  0.00000000000E+00 0.  1.
         22    1    3    3    0    0  0.49192730465E+02  0.63499124644E+02  0.17501015525E+03  0.19256328311E+03  0.00000000000E+00 0.  1.
</event>
<event>
 7    1  0.5931885E-006  0.3267863E+02  0.7818608E-02  0.1588498E+00
          2   -1    0    0  502    0  0.00000000000E+00  0.00000000000E+00  0.17033223662E+04  0.17033223662E+04  0.00000000000E+00 0. -1.
          1   -1    0    0  501    0 -0.00000000000E+00 -0.00000000000E+00 -0.11844251717E+03  0.11844251717E+03  0.00000000000E+00 0. -1.
         25    2    1    2    0    0  0.19397372661E+02 -0.27360709031E+02  0.14927771462E+03  0.19757193699E+03  0.12500387089E+03 0.  0.
          2    1    1    2  501    0  0.13339260258E+02  0.25965386301E+02 -0.91856264052E+02  0.96383143732E+02  0.00000000000E+00 0. -1.
          1    1    1    2  502    0 -0.32736632919E+02  0.13953227292E+01  0.15274583985E+04  0.15278098027E+04  0.00000000000E+00 0. -1.
         22    1    3    3    0    0 -0.11577020224E+02  0.29094714031E+02  0.12482248047E+03  0.12869025376E+03  0.00000000000E+00 0. -1.
         22    1    3    3    0    0  0.30974392885E+02 -0.56455423061E+02  0.24455234155E+02  0.68881683234E+02  0.00000000000E+00 0. -1.
</event>
<event>
 7    1  0.5931885E-006  0.9412818E+02  0.7818608E-02  0.1307968E+00
          2   -1    0    0  502    0  0.00000000000E+00  0.00000000000E+00  0.21766758426E+03  0.21766758426E+03  0.00000000000E+00 0. -1.
          1   -1    0    0  501    0 -0.00000000000E+00 -0.00000000000E+00 -0.17247157708E+04  0.17247157708E+04  0.00000000000E+00 0. -1.
         25    2    1    2    0    0 -0.13210991070E+03 -0.82600271564E+01  0.82802644842E+02  0.20000747283E+03  0.12500181855E+03 0.  0.
          2    1    1    2  501    0  0.77573579869E+02 -0.53137708287E+02 -0.16422642304E+04  0.16449538227E+04  0.00000000000E+00 0. -1.
          1    1    1    2  502    0  0.54536330834E+02  0.61397735443E+02  0.52413398982E+02  0.97422059572E+02  0.00000000000E+00 0. -1.
         22    1    3    3    0    0 -0.97477616015E+02 -0.19250728098E+02 -0.10467288568E+02  0.99910161076E+02  0.00000000000E+00 0. -1.
         22    1    3    3    0    0 -0.34632294689E+02  0.10990700942E+02  0.93269933409E+02  0.10009731176E+03  0.00000000000E+00 0. -1.
</event>
<event>
 7    1  0.5931885E-006  0.9947981E+02  0.7818608E-02  0.1406606E+00
          2   -1    0    0  502    0  0.00000000000E+00  0.00000000000E+00  0.14546397369E+04  0.14546397369E+04  0.00000000000E+00 0. -1.
          1   -1    0    0  501    0 -0.00000000000E+00 -0.00000000000E+00 -0.22051750672E+04  0.22051750672E+04  0.00000000000E+00 0. -1.
         25    2    1    2    0    0  0.26378917272E+02 -0.10171972656E+03  0.85288889653E+02  0.18423495684E+03  0.12500229828E+03 0.  0.
          2    1    1    2  501    0  0.72947678437E+01  0.99211303272E+02 -0.21543380967E+04  0.21566336572E+04  0.00000000000E+00 0. -1.
          1    1    1    2  502    0 -0.33673685115E+02  0.25084232928E+01  0.13185138767E+04  0.13189461901E+04  0.00000000000E+00 0. -1.
         22    1    3    3    0    0  0.26430824432E+02 -0.12881956521E+03  0.52248893826E+02  0.14150270587E+03  0.00000000000E+00 0.  1.
         22    1    3    3    0    0 -0.51907160120E-01  0.27099838649E+02  0.33039995826E+02  0.42732250975E+02  0.00000000000E+00 0.  1.
</event>
<event>
 7    1  0.5931885E-006  0.6901794E+02  0.7818608E-02  0.1500813E+00
          2   -1    0    0  502    0  0.00000000000E+00  0.00000000000E+00  0.34366156104E+03  0.34366156104E+03  0.00000000000E+00 0. -1.
          1   -1    0    0  501    0 -0.00000000000E+00 -0.00000000000E+00 -0.70808840794E+02  0.70808840794E+02  0.00000000000E+00 0. -1.
         25    2    1    2    0    0 -0.54257991460E+01 -0.88076135890E+02  0.84830100442E+02  0.17495180245E+03  0.12500056892E+03 0.  0.
          2    1    1    2  501    0 -0.87150625705E+01  0.22773057218E+02 -0.13035065903E+02  0.27649184324E+02  0.00000000000E+00 0. -1.
          1    1    1    2  502    0  0.14140861716E+02  0.65303078671E+02  0.20105768570E+03  0.21186941505E+03  0.00000000000E+00 0. -1.
         22    1    3    3    0    0 -0.42792370317E+02 -0.81345408612E+02  0.98382214955E+02  0.13463774612E+03  0.00000000000E+00 0.  1.
         22    1    3    3    0    0  0.37366571171E+02 -0.67307272777E+01 -0.13552114513E+02  0.40314056339E+02  0.00000000000E+00 0.  1.
</event>
<event>
 7    1  0.5931885E-006  0.6618254E+02  0.7818608E-02  0.1414085E+00
          2   -1    0    0  502    0  0.00000000000E+00  0.00000000000E+00  0.32624665751E+03  0.32624665751E+03  0.00000000000E+00 0. -1.
          1   -1    0    0  501    0 -0.00000000000E+00 -0.00000000000E+00 -0.14090802468E+04  0.14090802468E+04  0.00000000000E+00 0. -1.
         25    2    1    2    0    0 -0.87271001265E+02  0.88078087416E+01  0.14265385358E+03  0.20897104436E+03  0.12499988113E+03 0.  0.
          2    1    1    2  501    0  0.30017509418E+02 -0.37301936455E+02 -0.13686872875E+04  0.13695245074E+04  0.00000000000E+00 0. -1.
          1    1    1    2  502    0  0.57253491846E+02  0.28494127713E+02  0.14319984465E+03  0.15683135257E+03  0.00000000000E+00 0. -1.
         22    1    3    3    0    0 -0.10607924377E+03  0.32302558583E+02  0.14023321484E+03  0.17877811889E+03  0.00000000000E+00 0. -1.
         22    1    3    3    0    0  0.18808242508E+02 -0.23494749841E+02  0.24206387359E+01  0.30192925466E+02  0.00000000000E+00 0. -1.
</event>
<event>
 7    1  0.5931885E-006  0.7094351E+02  0.7818608E-02  0.1484738E+00
          2   -1    0    0  502    0  0.00000000000E+00  0.00000000000E+00  0.51224954415E+03  0.51224954415E+03  0.00000000000E+00 0. -1.
          1   -1    0    0  501    0 -0.00000000000E+00 -0.00000000000E+00 -0.12004938514E+04  0.12004938514E+04  0.00000000000E+00 0. -1.
         25    2    1    2    0    0  0.81619500356E+02  0.52671452436E+02  0.11000168996E+03  0.19276752440E+03  0.12499168744E+03 0.  0.
          2    1    1    2  501    0 -0.60676501580E+02 -0.36399271342E+02 -0.11575418946E+04  0.11597024543E+04  0.00000000000E+00 0. -1.
          1    1    1    2  502    0 -0.20942998776E+02 -0.16272181093E+02  0.35929589734E+03  0.36027341689E+03  0.00000000000E+00 0. -1.
         22    1    3    3    0    0  0.29675931486E+02  0.50466758195E+02 -0.12344854295E+02  0.59832683542E+02  0.00000000000E+00 0.  1.
         22    1    3    3    0    0  0.51943568870E+02  0.22046942403E+01  0.12234654425E+03  0.13293484086E+03  0.00000000000E+00 0.  1.
</event>
<event>
 7    1  0.5931885E-006  0.7629492E+02  0.7818608E-02  0.1383052E+00
          2   -1    0    0  502    0  0.00000000000E+00  0.00000000000E+00  0.47556147327E+04  0.47556147327E+04  0.00000000000E+00 0. -1.
          1   -1    0    0  501    0 -0.00000000000E+00 -0.00000000000E+00 -0.55987768296E+02  0.55987768296E+02  0.00000000000E+00 0. -1.
         25    2    1    2    0    0 -0.19253404492E+02  0.11878187313E+03  0.11991421783E+04  0.12116296559E+04  0.12499852948E+03 0.  0.
          2    1    1    2  501    0  0.27562896994E+02 -0.45422924519E+02 -0.35060481151E+02  0.63656835463E+02  0.00000000000E+00 0. -1.
          1    1    1    2  502    0 -0.83094925012E+01 -0.73358948607E+02  0.35355452672E+04  0.35363160095E+04  0.00000000000E+00 0. -1.
         22    1    3    3    0    0 -0.10790867829E+00 -0.24383286305E+02  0.29683293122E+03  0.29783274728E+03  0.00000000000E+00 0.  1.
         22    1    3    3    0    0 -0.19145495814E+02  0.14316515943E+03  0.90230924710E+03  0.91379690866E+03  0.00000000000E+00 0.  1.
</event>
<event>
 7    1  0.5931885E-006  0.1689370E+03  0.7818608E-02  0.1320604E+00
          2   -1    0    0  502    0  0.00000000000E+00  0.00000000000E+00  0.37944348472E+03  0.37944348472E+03  0.00000000000E+00 0. -1.
          1   -1    0    0  501    0 -0.00000000000E+00 -0.00000000000E+00 -0.55825429858E+03  0.55825429858E+03  0.00000000000E+00 0. -1.
         25    2    1    2    0    0  0.60873924558E+02  0.18047735179E+03 -0.33692592564E+03  0.40672074921E+03  0.12499991706E+03 0.  0.
          2    1    1    2  501    0 -0.38328522029E+02 -0.14074081787E+02 -0.16330659988E+03  0.16833360016E+03  0.00000000000E+00 0. -1.
          1    1    1    2  502    0 -0.22545402529E+02 -0.16640327000E+03  0.32142171167E+03  0.36264343393E+03  0.00000000000E+00 0. -1.
         22    1    3    3    0    0  0.84820565726E+02  0.11814910350E+03 -0.29207757738E+03  0.32628676075E+03  0.00000000000E+00 0. -1.
         22    1    3    3    0    0 -0.23946641167E+02  0.62328248292E+02 -0.44848348260E+02  0.80433988463E+02  0.00000000000E+00 0. -1.
</event>
<event>
 7    1  0.5931885E-006  0.9567617E+02  0.7818608E-02  0.1326352E+00
          2   -1    0    0  502    0  0.00000000000E+00  0.00000000000E+00  0.80788126200E+03  0.80788126200E+03  0.00000000000E+00 0. -1.
          1   -1    0    0  501    0 -0.00000000000E+00 -0.00000000000E+00 -0.20700597981E+03  0.20700597981E+03  0.00000000000E+00 0. -1.
         25    2    1    2    0    0 -0.22234845660E+02  0.18653236268E+02 -0.13405028988E+03  0.18557776627E+03  0.12500918179E+03 0.  0.
          2    1    1    2  501    0 -0.40963799035E+02  0.54908811224E+02 -0.17462970260E+02  0.70696292065E+02  0.00000000000E+00 0. -1.
          1    1    1    2  502    0  0.63198644695E+02 -0.73562047492E+02  0.75238854232E+03  0.75861318348E+03  0.00000000000E+00 0. -1.
         22    1    3    3    0    0  0.30411381565E+02  0.35721788262E+01  0.93989908461E+01  0.32030510754E+02  0.00000000000E+00 0. -1.
         22    1    3    3    0    0 -0.52646227224E+02  0.15081057442E+02 -0.14344928073E+03  0.15354725552E+03  0.00000000000E+00 0. -1.
</event>
<event>
 7    1  0.5931885E-006  0.1186480E+03  0.7818608E-02  0.1339954E+00
          2   -1    0    0  502    0  0.00000000000E+00  0.00000000000E+00  0.15821443198E+04  0.15821443198E+04  0.00000000000E+00 0. -1.
          1   -1    0    0  501    0 -0.00000000000E+00 -0.00000000000E+00 -0.17016413123E+03  0.17016413123E+03  0.00000000000E+00 0. -1.
         25    2    1    2    0    0 -0.13315040170E+03  0.98876597056E+02  0.65236648894E+03  0.68462016795E+03  0.12496850626E+03 0.  0.
          2    1    1    2  501    0  0.91372521721E+02 -0.73194106296E+02 -0.13101975693E+03  0.17570569606E+03  0.00000000000E+00 0. -1.
          1    1    1    2  502    0  0.41777879983E+02 -0.25682490760E+02  0.89063345655E+03  0.89198258701E+03  0.00000000000E+00 0. -1.
         22    1    3    3    0    0 -0.37958527784E+02  0.10348653267E+03  0.39814281184E+03  0.41311985053E+03  0.00000000000E+00 0.  1.
         22    1    3    3    0    0 -0.95191873920E+02 -0.46099356158E+01  0.25422367710E+03  0.27150031743E+03  0.00000000000E+00 0.  1.
</event>
<event>
 7    1  0.5931885E-006  0.1064433E+03  0.7818608E-02  0.1338891E+00
          2   -1    0    0  502    0  0.00000000000E+00  0.00000000000E+00  0.10188107889E+04  0.10188107889E+04  0.00000000000E+00 0. -1.
          1   -1    0    0  501    0 -0.00000000000E+00 -0.00000000000E+00 -0.82311669017E+02  0.82311669017E+02  0.00000000000E+00 0. -1.
         25    2    1    2    0    0  0.45086203278E+01 -0.71997997986E+02  0.10238091171E+03  0.17694876387E+03  0.12499989832E+03 0.  0.
          2    1    1    2  501    0  0.49595023003E+02 -0.24166385156E+02 -0.23152862387E+02  0.59830890975E+02  0.00000000000E+00 0. -1.
          1    1    1    2  502    0 -0.54103643330E+02  0.96164383143E+02  0.85727107053E+03  0.86434280304E+03  0.00000000000E+00 0. -1.
         22    1    3    3    0    0 -0.44600451450E+02 -0.82152501048E+02  0.58206394421E+02  0.11011910847E+03  0.00000000000E+00 0. -1.
         22    1    3    3    0    0  0.49109071778E+02  0.10154503062E+02  0.44174517291E+02  0.66829655402E+02  0.00000000000E+00 0. -1.
</event>
<event>
 7    1  0.5931885E-006  0.2516871E+03  0.7818608E-02  0.1270491E+00
          2   -1    0    0  502    0  0.00000000000E+00  0.00000000000E+00  0.69816757615E+03  0.69816757615E+03  0.00000000000E+00 0. -1.
          1   -1    0    0  501    0 -0.00000000000E+00 -0.00000000000E+00 -0.15054867569E+04  0.15054867569E+04  0.00000000000E+00 0. -1.
         25    2    1    2    0    0  0.23335060178E+02 -0.28997248929E+03 -0.15516740633E+03  0.35260534403E+03  0.12500014029E+03 0.  0.
          2    1    1    2  501    0 -0.93758631546E+01  0.42628351951E+02 -0.12255992893E+04  0.12263762478E+04  0.00000000000E+00 0. -1.
          1    1    1    2  502    0 -0.13959197024E+02  0.24734413734E+03  0.57344751482E+03  0.62467274129E+03  0.00000000000E+00 0. -1.
         22    1    3    3    0    0 -0.31746909234E+02 -0.19182041766E+03 -0.55315896878E+02  0.20214546081E+03  0.00000000000E+00 0.  1.
         22    1    3    3    0    0  0.55081969412E+02 -0.98152071633E+02 -0.99851509454E+02  0.15045988323E+03  0.00000000000E+00 0.  1.
</event>
<event>
 7    1  0.5931885E-006  0.1067570E+03  0.7818608E-02  0.1311343E+00
          2   -1    0    0  502    0  0.00000000000E+00  0.00000000000E+00  0.37828024435E+03  0.37828024435E+03  0.00000000000E+00 0. -1.
          1   -1    0    0  501    0 -0.00000000000E+00 -0.00000000000E+00 -0.74620105076E+03  0.74620105076E+03  0.00000000000E+00 0. -1.
         25    2    1    2    0    0 -0.10136584320E+03  0.11727510528E+03 -0.10096353302E+03  0.22325829844E+03  0.12498859283E+03 0.  0.
          2    1    1    2  501    0  0.92278792316E+02 -0.47643766527E+02 -0.57549739431E+03  0.58479274521E+03  0.00000000000E+00 0. -1.
          1    1    1    2  502    0  0.90870508792E+01 -0.69631338750E+02  0.30854012091E+03  0.31643025147E+03  0.00000000000E+00 0. -1.
         22    1    3    3    0    0 -0.11170337209E+03  0.45764457375E+02 -0.35673571807E+02  0.12587546473E+03  0.00000000000E+00 0. -1.
         22    1    3    3    0    0  0.10337528891E+02  0.71510647902E+02 -0.65289961210E+02  0.97382833712E+02  0.00000000000E+00 0. -1.
</event>
<event>
 7    1  0.5931885E-006  0.3461061E+02  0.7818608E-02  0.1580155E+00
          2   -1    0    0  502    0  0.00000000000E+00  0.00000000000E+00  0.15405207371E+03  0.15405207371E+03  0.00000000000E+00 0. -1.
          1   -1    0    0  501    0 -0.00000000000E+00 -0.00000000000E+00 -0.12711640957E+04  0.12711640957E+04  0.00000000000E+00 0. -1.
         25    2    1    2    0    0  0.34673337282E+02  0.31110145158E+02 -0.81675405158E+03  0.82757507529E+03  0.12499297187E+03 0.  0.
          2    1    1    2  501    0 -0.57812540450E+01 -0.33729949407E+02 -0.44692361271E+03  0.44823191317E+03  0.00000000000E+00 0. -1.
          1    1    1    2  502    0 -0.28892083237E+02  0.26198042486E+01  0.14656564230E+03  0.14940918095E+03  0.00000000000E+00 0. -1.
         22    1    3    3    0    0  0.14482260535E+02 -0.15383713310E+01 -0.57416424017E+01  0.15654677065E+02  0.00000000000E+00 0. -1.
         22    1    3    3    0    0  0.20191076747E+02  0.32648516489E+02 -0.81101240918E+03  0.81192039823E+03  0.00000000000E+00 0. -1.
</event>
<event>
 7    1  0.5931885E-006  0.6649929E+02  0.7818608E-02  0.1419893E+00
          2   -1    0    0  502    0  0.00000000000E+00  0.00000000000E+00  0.89034741908E+02  0.89034741908E+02  0.00000000000E+00 0. -1.
          1   -1    0    0  501    0 -0.00000000000E+00 -0.00000000000E+00 -0.36302270017E+03  0.36302270017E+03  0.00000000000E+00 0. -1.
         25    2    1    2    0    0  0.75022220503E+02 -0.42523933822E+00 -0.11853929974E+03  0.18789509232E+03  0.12499794293E+03 0.  0.
          2    1    1    2  501    0 -0.21065610119E+02  0.40398737371E+02 -0.18519582104E+03  0.19071788076E+03  0.00000000000E+00 0. -1.
          1    1    1    2  502    0 -0.53956610384E+02 -0.39973498033E+02  0.29747162520E+02  0.73444469002E+02  0.00000000000E+00 0. -1.
         22    1    3    3    0    0  0.58366926426E+02 -0.44600526278E+02 -0.16244571449E+02  0.75231583435E+02  0.00000000000E+00 0. -1.
         22    1    3    3    0    0  0.16655294077E+02  0.44175286940E+02 -0.10229472829E+03  0.11266350888E+03  0.00000000000E+00 0. -1.
</event>
<event>
 7    1  0.5931885E-006  0.1430577E+03  0.7818608E-02  0.1295034E+00
          2   -1    0    0  502    0  0.00000000000E+00  0.00000000000E+00  0.26949778627E+04  0.26949778627E+04  0.00000000000E+00 0. -1.
          1   -1    0    0  501    0 -0.00000000000E+00 -0.00000000000E+00 -0.27066422700E+02  0.27066422700E+02  0.00000000000E+00 0. -1.
         25    2    1    2    0    0  0.12351246661E+03 -0.44089582304E+02  0.10029947903E+04  0.10192264596E+04  0.12499922359E+03 0.  0.
          2    1    1    2  501    0 -0.12687389268E+02 -0.59521614274E+02  0.44693413354E+02  0.75506911005E+02  0.00000000000E+00 0. -1.
          1    1    1    2  502    0 -0.11082507735E+03  0.10361119658E+03  0.16202232363E+04  0.16273109148E+04  0.00000000000E+00 0. -1.
         22    1    3    3    0    0  0.73518791891E+02 -0.28891165844E+02  0.90257789544E+03  0.90602790772E+03  0.00000000000E+00 0.  1.
         22    1    3    3    0    0  0.49993674722E+02 -0.15198416461E+02  0.10041689489E+03  0.11319855191E+03  0.00000000000E+00 0.  1.
</event>
<event>
 7    1  0.5931885E-006  0.5428366E+02  0.7818608E-02  0.1453039E+00
          2   -1    0    0  502    0  0.00000000000E+00  0.00000000000E+00  0.35434359134E+03  0.35434359134E+03  0.00000000000E+00 0. -1.
          1   -1    0    0  501    0 -0.00000000000E+00 -0.00000000000E+00 -0.63783753040E+02  0.63783753040E+02  0.00000000000E+00 0. -1.
         25    2    1    2    0    0  0.69591783065E+02 -0.46773868056E+02  0.79886119601E+02  0.17040640355E+03  0.12500295701E+03 0.  0.
          2    1    1    2  501    0 -0.17447064450E+02  0.39861523195E+02  0.16479124795E+02  0.46528514304E+02  0.00000000000E+00 0. -1.
          1    1    1    2  502    0 -0.52144718614E+02  0.69123448617E+01  0.19419459391E+03  0.20119242653E+03  0.00000000000E+00 0. -1.
         22    1    3    3    0    0  0.62037738797E+02 -0.75736723006E+02  0.15125429452E+02  0.99063166025E+02  0.00000000000E+00 0.  1.
         22    1    3    3    0    0  0.75540442673E+01  0.28962854950E+02  0.64760690149E+02  0.71343237523E+02  0.00000000000E+00 0.  1.
</event>
<event>
 7    1  0.5931885E-006  0.1176215E+03  0.7818608E-02  0.1431699E+00
          2   -1    0    0  502    0  0.00000000000E+00  0.00000000000E+00  0.50028019880E+03  0.50028019880E+03  0.00000000000E+00 0. -1.
          1   -1    0    0  501    0 -0.00000000000E+00 -0.00000000000E+00 -0.86497561545E+03  0.86497561545E+03  0.00000000000E+00 0. -1.
         25    2    1    2    0    0  0.68372835923E+02 -0.70975543672E+02 -0.25160902535E+03  0.29773109663E+03  0.12499732707E+03 0.  0.
          2    1    1    2  501    0  0.23263757192E+02 -0.36015879251E+01 -0.58275158280E+03  0.58322686932E+03  0.00000000000E+00 0. -1.
          1    1    1    2  502    0 -0.91636593115E+02  0.74577131597E+02  0.46966519151E+03  0.48429784830E+03  0.00000000000E+00 0. -1.
         22    1    3    3    0    0  0.85236100883E+02 -0.55714813562E+02 -0.25514460359E+03  0.27471458295E+03  0.00000000000E+00 0. -1.
         22    1    3    3    0    0 -0.16863264960E+02 -0.15260730110E+02  0.35355782430E+01  0.23016513682E+02  0.00000000000E+00 0. -1.
</event>
<event>
 7    1  0.5931885E-006  0.7002016E+02  0.7818608E-02  0.1415904E+00
          2   -1    0    0  502    0  0.00000000000E+00  0.00000000000E+00  0.67411340950E+03  0.67411340950E+03  0.00000000000E+00 0. -1.
          1   -1    0    0  501    0 -0.00000000000E+00 -0.00000000000E+00 -0.70024698857E+03  0.70024698857E+03  0.00000000000E+00 0. -1.
         25    2    1    2    0    0  0.54155547726E+02  0.52813073507E+02 -0.15161556842E+03  0.21055764260E+03  0.12500078474E+03 0.  0.
          2    1    1    2  501    0 -0.69750238437E+02 -0.11004319134E+02 -0.51598061962E+03  0.52078996786E+03  0.00000000000E+00 0. -1.
          1    1    1    2  502    0  0.15594690710E+02 -0.41808754373E+02  0.64146260897E+03  0.64301278761E+03  0.00000000000E+00 0. -1.
         22    1    3    3    0    0 -0.11470148088E+02  0.13214113324E+02 -0.12964935143E+03  0.13082481192E+03  0.00000000000E+00 0.  1.
         22    1    3    3    0    0  0.65625695815E+02  0.39598960183E+02 -0.21966216994E+02  0.79732830677E+02  0.00000000000E+00 0.  1.
</event>
<event>
 7    1  0.5931885E-006  0.2701858E+03  0.7818608E-02  0.1219599E+00
          2   -1    0    0  502    0  0.00000000000E+00  0.00000000000E+00  0.43951296347E+03  0.43951296347E+03  0.00000000000E+00 0. -1.
          1   -1    0    0  501    0 -0.00000000000E+00 -0.00000000000E+00 -0.17424878699E+04  0.17424878699E+04  0.00000000000E+00 0. -1.
         25    2    1    2    0    0  0.15560386420E+03  0.20365951084E+03 -0.40640714653E+03  0.49647366251E+03  0.12501827828E+03 0.  0.
          2    1    1    2  501    0 -0.21608556621E+03 -0.17281011279E+03 -0.12731523241E+04  0.13028711169E+04  0.00000000000E+00 0. -1.
          1    1    1    2  502    0  0.60481702006E+02 -0.30849398047E+02  0.37658456418E+03  0.38265605394E+03  0.00000000000E+00 0. -1.
         22    1    3    3    0    0  0.29322820977E+02  0.13406260045E+03 -0.23839161633E+03  0.27506939380E+03  0.00000000000E+00 0.  1.
         22    1    3    3    0    0  0.12628104323E+03  0.69596910386E+02 -0.16801553020E+03  0.22140426871E+03  0.00000000000E+00 0.  1.
</event>
<event>
 7    1  0.5931885E-006  0.6679366E+02  0.7818608E-02  0.1396413E+00
          2   -1    0    0  502    0  0.00000000000E+00  0.00000000000E+00  0.26855402610E+04  0.26855402610E+04  0.00000000000E+00 0. -1.
          1   -1    0    0  501    0 -0.00000000000E+00 -0.00000000000E+00 -0.34191346269E+03  0.34191346269E+03  0.00000000000E+00 0. -1.
         25    2    1    2    0    0 -0.19328271571E+02 -0.28281655442E+02  0.10519558941E+03  0.16692860787E+03  0.12500245588E+03 0.  0.
          2    1    1    2  501    0 -0.48085055501E+02  0.25672031147E+02 -0.30820871138E+03  0.31299174992E+03  0.00000000000E+00 0. -1.
          1    1    1    2  502    0  0.67413327072E+02  0.26096242951E+01  0.25466399203E+04  0.25475333659E+04  0.00000000000E+00 0. -1.
         22    1    3    3    0    0  0.53258627778E+02 -0.13701678427E+02  0.52716246518E+02  0.76178868930E+02  0.00000000000E+00 0. -1.
         22    1    3    3    0    0 -0.72586899349E+02 -0.14579977015E+02  0.52479342888E+02  0.90749738935E+02  0.00000000000E+00 0. -1.
</event>
<event>
 7    1  0.5931885E-006  0.6636013E+02  0.7818608E-02  0.1470376E+00
          2   -1    0    0  502    0  0.00000000000E+00  0.00000000000E+00  0.24129993111E+04  0.24129993111E+04  0.00000000000E+00 0. -1.
          1   -1    0    0  501    0 -0.00000000000E+00 -0.00000000000E+00 -0.13239752524E+02  0.13239752524E+02  0.00000000000E+00 0. -1.
         25    2    1    2    0    0  0.75940474688E+02  0.33529520069E+02  0.12989769719E+04  0.13076151092E+04  0.12499966329E+03 0.  0.
          2    1    1    2  501    0 -0.65098067217E+02 -0.40698427757E+01  0.11398709008E+03  0.13132927579E+03  0.00000000000E+00 0. -1.
          1    1    1    2  502    0 -0.10842407471E+02 -0.29459677293E+02  0.98679549654E+03  0.98729467859E+03  0.00000000000E+00 0. -1.
         22    1    3    3    0    0  0.10318159195E+03  0.39998431311E+02  0.77158164364E+03  0.77947709923E+03  0.00000000000E+00 0.  1.
         22    1    3    3    0    0 -0.27241117266E+02 -0.64689112421E+01  0.52739532829E+03  0.52813800998E+03  0.00000000000E+00 0.  1.
</event>
<event>
 7    1  0.5931885E-006  0.8029584E+02  0.7818608E-02  0.1485592E+00
          2   -1    0    0  502    0  0.00000000000E+00  0.00000000000E+00  0.49922536783E+03  0.49922536783E+03  0.00000000000E+00 0. -1.
          1   -1    0    0  501    0 -0.00000000000E+00 -0.00000000000E+00 -0.73388725420E+03  0.73388725420E+03  0.00000000000E+00 0. -1.
         25    2    1    2    0    0  0.97130980176E+02  0.24003144440E+02 -0.13861436581E+03  0.21177619696E+03  0.12499854774E+03 0.  0.
          2    1    1    2  501    0 -0.22715688054E+02  0.51522233497E+01 -0.55499414612E+03  0.55548271811E+03  0.00000000000E+00 0. -1.
          1    1    1    2  502    0 -0.74415292122E+02 -0.29155367790E+02  0.45894662557E+03  0.46585370696E+03  0.00000000000E+00 0. -1.
         22    1    3    3    0    0  0.99356870716E+01  0.62496510814E+02 -0.41335667791E+02  0.75585509016E+02  0.00000000000E+00 0.  1.
         22    1    3    3    0    0  0.87195293105E+02 -0.38493366373E+02 -0.97278698020E+02  0.13619068794E+03  0.00000000000E+00 0.  1.
</event>
<event>
 7    1  0.5931885E-006  0.7801777E+02  0.7818608E-02  0.1474246E+00
          2   -1    0    0  502    0  0.00000000000E+00  0.00000000000E+00  0.63946295719E+02  0.63946295719E+02  0.00000000000E+00 0. -1.
          1   -1    0    0  501    0 -0.00000000000E+00 -0.00000000000E+00 -0.12052449775E+04  0.12052449775E+04  0.00000000000E+00 0. -1.
         25    2    1    2    0    0 -0.54296155273E+02 -0.37738377094E+02 -0.85208643375E+02  0.16509865646E+03  0.12499918350E+03 0.  0.
          2    1    1    2  501    0  0.75287998939E+02  0.22442911640E+02 -0.10711779932E+04  0.10740550546E+04  0.00000000000E+00 0. -1.
          1    1    1    2  502    0 -0.20991843666E+02  0.15295465454E+02  0.15087954795E+02  0.30037562216E+02  0.00000000000E+00 0. -1.
         22    1    3    3    0    0  0.11015611750E+02 -0.67896047260E+02 -0.33522604256E+02  0.76517853681E+02  0.00000000000E+00 0. -1.
         22    1    3    3    0    0 -0.65311767023E+02  0.30157670166E+02 -0.51686039119E+02  0.88580802781E+02  0.00000000000E+00 0. -1.
</event>
<event>
 7    1  0.5931885E-006  0.4883742E+02  0.7818608E-02  0.1503962E+00
          2   -1    0    0  502    0  0.00000000000E+00  0.00000000000E+00  0.54748086635E+02  0.54748086635E+02  0.00000000000E+00 0. -1.
          1   -1    0    0  501    0 -0.00000000000E+00 -0.00000000000E+00 -0.32950438383E+03  0.32950438383E+03  0.00000000000E+00 0. -1.
         25    2    1    2    0    0 -0.71600012594E+02  0.33537951181E+02 -0.16187169613E+03  0.21926827658E+03  0.12499910053E+03 0.  0.
          2    1    1    2  501    0  0.29978905857E+02 -0.15446700437E+02 -0.11470986474E+03  0.11956457845E+03  0.00000000000E+00 0. -1.
          1    1    1    2  502    0  0.41621106737E+02 -0.18091250744E+02  0.18252636711E+01  0.45419615442E+02  0.00000000000E+00 0. -1.
         22    1    3    3    0    0 -0.96728270973E+02  0.48204126576E+02 -0.15568941134E+03  0.18952358436E+03  0.00000000000E+00 0.  1.
         22    1    3    3    0    0  0.25128258379E+02 -0.14666175395E+02 -0.61822847844E+01  0.29744692216E+02  0.00000000000E+00 0.  1.
</event>
<event>
 7    1  0.5931885E-006  0.4612945E+02  0.7818608E-02  0.1490923E+00
          2   -1    0    0  502    0  0.00000000000E+00  0.00000000000E+00  0.23561771988E+02  0.23561771988E+02  0.00000000000E+00 0. -1.
          1   -1    0    0  501    0 -0.00000000000E+00 -0.00000000000E+00 -0.22127169603E+04  0.22127169603E+04  0.00000000000E+00 0. -1.
         25    2    1    2    0    0  0.11116052201E+01  0.11702443376E+02 -0.93482535088E+03  0.94321871843E+03  0.12499972520E+03 0.  0.
          2    1    1    2  501    0 -0.28115648286E+02  0.27118843598E+02 -0.12440535701E+04  0.12446667051E+04  0.00000000000E+00 0. -1.
          1    1    1    2  502    0  0.27004043066E+02 -0.38821286974E+02 -0.10276267281E+02  0.48393308768E+02  0.00000000000E+00 0. -1.
         22    1    3    3    0    0  0.57882911705E+02 -0.18398248835E+02 -0.49872548150E+03  0.50241022375E+03  0.00000000000E+00 0. -1.
         22    1    3    3    0    0 -0.56771306484E+02  0.30100692211E+02 -0.43609986937E+03  0.44080849468E+03  0.00000000000E+00 0. -1.
</event>
<event>
 7    1  0.5931885E-006  0.5074940E+02  0.7818608E-02  0.1508776E+00
          2   -1    0    0  502    0  0.00000000000E+00  0.00000000000E+00  0.10985171837E+04  0.10985171837E+04  0.00000000000E+00 0. -1.
          1   -1    0    0  501    0 -0.00000000000E+00 -0.00000000000E+00 -0.61518369609E+03  0.61518369609E+03  0.00000000000E+00 0. -1.
         25    2    1    2    0    0 -0.65480291836E+00  0.25674025002E+02  0.23217848012E+03  0.26493729945E+03  0.12500136672E+03 0.  0.
          2    1    1    2  501    0  0.22985733674E+02  0.21402015508E+02 -0.59759301615E+03  0.59841774971E+03  0.00000000000E+00 0. -1.
          1    1    1    2  502    0 -0.22330930755E+02 -0.47076040510E+02  0.84874802360E+03  0.85034583060E+03  0.00000000000E+00 0. -1.
         22    1    3    3    0    0 -0.35217514370E+02  0.42052954514E+02  0.21693855495E+03  0.22376563839E+03  0.00000000000E+00 0.  1.
         22    1    3    3    0    0  0.34562711452E+02 -0.16378929512E+02  0.15239925172E+02  0.41171661056E+02  0.00000000000E+00 0.  1.
</event>
<event>
 7    1  0.5931885E-006  0.1239330E+03  0.7818608E-02  0.1284496E+00
          2   -1    0    0  502    0  0.00000000000E+00  0.00000000000E+00  0.11949166827E+04  0.11949166827E+04  0.00000000000E+00 0. -1.
          1   -1    0    0  501    0 -0.00000000000E+00 -0.00000000000E+00 -0.57164629166E+03  0.57164629166E+03  0.00000000000E+00 0. -1.
         25    2    1    2    0    0 -0.58363626145E+02 -0.75229671487E+02  0.24301140348E+03  0.28939072760E+03  0.12500653852E+03 0.  0.
          2    1    1    2  501    0  0.51925521861E+02 -0.57585858607E+02 -0.54091811735E+03  0.54644743627E+03  0.00000000000E+00 0. -1.
          1    1    1    2  502    0  0.64381042843E+01  0.13281553009E+03  0.92117710496E+03  0.93072481052E+03  0.00000000000E+00 0. -1.
         22    1    3    3    0    0 -0.89796148921E+02 -0.31702559022E+02  0.19648803444E+03  0.21834822713E+03  0.00000000000E+00 0. -1.
         22    1    3    3    0    0  0.31432522775E+02 -0.43527112465E+02  0.46523369032E+02  0.71042500474E+02  0.00000000000E+00 0. -1.
</event>
<event>
 7    1  0.5931885E-006  0.1379448E+03  0.7818608E-02  0.1356520E+00
          2   -1    0    0  502    0  0.00000000000E+00  0.00000000000E+00  0.50589677295E+03  0.50589677295E+03  0.00000000000E+00 0. -1.
          1   -1    0    0  501    0 -0.00000000000E+00 -0.00000000000E+00 -0.71979004270E+03  0.71979004270E+03  0.00000000000E+00 0. -1.
         25    2    1    2    0    0  0.16701488575E+01  0.10541363563E+03 -0.64262351803E+02  0.17569192598E+03  0.12499271587E+03 0.  0.
          2    1    1    2  501    0 -0.95987163007E+01  0.35326259424E+02 -0.58819516741E+03  0.58933321213E+03  0.00000000000E+00 0. -1.
          1    1    1    2  502    0  0.79285674432E+01 -0.14073989505E+03  0.43856424946E+03  0.46066167753E+03  0.00000000000E+00 0. -1.
         22    1    3    3    0    0 -0.12465433105E+02  0.13132005368E+03 -0.41065796634E+02  0.13815477977E+03  0.00000000000E+00 0.  1.
         22    1    3    3    0    0  0.14135581963E+02 -0.25906418050E+02 -0.23196555170E+02  0.37537146207E+02  0.00000000000E+00 0.  1.
</event>
<event>
 7    1  0.5931885E-006  0.7649712E+02  0.7818608E-02  0.1373329E+00
          2   -1    0    0  502    0  0.00000000000E+00  0.00000000000E+00  0.90637960202E+03  0.90637960202E+03  0.00000000000E+00 0. -1.
          1   -1    0    0  501    0 -0.00000000000E+00 -0.00000000000E+00 -0.98917526835E+02  0.98917526835E+02  0.00000000000E+00 0. -1.
         25    2    1    2    0    0  0.88854802075E+02 -0.92819868127E+02  0.31200293962E+03  0.35983473434E+03  0.12499799172E+03 0.  0.
          2    1    1    2  501    0 -0.43291389300E+02  0.37654528803E+02 -0.61394211251E+02  0.84031286448E+02  0.00000000000E+00 0. -1.
          1    1    1    2  502    0 -0.45563412775E+02  0.55165339324E+02  0.55685334682E+03  0.56143110807E+03  0.00000000000E+00 0. -1.
         22    1    3    3    0    0  0.36651593134E+01 -0.19978782856E+02  0.20121259768E+03  0.20223524574E+03  0.00000000000E+00 0.  1.
         22    1    3    3    0    0  0.85189642762E+02 -0.72841085271E+02  0.11079034194E+03  0.15759948859E+03  0.00000000000E+00 0.  1.
</event>
<event>
 7    1  0.5931885E-006  0.5325246E+02  0.7818608E-02  0.1440855E+00
          2   -1    0    0  502    0  0.00000000000E+00  0.00000000000E+00  0.21007571815E+03  0.21007571815E+03  0.00000000000E+00 0. -1.
          1   -1    0    0  501    0 -0.00000000000E+00 -0.00000000000E+00 -0.29999895813E+04  0.29999895813E+04  0.00000000000E+00 0. -1.
         25    2    1    2    0    0  0.21451660730E+02 -0.98817115080E+02 -0.56161037532E+03  0.58417487924E+03  0.12501631852E+03 0.  0.
          2    1    1    2  501    0 -0.59685625512E+01  0.48171444045E+02 -0.24233224285E+04  0.24238085123E+04  0.00000000000E+00 0. -1.
          1    1    1    2  502    0 -0.15483098179E+02  0.50645671035E+02  0.19501894062E+03  0.20208190796E+03  0.00000000000E+00 0. -1.
         22    1    3    3    0    0 -0.42882062678E+00 -0.39646085568E+01  0.65866383894E+01  0.76997281388E+01  0.00000000000E+00 0. -1.
         22    1    3    3    0    0  0.21880481357E+02 -0.94852506523E+02 -0.56819701370E+03  0.57647515110E+03  0.00000000000E+00 0. -1.
</event>
<event>
 7    1  0.5931885E-006  0.8706044E+02  0.7818608E-02  0.1453350E+00
          2   -1    0    0  502    0  0.00000000000E+00  0.00000000000E+00  0.97191185031E+02  0.97191185031E+02  0.00000000000E+00 0. -1.
          1   -1    0    0  501    0 -0.00000000000E+00 -0.00000000000E+00 -0.51345818334E+03  0.51345818334E+03  0.00000000000E+00 0. -1.
         25    2    1    2    0    0 -0.43545816235E+02 -0.82322830050E+02 -0.12345118404E+03  0.19884492414E+03  0.12500329017E+03 0.  0.
          2    1    1    2  501    0 -0.17298699208E+02  0.20820391016E+02 -0.31998272101E+03  0.32112563806E+03  0.00000000000E+00 0. -1.
          1    1    1    2  502    0  0.60844515443E+02  0.61502439034E+02  0.27166906744E+02  0.90678806171E+02  0.00000000000E+00 0. -1.
         22    1    3    3    0    0  0.22328852797E+02 -0.68466122167E+02 -0.18826966825E+02  0.74435490403E+02  0.00000000000E+00 0. -1.
         22    1    3    3    0    0 -0.65874669031E+02 -0.13856707883E+02 -0.10462421722E+03  0.12440943373E+03  0.00000000000E+00 0. -1.
</event>
<event>
 7    1  0.5931885E-006  0.3611156E+02  0.7818608E-02  0.1555962E+00
          2   -1    0    0  502    0  0.00000000000E+00  0.00000000000E+00  0.38190501955E+03  0.38190501955E+03  0.00000000000E+00 0. -1.
          1   -1    0    0  501    0 -0.00000000000E+00 -0.00000000000E+00 -0.10536967262E+04  0.10536967262E+04  0.00000000000E+00 0. -1.
         25    2    1    2    0    0  0.88816511193E+01  0.89726032469E+01  0.89376375208E+02  0.15418297295E+03  0.12499944546E+03 0.  0.
          2    1    1    2  501    0  0.27584947305E+02 -0.16919843400E+02 -0.10196966739E+04  0.10202100358E+04  0.00000000000E+00 0. -1.
          1    1    1    2  502    0 -0.36466598425E+02  0.79472401533E+01  0.25852859199E+03  0.26120873704E+03  0.00000000000E+00 0. -1.
         22    1    3    3    0    0 -0.84660239680E+00 -0.57040274649E+02  0.28108858687E+02  0.63595735740E+02  0.00000000000E+00 0.  1.
         22    1    3    3    0    0  0.97282535161E+01  0.66012877896E+02  0.61267516521E+02  0.90587237209E+02  0.00000000000E+00 0.  1.
</event>
<event>
 7    1  0.5931885E-006  0.7079326E+02  0.7818608E-02  0.1442131E+00
          2   -1    0    0  502    0  0.00000000000E+00  0.00000000000E+00  0.83420070383E+03  0.83420070383E+03  0.00000000000E+00 0. -1.
          1   -1    0    0  501    0 -0.00000000000E+00 -0.00000000000E+00 -0.77011643681E+03  0.77011643681E+03  0.00000000000E+00 0. -1.
         25    2    1    2    0    0 -0.33075757596E+02  0.37109104563E+02  0.18878830593E+03  0.23181192137E+03  0.12499860419E+03 0.  0.
          2    1    1    2  501    0 -0.34907398222E+02 -0.94614584217E+01 -0.74600678353E+03  0.74688296721E+03  0.00000000000E+00 0. -1.
          1    1    1    2  502    0  0.67983155817E+02 -0.27647646141E+02  0.62130274461E+03  0.62562225206E+03  0.00000000000E+00 0. -1.
         22    1    3    3    0    0 -0.67200720454E+02  0.14223027674E+02  0.17576242120E+03  0.18870786960E+03  0.00000000000E+00 0. -1.
         22    1    3    3    0    0  0.34124962858E+02  0.22886076889E+02  0.13025884738E+02  0.43104051766E+02  0.00000000000E+00 0. -1.
</event>
<event>
 7    1  0.5931885E-006  0.1358428E+03  0.7818608E-02  0.1362680E+00
          2   -1    0    0  502    0  0.00000000000E+00  0.00000000000E+00  0.69865005058E+03  0.69865005058E+03  0.00000000000E+00 0. -1.
          1   -1    0    0  501    0 -0.00000000000E+00 -0.00000000000E+00 -0.59721416841E+03  0.59721416841E+03  0.00000000000E+00 0. -1.
         25    2    1    2    0    0 -0.51266041230E+01 -0.16499771958E+03 -0.12250407910E+03  0.24058952775E+03  0.12500216769E+03 0.  0.
          2    1    1    2  501    0  0.17241570474E+02  0.30799636619E+02 -0.40780003298E+03  0.40932475648E+03  0.00000000000E+00 0. -1.
          1    1    1    2  502    0 -0.12114966351E+02  0.13419808297E+03  0.63173999426E+03  0.64594993477E+03  0.00000000000E+00 0. -1.
         22    1    3    3    0    0 -0.48595615469E+02 -0.22688039831E+02 -0.56205372330E+02  0.77687353366E+02  0.00000000000E+00 0.  1.
         22    1    3    3    0    0  0.43469011346E+02 -0.14230967975E+03 -0.66298706772E+02  0.16290217438E+03  0.00000000000E+00 0.  1.
</event>
<event>
 7    1  0.5931885E-006  0.1005751E+03  0.7818608E-02  0.1333626E+00
          2   -1    0    0  502    0  0.00000000000E+00  0.00000000000E+00  0.15001639611E+04  0.15001639611E+04  0.00000000000E+00 0. -1.
          1   -1    0    0  501    0 -0.00000000000E+00 -0.00000000000E+00 -0.69992475504E+03  0.69992475504E+03  0.00000000000E+00 0. -1.
         25    2    1    2    0    0  0.36898567370E+02  0.35931249020E+02  0.10861308863E+02  0.13563467680E+03  0.12500495426E+03 0.  0.
          2    1    1    2  501    0 -0.44658538649E+01  0.60965987683E+02 -0.63423735479E+03  0.63717644159E+03  0.00000000000E+00 0. -1.
          1    1    1    2  502    0 -0.32432713505E+02 -0.96897236703E+02  0.14236152520E+04  0.14272775978E+04  0.00000000000E+00 0. -1.
         22    1    3    3    0    0  0.73679721799E+02  0.56090185580E+02  0.12710380938E+01  0.92608994491E+02  0.00000000000E+00 0.  1.
         22    1    3    3    0    0 -0.36781154428E+02 -0.20158936560E+02  0.95902707693E+01  0.43025682304E+02  0.00000000000E+00 0.  1.
</event>
<event>
 7    1  0.5931885E-006  0.5109009E+02  0.7818608E-02  0.1472411E+00
          2   -1    0    0  502    0  0.00000000000E+00  0.00000000000E+00  0.74626330850E+03  0.74626330850E+03  0.00000000000E+00 0. -1.
          1   -1    0    0  501    0 -0.00000000000E+00 -0.00000000000E+00 -0.12931634189E+03  0.12931634189E+03  0.00000000000E+00 0. -1.
         25    2    1    2    0    0  0.72601187704E+02 -0.47306827021E+02  0.26807793243E+03  0.30821908232E+03  0.12499742601E+03 0.  0.
          2    1    1    2  501    0 -0.38143121513E+02  0.12646931385E+02 -0.10419107182E+03  0.11167193936E+03  0.00000000000E+00 0. -1.
          1    1    1    2  502    0 -0.34458066191E+02  0.34659895636E+02  0.45306010600E+03  0.45568862871E+03  0.00000000000E+00 0. -1.
         22    1    3    3    0    0  0.27864796817E+02  0.77607780080E+01  0.22142363284E+03  0.22330495238E+03  0.00000000000E+00 0.  1.
         22    1    3    3    0    0  0.44736390887E+02 -0.55067605029E+02  0.46654299596E+02  0.84914129943E+02  0.00000000000E+00 0.  1.
</event>
<event>
 7    1  0.5931885E-006  0.9791009E+02  0.7818608E-02  0.1428615E+00
          2   -1    0    0  502    0  0.00000000000E+00  0.00000000000E+00  0.80431801317E+03  0.80431801317E+03  0.00000000000E+00 0. -1.
          1   -1    0    0  501    0 -0.00000000000E+00 -0.00000000000E+00 -0.39950321256E+02  0.39950321256E+02  0.00000000000E+00 0. -1.
         25    2    1    2    0    0  0.28477871483E+02  0.74150340052E+02  0.38156317074E+03  0.40929540146E+03  0.12499204094E+03 0.  0.
          2    1    1    2  501    0  0.32411399309E+01  0.28766993738E+02 -0.76466131299E+01  0.29941870502E+02  0.00000000000E+00 0. -1.
          1    1    1    2  502    0 -0.31719011414E+02 -0.10291733379E+03  0.39045113430E+03  0.40503106246E+03  0.00000000000E+00 0. -1.
         22    1    3    3    0    0  0.42672907151E+02  0.21057024455E+02  0.36735164335E+02  0.60115285763E+02  0.00000000000E+00 0. -1.
         22    1    3    3    0    0 -0.14195035668E+02  0.53093315597E+02  0.34482800641E+03  0.34918011570E+03  0.00000000000E+00 0. -1.
</event>
<event>
 7    1  0.5931885E-006  0.8312472E+02  0.7818608E-02  0.1454662E+00
          2   -1    0    0  502    0  0.00000000000E+00  0.00000000000E+00  0.12121989231E+04  0.12121989231E+04  0.00000000000E+00 0. -1.
          1   -1    0    0  501    0 -0.00000000000E+00 -0.00000000000E+00 -0.12554516593E+03  0.12554516593E+03  0.00000000000E+00 0. -1.
         25    2    1    2    0    0 -0.10346655043E+03 -0.24923662567E+02  0.18079744904E+03  0.24421325207E+03  0.12500351553E+03 0.  0.
          2    1    1    2  501    0  0.21845379849E+02  0.17642002101E+02 -0.90015422421E+02  0.94293356778E+02  0.00000000000E+00 0. -1.
          1    1    1    2  502    0  0.81621170581E+02  0.72816604662E+01  0.99587173060E+03  0.99923748022E+03  0.00000000000E+00 0. -1.
         22    1    3    3    0    0 -0.43640619620E+02  0.50978845327E+02  0.65594500834E+02  0.93840209353E+02  0.00000000000E+00 0.  1.
         22    1    3    3    0    0 -0.59825930809E+02 -0.75902507894E+02  0.11520294821E+03  0.15037304272E+03  0.00000000000E+00 0.  1.
</event>
<event>
 7    1  0.5931885E-006  0.9465325E+02  0.7818608E-02  0.1319934E+00
          2   -1    0    0  502    0  0.00000000000E+00  0.00000000000E+00  0.88378372025E+03  0.88378372025E+03  0.00000000000E+00 0. -1.
          1   -1    0    0  501    0 -0.00000000000E+00 -0.00000000000E+00 -0.25188367653E+03  0.25188367653E+03  0.00000000000E+00 0. -1.
         25    2    1    2    0    0 -0.48745557341E+02 -0.14138651452E+03  0.24632807021E+03  0.31411647612E+03  0.12500146620E+03 0.  0.
          2    1    1    2  501    0  0.62137955682E+02  0.69308150927E+02 -0.20568419032E+03  0.22576698490E+03  0.00000000000E+00 0. -1.
          1    1    1    2  502    0 -0.13392398342E+02  0.72078363596E+02  0.59125616384E+03  0.59578393576E+03  0.00000000000E+00 0. -1.
         22    1    3    3    0    0 -0.82103347555E+01 -0.14584299187E+03  0.14932973848E+03  0.20889461139E+03  0.00000000000E+00 0.  1.
         22    1    3    3    0    0 -0.40535222585E+02  0.44564773425E+01  0.96998331726E+02  0.10522186473E+03  0.00000000000E+00 0.  1.
</event>
<event>
 7    1  0.5931885E-006  0.9918040E+02  0.7818608E-02  0.1416503E+00
          2   -1    0    0  502    0  0.00000000000E+00  0.00000000000E+00  0.14442778530E+03  0.14442778530E+03  0.00000000000E+00 0. -1.
          1   -1    0    0  501    0 -0.00000000000E+00 -0.00000000000E+00 -0.62167267280E+03  0.62167267280E+03  0.00000000000E+00 0. -1.
         25    2    1    2    0    0  0.27414636391E+02  0.69788243898E+02 -0.20166175852E+03  0.24882652021E+03  0.12500084415E+03 0.  0.
          2    1    1    2  501    0  0.26928918694E+02  0.16066015132E+02 -0.37429819691E+03  0.37560940313E+03  0.00000000000E+00 0. -1.
          1    1    1    2  502    0 -0.54343555085E+02 -0.85854259029E+02  0.98715067929E+02  0.14166453476E+03  0.00000000000E+00 0. -1.
         22    1    3    3    0    0  0.28486049688E+01 -0.34395994112E+02 -0.77855997990E+02  0.85163110466E+02  0.00000000000E+00 0. -1.
         22    1    3    3    0    0  0.24566031422E+02  0.10418423801E+03 -0.12380576053E+03  0.16366340975E+03  0.00000000000E+00 0. -1.
</event>
<event>
 7    1  0.5931885E-006  0.1595787E+03  0.7818608E-02  0.1278581E+00
          2   -1    0    0  502    0  0.00000000000E+00  0.00000000000E+00  0.65966327196E+02  0.65966327196E+02  0.00000000000E+00 0. -1.
          1   -1    0    0  501    0 -0.00000000000E+00 -0.00000000000E+00 -0.13397859567E+04  0.13397859567E+04  0.00000000000E+00 0. -1.
         25    2    1    2    0    0 -0.20700159274E+02 -0.10149197211E+03 -0.10018618880E+03  0.19076572450E+03  0.12500068888E+03 0.  0.
          2    1    1    2  501    0  0.32363848143E+02  0.16411204328E+03 -0.11179108017E+04  0.11303560244E+04  0.00000000000E+00 0. -1.
          1    1    1    2  502    0 -0.11663688870E+02 -0.62620071163E+02 -0.55722638997E+02  0.84630534958E+02  0.00000000000E+00 0. -1.
         22    1    3    3    0    0 -0.39110937503E+02 -0.10440942172E+02  0.14660121601E+02  0.43053430423E+02  0.00000000000E+00 0. -1.
         22    1    3    3    0    0  0.18410778229E+02 -0.91051029942E+02 -0.11484631040E+03  0.14771229408E+03  0.00000000000E+00 0. -1.
</event>
<event>
 7    1  0.5931885E-006  0.3913567E+02  0.7818608E-02  0.1525769E+00
          2   -1    0    0  502    0  0.00000000000E+00  0.00000000000E+00  0.78836565096E+03  0.78836565096E+03  0.00000000000E+00 0. -1.
          1   -1    0    0  501    0 -0.00000000000E+00 -0.00000000000E+00 -0.31227163127E+02  0.31227163127E+02  0.00000000000E+00 0. -1.
         25    2    1    2    0    0  0.85900710081E+01  0.80740784330E+01  0.22559994972E+03  0.25818629712E+03  0.12500338652E+03 0.  0.
          2    1    1    2  501    0 -0.17965545071E+02  0.31585347300E+02  0.92041915392E+01  0.37484825138E+02  0.00000000000E+00 0. -1.
          1    1    1    2  502    0  0.93754740628E+01 -0.39659425733E+02  0.52233434657E+03  0.52392169183E+03  0.00000000000E+00 0. -1.
         22    1    3    3    0    0  0.13458799330E+02 -0.31273599096E+02  0.54324134597E+01  0.34477360627E+02  0.00000000000E+00 0. -1.
         22    1    3    3    0    0 -0.48687283216E+01  0.39347677529E+02  0.22016753626E+03  0.22370893649E+03  0.00000000000E+00 0. -1.
</event>
<event>
 7    1  0.5931885E-006  0.9008181E+02  0.7818608E-02  0.1420816E+00
          2   -1    0    0  502    0  0.00000000000E+00  0.00000000000E+00  0.13583441553E+03  0.13583441553E+03  0.00000000000E+00 0. -1.
          1   -1    0    0  501    0 -0.00000000000E+00 -0.00000000000E+00 -0.54306765846E+03  0.54306765846E+03  0.00000000000E+00 0. -1.
         25    2    1    2    0    0 -0.33560250034E+02 -0.79904543666E+02 -0.16334643917E+03  0.22319859949E+03  0.12499811657E+03 0.  0.
          2    1    1    2  501    0  0.63882902263E+02  0.65910783257E+02 -0.34093237453E+03  0.35307242961E+03  0.00000000000E+00 0. -1.
          1    1    1    2  502    0 -0.30322652230E+02  0.13993760410E+02  0.97045570762E+02  0.10263104488E+03  0.00000000000E+00 0. -1.
         22    1    3    3    0    0 -0.53708479115E+02  0.12460296482E+02 -0.80052605203E+02  0.97202259835E+02  0.00000000000E+00 0. -1.
         22    1    3    3    0    0  0.20148229081E+02 -0.92364840148E+02 -0.83293833966E+02  0.12599633966E+03  0.00000000000E+00 0. -1.
</event>
<event>
 7    1  0.5931885E-006  0.4722738E+02  0.7818608E-02  0.1462014E+00
          2   -1    0    0  502    0  0.00000000000E+00  0.00000000000E+00  0.19820374973E+04  0.19820374973E+04  0.00000000000E+00 0. -1.
          1   -1    0    0  501    0 -0.00000000000E+00 -0.00000000000E+00 -0.39328111493E+02  0.39328111493E+02  0.00000000000E+00 0. -1.
         25    2    1    2    0    0  0.31970784347E+02  0.35216400888E+02  0.74841661505E+03  0.76027299652E+03  0.12500109448E+03 0.  0.
          2    1    1    2  501    0 -0.45850515605E+02  0.11320594214E+02 -0.15971114983E+02  0.49854810685E+02  0.00000000000E+00 0. -1.
          1    1    1    2  502    0  0.13879731258E+02 -0.46536995102E+02  0.12102638858E+04  0.12112378016E+04  0.00000000000E+00 0. -1.
         22    1    3    3    0    0 -0.23596420285E+02  0.18938734101E+02  0.60291205520E+03  0.60367078197E+03  0.00000000000E+00 0.  1.
         22    1    3    3    0    0  0.55567204632E+02  0.16277666787E+02  0.14550455985E+03  0.15660221455E+03  0.00000000000E+00 0.  1.
</event>
<event>
 7    1  0.5931885E-006  0.1525223E+03  0.7818608E-02  0.1292316E+00
          2   -1    0    0  502    0  0.00000000000E+00  0.00000000000E+00  0.47678937091E+03  0.47678937091E+03  0.00000000000E+00 0. -1.
          1   -1    0    0  501    0 -0.00000000000E+00 -0.00000000000E+00 -0.59403990305E+03  0.59403990305E+03  0.00000000000E+00 0. -1.
         25    2    1    2    0    0 -0.47618468411E+02  0.85106566668E+02  0.13427934020E+03  0.20774464985E+03  0.12496500355E+03 0.  0.
          2    1    1    2  501    0  0.74834416763E+02 -0.13694090901E+03 -0.54341888652E+03  0.56538225010E+03  0.00000000000E+00 0. -1.
          1    1    1    2  502    0 -0.27215948351E+02  0.51834342338E+02  0.29188901419E+03  0.29770237401E+03  0.00000000000E+00 0. -1.
         22    1    3    3    0    0  0.82599891306E+01 -0.18702218916E+02  0.71118195600E+02  0.73998636192E+02  0.00000000000E+00 0. -1.
         22    1    3    3    0    0 -0.55878457542E+02  0.10380878558E+03  0.63161144600E+02  0.13374601366E+03  0.00000000000E+00 0. -1.
</event>
<event>
 7    1  0.5931885E-006  0.2443666E+03  0.7818608E-02  0.1302466E+00
          2   -1    0    0  502    0  0.00000000000E+00  0.00000000000E+00  0.31886908378E+04  0.31886908378E+04  0.00000000000E+00 0. -1.
          1   -1    0    0  501    0 -0.00000000000E+00 -0.00000000000E+00 -0.53640952565E+03  0.53640952565E+03  0.00000000000E+00 0. -1.
         25    2    1    2    0    0  0.20242345490E+03 -0.18813812252E+03 -0.10879256934E+03  0.32223288750E+03  0.12500800936E+03 0.  0.
          2    1    1    2  501    0 -0.20101842918E+02  0.26503422485E+02 -0.31520457798E+03  0.31695495180E+03  0.00000000000E+00 0. -1.
          1    1    1    2  502    0 -0.18232161198E+03  0.16163470003E+03  0.30762784594E+04  0.30859125241E+04  0.00000000000E+00 0. -1.
         22    1    3    3    0    0  0.33853560988E+02 -0.59014550565E+02 -0.84532536643E+02  0.10851050881E+03  0.00000000000E+00 0. -1.
         22    1    3    3    0    0  0.16856989391E+03 -0.12912357195E+03 -0.24260032700E+02  0.21372237870E+03  0.00000000000E+00 0. -1.
</event>
<event>
 7    1  0.5931885E-006  0.5416931E+02  0.7818608E-02  0.1482782E+00
          2   -1    0    0  502    0  0.00000000000E+00  0.00000000000E+00  0.61160111552E+03  0.61160111552E+03  0.00000000000E+00 0. -1.
          1   -1    0    0  501    0 -0.00000000000E+00 -0.00000000000E+00 -0.40324484741E+03  0.40324484741E+03  0.00000000000E+00 0. -1.
         25    2    1    2    0    0  0.39354675112E+01 -0.57419848752E+02  0.54134718605E+03  0.55856319600E+03  0.12499416442E+03 0.  0.
          2    1    1    2  501    0 -0.33698646683E+02  0.10222058382E+02 -0.38102995617E+03  0.38265378185E+03  0.00000000000E+00 0. -1.
          1    1    1    2  502    0  0.29763179172E+02  0.47197790370E+02  0.48039038231E+02  0.73628985083E+02  0.00000000000E+00 0. -1.
         22    1    3    3    0    0  0.57740616373E+01 -0.62493950672E+02  0.54709253608E+03  0.55068055776E+03  0.00000000000E+00 0.  1.
         22    1    3    3    0    0 -0.18385941260E+01  0.50741019198E+01 -0.57453500279E+01  0.78826382383E+01  0.00000000000E+00 0.  1.
</event>
<event>
 7    1  0.5931885E-006  0.1573196E+03  0.7818608E-02  0.1277367E+00
          2   -1    0    0  502    0  0.00000000000E+00  0.00000000000E+00  0.12474235423E+04  0.12474235423E+04  0.00000000000E+00 0. -1.
          1   -1    0    0  501    0 -0.00000000000E+00 -0.00000000000E+00 -0.14150544789E+04  0.14150544789E+04  0.00000000000E+00 0. -1.
         25    2    1    2    0    0  0.44900353658E+02  0.12553208714E+03  0.16957198443E+03  0.24930675567E+03  0.12499941543E+03 0.  0.
          2    1    1    2  501    0  0.12041546780E+02 -0.15762822010E+03 -0.13696067817E+04  0.13787002543E+04  0.00000000000E+00 0. -1.
          1    1    1    2  502    0 -0.56941900438E+02  0.32096132957E+02  0.10324038606E+04  0.10344710113E+04  0.00000000000E+00 0. -1.
         22    1    3    3    0    0  0.74737313273E+02  0.12813855080E+03  0.15922717727E+03  0.21761996273E+03  0.00000000000E+00 0.  1.
         22    1    3    3    0    0 -0.29836959615E+02 -0.26064636583E+01  0.10344807159E+02  0.31686792943E+02  0.00000000000E+00 0.  1.
</event>
<event>
 7    1  0.5931885E-006  0.1150985E+03  0.7818608E-02  0.1332695E+00
          2   -1    0    0  502    0  0.00000000000E+00  0.00000000000E+00  0.43190141899E+03  0.43190141899E+03  0.00000000000E+00 0. -1.
          1   -1    0    0  501    0 -0.00000000000E+00 -0.00000000000E+00 -0.12193112864E+04  0.12193112864E+04  0.00000000000E+00 0. -1.
         25    2    1    2    0    0  0.51477969300E+02 -0.37630610529E+02 -0.23101765722E+03  0.27029659359E+03  0.12500018556E+03 0.  0.
          2    1    1    2  501    0  0.49696442185E+02 -0.20746300684E+02 -0.95961008072E+03  0.96111999895E+03  0.00000000000E+00 0. -1.
          1    1    1    2  502    0 -0.10117441148E+03  0.58376911213E+02  0.40321787049E+03  0.41979611288E+03  0.00000000000E+00 0. -1.
         22    1    3    3    0    0 -0.25110439659E+02 -0.56009180275E+02 -0.94394603275E+02  0.11259619702E+03  0.00000000000E+00 0. -1.
         22    1    3    3    0    0  0.76588408958E+02  0.18378569746E+02 -0.13662305394E+03  0.15770039658E+03  0.00000000000E+00 0. -1.
</event>
<event>
 7    1  0.5931885E-006  0.1216598E+03  0.7818608E-02  0.1271643E+00
          2   -1    0    0  502    0  0.00000000000E+00  0.00000000000E+00  0.54126971206E+03  0.54126971206E+03  0.00000000000E+00 0. -1.
          1   -1    0    0  501    0 -0.00000000000E+00 -0.00000000000E+00 -0.25304860729E+03  0.25304860729E+03  0.00000000000E+00 0. -1.
         25    2    1    2    0    0  0.32929695097E+02  0.12214983150E+03 -0.70115499694E+02  0.19117142004E+03  0.12500152953E+03 0.  0.
          2    1    1    2  501    0 -0.88475201103E+02 -0.12098868979E+02 -0.96748719315E+02  0.13166077066E+03  0.00000000000E+00 0. -1.
          1    1    1    2  502    0  0.55545506007E+02 -0.11005096252E+03  0.45508532379E+03  0.47148612866E+03  0.00000000000E+00 0. -1.
         22    1    3    3    0    0  0.15273983472E+02  0.12144445888E+03 -0.98922066599E+02  0.15737733771E+03  0.00000000000E+00 0. -1.
         22    1    3    3    0    0  0.17655711625E+02  0.70537262126E+00  0.28806566905E+02  0.33794082327E+02  0.00000000000E+00 0. -1.
</event>
<event>
 7    1  0.5931885E-006  0.5913713E+02  0.7818608E-02  0.1477411E+00
          2   -1    0    0  502    0  0.00000000000E+00  0.00000000000E+00  0.65905239609E+03  0.65905239609E+03  0.00000000000E+00 0. -1.
          1   -1    0    0  501    0 -0.00000000000E+00 -0.00000000000E+00 -0.13083101541E+03  0.13083101541E+03  0.00000000000E+00 0. -1.
         25    2    1    2    0    0  0.85900102587E+02  0.11896588188E+02  0.32484770812E+03  0.35870115849E+03  0.12498052327E+03 0.  0.
          2    1    1    2  501    0 -0.30606249081E+02 -0.13629634403E+02 -0.10895610794E+03  0.11399097716E+03  0.00000000000E+00 0. -1.
          1    1    1    2  502    0 -0.55293853506E+02  0.17330462153E+01  0.31232978050E+03  0.31719127585E+03  0.00000000000E+00 0. -1.
         22    1    3    3    0    0  0.76243853818E+02 -0.17603776554E+02  0.31723176572E+03  0.32673997518E+03  0.00000000000E+00 0. -1.
         22    1    3    3    0    0  0.96562487692E+01  0.29500364743E+02  0.76159423961E+01  0.31961183314E+02  0.00000000000E+00 0. -1.
</event>
<event>
 7    1  0.6564206E-006  0.7236415E+02  0.7818608E-02  0.1392626E+00
          2   -1    0    0  502    0  0.00000000000E+00  0.00000000000E+00  0.24243445667E+04  0.24243445667E+04  0.00000000000E+00 0. -1.
          1   -1    0    0  501    0 -0.00000000000E+00 -0.00000000000E+00 -0.31154797014E+03  0.31154797014E+03  0.00000000000E+00 0. -1.
         25    2    1    2    0    0  0.20555495030E+02 -0.24105875868E+01 -0.12791357324E+03  0.18004436744E+03  0.12500301085E+03 0.  0.
          2    1    1    2  501    0  0.51637181458E+02 -0.47668619904E+01 -0.15273785246E+03  0.16130087742E+03  0.00000000000E+00 0. -1.
          1    1    1    2  502    0 -0.72192676487E+02  0.71774495772E+01  0.23934480222E+04  0.23945472920E+04  0.00000000000E+00 0. -1.
         22    1    3    3    0    0  0.38683373667E+02  0.54482176153E+02 -0.72264798122E+02  0.98422111155E+02  0.00000000000E+00 0.  1.
         22    1    3    3    0    0 -0.18127878637E+02 -0.56892763740E+02 -0.55648775115E+02  0.81622256289E+02  0.00000000000E+00 0.  1.
</event>
<event>
 7    1  0.5931885E-006  0.6209714E+02  0.7818608E-02  0.1494860E+00
          2   -1    0    0  502    0  0.00000000000E+00  0.00000000000E+00  0.19705818892E+04  0.19705818892E+04  0.00000000000E+00 0. -1.
          1   -1    0    0  501    0 -0.00000000000E+00 -0.00000000000E+00 -0.11035425305E+04  0.11035425305E+04  0.00000000000E+00 0. -1.
         25    2    1    2    0    0 -0.36035776291E+02 -0.14800735277E+02  0.25404755145E+03  0.28580006128E+03  0.12499551070E+03 0.  0.
          2    1    1    2  501    0  0.62061017546E+02  0.38471628187E+01 -0.10866602298E+04  0.10884377914E+04  0.00000000000E+00 0. -1.
          1    1    1    2  502    0 -0.26025241255E+02  0.10953572458E+02  0.16996520370E+04  0.16998865671E+04  0.00000000000E+00 0. -1.
         22    1    3    3    0    0 -0.74382861652E+02  0.47708766025E+01  0.21544985639E+03  0.22797853406E+03  0.00000000000E+00 0. -1.
         22    1    3    3    0    0  0.38347085362E+02 -0.19571611880E+02  0.38597695053E+02  0.57821527226E+02  0.00000000000E+00 0. -1.
</event>
<event>
 7    1  0.5931885E-006  0.8795597E+02  0.7818608E-02  0.1348454E+00
          2   -1    0    0  502    0  0.00000000000E+00  0.00000000000E+00  0.39935699304E+03  0.39935699304E+03  0.00000000000E+00 0. -1.
          1   -1    0    0  501    0 -0.00000000000E+00 -0.00000000000E+00 -0.22456113738E+04  0.22456113738E+04  0.00000000000E+00 0. -1.
         25    2    1    2    0    0 -0.10407231544E+03 -0.95135543516E+02 -0.43393237439E+03  0.47307855444E+03  0.12499677854E+03 0.  0.
          2    1    1    2  501    0  0.57803440033E+02  0.20959711142E+02 -0.17865389574E+04  0.17875967089E+04  0.00000000000E+00 0. -1.
          1    1    1    2  502    0  0.46268875404E+02  0.74175832374E+02  0.37421695107E+03  0.38429310351E+03  0.00000000000E+00 0. -1.
         22    1    3    3    0    0 -0.11835531320E+03 -0.32910030148E+02 -0.25380820914E+03  0.28197456849E+03  0.00000000000E+00 0. -1.
         22    1    3    3    0    0  0.14282997762E+02 -0.62225513369E+02 -0.18012416525E+03  0.19110398595E+03  0.00000000000E+00 0. -1.
</event>
<event>
 7    1  0.5931885E-006  0.7259235E+02  0.7818608E-02  0.1355966E+00
          2   -1    0    0  502    0  0.00000000000E+00  0.00000000000E+00  0.10628701683E+03  0.10628701683E+03  0.00000000000E+00 0. -1.
          1   -1    0    0  501    0 -0.00000000000E+00 -0.00000000000E+00 -0.95091238973E+03  0.95091238973E+03  0.00000000000E+00 0. -1.
         25    2    1    2    0    0  0.11257257961E+03 -0.45196912993E+02 -0.11425473106E+03  0.20831287111E+03  0.12499904830E+03 0.  0.
          2    1    1    2  501    0 -0.43615226826E+02  0.56572713179E+02 -0.76676745781E+03  0.77008771854E+03  0.00000000000E+00 0. -1.
          1    1    1    2  502    0 -0.68957352784E+02 -0.11375800186E+02  0.36396815974E+02  0.78798816906E+02  0.00000000000E+00 0. -1.
         22    1    3    3    0    0  0.10647453113E+03 -0.84864745340E+01 -0.22302409511E+02  0.10911573443E+03  0.00000000000E+00 0. -1.
         22    1    3    3    0    0  0.60980484795E+01 -0.36710438459E+02 -0.91952321554E+02  0.99197136684E+02  0.00000000000E+00 0. -1.
</event>
<event>
 7    1  0.5931885E-006  0.7714872E+02  0.7818608E-02  0.1394769E+00
          2   -1    0    0  502    0  0.00000000000E+00  0.00000000000E+00  0.16416286099E+04  0.16416286099E+04  0.00000000000E+00 0. -1.
          1   -1    0    0  501    0 -0.00000000000E+00 -0.00000000000E+00 -0.21271634046E+03  0.21271634046E+03  0.00000000000E+00 0. -1.
         25    2    1    2    0    0  0.88568650176E+02  0.62659878476E+02  0.18428765662E+03  0.24769949757E+03  0.12498973778E+03 0.  0.
          2    1    1    2  501    0 -0.47776228817E+02  0.19259029745E+01 -0.17680919454E+03  0.18316049906E+03  0.00000000000E+00 0. -1.
          1    1    1    2  502    0 -0.40792421359E+02 -0.64585781450E+02  0.14214338074E+04  0.14234849538E+04  0.00000000000E+00 0. -1.
         22    1    3    3    0    0 -0.10625085609E+02  0.20242335373E+02  0.11990725525E+03  0.12206717186E+03  0.00000000000E+00 0. -1.
         22    1    3    3    0    0  0.99193735785E+02  0.42417543103E+02  0.64380401367E+02  0.12563232571E+03  0.00000000000E+00 0. -1.
</event>
<event>
 7    1  0.5931885E-006  0.2861350E+02  0.7818608E-02  0.1674384E+00
          2   -1    0    0  502    0  0.00000000000E+00  0.00000000000E+00  0.33091977741E+03  0.33091977741E+03  0.00000000000E+00 0. -1.
          1   -1    0    0  501    0 -0.00000000000E+00 -0.00000000000E+00 -0.40484155978E+03  0.40484155978E+03  0.00000000000E+00 0. -1.
         25    2    1    2    0    0  0.31531655648E+02  0.33694840680E+01 -0.64961915658E+01  0.12912659618E+03  0.12500351437E+03 0.  0.
          2    1    1    2  501    0 -0.11253421103E+02  0.16878977351E+02 -0.33596184766E+03  0.33657376969E+03  0.00000000000E+00 0. -1.
          1    1    1    2  502    0 -0.20278234545E+02 -0.20248461419E+02  0.26853625685E+03  0.27006097132E+03  0.00000000000E+00 0. -1.
         22    1    3    3    0    0  0.48866813768E+02  0.54011816127E+02  0.90261484503E+01  0.73394230870E+02  0.00000000000E+00 0.  1.
         22    1    3    3    0    0 -0.17335158120E+02 -0.50642332059E+02 -0.15522340016E+02  0.55732365309E+02  0.00000000000E+00 0.  1.
</event>
<event>
 7    1  0.5931885E-006  0.5821038E+02  0.7818608E-02  0.1531850E+00
          2   -1    0    0  502    0  0.00000000000E+00  0.00000000000E+00  0.11901453787E+03  0.11901453787E+03  0.00000000000E+00 0. -1.
          1   -1    0    0  501    0 -0.00000000000E+00 -0.00000000000E+00 -0.11405759618E+04  0.11405759618E+04  0.00000000000E+00 0. -1.
         25    2    1    2    0    0 -0.47674406700E+02 -0.27367228019E+02 -0.21016008618E+03  0.25062813905E+03  0.12500155214E+03 0.  0.
          2    1    1    2  501    0  0.34884934806E+02  0.47043883013E+02 -0.90783095282E+03  0.90971815663E+03  0.00000000000E+00 0. -1.
          1    1    1    2  502    0  0.12789471895E+02 -0.19676654995E+02  0.96429615116E+02  0.99244203935E+02  0.00000000000E+00 0. -1.
         22    1    3    3    0    0  0.10893935354E+02  0.31971331701E+02 -0.12346763936E+02  0.35962292168E+02  0.00000000000E+00 0. -1.
         22    1    3    3    0    0 -0.58568342054E+02 -0.59338559720E+02 -0.19781332224E+03  0.21466584688E+03  0.00000000000E+00 0. -1.
</event>
<event>
 7    1  0.5931885E-006  0.8748653E+02  0.7818608E-02  0.1317465E+00
          2   -1    0    0  502    0  0.00000000000E+00  0.00000000000E+00  0.66630773897E+03  0.66630773897E+03  0.00000000000E+00 0. -1.
          1   -1    0    0  501    0 -0.00000000000E+00 -0.00000000000E+00 -0.16020796309E+04  0.16020796309E+04  0.00000000000E+00 0. -1.
         25    2    1    2    0    0  0.12894037967E+01 -0.20539361914E+02  0.11075755657E+03  0.16827219570E+03  0.12499907023E+03 0.  0.
          2    1    1    2  501    0 -0.42437239299E+02 -0.69098732337E+02 -0.15676484982E+04  0.15697443639E+04  0.00000000000E+00 0. -1.
          1    1    1    2  502    0  0.41147835502E+02  0.89638094251E+02  0.52111904975E+03  0.53037081021E+03  0.00000000000E+00 0. -1.
         22    1    3    3    0    0  0.57890412870E+01 -0.38541951029E+02  0.13341181139E+03  0.13898815203E+03  0.00000000000E+00 0. -1.
         22    1    3    3    0    0 -0.44996374903E+01  0.18002589115E+02 -0.22654254815E+02  0.29284043669E+02  0.00000000000E+00 0. -1.
</event>
<event>
 7    1  0.5931885E-006  0.1177196E+03  0.7818608E-02  0.1319914E+00
          2   -1    0    0  502    0  0.00000000000E+00  0.00000000000E+00  0.81158915008E+02  0.81158915008E+02  0.00000000000E+00 0. -1.
          1   -1    0    0  501    0 -0.00000000000E+00 -0.00000000000E+00 -0.97706325334E+03  0.97706325334E+03  0.00000000000E+00 0. -1.
         25    2    1    2    0    0 -0.69466778555E+02  0.15112048933E+03 -0.27380301587E+03  0.34388505495E+03  0.12500321556E+03 0.  0.
          2    1    1    2  501    0  0.61640223576E+02 -0.92685153414E+02 -0.64240854103E+03  0.65198066568E+03  0.00000000000E+00 0. -1.
          1    1    1    2  502    0  0.78265549787E+01 -0.58435335911E+02  0.20307218575E+02  0.62356447719E+02  0.00000000000E+00 0. -1.
         22    1    3    3    0    0  0.27903969738E+02  0.41849051360E+02 -0.27363333703E+02  0.57260166417E+02  0.00000000000E+00 0. -1.
         22    1    3    3    0    0 -0.97370748292E+02  0.10927143797E+03 -0.24643968217E+03  0.28662488853E+03  0.00000000000E+00 0. -1.
</event>
<event>
 7    1  0.5931885E-006  0.4018353E+02  0.7818608E-02  0.1519759E+00
          2   -1    0    0  502    0  0.00000000000E+00  0.00000000000E+00  0.19612309740E+02  0.19612309740E+02  0.00000000000E+00 0. -1.
          1   -1    0    0  501    0 -0.00000000000E+00 -0.00000000000E+00 -0.11738520928E+04  0.11738520928E+04  0.00000000000E+00 0. -1.
         25    2    1    2    0    0  0.22937057498E+02 -0.50928828690E+02 -0.39497149257E+03  0.41802769244E+03  0.12499927000E+03 0.  0.
          2    1    1    2  501    0  0.11672519911E+02  0.38318656741E+02 -0.72174241038E+03  0.72285314838E+03  0.00000000000E+00 0. -1.
          1    1    1    2  502    0 -0.34609577409E+02  0.12610171949E+02 -0.37525880073E+02  0.52583561692E+02  0.00000000000E+00 0. -1.
         22    1    3    3    0    0  0.74036337994E+02 -0.21790390743E+02 -0.24764256867E+03  0.25938974978E+03  0.00000000000E+00 0. -1.
         22    1    3    3    0    0 -0.51099280496E+02 -0.29138437947E+02 -0.14732892390E+03  0.15863794266E+03  0.00000000000E+00 0. -1.
</event>
<event>
 7    1  0.5931885E-006  0.8907373E+02  0.7818608E-02  0.1374049E+00
          2   -1    0    0  502    0  0.00000000000E+00  0.00000000000E+00  0.35237304865E+04  0.35237304865E+04  0.00000000000E+00 0. -1.
          1   -1    0    0  501    0 -0.00000000000E+00 -0.00000000000E+00 -0.13601028829E+03  0.13601028829E+03  0.00000000000E+00 0. -1.
         25    2    1    2    0    0  0.62145718047E+02 -0.98376028410E+02  0.14077103557E+04  0.14180317480E+04  0.12500263789E+03 0.  0.
          2    1    1    2  501    0 -0.14336197462E+02  0.87715465874E+02 -0.11543751455E+03  0.14568922155E+03  0.00000000000E+00 0. -1.
          1    1    1    2  502    0 -0.47809520585E+02  0.10660562535E+02  0.20954473571E+04  0.20960198053E+04  0.00000000000E+00 0. -1.
         22    1    3    3    0    0  0.99125288816E+02 -0.83991695682E+02  0.11437545408E+04  0.11511102803E+04  0.00000000000E+00 0.  1.
         22    1    3    3    0    0 -0.36979570770E+02 -0.14384332728E+02  0.26395581491E+03  0.26692146768E+03  0.00000000000E+00 0.  1.
</event>
<event>
 7    1  0.5931885E-006  0.4302470E+03  0.7818608E-02  0.1186945E+00
          2   -1    0    0  502    0  0.00000000000E+00  0.00000000000E+00  0.31507960485E+03  0.31507960485E+03  0.00000000000E+00 0. -1.
          1   -1    0    0  501    0 -0.00000000000E+00 -0.00000000000E+00 -0.24433414436E+04  0.24433414436E+04  0.00000000000E+00 0. -1.
         25    2    1    2    0    0 -0.32013786541E+03  0.24259478354E+03 -0.12184841629E+04  0.12890573239E+04  0.12499858908E+03 0.  0.
          2    1    1    2  501    0  0.84512948934E+01  0.60076321229E+02 -0.10194646858E+04  0.10212682480E+04  0.00000000000E+00 0. -1.
          1    1    1    2  502    0  0.31168657051E+03 -0.30267110477E+03  0.10968700999E+03  0.44809547650E+03  0.00000000000E+00 0. -1.
         22    1    3    3    0    0 -0.23215792854E+03  0.19328973458E+03 -0.72581882239E+03  0.78617503662E+03  0.00000000000E+00 0.  1.
         22    1    3    3    0    0 -0.87979936864E+02  0.49305048961E+02 -0.49266534052E+03  0.50288228731E+03  0.00000000000E+00 0.  1.
</event>
<event>
 7    1  0.5931885E-006  0.4722760E+02  0.7818608E-02  0.1549182E+00
          2   -1    0    0  502    0  0.00000000000E+00  0.00000000000E+00  0.11532032453E+04  0.11532032453E+04  0.00000000000E+00 0. -1.
          1   -1    0    0  501    0 -0.00000000000E+00 -0.00000000000E+00 -0.39338326139E+02  0.39338326139E+02  0.00000000000E+00 0. -1.
         25    2    1    2    0    0  0.37019063339E+02 -0.35660367861E+01  0.30993849172E+03  0.33625843806E+03  0.12499896339E+03 0.  0.
          2    1    1    2  501    0  0.10033304916E+01 -0.25821963805E+02 -0.18924621245E+02  0.32030013676E+02  0.00000000000E+00 0. -1.
          1    1    1    2  502    0 -0.38022393831E+02  0.29388000592E+02  0.82285104865E+03  0.82425311966E+03  0.00000000000E+00 0. -1.
         22    1    3    3    0    0  0.32691234363E+02 -0.58822872264E+02  0.11159386996E+03  0.13031515230E+03  0.00000000000E+00 0.  1.
         22    1    3    3    0    0  0.43278289765E+01  0.55256835478E+02  0.19834462176E+03  0.20594328577E+03  0.00000000000E+00 0.  1.
</event>
<event>
 7    1  0.5931885E-006  0.2501340E+03  0.7818608E-02  0.1314662E+00
          2   -1    0    0  502    0  0.00000000000E+00  0.00000000000E+00  0.11575717717E+03  0.11575717717E+03  0.00000000000E+00 0. -1.
          1   -1    0    0  501    0 -0.00000000000E+00 -0.00000000000E+00 -0.13429336492E+04  0.13429336492E+04  0.00000000000E+00 0. -1.
         25    2    1    2    0    0  0.10955557646E+03 -0.25084388460E+03 -0.28340677423E+03  0.41336905544E+03  0.12501798886E+03 0.  0.
          2    1    1    2  501    0 -0.97733867830E+02  0.22426909834E+03 -0.97347735642E+03  0.10037463329E+04  0.00000000000E+00 0. -1.
          1    1    1    2  502    0 -0.11821708628E+02  0.26574786256E+02  0.29707658667E+02  0.41575437976E+02  0.00000000000E+00 0. -1.
         22    1    3    3    0    0  0.11748875188E+03 -0.14304208358E+03 -0.22201192945E+03  0.28905698627E+03  0.00000000000E+00 0.  1.
         22    1    3    3    0    0 -0.79331754185E+01 -0.10780180102E+03 -0.61394844784E+02  0.12431206917E+03  0.00000000000E+00 0.  1.
</event>
<event>
 7    1  0.5931885E-006  0.1669823E+03  0.7818608E-02  0.1239626E+00
          2   -1    0    0  502    0  0.00000000000E+00  0.00000000000E+00  0.31060079281E+04  0.31060079281E+04  0.00000000000E+00 0. -1.
          1   -1    0    0  501    0 -0.00000000000E+00 -0.00000000000E+00 -0.15091564629E+04  0.15091564629E+04  0.00000000000E+00 0. -1.
         25    2    1    2    0    0  0.38197665063E+02  0.17656057402E+03 -0.54500425791E+03  0.58761208131E+03  0.12500247616E+03 0.  0.
          2    1    1    2  501    0 -0.11167325412E+03 -0.12576744533E+03 -0.93469415587E+03  0.94970602346E+03  0.00000000000E+00 0. -1.
          1    1    1    2  502    0  0.73475589062E+02 -0.50793128699E+02  0.30765498790E+04  0.30778462863E+04  0.00000000000E+00 0. -1.
         22    1    3    3    0    0 -0.41138358427E+02  0.40724225500E+02 -0.20435366175E+03  0.21239408219E+03  0.00000000000E+00 0. -1.
         22    1    3    3    0    0  0.79336023490E+02  0.13583634852E+03 -0.34065059615E+03  0.37521799912E+03  0.00000000000E+00 0. -1.
</event>
<event>
 7    1  0.5931885E-006  0.2026057E+03  0.7818608E-02  0.1213760E+00
          2   -1    0    0  502    0  0.00000000000E+00  0.00000000000E+00  0.18266101213E+04  0.18266101213E+04  0.00000000000E+00 0. -1.
          1   -1    0    0  501    0 -0.00000000000E+00 -0.00000000000E+00 -0.40364970064E+03  0.40364970064E+03  0.00000000000E+00 0. -1.
         25    2    1    2    0    0  0.11316201188E+03 -0.64106521333E+02  0.12329073139E+03  0.21849805091E+03  0.12500202715E+03 0.  0.
          2    1    1    2  501    0 -0.15803165240E+03  0.14931244231E+03 -0.32129366612E+03  0.38794049605E+03  0.00000000000E+00 0. -1.
          1    1    1    2  502    0  0.44869640522E+02 -0.85205920978E+02  0.16209633554E+04  0.16238212750E+04  0.00000000000E+00 0. -1.
         22    1    3    3    0    0  0.25713166485E+01  0.28165177279E+02 -0.93404549471E+00  0.28297726436E+02  0.00000000000E+00 0.  1.
         22    1    3    3    0    0  0.11059069523E+03 -0.92271698611E+02  0.12422477688E+03  0.19020032447E+03  0.00000000000E+00 0.  1.
</event>
<event>
 7    1  0.5931885E-006  0.1525841E+03  0.7818608E-02  0.1367303E+00
          2   -1    0    0  502    0  0.00000000000E+00  0.00000000000E+00  0.15026495424E+03  0.15026495424E+03  0.00000000000E+00 0. -1.
          1   -1    0    0  501    0 -0.00000000000E+00 -0.00000000000E+00 -0.83934593267E+03  0.83934593267E+03  0.00000000000E+00 0. -1.
         25    2    1    2    0    0  0.12088932643E+03  0.44374537642E+02 -0.39323403108E+03  0.43225158546E+03  0.12500040436E+03 0.  0.
          2    1    1    2  501    0  0.18693458057E+02  0.23764601839E+02 -0.37966067071E+03  0.38086273979E+03  0.00000000000E+00 0. -1.
          1    1    1    2  502    0 -0.13958278449E+03 -0.68139139482E+02  0.83813723369E+02  0.17649656167E+03  0.00000000000E+00 0. -1.
         22    1    3    3    0    0  0.40534023167E+02 -0.99621495238E+01 -0.19383340972E+02  0.46021357699E+02  0.00000000000E+00 0.  1.
         22    1    3    3    0    0  0.80355303264E+02  0.54336687166E+02 -0.37385069011E+03  0.38623022776E+03  0.00000000000E+00 0.  1.
</event>
<event>
 7    1  0.5931885E-006  0.1192789E+03  0.7818608E-02  0.1409037E+00
          2   -1    0    0  502    0  0.00000000000E+00  0.00000000000E+00  0.84653841170E+03  0.84653841170E+03  0.00000000000E+00 0. -1.
          1   -1    0    0  501    0 -0.00000000000E+00 -0.00000000000E+00 -0.15493206170E+04  0.15493206170E+04  0.00000000000E+00 0. -1.
         25    2    1    2    0    0 -0.22137598558E+02 -0.92161809517E+02 -0.23457620081E+03  0.28219635181E+03  0.12499965833E+03 0.  0.
          2    1    1    2  501    0 -0.18670732365E+02 -0.20368882753E+02 -0.12864312480E+04  0.12867279602E+04  0.00000000000E+00 0. -1.
          1    1    1    2  502    0  0.40808330923E+02  0.11253069227E+03  0.81822524353E+03  0.82693471672E+03  0.00000000000E+00 0. -1.
         22    1    3    3    0    0 -0.57994917647E+02 -0.28491245544E+01 -0.11385886556E+03  0.12780989496E+03  0.00000000000E+00 0.  1.
         22    1    3    3    0    0  0.35857319090E+02 -0.89312684963E+02 -0.12071733525E+03  0.15438645685E+03  0.00000000000E+00 0.  1.
</event>
<event>
 7    1  0.5931885E-006  0.9539926E+02  0.7818608E-02  0.1433467E+00
          2   -1    0    0  502    0  0.00000000000E+00  0.00000000000E+00  0.15762048741E+04  0.15762048741E+04  0.00000000000E+00 0. -1.
          1   -1    0    0  501    0 -0.00000000000E+00 -0.00000000000E+00 -0.34942741932E+03  0.34942741932E+03  0.00000000000E+00 0. -1.
         25    2    1    2    0    0  0.11070376787E+03  0.49432055717E+02 -0.53755848140E+01  0.17421957192E+03  0.12499883989E+03 0.  0.
          2    1    1    2  501    0 -0.86121647402E+02 -0.34737173646E+02 -0.25118343746E+03  0.26779979208E+03  0.00000000000E+00 0. -1.
          1    1    1    2  502    0 -0.24582120465E+02 -0.14694882071E+02  0.14833364770E+04  0.14836129294E+04  0.00000000000E+00 0. -1.
         22    1    3    3    0    0  0.81045746378E+01  0.53036652453E+02 -0.38845921338E+02  0.66238781979E+02  0.00000000000E+00 0.  1.
         22    1    3    3    0    0  0.10259919323E+03 -0.36045967354E+01  0.33470336524E+02  0.10798078994E+03  0.00000000000E+00 0.  1.
</event>
<event>
 7    1  0.5931885E-006  0.2609620E+02  0.7818608E-02  0.1657360E+00
          2   -1    0    0  502    0  0.00000000000E+00  0.00000000000E+00  0.10300056564E+04  0.10300056564E+04  0.00000000000E+00 0. -1.
          1   -1    0    0  501    0 -0.00000000000E+00 -0.00000000000E+00 -0.83830282802E+03  0.83830282802E+03  0.00000000000E+00 0. -1.
         25    2    1    2    0    0 -0.89693290499E+01 -0.11235712057E+02  0.77887534223E+03  0.78897616605E+03  0.12501960553E+03 0.  0.
          2    1    1    2  501    0  0.25112769568E+02 -0.71161683502E+01 -0.83244043600E+03  0.83284954856E+03  0.00000000000E+00 0. -1.
          1    1    1    2  502    0 -0.16143440518E+02  0.18351880407E+02  0.24526792219E+03  0.24648276987E+03  0.00000000000E+00 0. -1.
         22    1    3    3    0    0 -0.49454635878E+02  0.21008167130E+02  0.60964482255E+03  0.61200809942E+03  0.00000000000E+00 0.  1.
         22    1    3    3    0    0  0.40485306828E+02 -0.32243879187E+02  0.16923051968E+03  0.17696806663E+03  0.00000000000E+00 0.  1.
</event>
<event>
 7    1  0.5931885E-006  0.1765722E+03  0.7818608E-02  0.1308435E+00
          2   -1    0    0  502    0  0.00000000000E+00  0.00000000000E+00  0.63341513616E+03  0.63341513616E+03  0.00000000000E+00 0. -1.
          1   -1    0    0  501    0 -0.00000000000E+00 -0.00000000000E+00 -0.12498707601E+04  0.12498707601E+04  0.00000000000E+00 0. -1.
         25    2    1    2    0    0 -0.87740916709E+02 -0.10124951140E+03  0.25180498382E+03  0.31141630813E+03  0.12499774026E+03 0.  0.
          2    1    1    2  501    0  0.11739493566E+03  0.13320131653E+03 -0.12122226147E+04  0.12251562469E+04  0.00000000000E+00 0. -1.
          1    1    1    2  502    0 -0.29654018952E+02 -0.31951805135E+02  0.34396200701E+03  0.34671334119E+03  0.00000000000E+00 0. -1.
         22    1    3    3    0    0  0.20068423728E+02  0.12517699513E+02  0.54669603233E+02  0.59566768837E+02  0.00000000000E+00 0. -1.
         22    1    3    3    0    0 -0.10780934044E+03 -0.11376721091E+03  0.19713538058E+03  0.25184953929E+03  0.00000000000E+00 0. -1.
</event>
<event>
 7    1  0.5931885E-006  0.7924047E+02  0.7818608E-02  0.1463672E+00
          2   -1    0    0  502    0  0.00000000000E+00  0.00000000000E+00  0.17405006040E+04  0.17405006040E+04  0.00000000000E+00 0. -1.
          1   -1    0    0  501    0 -0.00000000000E+00 -0.00000000000E+00 -0.98352175291E+03  0.98352175291E+03  0.00000000000E+00 0. -1.
         25    2    1    2    0    0  0.25131685437E+02  0.10183850650E+03  0.42152363777E+03  0.45200638932E+03  0.12499966309E+03 0.  0.
          2    1    1    2  501    0 -0.70527217949E+01 -0.26670859285E+02 -0.96693733512E+03  0.96733080467E+03  0.00000000000E+00 0. -1.
          1    1    1    2  502    0 -0.18078963642E+02 -0.75167647215E+02  0.13023925484E+04  0.13046851629E+04  0.00000000000E+00 0. -1.
         22    1    3    3    0    0  0.28843924732E+02  0.12589475135E+03  0.39688580160E+03  0.41737249541E+03  0.00000000000E+00 0. -1.
         22    1    3    3    0    0 -0.37122392954E+01 -0.24056244847E+02  0.24637836167E+02  0.34633893915E+02  0.00000000000E+00 0. -1.
</event>
<event>
 7    1  0.5931885E-006  0.5467042E+02  0.7818608E-02  0.1486389E+00
          2   -1    0    0  502    0  0.00000000000E+00  0.00000000000E+00  0.77224488026E+03  0.77224488026E+03  0.00000000000E+00 0. -1.
          1   -1    0    0  501    0 -0.00000000000E+00 -0.00000000000E+00 -0.97522836875E+03  0.97522836875E+03  0.00000000000E+00 0. -1.
         25    2    1    2    0    0 -0.80873118656E+02 -0.31568592736E+02 -0.52044433996E+03  0.54224014200E+03  0.12500009294E+03 0.  0.
          2    1    1    2  501    0  0.27490504565E+02  0.20040732853E+02 -0.44225262990E+03  0.44355918148E+03  0.00000000000E+00 0. -1.
          1    1    1    2  502    0  0.53382614091E+02  0.11527859882E+02  0.75971348138E+03  0.76167392553E+03  0.00000000000E+00 0. -1.
         22    1    3    3    0    0 -0.10121395700E+02  0.39385326995E+02 -0.26044846396E+03  0.26360396244E+03  0.00000000000E+00 0. -1.
         22    1    3    3    0    0 -0.70751722956E+02 -0.70953919731E+02 -0.25999587600E+03  0.27863617956E+03  0.00000000000E+00 0. -1.
</event>
<event>
 7    1  0.5931885E-006  0.5426135E+02  0.7818608E-02  0.1486412E+00
          2   -1    0    0  502    0  0.00000000000E+00  0.00000000000E+00  0.81426116394E+03  0.81426116394E+03  0.00000000000E+00 0. -1.
          1   -1    0    0  501    0 -0.00000000000E+00 -0.00000000000E+00 -0.96442676412E+03  0.96442676412E+03  0.00000000000E+00 0. -1.
         25    2    1    2    0    0  0.34974940453E+02  0.61252581426E+02 -0.44203783283E+03  0.46475603886E+03  0.12500241923E+03 0.  0.
          2    1    1    2  501    0 -0.16831472078E+01 -0.53119672681E+02 -0.50928072071E+03  0.51204627242E+03  0.00000000000E+00 0. -1.
          1    1    1    2  502    0 -0.33291793245E+02 -0.81329087441E+01  0.80115295337E+03  0.80188561678E+03  0.00000000000E+00 0. -1.
         22    1    3    3    0    0 -0.37782709524E+02  0.47522464248E+02 -0.12208300977E+03  0.13634580676E+03  0.00000000000E+00 0.  1.
         22    1    3    3    0    0  0.72757649977E+02  0.13730117177E+02 -0.31995482307E+03  0.32841023210E+03  0.00000000000E+00 0.  1.
</event>
<event>
 7    1  0.5931885E-006  0.2305181E+03  0.7818608E-02  0.1188284E+00
          2   -1    0    0  502    0  0.00000000000E+00  0.00000000000E+00  0.36854069356E+03  0.36854069356E+03  0.00000000000E+00 0. -1.
          1   -1    0    0  501    0 -0.00000000000E+00 -0.00000000000E+00 -0.51254549754E+03  0.51254549754E+03  0.00000000000E+00 0. -1.
         25    2    1    2    0    0  0.86659362716E+02  0.19691922995E+03  0.48854175196E+02  0.25356971958E+03  0.12499537584E+03 0.  0.
          2    1    1    2  501    0 -0.97062417116E+02  0.55002770899E+02 -0.32445801956E+03  0.34310264365E+03  0.00000000000E+00 0. -1.
          1    1    1    2  502    0  0.10403054400E+02 -0.25192200085E+03  0.13159904039E+03  0.28441382787E+03  0.00000000000E+00 0. -1.
         22    1    3    3    0    0  0.10412195640E+03  0.12402520917E+03  0.68890265490E+02  0.17598154163E+03  0.00000000000E+00 0. -1.
         22    1    3    3    0    0 -0.17462593682E+02  0.72894020781E+02 -0.20036090294E+02  0.77588177952E+02  0.00000000000E+00 0. -1.
</event>
<event>
 7    1  0.5931885E-006  0.8215337E+02  0.7818608E-02  0.1451861E+00
          2   -1    0    0  502    0  0.00000000000E+00  0.00000000000E+00  0.69131220527E+03  0.69131220527E+03  0.00000000000E+00 0. -1.
          1   -1    0    0  501    0 -0.00000000000E+00 -0.00000000000E+00 -0.10923634791E+04  0.10923634791E+04  0.00000000000E+00 0. -1.
         25    2    1    2    0    0 -0.87030125362E+02  0.41392603767E+02 -0.26665891955E+03  0.30987052716E+03  0.12500069543E+03 0.  0.
          2    1    1    2  501    0  0.60068285228E+01 -0.28372252808E+02 -0.80132155506E+03  0.80184618308E+03  0.00000000000E+00 0. -1.
          1    1    1    2  502    0  0.81023296840E+02 -0.13020350959E+02  0.66692920074E+03  0.67195897417E+03  0.00000000000E+00 0. -1.
         22    1    3    3    0    0 -0.11937461499E+03  0.31545217175E+02 -0.19811715742E+03  0.23344337107E+03  0.00000000000E+00 0.  1.
         22    1    3    3    0    0  0.32344489632E+02  0.98473865928E+01 -0.68541762129E+02  0.76427156090E+02  0.00000000000E+00 0.  1.
</event>
<event>
 7    1  0.5931885E-006  0.1270005E+03  0.7818608E-02  0.1310046E+00
          2   -1    0    0  502    0  0.00000000000E+00  0.00000000000E+00  0.84515402475E+02  0.84515402475E+02  0.00000000000E+00 0. -1.
          1   -1    0    0  501    0 -0.00000000000E+00 -0.00000000000E+00 -0.95835498372E+03  0.95835498372E+03  0.00000000000E+00 0. -1.
         25    2    1    2    0    0  0.78335662360E+02  0.12299196474E+03 -0.29041572548E+03  0.34818070585E+03  0.12500004374E+03 0.  0.
          2    1    1    2  501    0 -0.59723869285E+02  0.61672684865E+00 -0.56522255505E+03  0.56836947283E+03  0.00000000000E+00 0. -1.
          1    1    1    2  502    0 -0.18611793074E+02 -0.12360869159E+03 -0.18201300717E+02  0.12632020751E+03  0.00000000000E+00 0. -1.
         22    1    3    3    0    0 -0.17262302541E+02  0.36941261874E+02 -0.15958950475E+03  0.16471628318E+03  0.00000000000E+00 0. -1.
         22    1    3    3    0    0  0.95597964901E+02  0.86050702863E+02 -0.13082622073E+03  0.18346442267E+03  0.00000000000E+00 0. -1.
</event>
<event>
 7    1  0.5931885E-006  0.5734055E+02  0.7818608E-02  0.1422279E+00
          2   -1    0    0  502    0  0.00000000000E+00  0.00000000000E+00  0.53156068829E+03  0.53156068829E+03  0.00000000000E+00 0. -1.
          1   -1    0    0  501    0 -0.00000000000E+00 -0.00000000000E+00 -0.30127751416E+03  0.30127751416E+03  0.00000000000E+00 0. -1.
         25    2    1    2    0    0 -0.67497962868E+01 -0.10114769670E+03 -0.12612991464E+03  0.20447561127E+03  0.12500041575E+03 0.  0.
          2    1    1    2  501    0 -0.78274002347E+01  0.51358385124E+02 -0.12958102539E+03  0.13960728512E+03  0.00000000000E+00 0. -1.
          1    1    1    2  502    0  0.14577196521E+02  0.49789311579E+02  0.48599411416E+03  0.48875530607E+03  0.00000000000E+00 0. -1.
         22    1    3    3    0    0 -0.31462749276E+02 -0.35864301955E+02  0.12450934362E+02  0.49306982398E+02  0.00000000000E+00 0. -1.
         22    1    3    3    0    0  0.24712952989E+02 -0.65283394748E+02 -0.13858084900E+03  0.15516862887E+03  0.00000000000E+00 0. -1.
</event>
<event>
 7    1  0.5931885E-006  0.1266494E+03  0.7818608E-02  0.1296493E+00
          2   -1    0    0  502    0  0.00000000000E+00  0.00000000000E+00  0.24961590950E+04  0.24961590950E+04  0.00000000000E+00 0. -1.
          1   -1    0    0  501    0 -0.00000000000E+00 -0.00000000000E+00 -0.66985251271E+03  0.66985251271E+03  0.00000000000E+00 0. -1.
         25    2    1    2    0    0 -0.16735358747E+03  0.69263951163E+01  0.24058154112E+03  0.31868515550E+03  0.12500220887E+03 0.  0.
          2    1    1    2  501    0  0.52450547880E+02  0.42992295782E+02 -0.62720109108E+03  0.63085704095E+03  0.00000000000E+00 0. -1.
          1    1    1    2  502    0  0.11490303959E+03 -0.49918690898E+02  0.22129261322E+04  0.22164694112E+04  0.00000000000E+00 0. -1.
         22    1    3    3    0    0 -0.15805142397E+03  0.44795900954E+02  0.22007440700E+03  0.27462641893E+03  0.00000000000E+00 0. -1.
         22    1    3    3    0    0 -0.93021635045E+01 -0.37869505838E+02  0.20507134120E+02  0.44058736570E+02  0.00000000000E+00 0. -1.
</event>
<event>
 7    1  0.5931885E-006  0.1316098E+03  0.7818608E-02  0.1272035E+00
          2   -1    0    0  502    0  0.00000000000E+00  0.00000000000E+00  0.19619106098E+04  0.19619106098E+04  0.00000000000E+00 0. -1.
          1   -1    0    0  501    0 -0.00000000000E+00 -0.00000000000E+00 -0.32784294025E+03  0.32784294025E+03  0.00000000000E+00 0. -1.
         25    2    1    2    0    0 -0.17109387670E+02 -0.74265142452E+02  0.27106259291E+03  0.30808978425E+03  0.12504536518E+03 0.  0.
          2    1    1    2  501    0 -0.74991301882E+02 -0.33748805121E+02 -0.30078765864E+03  0.31182670314E+03  0.00000000000E+00 0. -1.
          1    1    1    2  502    0  0.92100689551E+02  0.10801394757E+03  0.16637927353E+04  0.16698370627E+04  0.00000000000E+00 0. -1.
         22    1    3    3    0    0 -0.37803484984E+02  0.23617308172E+02  0.62431427129E+02  0.76710910668E+02  0.00000000000E+00 0.  1.
         22    1    3    3    0    0  0.20694097314E+02 -0.97882450624E+02  0.20863116578E+03  0.23137887358E+03  0.00000000000E+00 0.  1.
</event>
<event>
 7    1  0.5931885E-006  0.1398921E+03  0.7818608E-02  0.1373462E+00
          2   -1    0    0  502    0  0.00000000000E+00  0.00000000000E+00  0.19557012584E+04  0.19557012584E+04  0.00000000000E+00 0. -1.
          1   -1    0    0  501    0 -0.00000000000E+00 -0.00000000000E+00 -0.93356646267E+02  0.93356646267E+02  0.00000000000E+00 0. -1.
         25    2    1    2    0    0 -0.12210319110E+03 -0.28325106062E+02  0.39457355700E+03  0.43246389784E+03  0.12500092058E+03 0.  0.
          2    1    1    2  501    0 -0.81164312764E+01 -0.30271281932E+02 -0.67644813689E+02  0.74552315762E+02  0.00000000000E+00 0. -1.
          1    1    1    2  502    0  0.13021962238E+03  0.58596387994E+02  0.15354158688E+04  0.15420416911E+04  0.00000000000E+00 0. -1.
         22    1    3    3    0    0  0.22904712960E+02 -0.17852311605E+02  0.41715925390E+02  0.50828627136E+02  0.00000000000E+00 0.  1.
         22    1    3    3    0    0 -0.14500790406E+03 -0.10472794457E+02  0.35285763161E+03  0.38163527071E+03  0.00000000000E+00 0.  1.
</event>
<event>
 7    1  0.5931885E-006  0.1043089E+03  0.7818608E-02  0.1431318E+00
          2   -1    0    0  502    0  0.00000000000E+00  0.00000000000E+00  0.38102710397E+04  0.38102710397E+04  0.00000000000E+00 0. -1.
          1   -1    0    0  501    0 -0.00000000000E+00 -0.00000000000E+00 -0.14140237971E+02  0.14140237971E+02  0.00000000000E+00 0. -1.
         25    2    1    2    0    0  0.74210550618E+02 -0.29834004146E+02  0.28634249631E+04  0.28672683202E+04  0.12501130767E+03 0.  0.
          2    1    1    2  501    0 -0.96884434094E+02  0.43784875174E+02  0.22414341219E+03  0.24808058790E+03  0.00000000000E+00 0. -1.
          1    1    1    2  502    0  0.22673883476E+02 -0.13950871029E+02  0.70856242645E+03  0.70906236959E+03  0.00000000000E+00 0. -1.
         22    1    3    3    0    0 -0.18449283788E+02 -0.24195646172E+02  0.16561827815E+04  0.16564622577E+04  0.00000000000E+00 0. -1.
         22    1    3    3    0    0  0.92659834406E+02 -0.56383579737E+01  0.12072421816E+04  0.12108060625E+04  0.00000000000E+00 0. -1.
</event>
<event>
 7    1  0.5931885E-006  0.8175094E+02  0.7818608E-02  0.1377812E+00
          2   -1    0    0  502    0  0.00000000000E+00  0.00000000000E+00  0.37510760779E+03  0.37510760779E+03  0.00000000000E+00 0. -1.
          1   -1    0    0  501    0 -0.00000000000E+00 -0.00000000000E+00 -0.12121068126E+04  0.12121068126E+04  0.00000000000E+00 0. -1.
         25    2    1    2    0    0  0.47211170683E+02  0.20352240805E+02  0.41174444146E+02  0.14129003666E+03  0.12499772505E+03 0.  0.
          2    1    1    2  501    0 -0.40644015716E+02 -0.71682591658E+02 -0.11582145832E+04  0.11611422612E+04  0.00000000000E+00 0. -1.
          1    1    1    2  502    0 -0.65671549665E+01  0.51330350853E+02  0.28004093426E+03  0.28478212252E+03  0.00000000000E+00 0. -1.
         22    1    3    3    0    0  0.62285172316E+02  0.63392656194E+02  0.33862353137E+02  0.95103788094E+02  0.00000000000E+00 0.  1.
         22    1    3    3    0    0 -0.15074001633E+02 -0.43040415389E+02  0.73120910088E+01  0.46186248570E+02  0.00000000000E+00 0.  1.
</event>
<event>
 7    1  0.5931885E-006  0.1209548E+03  0.7818608E-02  0.1381343E+00
          2   -1    0    0  502    0  0.00000000000E+00  0.00000000000E+00  0.74623685546E+03  0.74623685546E+03  0.00000000000E+00 0. -1.
          1   -1    0    0  501    0 -0.00000000000E+00 -0.00000000000E+00 -0.40936712647E+03  0.40936712647E+03  0.00000000000E+00 0. -1.
         25    2    1    2    0    0  0.63858959663E+02  0.63950276507E+02  0.10223286694E+02  0.15458614209E+03  0.12499902056E+03 0.  0.
          2    1    1    2  501    0  0.29685031376E+02  0.16541095315E+02 -0.33057172836E+03  0.33231382233E+03  0.00000000000E+00 0. -1.
          1    1    1    2  502    0 -0.93543991039E+02 -0.80491371822E+02  0.65721817066E+03  0.66870401751E+03  0.00000000000E+00 0. -1.
         22    1    3    3    0    0 -0.21494291868E+02  0.33968617595E+02  0.42533759120E+02  0.58523433162E+02  0.00000000000E+00 0. -1.
         22    1    3    3    0    0  0.85353251531E+02  0.29981658912E+02 -0.32310472426E+02  0.96062708927E+02  0.00000000000E+00 0. -1.
</event>
<event>
 7    1  0.5931885E-006  0.4900209E+02  0.7818608E-02  0.1548776E+00
          2   -1    0    0  502    0  0.00000000000E+00  0.00000000000E+00  0.18592414563E+03  0.18592414563E+03  0.00000000000E+00 0. -1.
          1   -1    0    0  501    0 -0.00000000000E+00 -0.00000000000E+00 -0.13703877134E+04  0.13703877134E+04  0.00000000000E+00 0. -1.
         25    2    1    2    0    0 -0.62088374501E+02 -0.17953982905E+02  0.25135668508E+02  0.14294841887E+03  0.12500054750E+03 0.  0.
          2    1    1    2  501    0  0.48832656690E+02 -0.32077885416E+01 -0.13094873387E+04  0.13104014684E+04  0.00000000000E+00 0. -1.
          1    1    1    2  502    0  0.13255717811E+02  0.21161771446E+02  0.99888102400E+02  0.10296197175E+03  0.00000000000E+00 0. -1.
         22    1    3    3    0    0 -0.21299504169E+02  0.50146116918E+02 -0.11240477069E+02  0.55629580661E+02  0.00000000000E+00 0. -1.
         22    1    3    3    0    0 -0.40788870332E+02 -0.68100099823E+02  0.36376145577E+02  0.87318838207E+02  0.00000000000E+00 0. -1.
</event>
<event>
 7    1  0.5931885E-006  0.5329959E+02  0.7818608E-02  0.1558179E+00
          2   -1    0    0  502    0  0.00000000000E+00  0.00000000000E+00  0.23278183958E+03  0.23278183958E+03  0.00000000000E+00 0. -1.
          1   -1    0    0  501    0 -0.00000000000E+00 -0.00000000000E+00 -0.11369126624E+03  0.11369126624E+03  0.00000000000E+00 0. -1.
         25    2    1    2    0    0 -0.38312470563E+01  0.34598536219E+02  0.69067441876E+02  0.14699045659E+03  0.12499658250E+03 0.  0.
          2    1    1    2  501    0 -0.32917289749E+01 -0.55009277315E+02 -0.63408795236E+02  0.84009114884E+02  0.00000000000E+00 0. -1.
          1    1    1    2  502    0  0.71229760312E+01  0.20410741096E+02  0.11343192670E+03  0.11547353435E+03  0.00000000000E+00 0. -1.
         22    1    3    3    0    0 -0.42461265991E+02  0.51238519144E+02  0.49722416262E+00  0.66547668520E+02  0.00000000000E+00 0. -1.
         22    1    3    3    0    0  0.38630018935E+02 -0.16639982925E+02  0.68570217713E+02  0.80442788066E+02  0.00000000000E+00 0. -1.
</event>
<event>
 7    1  0.5931885E-006  0.1448521E+03  0.7818608E-02  0.1309905E+00
          2   -1    0    0  502    0  0.00000000000E+00  0.00000000000E+00  0.12619071761E+04  0.12619071761E+04  0.00000000000E+00 0. -1.
          1   -1    0    0  501    0 -0.00000000000E+00 -0.00000000000E+00 -0.91787144836E+03  0.91787144836E+03  0.00000000000E+00 0. -1.
         25    2    1    2    0    0 -0.54012356164E+02 -0.11654997601E+03  0.45124495863E+03  0.48553913245E+03  0.12500001968E+03 0.  0.
          2    1    1    2  501    0 -0.52215312775E+02  0.47741550384E+01 -0.89245622448E+03  0.89399515885E+03  0.00000000000E+00 0. -1.
          1    1    1    2  502    0  0.10622766894E+03  0.11177582098E+03  0.78524699358E+03  0.80024433314E+03  0.00000000000E+00 0. -1.
         22    1    3    3    0    0 -0.47783767264E-01 -0.85884665732E+02  0.38618831061E+03  0.39562303945E+03  0.00000000000E+00 0.  1.
         22    1    3    3    0    0 -0.53964572397E+02 -0.30665310282E+02  0.65056648027E+02  0.89916093004E+02  0.00000000000E+00 0.  1.
</event>
<event>
 7    1  0.5931885E-006  0.1507784E+03  0.7818608E-02  0.1248418E+00
          2   -1    0    0  502    0  0.00000000000E+00  0.00000000000E+00  0.32426536266E+04  0.32426536266E+04  0.00000000000E+00 0. -1.
          1   -1    0    0  501    0 -0.00000000000E+00 -0.00000000000E+00 -0.20314580899E+04  0.20314580899E+04  0.00000000000E+00 0. -1.
         25    2    1    2    0    0 -0.53846521640E+01 -0.14284238128E+02  0.11805720828E+04  0.11872686930E+04  0.12499389048E+03 0.  0.
          2    1    1    2  501    0 -0.30304346922E+02 -0.14770165370E+03 -0.20219571863E+04  0.20275712060E+04  0.00000000000E+00 0. -1.
          1    1    1    2  502    0  0.35688999086E+02  0.16198589183E+03  0.20525806403E+04  0.20592718175E+04  0.00000000000E+00 0. -1.
         22    1    3    3    0    0 -0.43520180725E+02  0.14820463493E+02  0.18806634484E+03  0.19360424151E+03  0.00000000000E+00 0. -1.
         22    1    3    3    0    0  0.38135528561E+02 -0.29104701621E+02  0.99250573796E+03  0.99366445145E+03  0.00000000000E+00 0. -1.
</event>
<event>
 7    1  0.5931885E-006  0.7273073E+02  0.7818608E-02  0.1436456E+00
          2   -1    0    0  502    0  0.00000000000E+00  0.00000000000E+00  0.10597038623E+04  0.10597038623E+04  0.00000000000E+00 0. -1.
          1   -1    0    0  501    0 -0.00000000000E+00 -0.00000000000E+00 -0.99226630191E+03  0.99226630191E+03  0.00000000000E+00 0. -1.
         25    2    1    2    0    0  0.39575231182E+02 -0.81551803877E+02  0.42378526717E+03  0.45103488397E+03  0.12498647229E+03 0.  0.
          2    1    1    2  501    0 -0.39553688224E+01  0.72589452661E+02 -0.97674752512E+03  0.97944913161E+03  0.00000000000E+00 0. -1.
          1    1    1    2  502    0 -0.35619862360E+02  0.89623512169E+01  0.62039981835E+03  0.62148614863E+03  0.00000000000E+00 0. -1.
         22    1    3    3    0    0  0.37029353014E+02  0.32223547831E+00  0.26862458569E+02  0.45747879740E+02  0.00000000000E+00 0. -1.
         22    1    3    3    0    0  0.25458781677E+01 -0.81874039356E+02  0.39692280860E+03  0.40528700423E+03  0.00000000000E+00 0. -1.
</event>
<event>
 7    1  0.5931885E-006  0.5972281E+02  0.7818608E-02  0.1490986E+00
          2   -1    0    0  502    0  0.00000000000E+00  0.00000000000E+00  0.23568265794E+03  0.23568265794E+03  0.00000000000E+00 0. -1.
          1   -1    0    0  501    0 -0.00000000000E+00 -0.00000000000E+00 -0.37564531429E+03  0.37564531429E+03  0.00000000000E+00 0. -1.
         25    2    1    2    0    0 -0.53592998999E+01 -0.31201856846E+02  0.10248868556E+03  0.16471284359E+03  0.12499644878E+03 0.  0.
          2    1    1    2  501    0 -0.28243093236E+01  0.60229063141E+02 -0.33959060908E+03  0.34490186799E+03  0.00000000000E+00 0. -1.
          1    1    1    2  502    0  0.81836092235E+01 -0.29027206296E+02  0.97139267168E+02  0.10171326065E+03  0.00000000000E+00 0. -1.
         22    1    3    3    0    0  0.27038486377E+02 -0.67985972940E+02  0.34486333717E+02  0.80885594981E+02  0.00000000000E+00 0. -1.
         22    1    3    3    0    0 -0.32397786277E+02  0.36784116094E+02  0.68002351844E+02  0.83827248606E+02  0.00000000000E+00 0. -1.
</event>
<event>
 7    1  0.5931885E-006  0.1098117E+03  0.7818608E-02  0.1275233E+00
          2   -1    0    0  502    0  0.00000000000E+00  0.00000000000E+00  0.85465182324E+03  0.85465182324E+03  0.00000000000E+00 0. -1.
          1   -1    0    0  501    0 -0.00000000000E+00 -0.00000000000E+00 -0.46247019740E+03  0.46247019740E+03  0.00000000000E+00 0. -1.
         25    2    1    2    0    0 -0.10178091605E+03  0.98307144633E+00 -0.11798601710E+03  0.19976576704E+03  0.12500136059E+03 0.  0.
          2    1    1    2  501    0  0.77148481785E+02 -0.93330598837E+02 -0.28855681539E+03  0.31293373840E+03  0.00000000000E+00 0. -1.
          1    1    1    2  502    0  0.24632434261E+02  0.92347527391E+02  0.79872445833E+03  0.80442251520E+03  0.00000000000E+00 0. -1.
         22    1    3    3    0    0 -0.15000176582E+02  0.56257536244E+02 -0.45837901688E+02  0.74101477130E+02  0.00000000000E+00 0.  1.
         22    1    3    3    0    0 -0.86780739464E+02 -0.55274464797E+02 -0.72148115410E+02  0.12566428991E+03  0.00000000000E+00 0.  1.
</event>
<event>
 7    1  0.5931885E-006  0.9824770E+02  0.7818608E-02  0.1419278E+00
          2   -1    0    0  502    0  0.00000000000E+00  0.00000000000E+00  0.39837599568E+03  0.39837599568E+03  0.00000000000E+00 0. -1.
          1   -1    0    0  501    0 -0.00000000000E+00 -0.00000000000E+00 -0.19472711964E+04  0.19472711964E+04  0.00000000000E+00 0. -1.
         25    2    1    2    0    0  0.33702760448E+02  0.61722213968E+02 -0.27996547154E+03  0.31456432934E+03  0.12499817711E+03 0.  0.
          2    1    1    2  501    0  0.25699300273E+02  0.17308556426E+02 -0.16434454061E+04  0.16437374617E+04  0.00000000000E+00 0. -1.
          1    1    1    2  502    0 -0.59402060721E+02 -0.79030770394E+02  0.37451567689E+03  0.38734540106E+03  0.00000000000E+00 0. -1.
         22    1    3    3    0    0  0.60237285517E+02 -0.38750988771E+01 -0.67144522884E+02  0.90288060734E+02  0.00000000000E+00 0.  1.
         22    1    3    3    0    0 -0.26534525069E+02  0.65597312846E+02 -0.21282094866E+03  0.22427626861E+03  0.00000000000E+00 0.  1.
</event>
<event>
 7    1  0.5931885E-006  0.5205880E+02  0.7818608E-02  0.1515416E+00
          2   -1    0    0  502    0  0.00000000000E+00  0.00000000000E+00  0.15417014256E+03  0.15417014256E+03  0.00000000000E+00 0. -1.
          1   -1    0    0  501    0 -0.00000000000E+00 -0.00000000000E+00 -0.15823137978E+04  0.15823137978E+04  0.00000000000E+00 0. -1.
         25    2    1    2    0    0 -0.52802859998E+01 -0.32059180146E+02 -0.72086012949E+02  0.14791352353E+03  0.12500537880E+03 0.  0.
          2    1    1    2  501    0  0.22815763592E+02 -0.18340054573E+02 -0.14660367277E+04  0.14663289548E+04  0.00000000000E+00 0. -1.
          1    1    1    2  502    0 -0.17535477592E+02  0.50399234719E+02  0.10997908536E+03  0.12224146208E+03  0.00000000000E+00 0. -1.
         22    1    3    3    0    0 -0.10230557931E+02 -0.69861715272E+02 -0.82306500999E+02  0.10844207524E+03  0.00000000000E+00 0.  1.
         22    1    3    3    0    0  0.49502719311E+01  0.37802535126E+02  0.10220488050E+02  0.39471448290E+02  0.00000000000E+00 0.  1.
</event>
<event>
 7    1  0.5931885E-006  0.9433346E+02  0.7818608E-02  0.1304820E+00
          2   -1    0    0  502    0  0.00000000000E+00  0.00000000000E+00  0.40558002817E+03  0.40558002817E+03  0.00000000000E+00 0. -1.
          1   -1    0    0  501    0 -0.00000000000E+00 -0.00000000000E+00 -0.18414691893E+03  0.18414691893E+03  0.00000000000E+00 0. -1.
         25    2    1    2    0    0  0.44104095124E+02 -0.21077781594E+02  0.98653833528E+02  0.16657379658E+03  0.12499922701E+03 0.  0.
          2    1    1    2  501    0 -0.46697574608E+02 -0.81964249419E+02 -0.12394702894E+03  0.15576157306E+03  0.00000000000E+00 0. -1.
          1    1    1    2  502    0  0.25934794840E+01  0.10304203101E+03  0.24672630465E+03  0.26739157746E+03  0.00000000000E+00 0. -1.
         22    1    3    3    0    0  0.27310225027E+02  0.17234143098E+02 -0.21866654351E+02  0.39000187844E+02  0.00000000000E+00 0.  1.
         22    1    3    3    0    0  0.16793870097E+02 -0.38311924692E+02  0.12052048788E+03  0.12757360873E+03  0.00000000000E+00 0.  1.
</event>
<event>
 7    1  0.5931885E-006  0.1601977E+03  0.7818608E-02  0.1353619E+00
          2   -1    0    0  502    0  0.00000000000E+00  0.00000000000E+00  0.12432731713E+04  0.12432731713E+04  0.00000000000E+00 0. -1.
          1   -1    0    0  501    0 -0.00000000000E+00 -0.00000000000E+00 -0.36678707513E+03  0.36678707513E+03  0.00000000000E+00 0. -1.
         25    2    1    2    0    0 -0.10459525589E+03 -0.94322053797E+02 -0.24310295050E+03  0.30750485862E+03  0.12499350442E+03 0.  0.
          2    1    1    2  501    0  0.52472011431E+01 -0.31876617278E+02 -0.83115983763E+02  0.89173530859E+02  0.00000000000E+00 0. -1.
          1    1    1    2  502    0  0.99348054742E+02  0.12619867107E+03  0.12027050304E+04  0.12133818569E+04  0.00000000000E+00 0. -1.
         22    1    3    3    0    0 -0.75981311734E+02 -0.12401944163E+03 -0.17144476654E+03  0.22482724392E+03  0.00000000000E+00 0. -1.
         22    1    3    3    0    0 -0.28613944152E+02  0.29697387833E+02 -0.71658183951E+02  0.82677614692E+02  0.00000000000E+00 0. -1.
</event>
<event>
 7    1  0.5931885E-006  0.7148705E+02  0.7818608E-02  0.1358720E+00
          2   -1    0    0  502    0  0.00000000000E+00  0.00000000000E+00  0.18495758047E+04  0.18495758047E+04  0.00000000000E+00 0. -1.
          1   -1    0    0  501    0 -0.00000000000E+00 -0.00000000000E+00 -0.10420069381E+03  0.10420069381E+03  0.00000000000E+00 0. -1.
         25    2    1    2    0    0  0.74724130773E+00 -0.34784028566E+02  0.62714565713E+03  0.64042540449E+03  0.12499014536E+03 0.  0.
          2    1    1    2  501    0 -0.68222960128E+02 -0.12397239353E+02 -0.83651222967E+02  0.10865353623E+03  0.00000000000E+00 0. -1.
          1    1    1    2  502    0  0.67475718820E+02  0.47181267919E+02  0.12018806768E+04  0.12046975578E+04  0.00000000000E+00 0. -1.
         22    1    3    3    0    0  0.40103520323E+01 -0.50293143625E+02  0.91038704999E+02  0.10408424005E+03  0.00000000000E+00 0.  1.
         22    1    3    3    0    0 -0.32631107246E+01  0.15509115059E+02  0.53610695213E+03  0.53634116443E+03  0.00000000000E+00 0.  1.
</event>
<event>
 7    1  0.5931885E-006  0.6666862E+02  0.7818608E-02  0.1378863E+00
          2   -1    0    0  502    0  0.00000000000E+00  0.00000000000E+00  0.64082077641E+03  0.64082077641E+03  0.00000000000E+00 0. -1.
          1   -1    0    0  501    0 -0.00000000000E+00 -0.00000000000E+00 -0.53787567983E+03  0.53787567983E+03  0.00000000000E+00 0. -1.
         25    2    1    2    0    0  0.56800434086E+01 -0.12825882211E+03 -0.10592347318E+03  0.20814699465E+03  0.12499120316E+03 0.  0.
          2    1    1    2  501    0 -0.82901983214E+01  0.62364464403E+02 -0.37637766008E+03  0.38159952413E+03  0.00000000000E+00 0. -1.
          1    1    1    2  502    0  0.26101549128E+01  0.65894357710E+02  0.58524622985E+03  0.58894993746E+03  0.00000000000E+00 0. -1.
         22    1    3    3    0    0  0.45343529351E+01 -0.86076905927E+02  0.80901392465E+01  0.86575079806E+02  0.00000000000E+00 0. -1.
         22    1    3    3    0    0  0.11456904735E+01 -0.42181916186E+02 -0.11401361243E+03  0.12157191484E+03  0.00000000000E+00 0. -1.
</event>
<event>
 7    1  0.5931885E-006  0.1025558E+03  0.7818608E-02  0.1368887E+00
          2   -1    0    0  502    0  0.00000000000E+00  0.00000000000E+00  0.10542310180E+03  0.10542310180E+03  0.00000000000E+00 0. -1.
          1   -1    0    0  501    0 -0.00000000000E+00 -0.00000000000E+00 -0.39672860501E+03  0.39672860501E+03  0.00000000000E+00 0. -1.
         25    2    1    2    0    0  0.45108362613E+02  0.64692151015E+02 -0.71916174206E+02  0.16438024718E+03  0.12501636201E+03 0.  0.
          2    1    1    2  501    0  0.43449426872E+02  0.91266351903E+01 -0.21799837084E+03  0.22247345427E+03  0.00000000000E+00 0. -1.
          1    1    1    2  502    0 -0.88557789485E+02 -0.73818786206E+02 -0.13909581622E+01  0.11529800536E+03  0.00000000000E+00 0. -1.
         22    1    3    3    0    0 -0.41236249566E+02  0.41213798213E+02 -0.30075116045E+02  0.65601204612E+02  0.00000000000E+00 0.  1.
         22    1    3    3    0    0  0.86344612179E+02  0.23478352802E+02 -0.41841058161E+02  0.98779042568E+02  0.00000000000E+00 0.  1.
</event>
<event>
 7    1  0.5931885E-006  0.1090626E+03  0.7818608E-02  0.1447865E+00
          2   -1    0    0  502    0  0.00000000000E+00  0.00000000000E+00  0.67504100547E+03  0.67504100547E+03  0.00000000000E+00 0. -1.
          1   -1    0    0  501    0 -0.00000000000E+00 -0.00000000000E+00 -0.19378674853E+04  0.19378674853E+04  0.00000000000E+00 0. -1.
         25    2    1    2    0    0 -0.94271834358E+01  0.12803430967E+03  0.10512050516E+02  0.17948997773E+03  0.12499797062E+03 0.  0.
          2    1    1    2  501    0  0.18024211677E+02 -0.10724323229E+03 -0.18515643740E+04  0.18547551359E+04  0.00000000000E+00 0. -1.
          1    1    1    2  502    0 -0.85970282408E+01 -0.20791077377E+02  0.57822584365E+03  0.57866337715E+03  0.00000000000E+00 0. -1.
         22    1    3    3    0    0  0.18101571852E+02  0.12300994831E+03 -0.32191477506E+02  0.12843444051E+03  0.00000000000E+00 0. -1.
         22    1    3    3    0    0 -0.27528755287E+02  0.50243613601E+01  0.42703528022E+02  0.51055537215E+02  0.00000000000E+00 0. -1.
</event>
<event>
 7    1  0.5931885E-006  0.1712295E+03  0.7818608E-02  0.1180938E+00
          2   -1    0    0  502    0  0.00000000000E+00  0.00000000000E+00  0.71690843050E+03  0.71690843050E+03  0.00000000000E+00 0. -1.
          1   -1    0    0  501    0 -0.00000000000E+00 -0.00000000000E+00 -0.26046538015E+04  0.26046538015E+04  0.00000000000E+00 0. -1.
         25    2    1    2    0    0  0.19140088376E+03  0.92220880872E+02 -0.93032275298E+03  0.96242625804E+03  0.12499955316E+03 0.  0.
          2    1    1    2  501    0 -0.33579284371E+02 -0.15951584495E+03 -0.16436866724E+04  0.16517502081E+04  0.00000000000E+00 0. -1.
          1    1    1    2  502    0 -0.15782159939E+03  0.67294964074E+02  0.68626405435E+03  0.70738576584E+03  0.00000000000E+00 0. -1.
         22    1    3    3    0    0  0.18892071169E+03  0.39707509576E+02 -0.76273444206E+03  0.78678558117E+03  0.00000000000E+00 0. -1.
         22    1    3    3    0    0  0.24801720699E+01  0.52513371296E+02 -0.16758831091E+03  0.17564067687E+03  0.00000000000E+00 0. -1.
</event>
<event>
 7    1  0.5931885E-006  0.7272661E+02  0.7818608E-02  0.1352904E+00
          2   -1    0    0  502    0  0.00000000000E+00  0.00000000000E+00  0.26873531044E+03  0.26873531044E+03  0.00000000000E+00 0. -1.
          1   -1    0    0  501    0 -0.00000000000E+00 -0.00000000000E+00 -0.29212955344E+04  0.29212955344E+04  0.00000000000E+00 0. -1.
         25    2    1    2    0    0  0.11699294594E+02 -0.73238128005E+02 -0.90034139145E+02  0.17097266077E+03  0.12499923052E+03 0.  0.
          2    1    1    2  501    0 -0.67426432190E+02  0.28291361390E+02 -0.27846866154E+04  0.27856464727E+04  0.00000000000E+00 0. -1.
          1    1    1    2  502    0  0.55727137596E+02  0.44946766615E+02  0.22216053054E+03  0.23341171141E+03  0.00000000000E+00 0. -1.
         22    1    3    3    0    0 -0.19980652169E+02 -0.96906048578E+00  0.24661812959E+02  0.31754850932E+02  0.00000000000E+00 0. -1.
         22    1    3    3    0    0  0.31679946763E+02 -0.72269067520E+02 -0.11469595210E+03  0.13921780984E+03  0.00000000000E+00 0. -1.
</event>
<event>
 7    1  0.5931885E-006  0.1208126E+03  0.7818608E-02  0.1289716E+00
          2   -1    0    0  502    0  0.00000000000E+00  0.00000000000E+00  0.17039902352E+04  0.17039902352E+04  0.00000000000E+00 0. -1.
          1   -1    0    0  501    0 -0.00000000000E+00 -0.00000000000E+00 -0.44432798147E+02  0.44432798147E+02  0.00000000000E+00 0. -1.
         25    2    1    2    0    0  0.88363308531E+02  0.44842804882E+02  0.25641217505E+03  0.30197746701E+03  0.12499694247E+03 0.  0.
          2    1    1    2  501    0 -0.32847791323E+02  0.68235476798E+02  0.57933726614E+02  0.95348698827E+02  0.00000000000E+00 0. -1.
          1    1    1    2  502    0 -0.55515517208E+02 -0.11307828168E+03  0.13452115354E+04  0.13510968675E+04  0.00000000000E+00 0. -1.
         22    1    3    3    0    0  0.29429272636E+02  0.39755919445E+02  0.12532177504E+02  0.51026176535E+02  0.00000000000E+00 0. -1.
         22    1    3    3    0    0  0.58934035895E+02  0.50868854376E+01  0.24387999755E+03  0.25095129048E+03  0.00000000000E+00 0. -1.
</event>
<event>
 7    1  0.5931885E-006  0.8251583E+02  0.7818608E-02  0.1381407E+00
          2   -1    0    0  502    0  0.00000000000E+00  0.00000000000E+00  0.48383687415E+03  0.48383687415E+03  0.00000000000E+00 0. -1.
          1   -1    0    0  501    0 -0.00000000000E+00 -0.00000000000E+00 -0.15882135685E+03  0.15882135685E+03  0.00000000000E+00 0. -1.
         25    2    1    2    0    0  0.15359958841E+02  0.12188461603E+03  0.20209018849E+03  0.26750186304E+03  0.12500005795E+03 0.  0.
          2    1    1    2  501    0  0.59543619678E+01 -0.49429677240E+02 -0.11511603661E+03  0.12542108796E+03  0.00000000000E+00 0. -1.
          1    1    1    2  502    0 -0.21314320808E+02 -0.72454938793E+02  0.23804136543E+03  0.24973528001E+03  0.00000000000E+00 0. -1.
         22    1    3    3    0    0  0.67622451691E+02  0.93791540930E+02  0.12603204146E+03  0.17103720238E+03  0.00000000000E+00 0. -1.
         22    1    3    3    0    0 -0.52262492850E+02  0.28093075103E+02  0.76058147023E+02  0.96464660660E+02  0.00000000000E+00 0. -1.
</event>
<event>
 7    1  0.5931885E-006  0.7633818E+02  0.7818608E-02  0.1499231E+00
          2   -1    0    0  502    0  0.00000000000E+00  0.00000000000E+00  0.11618830078E+04  0.11618830078E+04  0.00000000000E+00 0. -1.
          1   -1    0    0  501    0 -0.00000000000E+00 -0.00000000000E+00 -0.43735908918E+03  0.43735908918E+03  0.00000000000E+00 0. -1.
         25    2    1    2    0    0  0.39067183198E+02 -0.88876332663E+02  0.15349464176E+03  0.22047879882E+03  0.12500019348E+03 0.  0.
          2    1    1    2  501    0 -0.24739680233E+02  0.71805668563E+02 -0.40016749533E+03  0.40731085197E+03  0.00000000000E+00 0. -1.
          1    1    1    2  502    0 -0.14327502965E+02  0.17070664100E+02  0.97119677222E+03  0.97145244623E+03  0.00000000000E+00 0. -1.
         22    1    3    3    0    0  0.58835257760E+01 -0.87629351908E+02  0.30330203899E+02  0.92916308902E+02  0.00000000000E+00 0. -1.
         22    1    3    3    0    0  0.33183657422E+02 -0.12469807551E+01  0.12316443786E+03  0.12756248992E+03  0.00000000000E+00 0. -1.
</event>
<event>
 7    1  0.5931885E-006  0.3052307E+02  0.7818608E-02  0.1594696E+00
          2   -1    0    0  502    0  0.00000000000E+00  0.00000000000E+00  0.25464648213E+04  0.25464648213E+04  0.00000000000E+00 0. -1.
          1   -1    0    0  501    0 -0.00000000000E+00 -0.00000000000E+00 -0.10373980796E+03  0.10373980796E+03  0.00000000000E+00 0. -1.
         25    2    1    2    0    0 -0.16132187352E+01 -0.24836914900E+02  0.31616047459E+03  0.34088269132E+03  0.12499635490E+03 0.  0.
          2    1    1    2  501    0 -0.26904889277E+02  0.13488633146E+02 -0.88791314196E+02  0.93753473364E+02  0.00000000000E+00 0. -1.
          1    1    1    2  502    0  0.28518108012E+02  0.11348281754E+02  0.22153558530E+04  0.22155684646E+04  0.00000000000E+00 0. -1.
         22    1    3    3    0    0  0.97928538944E+00 -0.70702724787E+02  0.11883990103E+03  0.13828505476E+03  0.00000000000E+00 0. -1.
         22    1    3    3    0    0 -0.25925041246E+01  0.45865809887E+02  0.19732057355E+03  0.20259763657E+03  0.00000000000E+00 0. -1.
</event>
<event>
 7    1  0.5931885E-006  0.1978812E+03  0.7818608E-02  0.1206141E+00
          2   -1    0    0  502    0  0.00000000000E+00  0.00000000000E+00  0.99176029073E+03  0.99176029073E+03  0.00000000000E+00 0. -1.
          1   -1    0    0  501    0 -0.00000000000E+00 -0.00000000000E+00 -0.81861885154E+03  0.81861885154E+03  0.00000000000E+00 0. -1.
         25    2    1    2    0    0  0.19661397758E+03  0.69958335732E+02  0.40506145614E+03  0.47249360929E+03  0.12499681058E+03 0.  0.
          2    1    1    2  501    0 -0.19489167608E+03  0.36981175510E+02 -0.76699189862E+03  0.79222909900E+03  0.00000000000E+00 0. -1.
          1    1    1    2  502    0 -0.17223014991E+01 -0.10693951124E+03  0.53507188167E+03  0.54565643398E+03  0.00000000000E+00 0. -1.
         22    1    3    3    0    0  0.19450851983E+03  0.59942027277E+02  0.41240522103E+03  0.45989637665E+03  0.00000000000E+00 0.  1.
         22    1    3    3    0    0  0.21054577488E+01  0.10016308455E+02 -0.73437648959E+01  0.12597232642E+02  0.00000000000E+00 0.  1.
</event>
<event>
 7    1  0.5931885E-006  0.3833766E+02  0.7818608E-02  0.1531559E+00
          2   -1    0    0  502    0  0.00000000000E+00  0.00000000000E+00  0.84377940013E+03  0.84377940013E+03  0.00000000000E+00 0. -1.
          1   -1    0    0  501    0 -0.00000000000E+00 -0.00000000000E+00 -0.28910358318E+02  0.28910358318E+02  0.00000000000E+00 0. -1.
         25    2    1    2    0    0  0.11148572287E+02  0.38824713495E+02  0.20324545390E+03  0.24200150571E+03  0.12499746075E+03 0.  0.
          2    1    1    2  501    0  0.25209026582E+02 -0.25279898697E+02  0.26955936401E+02  0.44734671192E+02  0.00000000000E+00 0. -1.
          1    1    1    2  502    0 -0.36357598869E+02 -0.13544814797E+02  0.58466765151E+03  0.58595358154E+03  0.00000000000E+00 0. -1.
         22    1    3    3    0    0 -0.43147478980E+02  0.13604794513E+02  0.20443719279E+02  0.49646158301E+02  0.00000000000E+00 0.  1.
         22    1    3    3    0    0  0.54296051267E+02  0.25219918981E+02  0.18280173463E+03  0.19235534741E+03  0.00000000000E+00 0.  1.
</event>
<event>
 7    1  0.5931885E-006  0.1068781E+03  0.7818608E-02  0.1271114E+00
          2   -1    0    0  502    0  0.00000000000E+00  0.00000000000E+00  0.91970510302E+03  0.91970510302E+03  0.00000000000E+00 0. -1.
          1   -1    0    0  501    0 -0.00000000000E+00 -0.00000000000E+00 -0.77156878702E+03  0.77156878702E+03  0.00000000000E+00 0. -1.
         25    2    1    2    0    0 -0.23091620923E+02  0.33070156207E+02  0.73993344474E+01  0.13155366408E+03  0.12499903277E+03 0.  0.
          2    1    1    2  501    0  0.11105206642E+03  0.18904413568E+02 -0.70191501139E+03  0.71089705410E+03  0.00000000000E+00 0. -1.
          1    1    1    2  502    0 -0.87960445493E+02 -0.51974569775E+02  0.84265199294E+03  0.84882317186E+03  0.00000000000E+00 0. -1.
         22    1    3    3    0    0  0.29255289075E+02 -0.22644084293E+02 -0.28881342649E+02  0.46933553515E+02  0.00000000000E+00 0.  1.
         22    1    3    3    0    0 -0.52346909998E+02  0.55714240500E+02  0.36280677097E+02  0.84620110561E+02  0.00000000000E+00 0.  1.
</event>
<event>
 7    1  0.5931885E-006  0.6470335E+02  0.7818608E-02  0.1431406E+00
          2   -1    0    0  502    0  0.00000000000E+00  0.00000000000E+00  0.14064815082E+04  0.14064815082E+04  0.00000000000E+00 0. -1.
          1   -1    0    0  501    0 -0.00000000000E+00 -0.00000000000E+00 -0.73197986067E+02  0.73197986067E+02  0.00000000000E+00 0. -1.
         25    2    1    2    0    0  0.18021877496E+02  0.68228750100E+02  0.16391577614E+03  0.21788300161E+03  0.12499868124E+03 0.  0.
          2    1    1    2  501    0  0.24228028872E+02 -0.60853395472E+02 -0.22425518112E+02  0.69231762841E+02  0.00000000000E+00 0. -1.
          1    1    1    2  502    0 -0.42249906368E+02 -0.73753546275E+01  0.11917932641E+04  0.11925647298E+04  0.00000000000E+00 0. -1.
         22    1    3    3    0    0  0.29823836597E+02  0.86930012171E+02  0.17144356902E+03  0.19452296934E+03  0.00000000000E+00 0. -1.
         22    1    3    3    0    0 -0.11801959101E+02 -0.18701262071E+02 -0.75277928766E+01  0.23360032261E+02  0.00000000000E+00 0. -1.
</event>
<event>
 7    1  0.5931885E-006  0.6247402E+02  0.7818608E-02  0.1513470E+00
          2   -1    0    0  502    0  0.00000000000E+00  0.00000000000E+00  0.46381193822E+03  0.46381193822E+03  0.00000000000E+00 0. -1.
          1   -1    0    0  501    0 -0.00000000000E+00 -0.00000000000E+00 -0.95013407014E+03  0.95013407014E+03  0.00000000000E+00 0. -1.
         25    2    1    2    0    0  0.30672515774E+02  0.62260593856E+02  0.95542579842E+02  0.17196370793E+03  0.12500378998E+03 0.  0.
          2    1    1    2  501    0 -0.59578140825E+01 -0.62169466194E+02 -0.91038947722E+03  0.91252919860E+03  0.00000000000E+00 0. -1.
          1    1    1    2  502    0 -0.24714701692E+02 -0.91127662139E-01  0.32852476546E+03  0.32945310183E+03  0.00000000000E+00 0. -1.
         22    1    3    3    0    0 -0.34092748574E+02  0.63502924694E+02  0.25238708045E+02  0.76367069695E+02  0.00000000000E+00 0.  1.
         22    1    3    3    0    0  0.64765264348E+02 -0.12423308379E+01  0.70303871797E+02  0.95596638234E+02  0.00000000000E+00 0.  1.
</event>
<event>
 7    1  0.5931885E-006  0.1231395E+03  0.7818608E-02  0.1328628E+00
          2   -1    0    0  502    0  0.00000000000E+00  0.00000000000E+00  0.12926124073E+04  0.12926124073E+04  0.00000000000E+00 0. -1.
          1   -1    0    0  501    0 -0.00000000000E+00 -0.00000000000E+00 -0.55940659041E+03  0.55940659041E+03  0.00000000000E+00 0. -1.
         25    2    1    2    0    0 -0.45034320029E+02  0.96777900770E+02  0.12931931422E+03  0.20914925544E+03  0.12500349581E+03 0.  0.
          2    1    1    2  501    0  0.43650687448E+02  0.28567615978E+02 -0.51467202353E+03  0.51730917545E+03  0.00000000000E+00 0. -1.
          1    1    1    2  502    0  0.13836325813E+01 -0.12534551675E+03  0.11185585262E+04  0.11255605668E+04  0.00000000000E+00 0. -1.
         22    1    3    3    0    0 -0.31219464783E+02  0.11866322588E+03  0.62938676105E+02  0.13790175165E+03  0.00000000000E+00 0.  1.
         22    1    3    3    0    0 -0.13814855246E+02 -0.21885325110E+02  0.66380638111E+02  0.71247503793E+02  0.00000000000E+00 0.  1.
</event>
<event>
 7    1  0.5931885E-006  0.2255303E+03  0.7818608E-02  0.1271868E+00
          2   -1    0    0  502    0  0.00000000000E+00  0.00000000000E+00  0.28805465271E+04  0.28805465271E+04  0.00000000000E+00 0. -1.
          1   -1    0    0  501    0 -0.00000000000E+00 -0.00000000000E+00 -0.10552264600E+03  0.10552264600E+03  0.00000000000E+00 0. -1.
         25    2    1    2    0    0 -0.97174667999E+02  0.16983837091E+03  0.80266222524E+03  0.83557144347E+03  0.12500000395E+03 0.  0.
          2    1    1    2  501    0  0.83314152955E+02 -0.21586302986E+03  0.62019074789E+02  0.23955054035E+03  0.00000000000E+00 0. -1.
          1    1    1    2  502    0  0.13860515043E+02  0.46024658952E+02  0.19103425811E+04  0.19109471893E+04  0.00000000000E+00 0. -1.
         22    1    3    3    0    0 -0.59392937445E+02  0.18200934004E+03  0.69240343527E+03  0.71838529916E+03  0.00000000000E+00 0. -1.
         22    1    3    3    0    0 -0.37781730554E+02 -0.12170969125E+02  0.11025878997E+03  0.11718614431E+03  0.00000000000E+00 0. -1.
</event>
<event>
 7    1  0.5931885E-006  0.7842084E+02  0.7818608E-02  0.1348780E+00
          2   -1    0    0  502    0  0.00000000000E+00  0.00000000000E+00  0.45563985669E+03  0.45563985669E+03  0.00000000000E+00 0. -1.
          1   -1    0    0  501    0 -0.00000000000E+00 -0.00000000000E+00 -0.87227745189E+02  0.87227745189E+02  0.00000000000E+00 0. -1.
         25    2    1    2    0    0  0.94281898692E+01 -0.22063578442E+02  0.11502239146E+03  0.17155433156E+03  0.12500018352E+03 0.  0.
          2    1    1    2  501    0  0.23061303136E+02 -0.64788301302E+02 -0.28590937535E+02  0.74476770855E+02  0.00000000000E+00 0. -1.
          1    1    1    2  502    0 -0.32489493005E+02  0.86851879744E+02  0.28198065757E+03  0.29683649947E+03  0.00000000000E+00 0. -1.
         22    1    3    3    0    0 -0.47178619188E+02  0.14488328552E+02  0.83883124295E+02  0.97324777494E+02  0.00000000000E+00 0.  1.
         22    1    3    3    0    0  0.56606809057E+02 -0.36551906994E+02  0.31139267168E+02  0.74229554063E+02  0.00000000000E+00 0.  1.
</event>
<event>
 7    1  0.5931885E-006  0.8402222E+02  0.7818608E-02  0.1439435E+00
          2   -1    0    0  502    0  0.00000000000E+00  0.00000000000E+00  0.21559230164E+03  0.21559230164E+03  0.00000000000E+00 0. -1.
          1   -1    0    0  501    0 -0.00000000000E+00 -0.00000000000E+00 -0.22738923116E+04  0.22738923116E+04  0.00000000000E+00 0. -1.
         25    2    1    2    0    0 -0.91975463401E+01  0.57380234717E+02 -0.58141062933E+01  0.13797117947E+03  0.12500062535E+03 0.  0.
          2    1    1    2  501    0  0.12712575215E+01  0.31065956388E+02 -0.21886941765E+04  0.21889150070E+04  0.00000000000E+00 0. -1.
          1    1    1    2  502    0  0.79262888186E+01 -0.88446191105E+02  0.13620827286E+03  0.16259842672E+03  0.00000000000E+00 0. -1.
         22    1    3    3    0    0 -0.47629019519E+02  0.48138818002E+02 -0.45794824640E+02  0.81749833411E+02  0.00000000000E+00 0.  1.
         22    1    3    3    0    0  0.38431473179E+02  0.92414167151E+01  0.39980718346E+02  0.56221346062E+02  0.00000000000E+00 0.  1.
</event>
<event>
 7    1  0.5931885E-006  0.1136220E+03  0.7818608E-02  0.1341616E+00
          2   -1    0    0  502    0  0.00000000000E+00  0.00000000000E+00  0.24612060548E+03  0.24612060548E+03  0.00000000000E+00 0. -1.
          1   -1    0    0  501    0 -0.00000000000E+00 -0.00000000000E+00 -0.94661707954E+03  0.94661707954E+03  0.00000000000E+00 0. -1.
         25    2    1    2    0    0  0.60355377314E+02 -0.22227997801E+02  0.13106421185E+03  0.19219645053E+03  0.12499917004E+03 0.  0.
          2    1    1    2  501    0 -0.10638969145E+03  0.42938634559E+02 -0.90455020646E+03  0.91179689009E+03  0.00000000000E+00 0. -1.
          1    1    1    2  502    0  0.46034314135E+02 -0.20710636758E+02  0.72989520550E+02  0.88744344400E+02  0.00000000000E+00 0. -1.
         22    1    3    3    0    0 -0.12018554823E+02  0.34124976500E+02  0.53453348113E+01  0.36572288490E+02  0.00000000000E+00 0. -1.
         22    1    3    3    0    0  0.72373932137E+02 -0.56352974300E+02  0.12571887704E+03  0.15562416204E+03  0.00000000000E+00 0. -1.
</event>
<event>
 7    1  0.5931885E-006  0.1774258E+03  0.7818608E-02  0.1314957E+00
          2   -1    0    0  502    0  0.00000000000E+00  0.00000000000E+00  0.13596548506E+04  0.13596548506E+04  0.00000000000E+00 0. -1.
          1   -1    0    0  501    0 -0.00000000000E+00 -0.00000000000E+00 -0.12507479148E+04  0.12507479148E+04  0.00000000000E+00 0. -1.
         25    2    1    2    0    0 -0.12991638362E+03  0.74172931009E+02 -0.17573499495E+03  0.26246671151E+03  0.12500438303E+03 0.  0.
          2    1    1    2  501    0  0.17017354672E+03 -0.66974059940E+02 -0.10232202822E+04  0.10394346091E+04  0.00000000000E+00 0. -1.
          1    1    1    2  502    0 -0.40257163103E+02 -0.71988710690E+01  0.13078622129E+04  0.13085014447E+04  0.00000000000E+00 0. -1.
         22    1    3    3    0    0 -0.71867668499E+02 -0.22533423345E+01 -0.14473631706E+03  0.16161262575E+03  0.00000000000E+00 0.  1.
         22    1    3    3    0    0 -0.58048715117E+02  0.76426273343E+02 -0.30998677892E+02  0.10085408576E+03  0.00000000000E+00 0.  1.
</event>
<event>
 7    1  0.5931885E-006  0.4638016E+02  0.7818608E-02  0.1493790E+00
          2   -1    0    0  502    0  0.00000000000E+00  0.00000000000E+00  0.69262132463E+03  0.69262132463E+03  0.00000000000E+00 0. -1.
          1   -1    0    0  501    0 -0.00000000000E+00 -0.00000000000E+00 -0.18199866088E+04  0.18199866088E+04  0.00000000000E+00 0. -1.
         25    2    1    2    0    0 -0.78503124585E+01 -0.42853441691E+02 -0.37491764134E+02  0.13757984080E+03  0.12499814137E+03 0.  0.
          2    1    1    2  501    0 -0.32566561468E+02  0.19747625106E+02 -0.17313978632E+04  0.17318167080E+04  0.00000000000E+00 0. -1.
          1    1    1    2  502    0  0.40416873926E+02  0.23105816585E+02  0.64152434313E+03  0.64321138460E+03  0.00000000000E+00 0. -1.
         22    1    3    3    0    0 -0.40900576791E+02  0.74069267665E+01 -0.60308100183E+02  0.73244704202E+02  0.00000000000E+00 0. -1.
         22    1    3    3    0    0  0.33050264332E+02 -0.50260368457E+02  0.22816336049E+02  0.64335136594E+02  0.00000000000E+00 0. -1.
</event>
<event>
 7    1  0.5931885E-006  0.2286175E+03  0.7818608E-02  0.1290736E+00
          2   -1    0    0  502    0  0.00000000000E+00  0.00000000000E+00  0.29198347693E+03  0.29198347693E+03  0.00000000000E+00 0. -1.
          1   -1    0    0  501    0 -0.00000000000E+00 -0.00000000000E+00 -0.26119318736E+04  0.26119318736E+04  0.00000000000E+00 0. -1.
         25    2    1    2    0    0 -0.19348282954E+03  0.62954241756E+02 -0.72919066891E+03  0.76729567447E+03  0.12499911423E+03 0.  0.
          2    1    1    2  501    0 -0.33161827313E+02 -0.21715736073E+02 -0.18148239605E+04  0.18152568104E+04  0.00000000000E+00 0. -1.
          1    1    1    2  502    0  0.22664465685E+03 -0.41238505683E+02  0.22406623270E+03  0.32136286573E+03  0.00000000000E+00 0. -1.
         22    1    3    3    0    0 -0.24231401942E+02  0.48161180658E+02 -0.31555548938E+03  0.32012798541E+03  0.00000000000E+00 0. -1.
         22    1    3    3    0    0 -0.16925142760E+03  0.14793061097E+02 -0.41363517953E+03  0.44716768906E+03  0.00000000000E+00 0. -1.
</event>
<event>
 7    1  0.5931885E-006  0.1531400E+03  0.7818608E-02  0.1267657E+00
          2   -1    0    0  502    0  0.00000000000E+00  0.00000000000E+00  0.49275764887E+03  0.49275764887E+03  0.00000000000E+00 0. -1.
          1   -1    0    0  501    0 -0.00000000000E+00 -0.00000000000E+00 -0.31503869559E+03  0.31503869559E+03  0.00000000000E+00 0. -1.
         25    2    1    2    0    0 -0.31293774188E+02  0.12350470530E+03  0.27773764533E+02  0.18063575455E+03  0.12500072516E+03 0.  0.
          2    1    1    2  501    0 -0.32975359187E+02 -0.15964009261E+03 -0.20654700482E+03  0.26312354263E+03  0.00000000000E+00 0. -1.
          1    1    1    2  502    0  0.64269133375E+02  0.36135387310E+02  0.35649219357E+03  0.36403704729E+03  0.00000000000E+00 0. -1.
         22    1    3    3    0    0 -0.64348639681E+02  0.53089879516E+02  0.53030315507E+02  0.98850883145E+02  0.00000000000E+00 0. -1.
         22    1    3    3    0    0  0.33054865493E+02  0.70414825787E+02 -0.25256550974E+02  0.81784871403E+02  0.00000000000E+00 0. -1.
</event>
<event>
 7    1  0.5931885E-006  0.5049968E+02  0.7818608E-02  0.1521413E+00
          2   -1    0    0  502    0  0.00000000000E+00  0.00000000000E+00  0.47310869051E+03  0.47310869051E+03  0.00000000000E+00 0. -1.
          1   -1    0    0  501    0 -0.00000000000E+00 -0.00000000000E+00 -0.13883529986E+03  0.13883529986E+03  0.00000000000E+00 0. -1.
         25    2    1    2    0    0 -0.29140944072E+02 -0.17788858405E+02  0.58481996124E+02  0.14217145014E+03  0.12500775679E+03 0.  0.
          2    1    1    2  501    0  0.51978267395E+02 -0.65617430019E-01 -0.89410809635E+02  0.10342164893E+03  0.00000000000E+00 0. -1.
          1    1    1    2  502    0 -0.22837323323E+02  0.17854475835E+02  0.36520220416E+03  0.36635089131E+03  0.00000000000E+00 0. -1.
         22    1    3    3    0    0  0.42894784276E+01 -0.39505411293E+02 -0.26869421355E+02  0.47969187512E+02  0.00000000000E+00 0.  1.
         22    1    3    3    0    0 -0.33430422500E+02  0.21716552888E+02  0.85351417479E+02  0.94202262624E+02  0.00000000000E+00 0.  1.
</event>
<event>
 7    1  0.5931885E-006  0.1202726E+03  0.7818608E-02  0.1381594E+00
          2   -1    0    0  502    0  0.00000000000E+00  0.00000000000E+00  0.26629320997E+04  0.26629320997E+04  0.00000000000E+00 0. -1.
          1   -1    0    0  501    0 -0.00000000000E+00 -0.00000000000E+00 -0.25005717949E+04  0.25005717949E+04  0.00000000000E+00 0. -1.
         25    2    1    2    0    0  0.13906571602E+02 -0.98611020401E+02 -0.13027932425E+03  0.20618910900E+03  0.12499488095E+03 0.  0.
          2    1    1    2  501    0 -0.26739490368E+02 -0.21170666813E+02 -0.23308306179E+04  0.23310801288E+04  0.00000000000E+00 0. -1.
          1    1    1    2  502    0  0.12832918766E+02  0.11978168721E+03  0.26234702470E+04  0.26262346569E+04  0.00000000000E+00 0. -1.
         22    1    3    3    0    0 -0.19350866383E+02 -0.11177368347E+03 -0.12698028816E+03  0.17026980333E+03  0.00000000000E+00 0.  1.
         22    1    3    3    0    0  0.33257437984E+02  0.13162663069E+02 -0.32990360911E+01  0.35919305665E+02  0.00000000000E+00 0.  1.
</event>
<event>
 7    1  0.5931885E-006  0.1023257E+03  0.7818608E-02  0.1307979E+00
          2   -1    0    0  502    0  0.00000000000E+00  0.00000000000E+00  0.14635725309E+03  0.14635725309E+03  0.00000000000E+00 0. -1.
          1   -1    0    0  501    0 -0.00000000000E+00 -0.00000000000E+00 -0.26174211956E+03  0.26174211956E+03  0.00000000000E+00 0. -1.
         25    2    1    2    0    0 -0.62523755981E+02 -0.13644342327E+03 -0.40149242859E+02  0.19942341994E+03  0.12502684073E+03 0.  0.
          2    1    1    2  501    0 -0.31440112413E+01  0.75469557610E+02 -0.90386747623E+02  0.11779347638E+03  0.00000000000E+00 0. -1.
          1    1    1    2  502    0  0.65667767222E+02  0.60973865656E+02  0.15151124009E+02  0.90882476329E+02  0.00000000000E+00 0. -1.
         22    1    3    3    0    0 -0.84804136214E+01 -0.46323363129E+02  0.44267640887E+02  0.64632773548E+02  0.00000000000E+00 0. -1.
         22    1    3    3    0    0 -0.54043342360E+02 -0.90120060137E+02 -0.84416883747E+02  0.13479064639E+03  0.00000000000E+00 0. -1.
</event>
<event>
 7    1  0.5931885E-006  0.1227315E+03  0.7818608E-02  0.1278727E+00
          2   -1    0    0  502    0  0.00000000000E+00  0.00000000000E+00  0.85090237281E+03  0.85090237281E+03  0.00000000000E+00 0. -1.
          1   -1    0    0  501    0 -0.00000000000E+00 -0.00000000000E+00 -0.11642704542E+03  0.11642704542E+03  0.00000000000E+00 0. -1.
         25    2    1    2    0    0  0.67179108942E+02  0.51315920727E+02  0.76740955780E+02  0.16929260929E+03  0.12499782746E+03 0.  0.
          2    1    1    2  501    0 -0.14868965717E+03 -0.37308478115E+02  0.19578613127E+02  0.15454403508E+03  0.00000000000E+00 0. -1.
          1    1    1    2  502    0  0.81510548225E+02 -0.14007442612E+02  0.63815575848E+03  0.64349277386E+03  0.00000000000E+00 0. -1.
         22    1    3    3    0    0  0.18837118632E+02  0.56893083597E+02  0.99042538764E+02  0.11576305319E+03  0.00000000000E+00 0. -1.
         22    1    3    3    0    0  0.48341990310E+02 -0.55771628702E+01 -0.22301582984E+02  0.53529556102E+02  0.00000000000E+00 0. -1.
</event>
<event>
 7    1  0.5931885E-006  0.1423843E+03  0.7818608E-02  0.1335265E+00
          2   -1    0    0  502    0  0.00000000000E+00  0.00000000000E+00  0.73275032482E+03  0.73275032482E+03  0.00000000000E+00 0. -1.
          1   -1    0    0  501    0 -0.00000000000E+00 -0.00000000000E+00 -0.41182719112E+03  0.41182719112E+03  0.00000000000E+00 0. -1.
         25    2    1    2    0    0 -0.17927969964E+03 -0.20473919305E+02  0.94832325261E+02  0.23912152102E+03  0.12500215929E+03 0.  0.
          2    1    1    2  501    0  0.42469766387E+02  0.28547290153E+01 -0.32988713129E+03  0.33262193242E+03  0.00000000000E+00 0. -1.
          1    1    1    2  502    0  0.13680993325E+03  0.17619190289E+02  0.55597793973E+03  0.57283406251E+03  0.00000000000E+00 0. -1.
         22    1    3    3    0    0 -0.13273892109E+03 -0.64470216239E+02  0.94206190587E+02  0.17507380244E+03  0.00000000000E+00 0. -1.
         22    1    3    3    0    0 -0.46540778544E+02  0.43996296934E+02  0.62613467391E+00  0.64047718585E+02  0.00000000000E+00 0. -1.
</event>
<event>
 7    1  0.5931885E-006  0.6614887E+02  0.7818608E-02  0.1402851E+00
          2   -1    0    0  502    0  0.00000000000E+00  0.00000000000E+00  0.67379607336E+03  0.67379607336E+03  0.00000000000E+00 0. -1.
          1   -1    0    0  501    0 -0.00000000000E+00 -0.00000000000E+00 -0.16542673327E+03  0.16542673327E+03  0.00000000000E+00 0. -1.
         25    2    1    2    0    0 -0.32665755124E+02  0.14062282408E+02 -0.73373721840E+02  0.14924286012E+03  0.12499971559E+03 0.  0.
          2    1    1    2  501    0 -0.26569572241E+02 -0.45052297226E+02 -0.39253793127E+02  0.65395045143E+02  0.00000000000E+00 0. -1.
          1    1    1    2  502    0  0.59235327365E+02  0.30990014817E+02  0.62099685505E+03  0.62458490137E+03  0.00000000000E+00 0. -1.
         22    1    3    3    0    0 -0.78731361066E+02  0.33595646607E+01 -0.27793504505E+02  0.83560713154E+02  0.00000000000E+00 0. -1.
         22    1    3    3    0    0  0.46065605943E+02  0.10702717747E+02 -0.45580217335E+02  0.65682146968E+02  0.00000000000E+00 0. -1.
</event>
<event>
 7    1  0.5931885E-006  0.5604692E+02  0.7818608E-02  0.1444744E+00
          2   -1    0    0  502    0  0.00000000000E+00  0.00000000000E+00  0.60690091932E+03  0.60690091932E+03  0.00000000000E+00 0. -1.
          1   -1    0    0  501    0 -0.00000000000E+00 -0.00000000000E+00 -0.33796639933E+03  0.33796639933E+03  0.00000000000E+00 0. -1.
         25    2    1    2    0    0 -0.46343269847E+02  0.16777486744E+02 -0.17010738807E+03  0.21679406475E+03  0.12503583613E+03 0.  0.
          2    1    1    2  501    0  0.26774760090E+02  0.35923356253E+02 -0.13964796228E+03  0.14665922634E+03  0.00000000000E+00 0. -1.
          1    1    1    2  502    0  0.19568509757E+02 -0.52700842997E+02  0.57868987033E+03  0.58141402756E+03  0.00000000000E+00 0. -1.
         22    1    3    3    0    0 -0.39012168718E+02  0.51238623591E+02 -0.16975478702E+03  0.18155999993E+03  0.00000000000E+00 0. -1.
         22    1    3    3    0    0 -0.73311011287E+01 -0.34461136848E+02 -0.35260104064E+00  0.35234064825E+02  0.00000000000E+00 0. -1.
</event>
<event>
 7    1  0.5931885E-006  0.6346861E+02  0.7818608E-02  0.1396338E+00
          2   -1    0    0  502    0  0.00000000000E+00  0.00000000000E+00  0.85028019974E+03  0.85028019974E+03  0.00000000000E+00 0. -1.
          1   -1    0    0  501    0 -0.00000000000E+00 -0.00000000000E+00 -0.11434522888E+04  0.11434522888E+04  0.00000000000E+00 0. -1.
         25    2    1    2    0    0 -0.90545941293E+01  0.13922725690E+02 -0.76499266997E+02  0.14748848087E+03  0.12499954469E+03 0.  0.
          2    1    1    2  501    0  0.65022314046E+02 -0.11852843399E+01 -0.10294201661E+04  0.10314723383E+04  0.00000000000E+00 0. -1.
          1    1    1    2  502    0 -0.55967719917E+02 -0.12737441350E+02  0.81274734403E+03  0.81477166943E+03  0.00000000000E+00 0. -1.
         22    1    3    3    0    0 -0.46928570097E+01 -0.55455318484E+02 -0.42959173900E+02  0.70305091403E+02  0.00000000000E+00 0.  1.
         22    1    3    3    0    0 -0.43617371196E+01  0.69378044174E+02 -0.33540093098E+02  0.77183389463E+02  0.00000000000E+00 0.  1.
</event>
<event>
 7    1  0.5931885E-006  0.1678946E+03  0.7818608E-02  0.1210867E+00
          2   -1    0    0  502    0  0.00000000000E+00  0.00000000000E+00  0.18658743339E+04  0.18658743339E+04  0.00000000000E+00 0. -1.
          1   -1    0    0  501    0 -0.00000000000E+00 -0.00000000000E+00 -0.46334178294E+03  0.46334178294E+03  0.00000000000E+00 0. -1.
         25    2    1    2    0    0 -0.94680791727E+02  0.25728610630E+03  0.65035388174E+02  0.30824361561E+03  0.12499572804E+03 0.  0.
          2    1    1    2  501    0  0.33921109278E+02 -0.15399262740E+03 -0.32127058406E+03  0.35788148755E+03  0.00000000000E+00 0. -1.
          1    1    1    2  502    0  0.60759682449E+02 -0.10329347891E+03  0.16587677468E+04  0.16630910137E+04  0.00000000000E+00 0. -1.
         22    1    3    3    0    0 -0.96686245994E+01  0.86333315940E+02 -0.33845771106E+02  0.93233362937E+02  0.00000000000E+00 0. -1.
         22    1    3    3    0    0 -0.85012167128E+02  0.17095279036E+03  0.98881159281E+02  0.21501025267E+03  0.00000000000E+00 0. -1.
</event>
<event>
 7    1  0.5931885E-006  0.1445867E+03  0.7818608E-02  0.1298783E+00
          2   -1    0    0  502    0  0.00000000000E+00  0.00000000000E+00  0.31369205494E+04  0.31369205494E+04  0.00000000000E+00 0. -1.
          1   -1    0    0  501    0 -0.00000000000E+00 -0.00000000000E+00 -0.10700414354E+04  0.10700414354E+04  0.00000000000E+00 0. -1.
         25    2    1    2    0    0 -0.15939422519E+03  0.11144033523E+03  0.15753038730E+02  0.23173092228E+03  0.12500237906E+03 0.  0.
          2    1    1    2  501    0  0.29198164405E+02 -0.50299446190E+02 -0.95945486136E+03  0.96121599970E+03  0.00000000000E+00 0. -1.
          1    1    1    2  502    0  0.13019606078E+03 -0.61140889040E+02  0.30105809367E+04  0.30140150628E+04  0.00000000000E+00 0. -1.
         22    1    3    3    0    0 -0.99942236552E+02  0.96026950266E+02 -0.44624636911E+02  0.14560557697E+03  0.00000000000E+00 0.  1.
         22    1    3    3    0    0 -0.59451988638E+02  0.15413384964E+02  0.60377675640E+02  0.86125345311E+02  0.00000000000E+00 0.  1.
</event>
<event>
 7    1  0.5931885E-006  0.1695058E+03  0.7818608E-02  0.1247981E+00
          2   -1    0    0  502    0  0.00000000000E+00  0.00000000000E+00  0.84686790895E+03  0.84686790895E+03  0.00000000000E+00 0. -1.
          1   -1    0    0  501    0 -0.00000000000E+00 -0.00000000000E+00 -0.91824649327E+03  0.91824649327E+03  0.00000000000E+00 0. -1.
         25    2    1    2    0    0 -0.35923784600E+02  0.19627247461E+03 -0.13423060474E+03  0.27102695253E+03  0.12499740462E+03 0.  0.
          2    1    1    2  501    0  0.74346565479E+02 -0.31842301986E+02 -0.70411854849E+03  0.70874838576E+03  0.00000000000E+00 0. -1.
          1    1    1    2  502    0 -0.38422780879E+02 -0.16443017262E+03  0.76697056891E+03  0.78533906393E+03  0.00000000000E+00 0. -1.
         22    1    3    3    0    0 -0.22667959673E+02 -0.39053725015E+01 -0.46879586258E+02  0.52218616774E+02  0.00000000000E+00 0.  1.
         22    1    3    3    0    0 -0.13255824928E+02  0.20017784711E+03 -0.87351018479E+02  0.21880833576E+03  0.00000000000E+00 0.  1.
</event>
<event>
 7    1  0.5931885E-006  0.3579282E+02  0.7818608E-02  0.1580115E+00
          2   -1    0    0  502    0  0.00000000000E+00  0.00000000000E+00  0.18645551818E+03  0.18645551818E+03  0.00000000000E+00 0. -1.
          1   -1    0    0  501    0 -0.00000000000E+00 -0.00000000000E+00 -0.48021980086E+03  0.48021980086E+03  0.00000000000E+00 0. -1.
         25    2    1    2    0    0  0.57657664015E+02 -0.24321746674E+02 -0.55639207271E+02  0.15043822174E+03  0.12497993277E+03 0.  0.
          2    1    1    2  501    0 -0.30267089742E+02  0.18232232615E+02 -0.37492643328E+03  0.37658776055E+03  0.00000000000E+00 0. -1.
          1    1    1    2  502    0 -0.27390574274E+02  0.60895140584E+01  0.13680135786E+03  0.13964933675E+03  0.00000000000E+00 0. -1.
         22    1    3    3    0    0 -0.53208455470E+01 -0.56861828310E+02 -0.55376305868E+02  0.79549444798E+02  0.00000000000E+00 0.  1.
         22    1    3    3    0    0  0.62978509562E+02  0.32540081636E+02 -0.26290140360E+00  0.70888776945E+02  0.00000000000E+00 0.  1.
</event>
<event>
 7    1  0.5931885E-006  0.8929423E+02  0.7818608E-02  0.1432748E+00
          2   -1    0    0  502    0  0.00000000000E+00  0.00000000000E+00  0.27085544628E+03  0.27085544628E+03  0.00000000000E+00 0. -1.
          1   -1    0    0  501    0 -0.00000000000E+00 -0.00000000000E+00 -0.14498563778E+03  0.14498563778E+03  0.00000000000E+00 0. -1.
         25    2    1    2    0    0  0.55271662345E+02  0.59177008465E+02  0.78877725392E+02  0.16853313556E+03  0.12499938892E+03 0.  0.
          2    1    1    2  501    0  0.26826754619E+02 -0.15058489589E+02 -0.82335867096E+02  0.87895550982E+02  0.00000000000E+00 0. -1.
          1    1    1    2  502    0 -0.82098416964E+02 -0.44118518876E+02  0.12932795021E+03  0.15941239751E+03  0.00000000000E+00 0. -1.
         22    1    3    3    0    0  0.72857413651E+02  0.75392156720E+02  0.93515283057E+02  0.14048945933E+03  0.00000000000E+00 0.  1.
         22    1    3    3    0    0 -0.17585751305E+02 -0.16215148254E+02 -0.14637557665E+02  0.28043676226E+02  0.00000000000E+00 0.  1.
</event>
<event>
 7    1  0.5931885E-006  0.7721724E+02  0.7818608E-02  0.1393065E+00
          2   -1    0    0  502    0  0.00000000000E+00  0.00000000000E+00  0.96870041521E+03  0.96870041521E+03  0.00000000000E+00 0. -1.
          1   -1    0    0  501    0 -0.00000000000E+00 -0.00000000000E+00 -0.69064566380E+02  0.69064566380E+02  0.00000000000E+00 0. -1.
         25    2    1    2    0    0 -0.42554739623E+02 -0.14745505640E+02  0.60476146831E+03  0.61918534169E+03  0.12500287198E+03 0.  0.
          2    1    1    2  501    0  0.47611031123E+02  0.62907966111E+02 -0.34180867028E+02  0.85979963687E+02  0.00000000000E+00 0. -1.
          1    1    1    2  502    0 -0.50562915004E+01 -0.48162460470E+02  0.32905524755E+03  0.33259967622E+03  0.00000000000E+00 0. -1.
         22    1    3    3    0    0 -0.29818052574E+02  0.49804315275E+02  0.17397994712E+03  0.18340830973E+03  0.00000000000E+00 0. -1.
         22    1    3    3    0    0 -0.12736687048E+02 -0.64549820915E+02  0.43078152119E+03  0.43577703195E+03  0.00000000000E+00 0. -1.
</event>
<event>
 7    1  0.5931885E-006  0.2018239E+03  0.7818608E-02  0.1222865E+00
          2   -1    0    0  502    0  0.00000000000E+00  0.00000000000E+00  0.22240388828E+04  0.22240388828E+04  0.00000000000E+00 0. -1.
          1   -1    0    0  501    0 -0.00000000000E+00 -0.00000000000E+00 -0.19308667331E+04  0.19308667331E+04  0.00000000000E+00 0. -1.
         25    2    1    2    0    0  0.70069388679E+02 -0.27934506415E+03 -0.32624135095E+03  0.45276996375E+03  0.12499534755E+03 0.  0.
          2    1    1    2  501    0 -0.12762425212E+02  0.86901969621E+02 -0.15354384496E+04  0.15379486546E+04  0.00000000000E+00 0. -1.
          1    1    1    2  502    0 -0.57306963467E+02  0.19244309453E+03  0.21548519502E+04  0.21641869975E+04  0.00000000000E+00 0. -1.
         22    1    3    3    0    0  0.74691080675E+02 -0.24748792465E+03 -0.21274748990E+03  0.33479923064E+03  0.00000000000E+00 0.  1.
         22    1    3    3    0    0 -0.46216919964E+01 -0.31857139502E+02 -0.11349386105E+03  0.11797073311E+03  0.00000000000E+00 0.  1.
</event>
<event>
 7    1  0.5931885E-006  0.8451829E+02  0.7818608E-02  0.1394427E+00
          2   -1    0    0  502    0  0.00000000000E+00  0.00000000000E+00  0.27421228582E+04  0.27421228582E+04  0.00000000000E+00 0. -1.
          1   -1    0    0  501    0 -0.00000000000E+00 -0.00000000000E+00 -0.81613450505E+02  0.81613450505E+02  0.00000000000E+00 0. -1.
         25    2    1    2    0    0  0.65556295086E+02 -0.87622503966E+02  0.67607532500E+02  0.17936559143E+03  0.12500362359E+03 0.  0.
          2    1    1    2  501    0 -0.25346724677E+02  0.70343548051E+02  0.29160592551E+02  0.80255911696E+02  0.00000000000E+00 0. -1.
          1    1    1    2  502    0 -0.40209570409E+02  0.17278955915E+02  0.25637412827E+04  0.25641148056E+04  0.00000000000E+00 0. -1.
         22    1    3    3    0    0 -0.24198189202E+02 -0.69085756058E+02  0.19009053046E+02  0.75628950465E+02  0.00000000000E+00 0.  1.
         22    1    3    3    0    0  0.89754484289E+02 -0.18536747908E+02  0.48598479454E+02  0.10373664096E+03  0.00000000000E+00 0.  1.
</event>
<event>
 7    1  0.5931885E-006  0.1448207E+03  0.7818608E-02  0.1280578E+00
          2   -1    0    0  502    0  0.00000000000E+00  0.00000000000E+00  0.12603499192E+04  0.12603499192E+04  0.00000000000E+00 0. -1.
          1   -1    0    0  501    0 -0.00000000000E+00 -0.00000000000E+00 -0.80205442120E+03  0.80205442120E+03  0.00000000000E+00 0. -1.
         25    2    1    2    0    0 -0.17059711682E+03 -0.11213960132E+02 -0.40633663366E+03  0.45821950010E+03  0.12500608484E+03 0.  0.
          2    1    1    2  501    0  0.12210653800E+03  0.60113478831E+02 -0.35624951281E+03  0.38136249467E+03  0.00000000000E+00 0. -1.
          1    1    1    2  502    0  0.48490578821E+02 -0.48899518699E+02  0.12208816445E+04  0.12228223456E+04  0.00000000000E+00 0. -1.
         22    1    3    3    0    0 -0.15802950914E+03 -0.33550881114E+02 -0.40061028964E+03  0.43195785854E+03  0.00000000000E+00 0.  1.
         22    1    3    3    0    0 -0.12567607677E+02  0.22336920983E+02 -0.57263440154E+01  0.26261641561E+02  0.00000000000E+00 0.  1.
</event>
<event>
 7    1  0.5931885E-006  0.6139536E+02  0.7818608E-02  0.1416601E+00
          2   -1    0    0  502    0  0.00000000000E+00  0.00000000000E+00  0.65693488531E+03  0.65693488531E+03  0.00000000000E+00 0. -1.
          1   -1    0    0  501    0 -0.00000000000E+00 -0.00000000000E+00 -0.29429771417E+03  0.29429771417E+03  0.00000000000E+00 0. -1.
         25    2    1    2    0    0  0.49423562118E+00 -0.28780956475E+02  0.13989567457E+03  0.18979995705E+03  0.12499854482E+03 0.  0.
          2    1    1    2  501    0  0.48726880816E+02 -0.13704756935E+02 -0.26478987217E+03  0.26958450564E+03  0.00000000000E+00 0. -1.
          1    1    1    2  502    0 -0.49221116437E+02  0.42485713411E+02  0.48753136875E+03  0.49184813678E+03  0.00000000000E+00 0. -1.
         22    1    3    3    0    0 -0.20537399079E+02  0.43046260155E+02  0.83222857785E+02  0.95920849309E+02  0.00000000000E+00 0.  1.
         22    1    3    3    0    0  0.21031634700E+02 -0.71827216630E+02  0.56672816787E+02  0.93879107737E+02  0.00000000000E+00 0.  1.
</event>
<event>
 7    1  0.5931885E-006  0.1977886E+03  0.7818608E-02  0.1244668E+00
          2   -1    0    0  502    0  0.00000000000E+00  0.00000000000E+00  0.11433012221E+04  0.11433012221E+04  0.00000000000E+00 0. -1.
          1   -1    0    0  501    0 -0.00000000000E+00 -0.00000000000E+00 -0.14546983504E+04  0.14546983504E+04  0.00000000000E+00 0. -1.
         25    2    1    2    0    0  0.14192389130E+03 -0.20977262498E+03  0.49026971365E+03  0.56580574144E+03  0.12499919925E+03 0.  0.
          2    1    1    2  501    0 -0.14065078701E+03  0.13812376856E+03 -0.14079534672E+04  0.14216869504E+04  0.00000000000E+00 0. -1.
          1    1    1    2  502    0 -0.12731042858E+01  0.71648856419E+02  0.60628662519E+03  0.61050688063E+03  0.00000000000E+00 0. -1.
         22    1    3    3    0    0  0.98454778455E+02 -0.42983850392E+02  0.15168230473E+03  0.18587220439E+03  0.00000000000E+00 0.  1.
         22    1    3    3    0    0  0.43469112843E+02 -0.16678877459E+03  0.33858740892E+03  0.37993353706E+03  0.00000000000E+00 0.  1.
</event>
<event>
 7    1  0.5931885E-006  0.1301757E+03  0.7818608E-02  0.1303172E+00
          2   -1    0    0  502    0  0.00000000000E+00  0.00000000000E+00  0.96463381781E+03  0.96463381781E+03  0.00000000000E+00 0. -1.
          1   -1    0    0  501    0 -0.00000000000E+00 -0.00000000000E+00 -0.22257412492E+03  0.22257412492E+03  0.00000000000E+00 0. -1.
         25    2    1    2    0    0 -0.76678304181E+02  0.12870873462E+02  0.22550509681E+03  0.26929996290E+03  0.12499879845E+03 0.  0.
          2    1    1    2  501    0  0.13495121715E+03  0.84213195644E+01 -0.17635595187E+03  0.22222549672E+03  0.00000000000E+00 0. -1.
          1    1    1    2  502    0 -0.58272912966E+02 -0.21292193026E+02  0.69291054794E+03  0.69568248312E+03  0.00000000000E+00 0. -1.
         22    1    3    3    0    0 -0.26983781049E+01  0.16853928372E+02 -0.11766073028E+02  0.20731054495E+02  0.00000000000E+00 0. -1.
         22    1    3    3    0    0 -0.73979926076E+02 -0.39830549100E+01  0.23727116984E+03  0.24856890840E+03  0.00000000000E+00 0. -1.
</event>
<event>
 7    1  0.5931885E-006  0.6759088E+02  0.7818608E-02  0.1404111E+00
          2   -1    0    0  502    0  0.00000000000E+00  0.00000000000E+00  0.75755019052E+03  0.75755019052E+03  0.00000000000E+00 0. -1.
          1   -1    0    0  501    0 -0.00000000000E+00 -0.00000000000E+00 -0.11306790444E+04  0.11306790444E+04  0.00000000000E+00 0. -1.
         25    2    1    2    0    0  0.74419084257E+01  0.10892515650E+03  0.22132928123E+03  0.27664349386E+03  0.12499960097E+03 0.  0.
          2    1    1    2  501    0  0.17889674434E+02 -0.65027805846E+02 -0.11007245269E+04  0.11027888013E+04  0.00000000000E+00 0. -1.
          1    1    1    2  502    0 -0.25331582860E+02 -0.43897350651E+02  0.50626639181E+03  0.50879693982E+03  0.00000000000E+00 0. -1.
         22    1    3    3    0    0  0.41446108397E+02  0.79484972630E+02  0.56904680940E+02  0.10617807442E+03  0.00000000000E+00 0. -1.
         22    1    3    3    0    0 -0.34004199971E+02  0.29440183867E+02  0.16442460029E+03  0.17046541943E+03  0.00000000000E+00 0. -1.
</event>
<event>
 7    1  0.5931885E-006  0.8091590E+02  0.7818608E-02  0.1365745E+00
          2   -1    0    0  502    0  0.00000000000E+00  0.00000000000E+00  0.12692345186E+04  0.12692345186E+04  0.00000000000E+00 0. -1.
          1   -1    0    0  501    0 -0.00000000000E+00 -0.00000000000E+00 -0.84596350289E+02  0.84596350289E+02  0.00000000000E+00 0. -1.
         25    2    1    2    0    0  0.45021734344E+02 -0.11486767860E+03  0.28296841979E+03  0.33304220659E+03  0.12499777847E+03 0.  0.
          2    1    1    2  501    0 -0.44993966711E+02  0.36217648258E+02 -0.43527762752E+02  0.72324554723E+02  0.00000000000E+00 0. -1.
          1    1    1    2  502    0 -0.27767632950E-01  0.78650030342E+02  0.94519751125E+03  0.94846410755E+03  0.00000000000E+00 0. -1.
         22    1    3    3    0    0  0.14515036215E+02 -0.12992720649E+03  0.26272023377E+03  0.29345133582E+03  0.00000000000E+00 0. -1.
         22    1    3    3    0    0  0.30506698130E+02  0.15059527894E+02  0.20248186025E+02  0.39590870772E+02  0.00000000000E+00 0. -1.
</event>
<event>
 7    1  0.5931885E-006  0.8657355E+02  0.7818608E-02  0.1432935E+00
          2   -1    0    0  502    0  0.00000000000E+00  0.00000000000E+00  0.10812207668E+04  0.10812207668E+04  0.00000000000E+00 0. -1.
          1   -1    0    0  501    0 -0.00000000000E+00 -0.00000000000E+00 -0.15560492283E+04  0.15560492283E+04  0.00000000000E+00 0. -1.
         25    2    1    2    0    0 -0.33357782364E+02 -0.58996139585E+02  0.11847481712E+03  0.18507694625E+03  0.12499563037E+03 0.  0.
          2    1    1    2  501    0  0.15721200092E+02  0.85320347124E+02 -0.15212418147E+04  0.15237136793E+04  0.00000000000E+00 0. -1.
          1    1    1    2  502    0  0.17636582271E+02 -0.26324207539E+02  0.92793853604E+03  0.92847936951E+03  0.00000000000E+00 0. -1.
         22    1    3    3    0    0 -0.66352610864E+02 -0.15526814777E+02  0.11064282859E+03  0.12994455150E+03  0.00000000000E+00 0.  1.
         22    1    3    3    0    0  0.32994828500E+02 -0.43469324807E+02  0.78319885307E+01  0.55132394754E+02  0.00000000000E+00 0.  1.
</event>
<event>
 7    1  0.5931885E-006  0.9120790E+02  0.7818608E-02  0.1397146E+00
          2   -1    0    0  502    0  0.00000000000E+00  0.00000000000E+00  0.36173601903E+03  0.36173601903E+03  0.00000000000E+00 0. -1.
          1   -1    0    0  501    0 -0.00000000000E+00 -0.00000000000E+00 -0.69550246150E+03  0.69550246150E+03  0.00000000000E+00 0. -1.
         25    2    1    2    0    0  0.91132574669E+02 -0.74723268112E+02 -0.42634748249E+02  0.17700780176E+03  0.12500130865E+03 0.  0.
          2    1    1    2  501    0 -0.51455073354E+02  0.73898503508E+02 -0.58085927871E+03  0.58779768208E+03  0.00000000000E+00 0. -1.
          1    1    1    2  502    0 -0.39677501315E+02  0.82476460406E+00  0.28972758448E+03  0.29243299669E+03  0.00000000000E+00 0. -1.
         22    1    3    3    0    0  0.46480231798E+02 -0.54741016184E+02  0.39088871807E+02  0.81761425501E+02  0.00000000000E+00 0. -1.
         22    1    3    3    0    0  0.44652342870E+02 -0.19982251928E+02 -0.81723620055E+02  0.95246376261E+02  0.00000000000E+00 0. -1.
</event>
<event>
 7    1  0.5931885E-006  0.3210760E+03  0.7818608E-02  0.1300551E+00
          2   -1    0    0  502    0  0.00000000000E+00  0.00000000000E+00  0.23138556943E+03  0.23138556943E+03  0.00000000000E+00 0. -1.
          1   -1    0    0  501    0 -0.00000000000E+00 -0.00000000000E+00 -0.27656522011E+04  0.27656522011E+04  0.00000000000E+00 0. -1.
         25    2    1    2    0    0  0.33229180507E+03  0.22370015049E+02 -0.12219238385E+04  0.12726515032E+04  0.12500288113E+03 0.  0.
          2    1    1    2  501    0 -0.12338983060E+02 -0.22620502139E+02 -0.13939514609E+04  0.13941895900E+04  0.00000000000E+00 0. -1.
          1    1    1    2  502    0 -0.31995282201E+03  0.25048708994E+00  0.81608667695E+02  0.33019667730E+03  0.00000000000E+00 0. -1.
         22    1    3    3    0    0  0.12175910609E+02 -0.27451532865E+02 -0.73278410512E+02  0.79193212480E+02  0.00000000000E+00 0. -1.
         22    1    3    3    0    0  0.32011589447E+03  0.49821547914E+02 -0.11486454280E+04  0.11934582908E+04  0.00000000000E+00 0. -1.
</event>
<event>
 7    1  0.5931885E-006  0.3230725E+02  0.7818608E-02  0.1593725E+00
          2   -1    0    0  502    0  0.00000000000E+00  0.00000000000E+00  0.12652624254E+02  0.12652624254E+02  0.00000000000E+00 0. -1.
          1   -1    0    0  501    0 -0.00000000000E+00 -0.00000000000E+00 -0.10270289642E+04  0.10270289642E+04  0.00000000000E+00 0. -1.
         25    2    1    2    0    0  0.12702356940E+02 -0.74597416670E+00 -0.40659908352E+03  0.42557137104E+03  0.12500508302E+03 0.  0.
          2    1    1    2  501    0  0.23539486775E+02  0.16248150005E+02 -0.46822266533E+03  0.46909548510E+03  0.00000000000E+00 0. -1.
          1    1    1    2  502    0 -0.36241843715E+02 -0.15502175838E+02 -0.13955459114E+03  0.14501473236E+03  0.00000000000E+00 0. -1.
         22    1    3    3    0    0 -0.13494534964E+02  0.34962125221E+01 -0.39715997697E+03  0.39740454613E+03  0.00000000000E+00 0.  1.
         22    1    3    3    0    0  0.26196891905E+02 -0.42421866888E+01 -0.94391065539E+01  0.28166824917E+02  0.00000000000E+00 0.  1.
</event>
<event>
 7    1  0.5931885E-006  0.7559792E+02  0.7818608E-02  0.1381227E+00
          2   -1    0    0  502    0  0.00000000000E+00  0.00000000000E+00  0.18569443614E+03  0.18569443614E+03  0.00000000000E+00 0. -1.
          1   -1    0    0  501    0 -0.00000000000E+00 -0.00000000000E+00 -0.20478122847E+04  0.20478122847E+04  0.00000000000E+00 0. -1.
         25    2    1    2    0    0 -0.10559735432E+03 -0.14732175878E+02 -0.13226795779E+02  0.16482287434E+03  0.12499517404E+03 0.  0.
          2    1    1    2  501    0  0.70484678266E+02 -0.26848047715E+02 -0.19512761394E+04  0.19527333356E+04  0.00000000000E+00 0. -1.
          1    1    1    2  502    0  0.35112676055E+02  0.41580223593E+02  0.10238508666E+03  0.11595051093E+03  0.00000000000E+00 0. -1.
         22    1    3    3    0    0 -0.12816161995E+03 -0.61204648944E+01  0.13244455095E+02  0.12898944341E+03  0.00000000000E+00 0.  1.
         22    1    3    3    0    0  0.22564265633E+02 -0.86117109839E+01 -0.26471250875E+02  0.35833430934E+02  0.00000000000E+00 0.  1.
</event>
<event>
 7    1  0.5931885E-006  0.1246709E+03  0.7818608E-02  0.1410715E+00
          2   -1    0    0  502    0  0.00000000000E+00  0.00000000000E+00  0.35893313723E+03  0.35893313723E+03  0.00000000000E+00 0. -1.
          1   -1    0    0  501    0 -0.00000000000E+00 -0.00000000000E+00 -0.97748210959E+02  0.97748210959E+02  0.00000000000E+00 0. -1.
         25    2    1    2    0    0  0.46991073539E+02  0.10552539736E+03  0.27735647408E+02  0.17244937387E+03  0.12500299969E+03 0.  0.
          2    1    1    2  501    0  0.26056940056E+02 -0.13552881102E+01  0.11742979540E+02  0.28612907916E+02  0.00000000000E+00 0. -1.
          1    1    1    2  502    0 -0.73048013594E+02 -0.10417010925E+03  0.22170629932E+03  0.25561906641E+03  0.00000000000E+00 0. -1.
         22    1    3    3    0    0 -0.12691372249E+02  0.66043520219E+01  0.52397534857E+02  0.54315652020E+02  0.00000000000E+00 0. -1.
         22    1    3    3    0    0  0.59682445787E+02  0.98921045334E+02 -0.24661887450E+02  0.11813372185E+03  0.00000000000E+00 0. -1.
</event>
<event>
 7    1  0.5931885E-006  0.4511568E+02  0.7818608E-02  0.1510511E+00
          2   -1    0    0  502    0  0.00000000000E+00  0.00000000000E+00  0.12267341029E+04  0.12267341029E+04  0.00000000000E+00 0. -1.
          1   -1    0    0  501    0 -0.00000000000E+00 -0.00000000000E+00 -0.75057000856E+03  0.75057000856E+03  0.00000000000E+00 0. -1.
         25    2    1    2    0    0  0.13804030936E+02 -0.71965197481E+02 -0.54753091652E+03  0.56637832369E+03  0.12499904035E+03 0.  0.
          2    1    1    2  501    0 -0.13013599965E+02  0.37058714907E+02 -0.19137006188E+03  0.19535916339E+03  0.00000000000E+00 0. -1.
          1    1    1    2  502    0 -0.79043097076E+00  0.34906482575E+02  0.12150650727E+04  0.12155666243E+04  0.00000000000E+00 0. -1.
         22    1    3    3    0    0  0.48045952976E+01  0.89814262620E+01 -0.37962634644E+03  0.37976296958E+03  0.00000000000E+00 0. -1.
         22    1    3    3    0    0  0.89994356382E+01 -0.80946623743E+02 -0.16790457007E+03  0.18661535411E+03  0.00000000000E+00 0. -1.
</event>
<event>
 7    1  0.5931885E-006  0.1648809E+03  0.7818608E-02  0.1253946E+00
          2   -1    0    0  502    0  0.00000000000E+00  0.00000000000E+00  0.25605612000E+04  0.25605612000E+04  0.00000000000E+00 0. -1.
          1   -1    0    0  501    0 -0.00000000000E+00 -0.00000000000E+00 -0.59793367219E+03  0.59793367219E+03  0.00000000000E+00 0. -1.
         25    2    1    2    0    0  0.19677505547E+02 -0.20482455104E+03  0.14151435795E+04  0.14354775806E+04  0.12499693114E+03 0.  0.
          2    1    1    2  501    0 -0.50474804740E+02  0.59919288558E+02 -0.58029014700E+03  0.58555502026E+03  0.00000000000E+00 0. -1.
          1    1    1    2  502    0  0.30797299192E+02  0.14490526248E+03  0.11277740953E+04  0.11374622713E+04  0.00000000000E+00 0. -1.
         22    1    3    3    0    0  0.17777814128E+02 -0.14220138827E+03  0.56014415638E+03  0.57818574993E+03  0.00000000000E+00 0. -1.
         22    1    3    3    0    0  0.18996914198E+01 -0.62623162767E+02  0.85499942317E+03  0.85729183068E+03  0.00000000000E+00 0. -1.
</event>
<event>
 7    1  0.5931885E-006  0.9429157E+02  0.7818608E-02  0.1343643E+00
          2   -1    0    0  502    0  0.00000000000E+00  0.00000000000E+00  0.10085513695E+03  0.10085513695E+03  0.00000000000E+00 0. -1.
          1   -1    0    0  501    0 -0.00000000000E+00 -0.00000000000E+00 -0.11379331822E+04  0.11379331822E+04  0.00000000000E+00 0. -1.
         25    2    1    2    0    0 -0.85089284953E+02 -0.10783842704E+03 -0.29899775411E+03  0.35198534787E+03  0.12499886156E+03 0.  0.
          2    1    1    2  501    0  0.29516413741E+02  0.85828473879E+02 -0.79742503927E+03  0.80257363454E+03  0.00000000000E+00 0. -1.
          1    1    1    2  502    0  0.55572871213E+02  0.22009953161E+02  0.59344748071E+02  0.84229336793E+02  0.00000000000E+00 0. -1.
         22    1    3    3    0    0 -0.29082558427E+02 -0.32506167094E+02 -0.56464758143E+01  0.43981004910E+02  0.00000000000E+00 0. -1.
         22    1    3    3    0    0 -0.56006726527E+02 -0.75332259946E+02 -0.29335127829E+03  0.30800434296E+03  0.00000000000E+00 0. -1.
</event>
<event>
 7    1  0.5931885E-006  0.8568752E+02  0.7818608E-02  0.1492525E+00
          2   -1    0    0  502    0  0.00000000000E+00  0.00000000000E+00  0.11935566266E+04  0.11935566266E+04  0.00000000000E+00 0. -1.
          1   -1    0    0  501    0 -0.00000000000E+00 -0.00000000000E+00 -0.18516224218E+03  0.18516224218E+03  0.00000000000E+00 0. -1.
         25    2    1    2    0    0 -0.35975514812E+01 -0.69201828471E+02 -0.35154867223E+02  0.14718406148E+03  0.12500179129E+03 0.  0.
          2    1    1    2  501    0 -0.14552206955E+02 -0.14856823635E+02 -0.91195234366E+02  0.93536424493E+02  0.00000000000E+00 0. -1.
          1    1    1    2  502    0  0.18149758436E+02  0.84058652106E+02  0.11347444860E+04  0.11379983828E+04  0.00000000000E+00 0. -1.
         22    1    3    3    0    0 -0.12971955685E+02 -0.59201807890E+02  0.38804883133E+02  0.71964884817E+02  0.00000000000E+00 0. -1.
         22    1    3    3    0    0  0.93744042043E+01 -0.10000020581E+02 -0.73959750356E+02  0.75219176668E+02  0.00000000000E+00 0. -1.
</event>
<event>
 7    1  0.5931885E-006  0.2278781E+03  0.7818608E-02  0.1290806E+00
          2   -1    0    0  502    0  0.00000000000E+00  0.00000000000E+00  0.21539512327E+04  0.21539512327E+04  0.00000000000E+00 0. -1.
          1   -1    0    0  501    0 -0.00000000000E+00 -0.00000000000E+00 -0.26763268544E+03  0.26763268544E+03  0.00000000000E+00 0. -1.
         25    2    1    2    0    0 -0.15470056019E+03 -0.21253900789E+03  0.38364460859E+03  0.48157418642E+03  0.12500167250E+03 0.  0.
          2    1    1    2  501    0  0.13375247070E+03  0.17876659726E+03 -0.16137910831E+03  0.27548218874E+03  0.00000000000E+00 0. -1.
          1    1    1    2  502    0  0.20948089487E+02  0.33772410634E+02  0.16640530470E+04  0.16645275430E+04  0.00000000000E+00 0. -1.
         22    1    3    3    0    0 -0.16536901832E+03 -0.18018060616E+03  0.37272007525E+03  0.44579391825E+03  0.00000000000E+00 0.  1.
         22    1    3    3    0    0  0.10668458125E+02 -0.32358401730E+02  0.10924533333E+02  0.35780268163E+02  0.00000000000E+00 0.  1.
</event>
<event>
 7    1  0.5931885E-006  0.8769410E+02  0.7818608E-02  0.1396299E+00
          2   -1    0    0  502    0  0.00000000000E+00  0.00000000000E+00  0.44585332234E+03  0.44585332234E+03  0.00000000000E+00 0. -1.
          1   -1    0    0  501    0 -0.00000000000E+00 -0.00000000000E+00 -0.10067372215E+04  0.10067372215E+04  0.00000000000E+00 0. -1.
         25    2    1    2    0    0  0.26088955500E+02 -0.62910053738E+02 -0.29817772310E+02  0.14543844243E+03  0.12499973012E+03 0.  0.
          2    1    1    2  501    0  0.41319382753E+02  0.44212020078E+01 -0.91349910609E+03  0.91444379556E+03  0.00000000000E+00 0. -1.
          1    1    1    2  502    0 -0.67408338253E+02  0.58488851730E+02  0.38243297925E+03  0.39270830582E+03  0.00000000000E+00 0. -1.
         22    1    3    3    0    0 -0.50648044903E+02 -0.21244270239E+02 -0.87739324983E+01  0.55619469271E+02  0.00000000000E+00 0.  1.
         22    1    3    3    0    0  0.76737000403E+02 -0.41665783498E+02 -0.21043839812E+02  0.89818973159E+02  0.00000000000E+00 0.  1.
</event>
<event>
 7    1  0.5931885E-006  0.5885080E+02  0.7818608E-02  0.1439787E+00
          2   -1    0    0  502    0  0.00000000000E+00  0.00000000000E+00  0.35771275228E+04  0.35771275228E+04  0.00000000000E+00 0. -1.
          1   -1    0    0  501    0 -0.00000000000E+00 -0.00000000000E+00 -0.89649317262E+02  0.89649317262E+02  0.00000000000E+00 0. -1.
         25    2    1    2    0    0 -0.10212084096E+00 -0.87671103366E+02  0.13639589547E+04  0.13724772625E+04  0.12499429241E+03 0.  0.
          2    1    1    2  501    0  0.25161439340E+02  0.36429030115E+02 -0.79257158518E+02  0.90784742336E+02  0.00000000000E+00 0. -1.
          1    1    1    2  502    0 -0.25059318499E+02  0.51242073251E+02  0.22027764094E+04  0.22035148353E+04  0.00000000000E+00 0. -1.
         22    1    3    3    0    0  0.54504509900E+02 -0.68103917809E+02  0.10138484580E+04  0.10175940158E+04  0.00000000000E+00 0.  1.
         22    1    3    3    0    0 -0.54606630741E+02 -0.19567185557E+02  0.35011049671E+03  0.35488324668E+03  0.00000000000E+00 0.  1.
</event>
<event>
 7    1  0.5931885E-006  0.1366016E+03  0.7818608E-02  0.1363545E+00
          2   -1    0    0  502    0  0.00000000000E+00  0.00000000000E+00  0.64643499105E+03  0.64643499105E+03  0.00000000000E+00 0. -1.
          1   -1    0    0  501    0 -0.00000000000E+00 -0.00000000000E+00 -0.46323794737E+03  0.46323794737E+03  0.00000000000E+00 0. -1.
         25    2    1    2    0    0  0.44922209327E+02  0.16188626007E+03  0.15759498332E+03  0.26207869930E+03  0.12499559900E+03 0.  0.
          2    1    1    2  501    0 -0.26429252778E+02 -0.13235018671E+03 -0.39918348803E+03  0.42138169685E+03  0.00000000000E+00 0. -1.
          1    1    1    2  502    0 -0.18492956549E+02 -0.29536073358E+02  0.42478554839E+03  0.42621254228E+03  0.00000000000E+00 0. -1.
         22    1    3    3    0    0  0.29351205786E+02  0.15256496777E+03  0.66164823673E+02  0.16886487664E+03  0.00000000000E+00 0. -1.
         22    1    3    3    0    0  0.15571003541E+02  0.93212923003E+01  0.91430159646E+02  0.93213822657E+02  0.00000000000E+00 0. -1.
</event>
<event>
 7    1  0.5931885E-006  0.2949548E+03  0.7818608E-02  0.1278572E+00
          2   -1    0    0  502    0  0.00000000000E+00  0.00000000000E+00  0.18295130733E+04  0.18295130733E+04  0.00000000000E+00 0. -1.
          1   -1    0    0  501    0 -0.00000000000E+00 -0.00000000000E+00 -0.18040776274E+04  0.18040776274E+04  0.00000000000E+00 0. -1.
         25    2    1    2    0    0  0.17044362431E+03 -0.20228032357E+03  0.56287162411E+02  0.29792735559E+03  0.12499642469E+03 0.  0.
          2    1    1    2  501    0  0.27058480362E+02 -0.21346322591E+02 -0.16696106106E+04  0.16699662924E+04  0.00000000000E+00 0. -1.
          1    1    1    2  502    0 -0.19750210467E+03  0.22362664616E+03  0.16387588941E+04  0.16656970526E+04  0.00000000000E+00 0. -1.
         22    1    3    3    0    0 -0.19611468620E+02 -0.19839856981E+02 -0.24683342689E+01  0.28005754775E+02  0.00000000000E+00 0.  1.
         22    1    3    3    0    0  0.19005509293E+03 -0.18244046659E+03  0.58755496680E+02  0.26992160082E+03  0.00000000000E+00 0.  1.
</event>
<event>
 7    1  0.5931885E-006  0.2815689E+03  0.7818608E-02  0.1218460E+00
          2   -1    0    0  502    0  0.00000000000E+00  0.00000000000E+00  0.20444214688E+04  0.20444214688E+04  0.00000000000E+00 0. -1.
          1   -1    0    0  501    0 -0.00000000000E+00 -0.00000000000E+00 -0.33429661170E+03  0.33429661170E+03  0.00000000000E+00 0. -1.
         25    2    1    2    0    0  0.20863213347E+03  0.16646157460E+03  0.93256169122E+03  0.97802470610E+03  0.12499677942E+03 0.  0.
          2    1    1    2  501    0 -0.25602600595E+03 -0.12062231337E+03 -0.24601329825E+03  0.37499546813E+03  0.00000000000E+00 0. -1.
          1    1    1    2  502    0  0.47393872474E+02 -0.45839261227E+02  0.10235764642E+04  0.10256979063E+04  0.00000000000E+00 0. -1.
         22    1    3    3    0    0  0.11238754435E+01  0.49748365939E+02  0.94484904900E+02  0.10678745368E+03  0.00000000000E+00 0. -1.
         22    1    3    3    0    0  0.20750825803E+03  0.11671320866E+03  0.83807678632E+03  0.87123725242E+03  0.00000000000E+00 0. -1.
</event>
<event>
 7    1  0.5931885E-006  0.1657572E+03  0.7818608E-02  0.1275245E+00
          2   -1    0    0  502    0  0.00000000000E+00  0.00000000000E+00  0.21280097411E+04  0.21280097411E+04  0.00000000000E+00 0. -1.
          1   -1    0    0  501    0 -0.00000000000E+00 -0.00000000000E+00 -0.13839860846E+03  0.13839860846E+03  0.00000000000E+00 0. -1.
         25    2    1    2    0    0 -0.17454602995E+03 -0.64069705478E+02  0.11356254920E+04  0.11575153863E+04  0.12500147025E+03 0.  0.
          2    1    1    2  501    0  0.12696580163E+03  0.10583509457E+03 -0.72324124134E+02  0.18042217424E+03  0.00000000000E+00 0. -1.
          1    1    1    2  502    0  0.47580228323E+02 -0.41765389093E+02  0.92630976474E+03  0.92847078905E+03  0.00000000000E+00 0. -1.
         22    1    3    3    0    0 -0.73305163592E+02  0.17527114250E+02  0.21665101940E+03  0.22938725106E+03  0.00000000000E+00 0.  1.
         22    1    3    3    0    0 -0.10124086636E+03 -0.81596819728E+02  0.91897447262E+03  0.92812813520E+03  0.00000000000E+00 0.  1.
</event>
<event>
 7    1  0.5931885E-006  0.2282288E+03  0.7818608E-02  0.1236126E+00
          2   -1    0    0  502    0  0.00000000000E+00  0.00000000000E+00  0.11454882517E+04  0.11454882517E+04  0.00000000000E+00 0. -1.
          1   -1    0    0  501    0 -0.00000000000E+00 -0.00000000000E+00 -0.58048044622E+03  0.58048044622E+03  0.00000000000E+00 0. -1.
         25    2    1    2    0    0  0.18620952870E+03 -0.18472943510E+03  0.91246030199E+03  0.95760577268E+03  0.12500424148E+03 0.  0.
          2    1    1    2  501    0 -0.19483858069E+03  0.11755544904E+03 -0.52831417464E+03  0.57523666717E+03  0.00000000000E+00 0. -1.
          1    1    1    2  502    0  0.86290519886E+01  0.67173986064E+02  0.18086167816E+03  0.19312625810E+03  0.00000000000E+00 0. -1.
         22    1    3    3    0    0  0.93716829425E+01 -0.20416709599E+02  0.27589260260E+03  0.27680570558E+03  0.00000000000E+00 0. -1.
         22    1    3    3    0    0  0.17683784576E+03 -0.16431272550E+03  0.63656769939E+03  0.68080006710E+03  0.00000000000E+00 0. -1.
</event>
<event>
 7    1  0.5931885E-006  0.8927043E+02  0.7818608E-02  0.1324545E+00
          2   -1    0    0  502    0  0.00000000000E+00  0.00000000000E+00  0.57480937213E+03  0.57480937213E+03  0.00000000000E+00 0. -1.
          1   -1    0    0  501    0 -0.00000000000E+00 -0.00000000000E+00 -0.66824801871E+03  0.66824801871E+03  0.00000000000E+00 0. -1.
         25    2    1    2    0    0 -0.24718037366E+02 -0.10820951426E+03  0.28746762696E+02  0.16962186847E+03  0.12499968620E+03 0.  0.
          2    1    1    2  501    0 -0.48535175071E+02  0.56660735312E+02 -0.59122800781E+03  0.59591665471E+03  0.00000000000E+00 0. -1.
          1    1    1    2  502    0  0.73253212437E+02  0.51548778946E+02  0.46904259853E+03  0.47751886767E+03  0.00000000000E+00 0. -1.
         22    1    3    3    0    0  0.69073074153E+01 -0.12906609670E+03  0.20797652103E+02  0.13091337039E+03  0.00000000000E+00 0.  1.
         22    1    3    3    0    0 -0.31625344781E+02  0.20856582447E+02  0.79491105930E+01  0.38708498074E+02  0.00000000000E+00 0.  1.
</event>
<event>
 7    1  0.5931885E-006  0.5273308E+02  0.7818608E-02  0.1472417E+00
          2   -1    0    0  502    0  0.00000000000E+00  0.00000000000E+00  0.48334356190E+03  0.48334356190E+03  0.00000000000E+00 0. -1.
          1   -1    0    0  501    0 -0.00000000000E+00 -0.00000000000E+00 -0.11206641646E+04  0.11206641646E+04  0.00000000000E+00 0. -1.
         25    2    1    2    0    0 -0.15610895238E+02 -0.77942478967E+02 -0.42389428551E+03  0.44904150784E+03  0.12503271733E+03 0.  0.
          2    1    1    2  501    0  0.29719042924E+02  0.41657098939E+02 -0.68243181693E+03  0.68434766030E+03  0.00000000000E+00 0. -1.
          1    1    1    2  502    0 -0.14108147687E+02  0.36285380028E+02  0.46900549976E+03  0.47061855832E+03  0.00000000000E+00 0. -1.
         22    1    3    3    0    0  0.30096992023E+02 -0.76798154679E+02 -0.36646925046E+03  0.37563745424E+03  0.00000000000E+00 0.  1.
         22    1    3    3    0    0 -0.45707887260E+02 -0.11443242885E+01 -0.57425035044E+02  0.73404053605E+02  0.00000000000E+00 0.  1.
</event>
<event>
 7    1  0.5931885E-006  0.9239849E+02  0.7818608E-02  0.1411110E+00
          2   -1    0    0  502    0  0.00000000000E+00  0.00000000000E+00  0.15851611425E+03  0.15851611425E+03  0.00000000000E+00 0. -1.
          1   -1    0    0  501    0 -0.00000000000E+00 -0.00000000000E+00 -0.11072465034E+04  0.11072465034E+04  0.00000000000E+00 0. -1.
         25    2    1    2    0    0 -0.29933596483E+01  0.92927596931E+02 -0.18438946470E+03  0.24139340212E+03  0.12500720548E+03 0.  0.
          2    1    1    2  501    0 -0.31651455677E+02 -0.87309208999E+02 -0.88952415086E+03  0.89435894784E+03  0.00000000000E+00 0. -1.
          1    1    1    2  502    0  0.34644815325E+02 -0.56183879319E+01  0.12518322644E+03  0.13001026765E+03  0.00000000000E+00 0. -1.
         22    1    3    3    0    0 -0.37649864949E+02  0.28467102422E+02 -0.47756730474E+01  0.47441493484E+02  0.00000000000E+00 0. -1.
         22    1    3    3    0    0  0.34656505300E+02  0.64460494509E+02 -0.17961379165E+03  0.19395190864E+03  0.00000000000E+00 0. -1.
</event>
<event>
 7    1  0.5931885E-006  0.1111864E+03  0.7818608E-02  0.1407693E+00
          2   -1    0    0  502    0  0.00000000000E+00  0.00000000000E+00  0.12104428199E+03  0.12104428199E+03  0.00000000000E+00 0. -1.
          1   -1    0    0  501    0 -0.00000000000E+00 -0.00000000000E+00 -0.50896807760E+03  0.50896807760E+03  0.00000000000E+00 0. -1.
         25    2    1    2    0    0 -0.89471214861E+02 -0.74477823278E+01 -0.21150283495E+03  0.26157460386E+03  0.12500902545E+03 0.  0.
          2    1    1    2  501    0 -0.24589566374E+02  0.17108052577E+02 -0.23702844164E+03  0.23891382209E+03  0.00000000000E+00 0. -1.
          1    1    1    2  502    0  0.11406078124E+03 -0.96602702496E+01  0.60607480977E+02  0.12952393365E+03  0.00000000000E+00 0. -1.
         22    1    3    3    0    0 -0.59858059266E+02 -0.22995114815E+02 -0.21823236072E+03  0.22745796498E+03  0.00000000000E+00 0. -1.
         22    1    3    3    0    0 -0.29613155595E+02  0.15547332487E+02  0.67295257745E+01  0.34116638887E+02  0.00000000000E+00 0. -1.
</event>
<event>
 7    1  0.5931885E-006  0.7380176E+02  0.7818608E-02  0.1406520E+00
          2   -1    0    0  502    0  0.00000000000E+00  0.00000000000E+00  0.25658731095E+04  0.25658731095E+04  0.00000000000E+00 0. -1.
          1   -1    0    0  501    0 -0.00000000000E+00 -0.00000000000E+00 -0.20632352137E+04  0.20632352137E+04  0.00000000000E+00 0. -1.
         25    2    1    2    0    0 -0.86373077790E+02 -0.28153155925E+02  0.11821752134E+03  0.19455719967E+03  0.12499685130E+03 0.  0.
          2    1    1    2  501    0  0.14214390519E+02  0.43271533487E+02 -0.20242451807E+04  0.20247575227E+04  0.00000000000E+00 0. -1.
          1    1    1    2  502    0  0.72158687271E+02 -0.15118377561E+02  0.24086655551E+04  0.24097936007E+04  0.00000000000E+00 0. -1.
         22    1    3    3    0    0  0.22312653167E+02 -0.28812193657E+02  0.36290305795E+01  0.36621945028E+02  0.00000000000E+00 0. -1.
         22    1    3    3    0    0 -0.10868573096E+03  0.65903773137E+00  0.11458849076E+03  0.15793525464E+03  0.00000000000E+00 0. -1.
</event>
<event>
 7    1  0.5931885E-006  0.7694461E+02  0.7818608E-02  0.1348052E+00
          2   -1    0    0  502    0  0.00000000000E+00  0.00000000000E+00  0.50935144600E+02  0.50935144600E+02  0.00000000000E+00 0. -1.
          1   -1    0    0  501    0 -0.00000000000E+00 -0.00000000000E+00 -0.72638274196E+03  0.72638274196E+03  0.00000000000E+00 0. -1.
         25    2    1    2    0    0  0.38507471278E+02 -0.68207690779E+02 -0.45122220952E+03  0.47472331952E+03  0.12500253322E+03 0.  0.
          2    1    1    2  501    0 -0.80801594432E+02  0.39295417644E+01 -0.20906490179E+03  0.22417063171E+03  0.00000000000E+00 0. -1.
          1    1    1    2  502    0  0.42294123154E+02  0.64278149015E+02 -0.15160486048E+02  0.78423935321E+02  0.00000000000E+00 0. -1.
         22    1    3    3    0    0  0.76780052460E+02 -0.75851795979E+02 -0.34882343136E+03  0.36513895667E+03  0.00000000000E+00 0. -1.
         22    1    3    3    0    0 -0.38272581182E+02  0.76441051996E+01 -0.10239877816E+03  0.10958436286E+03  0.00000000000E+00 0. -1.
</event>
<event>
 7    1  0.5931885E-006  0.7852679E+02  0.7818608E-02  0.1444482E+00
          2   -1    0    0  502    0  0.00000000000E+00  0.00000000000E+00  0.62974913142E+03  0.62974913142E+03  0.00000000000E+00 0. -1.
          1   -1    0    0  501    0 -0.00000000000E+00 -0.00000000000E+00 -0.46279496686E+02  0.46279496686E+02  0.00000000000E+00 0. -1.
         25    2    1    2    0    0 -0.63275815169E+02 -0.72441348228E+02  0.52769777657E+03  0.55076381132E+03  0.12499701894E+03 0.  0.
          2    1    1    2  501    0  0.65676570717E+02  0.40491507604E+02  0.25700234711E+02  0.81323281988E+02  0.00000000000E+00 0. -1.
          1    1    1    2  502    0 -0.24007555473E+01  0.31949840624E+02  0.30071623450E+02  0.43941534794E+02  0.00000000000E+00 0. -1.
         22    1    3    3    0    0 -0.41429565176E+02 -0.34909953993E+02  0.59162840833E+02  0.80220667499E+02  0.00000000000E+00 0.  1.
         22    1    3    3    0    0 -0.21846249994E+02 -0.37531394235E+02  0.46853493574E+03  0.47054314382E+03  0.00000000000E+00 0.  1.
</event>
<event>
 7    1  0.5931885E-006  0.1521125E+03  0.7818608E-02  0.1349196E+00
          2   -1    0    0  502    0  0.00000000000E+00  0.00000000000E+00  0.19962625916E+04  0.19962625916E+04  0.00000000000E+00 0. -1.
          1   -1    0    0  501    0 -0.00000000000E+00 -0.00000000000E+00 -0.53052475568E+03  0.53052475568E+03  0.00000000000E+00 0. -1.
         25    2    1    2    0    0 -0.51509368759E+02 -0.17094819511E+03  0.47101793972E+03  0.51899851758E+03  0.12500024492E+03 0.  0.
          2    1    1    2  501    0  0.63357420265E+02  0.13766566780E+03 -0.49498548842E+03  0.51766459464E+03  0.00000000000E+00 0. -1.
          1    1    1    2  502    0 -0.11848051506E+02  0.33282527315E+02  0.14897053847E+04  0.14901242351E+04  0.00000000000E+00 0. -1.
         22    1    3    3    0    0  0.41353210059E+02 -0.42360746855E+02  0.11998896193E+03  0.13379787682E+03  0.00000000000E+00 0.  1.
         22    1    3    3    0    0 -0.92862578818E+02 -0.12858744826E+03  0.35102897778E+03  0.38520064076E+03  0.00000000000E+00 0.  1.
</event>
<event>
 7    1  0.5931885E-006  0.1038763E+03  0.7818608E-02  0.1367639E+00
          2   -1    0    0  502    0  0.00000000000E+00  0.00000000000E+00  0.20959225548E+02  0.20959225548E+02  0.00000000000E+00 0. -1.
          1   -1    0    0  501    0 -0.00000000000E+00 -0.00000000000E+00 -0.23965191914E+04  0.23965191914E+04  0.00000000000E+00 0. -1.
         25    2    1    2    0    0 -0.34342908142E+02 -0.13661025298E+03 -0.99808134560E+03  0.10156938646E+04  0.12500343052E+03 0.  0.
          2    1    1    2  501    0  0.11548759792E+02  0.42757127783E+02 -0.11906038616E+04  0.11914273378E+04  0.00000000000E+00 0. -1.
          1    1    1    2  502    0  0.22794148350E+02  0.93853125198E+02 -0.18687475860E+03  0.21035721454E+03  0.00000000000E+00 0. -1.
         22    1    3    3    0    0 -0.66646199490E+02 -0.41209109401E+02 -0.59877389324E+03  0.60387919473E+03  0.00000000000E+00 0.  1.
         22    1    3    3    0    0  0.32303291348E+02 -0.95401143580E+02 -0.39930745236E+03  0.41181466989E+03  0.00000000000E+00 0.  1.
</event>
<event>
 7    1  0.5931885E-006  0.9369555E+02  0.7818608E-02  0.1466552E+00
          2   -1    0    0  502    0  0.00000000000E+00  0.00000000000E+00  0.53299560736E+02  0.53299560736E+02  0.00000000000E+00 0. -1.
          1   -1    0    0  501    0 -0.00000000000E+00 -0.00000000000E+00 -0.13700616094E+04  0.13700616094E+04  0.00000000000E+00 0. -1.
         25    2    1    2    0    0 -0.82009025289E+02 -0.19256681140E+02 -0.78256839821E+03  0.79695391772E+03  0.12500379631E+03 0.  0.
          2    1    1    2  501    0 -0.12397672298E+02  0.19196560778E+02 -0.53147019921E+03  0.53196126069E+03  0.00000000000E+00 0. -1.
          1    1    1    2  502    0  0.94406697587E+02  0.60120361962E-01 -0.27234512237E+01  0.94445991711E+02  0.00000000000E+00 0. -1.
         22    1    3    3    0    0 -0.63325365633E+02 -0.59453094244E+02 -0.29908410240E+03  0.31144192501E+03  0.00000000000E+00 0. -1.
         22    1    3    3    0    0 -0.18683659656E+02  0.40196413104E+02 -0.48348429582E+03  0.48551199271E+03  0.00000000000E+00 0. -1.
</event>
<event>
 7    1  0.1138526E-005  0.4090456E+02  0.7818608E-02  0.1524556E+00
          2   -1    0    0  502    0  0.00000000000E+00  0.00000000000E+00  0.11498062641E+04  0.11498062641E+04  0.00000000000E+00 0. -1.
          1   -1    0    0  501    0 -0.00000000000E+00 -0.00000000000E+00 -0.23609426406E+04  0.23609426406E+04  0.00000000000E+00 0. -1.
         25    2    1    2    0    0  0.17894919614E+02 -0.93584372943E+01 -0.39818415377E+03  0.41783129970E+03  0.12499826480E+03 0.  0.
          2    1    1    2  501    0 -0.37211658937E+01  0.41411473068E+02 -0.19524441621E+04  0.19528868281E+04  0.00000000000E+00 0. -1.
          1    1    1    2  502    0 -0.14173753721E+02 -0.32053035773E+02  0.11394919394E+04  0.11400307769E+04  0.00000000000E+00 0. -1.
         22    1    3    3    0    0  0.60634217282E+02  0.30446088424E+02 -0.19807208563E+03  0.20937054166E+03  0.00000000000E+00 0.  1.
         22    1    3    3    0    0 -0.42739297668E+02 -0.39804525718E+02 -0.20011206813E+03  0.20846075805E+03  0.00000000000E+00 0.  1.
</event>
<event>
 7    1  0.5931885E-006  0.2935983E+03  0.7818608E-02  0.1224169E+00
          2   -1    0    0  502    0  0.00000000000E+00  0.00000000000E+00  0.57738510822E+03  0.57738510822E+03  0.00000000000E+00 0. -1.
          1   -1    0    0  501    0 -0.00000000000E+00 -0.00000000000E+00 -0.32750020601E+04  0.32750020601E+04  0.00000000000E+00 0. -1.
         25    2    1    2    0    0  0.12701488018E+03  0.21013794525E+03 -0.36450025512E+03  0.45692487250E+03  0.12501666811E+03 0.  0.
          2    1    1    2  501    0 -0.13773834221E+03 -0.26872741763E+03 -0.28546307195E+04  0.28705579285E+04  0.00000000000E+00 0. -1.
          1    1    1    2  502    0  0.10723462026E+02  0.58589472386E+02  0.52151402277E+03  0.52490436734E+03  0.00000000000E+00 0. -1.
         22    1    3    3    0    0  0.39084865386E+02  0.40900829680E+02 -0.14604361797E+02  0.58427664289E+02  0.00000000000E+00 0. -1.
         22    1    3    3    0    0  0.87930014795E+02  0.16923711557E+03 -0.34989589332E+03  0.39849720821E+03  0.00000000000E+00 0. -1.
</event>
<event>
 7    1  0.6206816E-006  0.5818343E+02  0.7818608E-02  0.1408124E+00
          2   -1    0    0  502    0  0.00000000000E+00  0.00000000000E+00  0.68030012226E+03  0.68030012226E+03  0.00000000000E+00 0. -1.
          1   -1    0    0  501    0 -0.00000000000E+00 -0.00000000000E+00 -0.10223760738E+04  0.10223760738E+04  0.00000000000E+00 0. -1.
         25    2    1    2    0    0 -0.15544665942E+02  0.39778350606E+02 -0.46113869029E+03  0.47968544842E+03  0.12500113570E+03 0.  0.
          2    1    1    2  501    0 -0.41990313415E+02 -0.48440791020E+02 -0.54883357273E+03  0.55256491674E+03  0.00000000000E+00 0. -1.
          1    1    1    2  502    0  0.57534979357E+02  0.86624404146E+01  0.66789631153E+03  0.67042583085E+03  0.00000000000E+00 0. -1.
         22    1    3    3    0    0 -0.57362203860E+02  0.61673185591E+02 -0.31797330557E+03  0.32893924562E+03  0.00000000000E+00 0. -1.
         22    1    3    3    0    0  0.41817537918E+02 -0.21894834985E+02 -0.14316538472E+03  0.15074620280E+03  0.00000000000E+00 0. -1.
</event>
<event>
 7    1  0.5931885E-006  0.5742323E+02  0.7818608E-02  0.1409667E+00
          2   -1    0    0  502    0  0.00000000000E+00  0.00000000000E+00  0.42850350399E+04  0.42850350399E+04  0.00000000000E+00 0. -1.
          1   -1    0    0  501    0 -0.00000000000E+00 -0.00000000000E+00 -0.18856809802E+03  0.18856809802E+03  0.00000000000E+00 0. -1.
         25    2    1    2    0    0  0.40301501935E+02  0.11385991868E+02  0.83283156165E+02  0.15593232619E+03  0.12499981753E+03 0.  0.
          2    1    1    2  501    0 -0.33964937372E+02  0.45916727866E+02 -0.14668024527E+03  0.15740729723E+03  0.00000000000E+00 0. -1.
          1    1    1    2  502    0 -0.63365645635E+01 -0.57302719734E+02  0.41598640309E+04  0.41602635144E+04  0.00000000000E+00 0. -1.
         22    1    3    3    0    0  0.33125750319E+02  0.55721987470E+02  0.89585395373E+02  0.11057937550E+03  0.00000000000E+00 0.  1.
         22    1    3    3    0    0  0.71757516164E+01 -0.44335995602E+02 -0.63022392081E+01  0.45352950691E+02  0.00000000000E+00 0.  1.
</event>
<event>
 7    1  0.5931885E-006  0.4178176E+02  0.7818608E-02  0.1533385E+00
          2   -1    0    0  502    0  0.00000000000E+00  0.00000000000E+00  0.41593282244E+03  0.41593282244E+03  0.00000000000E+00 0. -1.
          1   -1    0    0  501    0 -0.00000000000E+00 -0.00000000000E+00 -0.19022394104E+04  0.19022394104E+04  0.00000000000E+00 0. -1.
         25    2    1    2    0    0  0.18705466659E+02 -0.15303378000E+00 -0.57179939039E+03  0.58560133514E+03  0.12499785185E+03 0.  0.
          2    1    1    2  501    0 -0.31526474670E+02 -0.29566652344E+02 -0.13225451461E+04  0.13232512116E+04  0.00000000000E+00 0. -1.
          1    1    1    2  502    0  0.12821008011E+02  0.29719686124E+02  0.40803794852E+03  0.40931968610E+03  0.00000000000E+00 0. -1.
         22    1    3    3    0    0  0.34004279718E+02 -0.28851323472E+02 -0.71640972830E+02  0.84386722257E+02  0.00000000000E+00 0. -1.
         22    1    3    3    0    0 -0.15298813060E+02  0.28698289692E+02 -0.50015841756E+03  0.50121461289E+03  0.00000000000E+00 0. -1.
</event>
<event>
 7    1  0.5931885E-006  0.1074276E+03  0.7818608E-02  0.1299261E+00
          2   -1    0    0  502    0  0.00000000000E+00  0.00000000000E+00  0.15761192972E+04  0.15761192972E+04  0.00000000000E+00 0. -1.
          1   -1    0    0  501    0 -0.00000000000E+00 -0.00000000000E+00 -0.24711978746E+04  0.24711978746E+04  0.00000000000E+00 0. -1.
         25    2    1    2    0    0 -0.12280539721E+02  0.11358610555E+03  0.26581524330E+03  0.31517549620E+03  0.12500093924E+03 0.  0.
          2    1    1    2  501    0 -0.61416788787E+02 -0.88244722003E+02 -0.24441538685E+04  0.24465173790E+04  0.00000000000E+00 0. -1.
          1    1    1    2  502    0  0.73697328508E+02 -0.25341383543E+02  0.12832600478E+04  0.12856242967E+04  0.00000000000E+00 0. -1.
         22    1    3    3    0    0 -0.48487658259E+02  0.11569856784E+03  0.15998975194E+03  0.20330748223E+03  0.00000000000E+00 0.  1.
         22    1    3    3    0    0  0.36207118538E+02 -0.21124622989E+01  0.10582549135E+03  0.11186801397E+03  0.00000000000E+00 0.  1.
</event>
<event>
 7    1  0.5931885E-006  0.6812933E+02  0.7818608E-02  0.1402887E+00
          2   -1    0    0  502    0  0.00000000000E+00  0.00000000000E+00  0.16247322273E+04  0.16247322273E+04  0.00000000000E+00 0. -1.
          1   -1    0    0  501    0 -0.00000000000E+00 -0.00000000000E+00 -0.47045863914E+02  0.47045863914E+02  0.00000000000E+00 0. -1.
         25    2    1    2    0    0  0.22248899257E+02  0.78048954446E+02  0.16438518977E+03  0.22188930732E+03  0.12500288507E+03 0.  0.
          2    1    1    2  501    0 -0.55392888199E+02 -0.39592425703E+02  0.47207687817E+02  0.82852266264E+02  0.00000000000E+00 0. -1.
          1    1    1    2  502    0  0.33143988942E+02 -0.38456528743E+02  0.13660934858E+04  0.13670365176E+04  0.00000000000E+00 0. -1.
         22    1    3    3    0    0  0.66667127651E+02  0.51424519103E+02  0.54177749277E+02  0.10012100474E+03  0.00000000000E+00 0.  1.
         22    1    3    3    0    0 -0.44418228394E+02  0.26624435343E+02  0.11020744050E+03  0.12176830258E+03  0.00000000000E+00 0.  1.
</event>
<event>
 7    1  0.5931885E-006  0.4794237E+02  0.7818608E-02  0.1471601E+00
          2   -1    0    0  502    0  0.00000000000E+00  0.00000000000E+00  0.29252506927E+03  0.29252506927E+03  0.00000000000E+00 0. -1.
          1   -1    0    0  501    0 -0.00000000000E+00 -0.00000000000E+00 -0.54941616306E+03  0.54941616306E+03  0.00000000000E+00 0. -1.
         25    2    1    2    0    0  0.67969257961E+02 -0.56797181211E+02  0.10762092860E+02  0.15357864269E+03  0.12499934810E+03 0.  0.
          2    1    1    2  501    0 -0.29801438920E+02  0.36836983077E+02 -0.47461095370E+03  0.47697027838E+03  0.00000000000E+00 0. -1.
          1    1    1    2  502    0 -0.38167819041E+02  0.19960198133E+02  0.20695776705E+03  0.21139231127E+03  0.00000000000E+00 0. -1.
         22    1    3    3    0    0  0.41023368192E+02 -0.93667676578E+02 -0.11266105731E+02  0.10287602010E+03  0.00000000000E+00 0.  1.
         22    1    3    3    0    0  0.26945889769E+02  0.36870495367E+02  0.22028198591E+02  0.50702622587E+02  0.00000000000E+00 0.  1.
</event>
<event>
 7    1  0.5931885E-006  0.2999063E+03  0.7818608E-02  0.1254964E+00
          2   -1    0    0  502    0  0.00000000000E+00  0.00000000000E+00  0.99858563284E+03  0.99858563284E+03  0.00000000000E+00 0. -1.
          1   -1    0    0  501    0 -0.00000000000E+00 -0.00000000000E+00 -0.27168414774E+04  0.27168414774E+04  0.00000000000E+00 0. -1.
         25    2    1    2    0    0 -0.16086171046E+03 -0.29394889825E+03 -0.12753549640E+04  0.13245506829E+04  0.12498713051E+03 0.  0.
          2    1    1    2  501    0 -0.16432774768E+01  0.42607945607E+02 -0.13935617230E+04  0.13942139051E+04  0.00000000000E+00 0. -1.
          1    1    1    2  502    0  0.16250498793E+03  0.25134095264E+03  0.95066084250E+03  0.99666252214E+03  0.00000000000E+00 0. -1.
         22    1    3    3    0    0 -0.15855403764E+03 -0.29422563606E+03 -0.11111338283E+04  0.11603131010E+04  0.00000000000E+00 0.  1.
         22    1    3    3    0    0 -0.23076728192E+01  0.27673780567E+00 -0.16422113567E+03  0.16423758199E+03  0.00000000000E+00 0.  1.
</event>
<event>
 7    1  0.5931885E-006  0.5296643E+02  0.7818608E-02  0.1460635E+00
          2   -1    0    0  502    0  0.00000000000E+00  0.00000000000E+00  0.45865885558E+03  0.45865885558E+03  0.00000000000E+00 0. -1.
          1   -1    0    0  501    0 -0.00000000000E+00 -0.00000000000E+00 -0.19255130290E+04  0.19255130290E+04  0.00000000000E+00 0. -1.
         25    2    1    2    0    0  0.27069078673E+02 -0.23540484755E+02  0.30037220275E+02  0.13347083501E+03  0.12500135901E+03 0.  0.
          2    1    1    2  501    0  0.31156708581E+01  0.53017839310E+02 -0.18722377902E+04  0.18729909081E+04  0.00000000000E+00 0. -1.
          1    1    1    2  502    0 -0.30184749531E+02 -0.29477354555E+02  0.37534639656E+03  0.37771014144E+03  0.00000000000E+00 0. -1.
         22    1    3    3    0    0  0.45201453010E+02  0.42142951912E+02  0.11582584429E+02  0.62875718780E+02  0.00000000000E+00 0.  1.
         22    1    3    3    0    0 -0.18132374337E+02 -0.65683436667E+02  0.18454635847E+02  0.70595116231E+02  0.00000000000E+00 0.  1.
</event>
<event>
 7    1  0.5931885E-006  0.1527014E+03  0.7818608E-02  0.1351959E+00
          2   -1    0    0  502    0  0.00000000000E+00  0.00000000000E+00  0.48776609732E+03  0.48776609732E+03  0.00000000000E+00 0. -1.
          1   -1    0    0  501    0 -0.00000000000E+00 -0.00000000000E+00 -0.62175652578E+03  0.62175652578E+03  0.00000000000E+00 0. -1.
         25    2    1    2    0    0  0.58935094771E+02 -0.14445294453E+03  0.75677503868E+02  0.21375754920E+03  0.12500082667E+03 0.  0.
          2    1    1    2  501    0 -0.87424660496E+02  0.12522139849E+03 -0.54126164748E+03  0.56239455984E+03  0.00000000000E+00 0. -1.
          1    1    1    2  502    0  0.28489565724E+02  0.19231546034E+02  0.33159371515E+03  0.33337051406E+03  0.00000000000E+00 0. -1.
         22    1    3    3    0    0  0.79932271981E+02 -0.38151666029E+02  0.15832372137E+02  0.89974339299E+02  0.00000000000E+00 0.  1.
         22    1    3    3    0    0 -0.20997177210E+02 -0.10630127850E+03  0.59845131731E+02  0.12378320990E+03  0.00000000000E+00 0.  1.
</event>
<event>
 7    1  0.5931885E-006  0.1753705E+03  0.7818608E-02  0.1332129E+00
          2   -1    0    0  502    0  0.00000000000E+00  0.00000000000E+00  0.23458949619E+03  0.23458949619E+03  0.00000000000E+00 0. -1.
          1   -1    0    0  501    0 -0.00000000000E+00 -0.00000000000E+00 -0.19601988649E+04  0.19601988649E+04  0.00000000000E+00 0. -1.
         25    2    1    2    0    0  0.54332647092E+01 -0.15365762362E+03  0.17656262070E+03  0.26540440684E+03  0.12499981791E+03 0.  0.
          2    1    1    2  501    0  0.23521885419E+02  0.17423170480E+03 -0.18784751345E+04  0.18866846045E+04  0.00000000000E+00 0. -1.
          1    1    1    2  502    0 -0.28955150128E+02 -0.20574081173E+02 -0.23696854933E+02  0.42699349747E+02  0.00000000000E+00 0. -1.
         22    1    3    3    0    0  0.35235151847E+02 -0.60854331808E+02  0.81108021217E+01  0.70785243776E+02  0.00000000000E+00 0.  1.
         22    1    3    3    0    0 -0.29801887137E+02 -0.92803291816E+02  0.16845181858E+03  0.19461916306E+03  0.00000000000E+00 0.  1.
</event>
<event>
 7    1  0.5931885E-006  0.7928583E+02  0.7818608E-02  0.1370928E+00
          2   -1    0    0  502    0  0.00000000000E+00  0.00000000000E+00  0.16803350528E+04  0.16803350528E+04  0.00000000000E+00 0. -1.
          1   -1    0    0  501    0 -0.00000000000E+00 -0.00000000000E+00 -0.27352767698E+03  0.27352767698E+03  0.00000000000E+00 0. -1.
         25    2    1    2    0    0 -0.98093634069E+02  0.86785579499E+02  0.61958740702E+01  0.18115243788E+03  0.12499487605E+03 0.  0.
          2    1    1    2  501    0  0.51900286752E+02 -0.54312037005E+02 -0.17794072514E+03  0.19314848897E+03  0.00000000000E+00 0. -1.
          1    1    1    2  502    0  0.46193347317E+02 -0.32473542493E+02  0.15785522269E+04  0.15795618030E+04  0.00000000000E+00 0. -1.
         22    1    3    3    0    0 -0.10016719425E+03  0.95655302612E+01  0.20239903662E+02  0.10263829633E+03  0.00000000000E+00 0.  1.
         22    1    3    3    0    0  0.20735601779E+01  0.77220049238E+02 -0.14044029592E+02  0.78514141549E+02  0.00000000000E+00 0.  1.
</event>
<event>
 7    1  0.5931885E-006  0.6501482E+02  0.7818608E-02  0.1509975E+00
          2   -1    0    0  502    0  0.00000000000E+00  0.00000000000E+00  0.33306361029E+03  0.33306361029E+03  0.00000000000E+00 0. -1.
          1   -1    0    0  501    0 -0.00000000000E+00 -0.00000000000E+00 -0.26940463610E+03  0.26940463610E+03  0.00000000000E+00 0. -1.
         25    2    1    2    0    0 -0.71911720186E+02 -0.82273397810E+00  0.15700668882E+03  0.21318537422E+03  0.12499972422E+03 0.  0.
          2    1    1    2  501    0  0.11739534855E+02 -0.21295513482E+02 -0.23371080172E+03  0.23497245458E+03  0.00000000000E+00 0. -1.
          1    1    1    2  502    0  0.60172185330E+02  0.22118247460E+02  0.14036308709E+03  0.15431041758E+03  0.00000000000E+00 0. -1.
         22    1    3    3    0    0 -0.27472020166E+02  0.24309060857E+02 -0.10430953821E+02  0.38137214494E+02  0.00000000000E+00 0.  1.
         22    1    3    3    0    0 -0.44439700020E+02 -0.25131794835E+02  0.16743764264E+03  0.17504815972E+03  0.00000000000E+00 0.  1.
</event>
<event>
 7    1  0.5931885E-006  0.3631514E+02  0.7818608E-02  0.1554805E+00
          2   -1    0    0  502    0  0.00000000000E+00  0.00000000000E+00  0.12322493540E+04  0.12322493540E+04  0.00000000000E+00 0. -1.
          1   -1    0    0  501    0 -0.00000000000E+00 -0.00000000000E+00 -0.30039642761E+03  0.30039642761E+03  0.00000000000E+00 0. -1.
         25    2    1    2    0    0  0.90717790442E+01  0.44467992340E+01  0.53526061057E+03  0.54975551265E+03  0.12500052504E+03 0.  0.
          2    1    1    2  501    0  0.22636652684E+01  0.32338516747E+02 -0.29171337795E+03  0.29350911182E+03  0.00000000000E+00 0. -1.
          1    1    1    2  502    0 -0.11335444313E+02 -0.36785315981E+02  0.68830569378E+03  0.68938115717E+03  0.00000000000E+00 0. -1.
         22    1    3    3    0    0  0.33217786133E+02  0.46184363367E+02  0.43271791082E+03  0.43644152768E+03  0.00000000000E+00 0.  1.
         22    1    3    3    0    0 -0.24146007089E+02 -0.41737564133E+02  0.10254269975E+03  0.11331398497E+03  0.00000000000E+00 0.  1.
</event>
<event>
 7    1  0.5931885E-006  0.1048124E+03  0.7818608E-02  0.1368253E+00
          2   -1    0    0  502    0  0.00000000000E+00  0.00000000000E+00  0.26240084996E+03  0.26240084996E+03  0.00000000000E+00 0. -1.
          1   -1    0    0  501    0 -0.00000000000E+00 -0.00000000000E+00 -0.45183719756E+03  0.45183719756E+03  0.00000000000E+00 0. -1.
         25    2    1    2    0    0 -0.58664406342E+02 -0.65967124810E+02  0.41085227347E+02  0.15844939321E+03  0.12500016070E+03 0.  0.
          2    1    1    2  501    0  0.32986292780E+02  0.10129083019E+03 -0.38281353883E+03  0.39735894768E+03  0.00000000000E+00 0. -1.
          1    1    1    2  502    0  0.25678113562E+02 -0.35323705377E+02  0.15229196389E+03  0.15842970663E+03  0.00000000000E+00 0. -1.
         22    1    3    3    0    0 -0.23366022604E+02 -0.82707105582E+02  0.69181127859E+02  0.11032889367E+03  0.00000000000E+00 0. -1.
         22    1    3    3    0    0 -0.35298383738E+02  0.16739980772E+02 -0.28095900512E+02  0.48120499544E+02  0.00000000000E+00 0. -1.
</event>
<event>
 7    1  0.5931885E-006  0.1440578E+03  0.7818608E-02  0.1289907E+00
          2   -1    0    0  502    0  0.00000000000E+00  0.00000000000E+00  0.59354240590E+03  0.59354240590E+03  0.00000000000E+00 0. -1.
          1   -1    0    0  501    0 -0.00000000000E+00 -0.00000000000E+00 -0.70146776267E+03  0.70146776267E+03  0.00000000000E+00 0. -1.
         25    2    1    2    0    0  0.17409560113E+03 -0.70867092272E+02 -0.32780964268E+03  0.39801376421E+03  0.12499748625E+03 0.  0.
          2    1    1    2  501    0 -0.12551439381E+03  0.30135767217E+02 -0.32434503210E+03  0.34908699111E+03  0.00000000000E+00 0. -1.
          1    1    1    2  502    0 -0.48581207314E+02  0.40731325055E+02  0.54422931801E+03  0.54790941325E+03  0.00000000000E+00 0. -1.
         22    1    3    3    0    0  0.17387097024E+03 -0.56267998044E+02 -0.33510111752E+03  0.38169354312E+03  0.00000000000E+00 0.  1.
         22    1    3    3    0    0  0.22463088070E+00 -0.14599094227E+02  0.72914748341E+01  0.16320221094E+02  0.00000000000E+00 0.  1.
</event>
<event>
 7    1  0.5931885E-006  0.7050932E+02  0.7818608E-02  0.1464780E+00
          2   -1    0    0  502    0  0.00000000000E+00  0.00000000000E+00  0.69722546182E+03  0.69722546182E+03  0.00000000000E+00 0. -1.
          1   -1    0    0  501    0 -0.00000000000E+00 -0.00000000000E+00 -0.81660801273E+03  0.81660801273E+03  0.00000000000E+00 0. -1.
         25    2    1    2    0    0  0.67562543047E+02  0.65431973837E+02 -0.32552264225E+03  0.36115847200E+03  0.12499764342E+03 0.  0.
          2    1    1    2  501    0 -0.30213081904E+02 -0.57579497105E+01 -0.47094082740E+03  0.47194411451E+03  0.00000000000E+00 0. -1.
          1    1    1    2  502    0 -0.37349461143E+02 -0.59674024127E+02  0.67708091875E+03  0.68073088804E+03  0.00000000000E+00 0. -1.
         22    1    3    3    0    0  0.23505452606E+02 -0.23844396056E+02 -0.18192129008E+02  0.38105315684E+02  0.00000000000E+00 0. -1.
         22    1    3    3    0    0  0.44057090441E+02  0.89276369893E+02 -0.30733051324E+03  0.32305315632E+03  0.00000000000E+00 0. -1.
</event>
<event>
 7    1  0.5931885E-006  0.1414317E+03  0.7818608E-02  0.1294024E+00
          2   -1    0    0  502    0  0.00000000000E+00  0.00000000000E+00  0.96565444461E+03  0.96565444461E+03  0.00000000000E+00 0. -1.
          1   -1    0    0  501    0 -0.00000000000E+00 -0.00000000000E+00 -0.37865328112E+03  0.37865328112E+03  0.00000000000E+00 0. -1.
         25    2    1    2    0    0 -0.16887329944E+03  0.52634458105E+02  0.17337222168E+03  0.27743744099E+03  0.12500011587E+03 0.  0.
          2    1    1    2  501    0  0.13960199098E+03  0.21785109664E+01 -0.31030807403E+03  0.34027130734E+03  0.00000000000E+00 0. -1.
          1    1    1    2  502    0  0.29271308462E+02 -0.54812969072E+02  0.72393701583E+03  0.72659897741E+03  0.00000000000E+00 0. -1.
         22    1    3    3    0    0 -0.22883333249E+02  0.23194947732E+02  0.11150772228E+03  0.11617067043E+03  0.00000000000E+00 0. -1.
         22    1    3    3    0    0 -0.14598996619E+03  0.29439510373E+02  0.61864499402E+02  0.16126677056E+03  0.00000000000E+00 0. -1.
</event>
<event>
 7    1  0.5931885E-006  0.1518720E+03  0.7818608E-02  0.1247970E+00
          2   -1    0    0  502    0  0.00000000000E+00  0.00000000000E+00  0.89684644397E+03  0.89684644397E+03  0.00000000000E+00 0. -1.
          1   -1    0    0  501    0 -0.00000000000E+00 -0.00000000000E+00 -0.49234646800E+03  0.49234646800E+03  0.00000000000E+00 0. -1.
         25    2    1    2    0    0 -0.21712397357E+03  0.19725462742E+02  0.46690886160E+03  0.53024669641E+03  0.12500304090E+03 0.  0.
          2    1    1    2  501    0  0.90025685794E+02  0.67602615643E+01 -0.44544720067E+03  0.45450361255E+03  0.00000000000E+00 0. -1.
          1    1    1    2  502    0  0.12709828777E+03 -0.26485724307E+02  0.38303831503E+03  0.40444260301E+03  0.00000000000E+00 0. -1.
         22    1    3    3    0    0 -0.47918703058E+02 -0.14887500640E+02  0.25569161963E+02  0.56317153883E+02  0.00000000000E+00 0.  1.
         22    1    3    3    0    0 -0.16920527051E+03  0.34612963383E+02  0.44133969964E+03  0.47392954252E+03  0.00000000000E+00 0.  1.
</event>
<event>
 7    1  0.5931885E-006  0.1602821E+03  0.7818608E-02  0.1316092E+00
          2   -1    0    0  502    0  0.00000000000E+00  0.00000000000E+00  0.17572338811E+04  0.17572338811E+04  0.00000000000E+00 0. -1.
          1   -1    0    0  501    0 -0.00000000000E+00 -0.00000000000E+00 -0.11061604959E+04  0.11061604959E+04  0.00000000000E+00 0. -1.
         25    2    1    2    0    0  0.13659163104E+03 -0.48938856338E+02  0.17856643342E+03  0.26184551616E+03  0.12499927142E+03 0.  0.
          2    1    1    2  501    0 -0.13095783140E+03  0.93393572180E+02 -0.10581151418E+04  0.10702709779E+04  0.00000000000E+00 0. -1.
          1    1    1    2  502    0 -0.56337996437E+01 -0.44454715843E+02  0.15306220935E+04  0.15312778829E+04  0.00000000000E+00 0. -1.
         22    1    3    3    0    0  0.67280356639E+02 -0.67848839536E+01  0.16665595712E+03  0.17985240917E+03  0.00000000000E+00 0.  1.
         22    1    3    3    0    0  0.69311274405E+02 -0.42153972384E+02  0.11910476294E+02  0.81993106984E+02  0.00000000000E+00 0.  1.
</event>
<event>
 7    1  0.5931885E-006  0.5542615E+02  0.7818608E-02  0.1469955E+00
          2   -1    0    0  502    0  0.00000000000E+00  0.00000000000E+00  0.16100261020E+03  0.16100261020E+03  0.00000000000E+00 0. -1.
          1   -1    0    0  501    0 -0.00000000000E+00 -0.00000000000E+00 -0.24300403729E+03  0.24300403729E+03  0.00000000000E+00 0. -1.
         25    2    1    2    0    0  0.19140508451E+02  0.57179509499E+01  0.27020312089E+02  0.12942804297E+03  0.12498986765E+03 0.  0.
          2    1    1    2  501    0 -0.56661092547E+02 -0.93684946663E+01 -0.18286397558E+03  0.19167024199E+03  0.00000000000E+00 0. -1.
          1    1    1    2  502    0  0.37520584096E+02  0.36505437164E+01  0.73842236402E+02  0.82908362528E+02  0.00000000000E+00 0. -1.
         22    1    3    3    0    0  0.15733649337E+02  0.96456935134E+01 -0.49449817514E+02  0.52781356339E+02  0.00000000000E+00 0. -1.
         22    1    3    3    0    0  0.34068591141E+01 -0.39277425635E+01  0.76470129603E+02  0.76646686635E+02  0.00000000000E+00 0. -1.
</event>
<event>
 7    1  0.5931885E-006  0.3813052E+02  0.7818608E-02  0.1567604E+00
          2   -1    0    0  502    0  0.00000000000E+00  0.00000000000E+00  0.22400487033E+03  0.22400487033E+03  0.00000000000E+00 0. -1.
          1   -1    0    0  501    0 -0.00000000000E+00 -0.00000000000E+00 -0.58198384756E+03  0.58198384756E+03  0.00000000000E+00 0. -1.
         25    2    1    2    0    0 -0.22196493202E+01  0.97444697797E+01  0.83484311424E+02  0.15064731558E+03  0.12500040761E+03 0.  0.
          2    1    1    2  501    0  0.14367687406E+02 -0.35494840312E+02 -0.54582446584E+03  0.54716602749E+03  0.00000000000E+00 0. -1.
          1    1    1    2  502    0 -0.12148038086E+02  0.25750370533E+02  0.10436117719E+03  0.10817537481E+03  0.00000000000E+00 0. -1.
         22    1    3    3    0    0 -0.13087027627E+02 -0.49450644870E-01  0.11508386175E+03  0.11582559291E+03  0.00000000000E+00 0.  1.
         22    1    3    3    0    0  0.10867378307E+02  0.97939204246E+01 -0.31599550329E+02  0.34821722667E+02  0.00000000000E+00 0.  1.
</event>
<event>
 7    1  0.5931885E-006  0.1945472E+03  0.7818608E-02  0.1333144E+00
          2   -1    0    0  502    0  0.00000000000E+00  0.00000000000E+00  0.18518739957E+04  0.18518739957E+04  0.00000000000E+00 0. -1.
          1   -1    0    0  501    0 -0.00000000000E+00 -0.00000000000E+00 -0.10720468376E+04  0.10720468376E+04  0.00000000000E+00 0. -1.
         25    2    1    2    0    0 -0.84686491155E+02  0.14562709062E+03  0.10331436243E+03  0.23383149567E+03  0.12499703827E+03 0.  0.
          2    1    1    2  501    0  0.83594599543E+02 -0.17734376414E+03 -0.99709149004E+03  0.10161841896E+04  0.00000000000E+00 0. -1.
          1    1    1    2  502    0  0.10918916124E+01  0.31716673516E+02  0.16736042857E+04  0.16739051481E+04  0.00000000000E+00 0. -1.
         22    1    3    3    0    0 -0.54176160329E+02  0.32452937241E+02  0.97887566104E+02  0.11649130904E+03  0.00000000000E+00 0.  1.
         22    1    3    3    0    0 -0.30510330826E+02  0.11317415338E+03  0.54267963255E+01  0.11734018663E+03  0.00000000000E+00 0.  1.
</event>
<event>
 7    1  0.5931885E-006  0.1169759E+03  0.7818608E-02  0.1324023E+00
          2   -1    0    0  502    0  0.00000000000E+00  0.00000000000E+00  0.25449953673E+04  0.25449953673E+04  0.00000000000E+00 0. -1.
          1   -1    0    0  501    0 -0.00000000000E+00 -0.00000000000E+00 -0.12484168421E+03  0.12484168421E+03  0.00000000000E+00 0. -1.
         25    2    1    2    0    0 -0.11609710207E+03 -0.87300965781E+02  0.46454597392E+02  0.19718932552E+03  0.12500241895E+03 0.  0.
          2    1    1    2  501    0  0.58903847512E+02  0.88179129528E+02  0.80948031222E+01  0.10635200033E+03  0.00000000000E+00 0. -1.
          1    1    1    2  502    0  0.57193254558E+02 -0.87816374646E+00  0.23656042826E+04  0.23662957257E+04  0.00000000000E+00 0. -1.
         22    1    3    3    0    0  0.34366194824E+01 -0.70778022425E+02  0.14004443450E+02  0.72232009858E+02  0.00000000000E+00 0. -1.
         22    1    3    3    0    0 -0.11953372155E+03 -0.16522943357E+02  0.32450153943E+02  0.12495731566E+03  0.00000000000E+00 0. -1.
</event>
<event>
 7    1  0.5931885E-006  0.1943857E+03  0.7818608E-02  0.1307375E+00
          2   -1    0    0  502    0  0.00000000000E+00  0.00000000000E+00  0.39262186937E+04  0.39262186937E+04  0.00000000000E+00 0. -1.
          1   -1    0    0  501    0 -0.00000000000E+00 -0.00000000000E+00 -0.14595659624E+04  0.14595659624E+04  0.00000000000E+00 0. -1.
         25    2    1    2    0    0 -0.15755105458E+03  0.16160857953E+03  0.18942178700E+04  0.19117081752E+04  0.12500856134E+03 0.  0.
          2    1    1    2  501    0  0.11827431517E+03 -0.15413455422E+03 -0.14441174691E+04  0.14571278389E+04  0.00000000000E+00 0. -1.
          1    1    1    2  502    0  0.39276739409E+02 -0.74740253068E+01  0.20165523303E+04  0.20169486419E+04  0.00000000000E+00 0. -1.
         22    1    3    3    0    0 -0.13857690957E+02  0.84226006170E+02  0.42752009145E+03  0.43595812220E+03  0.00000000000E+00 0.  1.
         22    1    3    3    0    0 -0.14369336362E+03  0.77382573360E+02  0.14666977786E+04  0.14757500530E+04  0.00000000000E+00 0.  1.
</event>
<event>
 7    1  0.5931885E-006  0.4607754E+02  0.7818608E-02  0.1554896E+00
          2   -1    0    0  502    0  0.00000000000E+00  0.00000000000E+00  0.39263436331E+03  0.39263436331E+03  0.00000000000E+00 0. -1.
          1   -1    0    0  501    0 -0.00000000000E+00 -0.00000000000E+00 -0.61328542149E+02  0.61328542149E+02  0.00000000000E+00 0. -1.
         25    2    1    2    0    0  0.31147900453E+02 -0.53357808111E+02  0.87712802127E+02  0.16473096716E+03  0.12500203396E+03 0.  0.
          2    1    1    2  501    0  0.45008278328E+01  0.25134597153E+02 -0.12991894055E+02  0.28649515465E+02  0.00000000000E+00 0. -1.
          1    1    1    2  502    0 -0.35648728285E+02  0.28223210957E+02  0.25658491309E+03  0.26058242283E+03  0.00000000000E+00 0. -1.
         22    1    3    3    0    0 -0.44469972775E+02 -0.45079320515E+02  0.37759535419E+02  0.73725885086E+02  0.00000000000E+00 0. -1.
         22    1    3    3    0    0  0.75617873227E+02 -0.82784875957E+01  0.49953266708E+02  0.91005082073E+02  0.00000000000E+00 0. -1.
</event>
<event>
 7    1  0.5931885E-006  0.4561005E+02  0.7818608E-02  0.1487166E+00
          2   -1    0    0  502    0  0.00000000000E+00  0.00000000000E+00  0.12612919643E+04  0.12612919643E+04  0.00000000000E+00 0. -1.
          1   -1    0    0  501    0 -0.00000000000E+00 -0.00000000000E+00 -0.40408240454E+03  0.40408240454E+03  0.00000000000E+00 0. -1.
         25    2    1    2    0    0  0.29947462457E+02 -0.36568179678E+02 -0.11222696758E+03  0.17451075118E+03  0.12500011101E+03 0.  0.
          2    1    1    2  501    0 -0.46616498109E+02 -0.40468675153E+00 -0.25829206352E+03  0.26246533436E+03  0.00000000000E+00 0. -1.
          1    1    1    2  502    0  0.16669035652E+02  0.36972866429E+02  0.12277285909E+04  0.12283982833E+04  0.00000000000E+00 0. -1.
         22    1    3    3    0    0  0.12448901705E+02 -0.49922389548E+01  0.27285167326E+02  0.30403584648E+02  0.00000000000E+00 0. -1.
         22    1    3    3    0    0  0.17498560752E+02 -0.31575940723E+02 -0.13951213490E+03  0.14410716653E+03  0.00000000000E+00 0. -1.
</event>
<event>
 7    1  0.5931885E-006  0.5469787E+02  0.7818608E-02  0.1538958E+00
          2   -1    0    0  502    0  0.00000000000E+00  0.00000000000E+00  0.14531931140E+04  0.14531931140E+04  0.00000000000E+00 0. -1.
          1   -1    0    0  501    0 -0.00000000000E+00 -0.00000000000E+00 -0.37020856749E+02  0.37020856749E+02  0.00000000000E+00 0. -1.
         25    2    1    2    0    0 -0.23759431133E+01 -0.67264333073E+02  0.10436980731E+04  0.10533098517E+04  0.12500336098E+03 0.  0.
          2    1    1    2  501    0  0.15724092702E+02  0.17917710033E+02 -0.25936197710E+02  0.35227514470E+02  0.00000000000E+00 0. -1.
          1    1    1    2  502    0 -0.13348149589E+02  0.49346623040E+02  0.39841038178E+03  0.40167660451E+03  0.00000000000E+00 0. -1.
         22    1    3    3    0    0  0.89876311964E+01  0.12201230184E+01  0.79642874961E+03  0.79648039487E+03  0.00000000000E+00 0. -1.
         22    1    3    3    0    0 -0.11363574310E+02 -0.68484456091E+02  0.24726932354E+03  0.25682945686E+03  0.00000000000E+00 0. -1.
</event>
<event>
 7    1  0.5931885E-006  0.1762026E+03  0.7818608E-02  0.1302140E+00
          2   -1    0    0  502    0  0.00000000000E+00  0.00000000000E+00  0.16381553295E+04  0.16381553295E+04  0.00000000000E+00 0. -1.
          1   -1    0    0  501    0 -0.00000000000E+00 -0.00000000000E+00 -0.23574483685E+03  0.23574483685E+03  0.00000000000E+00 0. -1.
         25    2    1    2    0    0 -0.14455351922E+03  0.12040796958E+03  0.10894023424E+04  0.11125717725E+04  0.12499874508E+03 0.  0.
          2    1    1    2  501    0  0.15859168788E+03 -0.76317888965E+02 -0.18838344813E+03  0.25780625898E+03  0.00000000000E+00 0. -1.
          1    1    1    2  502    0 -0.14038168657E+02 -0.44090080620E+02  0.50139159841E+03  0.50352213491E+03  0.00000000000E+00 0. -1.
         22    1    3    3    0    0 -0.99614864800E+02  0.52187498415E+02  0.89011479249E+03  0.89719061524E+03  0.00000000000E+00 0. -1.
         22    1    3    3    0    0 -0.44938654422E+02  0.68220471170E+02  0.19928754987E+03  0.21538115721E+03  0.00000000000E+00 0. -1.
</event>
<event>
 7    1  0.5931885E-006  0.4833385E+02  0.7818608E-02  0.1486325E+00
          2   -1    0    0  502    0  0.00000000000E+00  0.00000000000E+00  0.10114482808E+04  0.10114482808E+04  0.00000000000E+00 0. -1.
          1   -1    0    0  501    0 -0.00000000000E+00 -0.00000000000E+00 -0.29797407309E+03  0.29797407309E+03  0.00000000000E+00 0. -1.
         25    2    1    2    0    0 -0.13328576603E+02  0.15628874288E+01 -0.27361843406E+02  0.12866123269E+03  0.12499979501E+03 0.  0.
          2    1    1    2  501    0  0.48156281930E+02  0.14840113917E+02 -0.21668465334E+03  0.22246684126E+03  0.00000000000E+00 0. -1.
          1    1    1    2  502    0 -0.34827705327E+02 -0.16403001346E+02  0.95752070450E+03  0.95829427999E+03  0.00000000000E+00 0. -1.
         22    1    3    3    0    0  0.47386632094E+02  0.30596195433E+02 -0.10932338869E+01  0.56416444735E+02  0.00000000000E+00 0. -1.
         22    1    3    3    0    0 -0.60715208697E+02 -0.29033308004E+02 -0.26268609519E+02  0.72244787956E+02  0.00000000000E+00 0. -1.
</event>
<event>
 7    1  0.5931885E-006  0.8343527E+02  0.7818608E-02  0.1351524E+00
          2   -1    0    0  502    0  0.00000000000E+00  0.00000000000E+00  0.21766047258E+03  0.21766047258E+03  0.00000000000E+00 0. -1.
          1   -1    0    0  501    0 -0.00000000000E+00 -0.00000000000E+00 -0.18286665092E+03  0.18286665092E+03  0.00000000000E+00 0. -1.
         25    2    1    2    0    0 -0.34641492044E+02  0.50508053698E+01  0.14596961339E+03  0.19534135303E+03  0.12500229023E+03 0.  0.
          2    1    1    2  501    0  0.78726118201E+02  0.40153573491E+02 -0.11120417857E+03  0.14204393856E+03  0.00000000000E+00 0. -1.
          1    1    1    2  502    0 -0.44084626157E+02 -0.45204378861E+02  0.28386836657E-01  0.63141831914E+02  0.00000000000E+00 0. -1.
         22    1    3    3    0    0 -0.45469649577E+02  0.57491424155E+02  0.63319183362E+02  0.96861095728E+02  0.00000000000E+00 0. -1.
         22    1    3    3    0    0  0.10828157534E+02 -0.52440618785E+02  0.82650430024E+02  0.98480257297E+02  0.00000000000E+00 0. -1.
</event>
<event>
 7    1  0.5931885E-006  0.6862052E+02  0.7818608E-02  0.1471108E+00
          2   -1    0    0  502    0  0.00000000000E+00  0.00000000000E+00  0.68783369949E+03  0.68783369949E+03  0.00000000000E+00 0. -1.
          1   -1    0    0  501    0 -0.00000000000E+00 -0.00000000000E+00 -0.97393289038E+03  0.97393289038E+03  0.00000000000E+00 0. -1.
         25    2    1    2    0    0 -0.10653744071E+02 -0.59038130874E+02  0.17002895720E+03  0.21939589295E+03  0.12500283357E+03 0.  0.
          2    1    1    2  501    0  0.40634199193E+02  0.55412256899E+02 -0.94754177386E+03  0.95003003614E+03  0.00000000000E+00 0. -1.
          1    1    1    2  502    0 -0.29980455121E+02  0.36258739742E+01  0.49141362578E+03  0.49234066077E+03  0.00000000000E+00 0. -1.
         22    1    3    3    0    0  0.13526781867E+02 -0.32255893081E+02  0.17885995686E+03  0.18224790982E+03  0.00000000000E+00 0.  1.
         22    1    3    3    0    0 -0.24180525939E+02 -0.26782237793E+02 -0.88309996628E+01  0.37147983134E+02  0.00000000000E+00 0.  1.
</event>
<event>
 7    1  0.5931885E-006  0.6588565E+02  0.7818608E-02  0.1480519E+00
          2   -1    0    0  502    0  0.00000000000E+00  0.00000000000E+00  0.79030054846E+02  0.79030054846E+02  0.00000000000E+00 0. -1.
          1   -1    0    0  501    0 -0.00000000000E+00 -0.00000000000E+00 -0.32337546686E+03  0.32337546686E+03  0.00000000000E+00 0. -1.
         25    2    1    2    0    0  0.18815022708E+02  0.63943556810E+02 -0.20825706665E+03  0.25187045648E+03  0.12499975001E+03 0.  0.
          2    1    1    2  501    0  0.10439662564E+02 -0.67041928829E+02 -0.75400760183E+02  0.10143412351E+03  0.00000000000E+00 0. -1.
          1    1    1    2  502    0 -0.29254685272E+02  0.30983720183E+01  0.39312414811E+02  0.49100941720E+02  0.00000000000E+00 0. -1.
         22    1    3    3    0    0  0.42702511648E+02  0.85514807957E+02 -0.97524807803E+02  0.13655539176E+03  0.00000000000E+00 0.  1.
         22    1    3    3    0    0 -0.23887488940E+02 -0.21571251146E+02 -0.11073225884E+03  0.11531506472E+03  0.00000000000E+00 0.  1.
</event>
<event>
 7    1  0.5931885E-006  0.2520984E+03  0.7818608E-02  0.1293602E+00
          2   -1    0    0  502    0  0.00000000000E+00  0.00000000000E+00  0.91081158247E+03  0.91081158247E+03  0.00000000000E+00 0. -1.
          1   -1    0    0  501    0 -0.00000000000E+00 -0.00000000000E+00 -0.32763396155E+03  0.32763396155E+03  0.00000000000E+00 0. -1.
         25    2    1    2    0    0  0.15830714168E+03  0.16160786811E+03  0.64470939580E+03  0.69458898554E+03  0.12500159862E+03 0.  0.
          2    1    1    2  501    0 -0.19310241629E+03 -0.16537182061E+03 -0.24738705159E+03  0.35473473966E+03  0.00000000000E+00 0. -1.
          1    1    1    2  502    0  0.34795274609E+02  0.37639524910E+01  0.18585527671E+03  0.18912181882E+03  0.00000000000E+00 0. -1.
         22    1    3    3    0    0  0.10120121167E+03  0.12484110221E+03  0.27353041217E+03  0.31724733636E+03  0.00000000000E+00 0.  1.
         22    1    3    3    0    0  0.57105930006E+02  0.36766765902E+02  0.37117898363E+03  0.37734164918E+03  0.00000000000E+00 0.  1.
</event>
<event>
 7    1  0.5931885E-006  0.6816695E+02  0.7818608E-02  0.1474635E+00
          2   -1    0    0  502    0  0.00000000000E+00  0.00000000000E+00  0.28029514314E+04  0.28029514314E+04  0.00000000000E+00 0. -1.
          1   -1    0    0  501    0 -0.00000000000E+00 -0.00000000000E+00 -0.15837269531E+02  0.15837269531E+02  0.00000000000E+00 0. -1.
         25    2    1    2    0    0  0.14801927611E+02 -0.44409375992E+02  0.76417973617E+03  0.77574903831E+03  0.12499844613E+03 0.  0.
          2    1    1    2  501    0 -0.38196932823E+01  0.71944549453E+02  0.12064902319E+03  0.14052329006E+03  0.00000000000E+00 0. -1.
          1    1    1    2  502    0 -0.10982234329E+02 -0.27535173461E+02  0.19022854025E+04  0.19025163725E+04  0.00000000000E+00 0. -1.
         22    1    3    3    0    0 -0.47029799433E+02 -0.31194589759E+02  0.53626930210E+03  0.53923062676E+03  0.00000000000E+00 0. -1.
         22    1    3    3    0    0  0.61831727044E+02 -0.13214786233E+02  0.22791043407E+03  0.23651841155E+03  0.00000000000E+00 0. -1.
</event>
<event>
 7    1  0.5931885E-006  0.8093847E+02  0.7818608E-02  0.1353558E+00
          2   -1    0    0  502    0  0.00000000000E+00  0.00000000000E+00  0.38439083690E+03  0.38439083690E+03  0.00000000000E+00 0. -1.
          1   -1    0    0  501    0 -0.00000000000E+00 -0.00000000000E+00 -0.53984867422E+03  0.53984867422E+03  0.00000000000E+00 0. -1.
         25    2    1    2    0    0 -0.45956823986E+02  0.11262228853E+03 -0.36917708624E+02  0.17828641836E+03  0.12500928052E+03 0.  0.
          2    1    1    2  501    0 -0.15587481537E+02 -0.62046269782E+02 -0.42475536150E+03  0.42954607006E+03  0.00000000000E+00 0. -1.
          1    1    1    2  502    0  0.61544305523E+02 -0.50576018750E+02  0.30621523280E+03  0.31640702270E+03  0.00000000000E+00 0. -1.
         22    1    3    3    0    0  0.27096611434E+02  0.83974166079E+02 -0.45624136956E+02  0.99335033059E+02  0.00000000000E+00 0.  1.
         22    1    3    3    0    0 -0.73053435420E+02  0.28648122452E+02  0.87064283317E+01  0.78951385301E+02  0.00000000000E+00 0.  1.
</event>
<event>
 7    1  0.5931885E-006  0.2576703E+02  0.7818608E-02  0.1692919E+00
          2   -1    0    0  502    0  0.00000000000E+00  0.00000000000E+00  0.42837753095E+03  0.42837753095E+03  0.00000000000E+00 0. -1.
          1   -1    0    0  501    0 -0.00000000000E+00 -0.00000000000E+00 -0.22562668968E+03  0.22562668968E+03  0.00000000000E+00 0. -1.
         25    2    1    2    0    0  0.30374161211E+02  0.24094199608E+02 -0.59478295114E+02  0.14375541772E+03  0.12499932964E+03 0.  0.
          2    1    1    2  501    0 -0.25117627172E+02 -0.44082104024E+01 -0.12242629321E+03  0.12505408743E+03  0.00000000000E+00 0. -1.
          1    1    1    2  502    0 -0.52565340392E+01 -0.19685989206E+02  0.38465542960E+03  0.38519471549E+03  0.00000000000E+00 0. -1.
         22    1    3    3    0    0  0.16255505221E+02 -0.27839367984E+02 -0.79926615903E+02  0.86183152584E+02  0.00000000000E+00 0.  1.
         22    1    3    3    0    0  0.14118655990E+02  0.51933567592E+02  0.20448320789E+02  0.57572265136E+02  0.00000000000E+00 0.  1.
</event>
<event>
 7    1  0.5931885E-006  0.1581304E+03  0.7818608E-02  0.1224581E+00
          2   -1    0    0  502    0  0.00000000000E+00  0.00000000000E+00  0.71651224707E+03  0.71651224707E+03  0.00000000000E+00 0. -1.
          1   -1    0    0  501    0 -0.00000000000E+00 -0.00000000000E+00 -0.76680906844E+03  0.76680906844E+03  0.00000000000E+00 0. -1.
         25    2    1    2    0    0  0.73914756206E+02  0.16008131254E+03  0.14306041445E+01  0.21613979837E+03  0.12499979200E+03 0.  0.
          2    1    1    2  501    0  0.67887657005E+02 -0.86698449618E+02 -0.64421461578E+03  0.65355782171E+03  0.00000000000E+00 0. -1.
          1    1    1    2  502    0 -0.14180241321E+03 -0.73382862924E+02  0.59248719027E+03  0.61362369543E+03  0.00000000000E+00 0. -1.
         22    1    3    3    0    0  0.48428747558E+00  0.13365175638E+03 -0.20164210626E+02  0.13516516529E+03  0.00000000000E+00 0. -1.
         22    1    3    3    0    0  0.73430468731E+02  0.26429556162E+02  0.21594814770E+02  0.80974633077E+02  0.00000000000E+00 0. -1.
</event>
<event>
 7    1  0.5931885E-006  0.1579967E+03  0.7818608E-02  0.1278507E+00
          2   -1    0    0  502    0  0.00000000000E+00  0.00000000000E+00  0.46075894462E+04  0.46075894462E+04  0.00000000000E+00 0. -1.
          1   -1    0    0  501    0 -0.00000000000E+00 -0.00000000000E+00 -0.18992857305E+03  0.18992857305E+03  0.00000000000E+00 0. -1.
         25    2    1    2    0    0 -0.20311719879E+03 -0.67214003036E+02  0.24712733843E+03  0.34995890389E+03  0.12499997745E+03 0.  0.
          2    1    1    2  501    0  0.14520297797E+03  0.39093170835E+02 -0.97385912844E+02  0.17915411477E+03  0.00000000000E+00 0. -1.
          1    1    1    2  502    0  0.57914220821E+02  0.28120832201E+02  0.42679194475E+04  0.42684050005E+04  0.00000000000E+00 0. -1.
         22    1    3    3    0    0 -0.12594697581E+03 -0.14285085740E+02  0.58936452287E+02  0.13978630047E+03  0.00000000000E+00 0. -1.
         22    1    3    3    0    0 -0.77170222977E+02 -0.52928917296E+02  0.18819088615E+03  0.21017260342E+03  0.00000000000E+00 0. -1.
</event>
<event>
 7    1  0.5931885E-006  0.7069040E+02  0.7818608E-02  0.1375267E+00
          2   -1    0    0  502    0  0.00000000000E+00  0.00000000000E+00  0.11631462588E+04  0.11631462588E+04  0.00000000000E+00 0. -1.
          1   -1    0    0  501    0 -0.00000000000E+00 -0.00000000000E+00 -0.26647832602E+03  0.26647832602E+03  0.00000000000E+00 0. -1.
         25    2    1    2    0    0 -0.48674704523E+02  0.80245295948E+01  0.18103727808E+03  0.22545777489E+03  0.12499236884E+03 0.  0.
          2    1    1    2  501    0 -0.19984755021E+01 -0.61074652976E+02 -0.23901683153E+03  0.24670458628E+03  0.00000000000E+00 0. -1.
          1    1    1    2  502    0  0.50673180025E+02  0.53050123381E+02  0.95464748620E+03  0.95746222363E+03  0.00000000000E+00 0. -1.
         22    1    3    3    0    0  0.25853657806E+02  0.28959574445E+02  0.13849521020E+02  0.41217445414E+02  0.00000000000E+00 0. -1.
         22    1    3    3    0    0 -0.74528362330E+02 -0.20935044850E+02  0.16718775706E+03  0.18424032948E+03  0.00000000000E+00 0. -1.
</event>
<event>
 7    1  0.5931885E-006  0.4716450E+02  0.7818608E-02  0.1496319E+00
          2   -1    0    0  502    0  0.00000000000E+00  0.00000000000E+00  0.80801809487E+03  0.80801809487E+03  0.00000000000E+00 0. -1.
          1   -1    0    0  501    0 -0.00000000000E+00 -0.00000000000E+00 -0.10585125130E+04  0.10585125130E+04  0.00000000000E+00 0. -1.
         25    2    1    2    0    0 -0.71662120240E+02  0.17609328791E+02 -0.61278817528E+02  0.15755948265E+03  0.12499739661E+03 0.  0.
          2    1    1    2  501    0  0.36731591636E+02 -0.29199095327E+02 -0.94806715671E+03  0.94922764953E+03  0.00000000000E+00 0. -1.
          1    1    1    2  502    0  0.34930528604E+02  0.11589766536E+02  0.75885155615E+03  0.75974347565E+03  0.00000000000E+00 0. -1.
         22    1    3    3    0    0 -0.99383594162E+02  0.42256315635E+02 -0.43510991929E+02  0.11642981327E+03  0.00000000000E+00 0. -1.
         22    1    3    3    0    0  0.27721473922E+02 -0.24646986844E+02 -0.17767825599E+02  0.41129669381E+02  0.00000000000E+00 0. -1.
</event>
<event>
 7    1  0.5931885E-006  0.2035997E+03  0.7818608E-02  0.1258489E+00
          2   -1    0    0  502    0  0.00000000000E+00  0.00000000000E+00  0.19639874883E+03  0.19639874883E+03  0.00000000000E+00 0. -1.
          1   -1    0    0  501    0 -0.00000000000E+00 -0.00000000000E+00 -0.13944063226E+04  0.13944063226E+04  0.00000000000E+00 0. -1.
         25    2    1    2    0    0 -0.34560092322E+02 -0.21112933825E+03 -0.70288695345E+03  0.74528195885E+03  0.12500052563E+03 0.  0.
          2    1    1    2  501    0  0.59940968483E+02  0.93046269650E+01 -0.60926113878E+03  0.61227333031E+03  0.00000000000E+00 0. -1.
          1    1    1    2  502    0 -0.25380876161E+02  0.20182471129E+03  0.11414051848E+03  0.23324978225E+03  0.00000000000E+00 0. -1.
         22    1    3    3    0    0 -0.54303725083E+01 -0.85628313644E+02 -0.11521502663E+03  0.14365305219E+03  0.00000000000E+00 0. -1.
         22    1    3    3    0    0 -0.29129719814E+02 -0.12550102461E+03 -0.58767192682E+03  0.60162890666E+03  0.00000000000E+00 0. -1.
</event>
<event>
 7    1  0.7542556E-006  0.8084124E+02  0.7818608E-02  0.1350550E+00
          2   -1    0    0  502    0  0.00000000000E+00  0.00000000000E+00  0.53235238906E+03  0.53235238906E+03  0.00000000000E+00 0. -1.
          1   -1    0    0  501    0 -0.00000000000E+00 -0.00000000000E+00 -0.29804972491E+04  0.29804972491E+04  0.00000000000E+00 0. -1.
         25    2    1    2    0    0  0.52926761209E+01  0.60681620457E+02 -0.73564537310E+03  0.74867168717E+03  0.12499963493E+03 0.  0.
          2    1    1    2  501    0  0.63316533708E+02 -0.17576226691E+02 -0.22347315655E+04  0.22356974475E+04  0.00000000000E+00 0. -1.
          1    1    1    2  502    0 -0.68609209829E+02 -0.43105393766E+02  0.52223207854E+03  0.52848050343E+03  0.00000000000E+00 0. -1.
         22    1    3    3    0    0  0.52859418486E+01 -0.35966723572E+02 -0.31367828730E+03  0.31577779262E+03  0.00000000000E+00 0.  1.
         22    1    3    3    0    0  0.67342723024E-02  0.96648344029E+02 -0.42196708579E+03  0.43289389455E+03  0.00000000000E+00 0.  1.
</event>
<event>
 7    1  0.5931885E-006  0.6390222E+02  0.7818608E-02  0.1443243E+00
          2   -1    0    0  502    0  0.00000000000E+00  0.00000000000E+00  0.17661538755E+04  0.17661538755E+04  0.00000000000E+00 0. -1.
          1   -1    0    0  501    0 -0.00000000000E+00 -0.00000000000E+00 -0.73002018474E+02  0.73002018474E+02  0.00000000000E+00 0. -1.
         25    2    1    2    0    0  0.45724207136E+02  0.28623729440E+02  0.85796319710E+03  0.86869804032E+03  0.12500166667E+03 0.  0.
          2    1    1    2  501    0 -0.63931002173E+02  0.66966779548E+01 -0.51815345669E+02  0.82564208840E+02  0.00000000000E+00 0. -1.
          1    1    1    2  502    0  0.18206795037E+02 -0.35320407395E+02  0.88700400559E+03  0.88789364481E+03  0.00000000000E+00 0. -1.
         22    1    3    3    0    0 -0.21544525410E+02  0.21526326668E+02  0.54823973174E+02  0.62715367730E+02  0.00000000000E+00 0. -1.
         22    1    3    3    0    0  0.67268732546E+02  0.70974027721E+01  0.80313922393E+03  0.80598267259E+03  0.00000000000E+00 0. -1.
</event>
<event>
 7    1  0.5931885E-006  0.3130825E+02  0.7818608E-02  0.1590879E+00
          2   -1    0    0  502    0  0.00000000000E+00  0.00000000000E+00  0.95207473796E+03  0.95207473796E+03  0.00000000000E+00 0. -1.
          1   -1    0    0  501    0 -0.00000000000E+00 -0.00000000000E+00 -0.53488354821E+03  0.53488354821E+03  0.00000000000E+00 0. -1.
         25    2    1    2    0    0  0.17645876796E+02  0.57715461533E+02  0.45703062365E+03  0.47764582819E+03  0.12500437899E+03 0.  0.
          2    1    1    2  501    0 -0.14167966156E+02 -0.27887564565E+02 -0.52364368179E+03  0.52457711826E+03  0.00000000000E+00 0. -1.
          1    1    1    2  502    0 -0.34779106395E+01 -0.29827896969E+02  0.48380424789E+03  0.48473533972E+03  0.00000000000E+00 0. -1.
         22    1    3    3    0    0 -0.17155113108E+02  0.29710863711E+02  0.22957887228E+02  0.41280720853E+02  0.00000000000E+00 0. -1.
         22    1    3    3    0    0  0.34800989904E+02  0.28004597822E+02  0.43407273642E+03  0.43636510734E+03  0.00000000000E+00 0. -1.
</event>
<event>
 7    1  0.5931885E-006  0.7981516E+02  0.7818608E-02  0.1448307E+00
          2   -1    0    0  502    0  0.00000000000E+00  0.00000000000E+00  0.29726245512E+03  0.29726245512E+03  0.00000000000E+00 0. -1.
          1   -1    0    0  501    0 -0.00000000000E+00 -0.00000000000E+00 -0.90363335924E+03  0.90363335924E+03  0.00000000000E+00 0. -1.
         25    2    1    2    0    0 -0.67477329310E+02  0.17795244289E+02 -0.63531958218E+03  0.65124917098E+03  0.12499860202E+03 0.  0.
          2    1    1    2  501    0  0.78879092751E+02 -0.46237446751E+02 -0.25146101093E+03  0.26756766017E+03  0.00000000000E+00 0. -1.
          1    1    1    2  502    0 -0.11401763440E+02  0.28442202463E+02  0.28040968899E+03  0.28207898321E+03  0.00000000000E+00 0. -1.
         22    1    3    3    0    0  0.29010383158E+02 -0.30643605915E+01 -0.51897065557E+02  0.59534007510E+02  0.00000000000E+00 0.  1.
         22    1    3    3    0    0 -0.96487712468E+02  0.20859604880E+02 -0.58342251662E+03  0.59171516347E+03  0.00000000000E+00 0.  1.
</event>
<event>
 7    1  0.5931885E-006  0.1655514E+03  0.7818608E-02  0.1261485E+00
          2   -1    0    0  502    0  0.00000000000E+00  0.00000000000E+00  0.42334908274E+03  0.42334908274E+03  0.00000000000E+00 0. -1.
          1   -1    0    0  501    0 -0.00000000000E+00 -0.00000000000E+00 -0.14426430791E+04  0.14426430791E+04  0.00000000000E+00 0. -1.
         25    2    1    2    0    0 -0.15997869571E+03 -0.16968814884E+03 -0.64736441264E+03  0.69935188467E+03  0.12500049958E+03 0.  0.
          2    1    1    2  501    0  0.35431763270E+02  0.63178376212E+02 -0.75056998161E+03  0.75405716916E+03  0.00000000000E+00 0. -1.
          1    1    1    2  502    0  0.12454693244E+03  0.10650977263E+03  0.37864039792E+03  0.41258310797E+03  0.00000000000E+00 0. -1.
         22    1    3    3    0    0 -0.22922306458E+01  0.12233301100E+02 -0.51044554783E+01  0.13452265343E+02  0.00000000000E+00 0. -1.
         22    1    3    3    0    0 -0.15768646507E+03 -0.18192144994E+03 -0.64225995716E+03  0.68589961932E+03  0.00000000000E+00 0. -1.
</event>
<event>
 7    1  0.5931885E-006  0.4576189E+02  0.7818608E-02  0.1508411E+00
          2   -1    0    0  502    0  0.00000000000E+00  0.00000000000E+00  0.11238316344E+04  0.11238316344E+04  0.00000000000E+00 0. -1.
          1   -1    0    0  501    0 -0.00000000000E+00 -0.00000000000E+00 -0.49530212917E+02  0.49530212917E+02  0.00000000000E+00 0. -1.
         25    2    1    2    0    0  0.31420520149E+02 -0.72398517237E+02  0.28631851755E+03  0.32223044487E+03  0.12500148688E+03 0.  0.
          2    1    1    2  501    0 -0.16114167985E+02  0.41016160557E+02 -0.15631916048E+02  0.46758407116E+02  0.00000000000E+00 0. -1.
          1    1    1    2  502    0 -0.15306352164E+02  0.31382356680E+02  0.80361481998E+03  0.80437299534E+03  0.00000000000E+00 0. -1.
         22    1    3    3    0    0  0.78149218554E+02 -0.37938201957E+02  0.20165510716E+03  0.21957092197E+03  0.00000000000E+00 0. -1.
         22    1    3    3    0    0 -0.46728698405E+02 -0.34460315280E+02  0.84663410384E+02  0.10265952290E+03  0.00000000000E+00 0. -1.
</event>
<event>
 7    1  0.5931885E-006  0.2553127E+03  0.7818608E-02  0.1240522E+00
          2   -1    0    0  502    0  0.00000000000E+00  0.00000000000E+00  0.21152900967E+04  0.21152900967E+04  0.00000000000E+00 0. -1.
          1   -1    0    0  501    0 -0.00000000000E+00 -0.00000000000E+00 -0.15993282207E+04  0.15993282207E+04  0.00000000000E+00 0. -1.
         25    2    1    2    0    0 -0.16615455860E+03 -0.11999236634E+03  0.70390937408E+02  0.25016852995E+03  0.12499561586E+03 0.  0.
          2    1    1    2  501    0  0.19509770791E+03  0.17012929310E+03 -0.14979072299E+04  0.15201095887E+04  0.00000000000E+00 0. -1.
          1    1    1    2  502    0 -0.28943149317E+02 -0.50136926754E+02  0.19434781685E+04  0.19443401989E+04  0.00000000000E+00 0. -1.
         22    1    3    3    0    0 -0.16197267117E+03 -0.14233706370E+03  0.72125216349E+02  0.22736981494E+03  0.00000000000E+00 0. -1.
         22    1    3    3    0    0 -0.41818874244E+01  0.22344697363E+02 -0.17342789411E+01  0.22798715010E+02  0.00000000000E+00 0. -1.
</event>
<event>
 7    1  0.5931885E-006  0.3772561E+02  0.7818608E-02  0.1585447E+00
          2   -1    0    0  502    0  0.00000000000E+00  0.00000000000E+00  0.79781128065E+03  0.79781128065E+03  0.00000000000E+00 0. -1.
          1   -1    0    0  501    0 -0.00000000000E+00 -0.00000000000E+00 -0.26356675159E+02  0.26356675159E+02  0.00000000000E+00 0. -1.
         25    2    1    2    0    0  0.35918339154E+02 -0.50780152393E+02  0.27769727751E+03  0.31082266904E+03  0.12500481066E+03 0.  0.
          2    1    1    2  501    0 -0.17120114407E+02  0.19251453717E+02  0.91343364282E+01  0.27334097562E+02  0.00000000000E+00 0. -1.
          1    1    1    2  502    0 -0.18798224747E+02  0.31528698675E+02  0.48462299155E+03  0.48601118921E+03  0.00000000000E+00 0. -1.
         22    1    3    3    0    0  0.12920822605E+02 -0.59594304903E+02  0.42473465690E+02  0.74313014481E+02  0.00000000000E+00 0. -1.
         22    1    3    3    0    0  0.22997516549E+02  0.88141525102E+01  0.23522381182E+03  0.23650965456E+03  0.00000000000E+00 0. -1.
</event>
<event>
 7    1  0.5931885E-006  0.7011615E+02  0.7818608E-02  0.1514035E+00
          2   -1    0    0  502    0  0.00000000000E+00  0.00000000000E+00  0.32113022233E+03  0.32113022233E+03  0.00000000000E+00 0. -1.
          1   -1    0    0  501    0 -0.00000000000E+00 -0.00000000000E+00 -0.46835805315E+03  0.46835805315E+03  0.00000000000E+00 0. -1.
         25    2    1    2    0    0 -0.42490985275E+02 -0.52202817360E+02 -0.90528222182E+02  0.16837658730E+03  0.12499879267E+03 0.  0.
          2    1    1    2  501    0 -0.16696399694E+02  0.14229567365E+02 -0.33415963427E+03  0.33487895056E+03  0.00000000000E+00 0. -1.
          1    1    1    2  502    0  0.59187384969E+02  0.37973249995E+02  0.27746002564E+03  0.28623273761E+03  0.00000000000E+00 0. -1.
         22    1    3    3    0    0  0.39171917637E+02 -0.71751277931E+01 -0.56465700907E+02  0.69096287665E+02  0.00000000000E+00 0. -1.
         22    1    3    3    0    0 -0.81662902912E+02 -0.45027689567E+02 -0.34062521275E+02  0.99280299634E+02  0.00000000000E+00 0. -1.
</event>
<event>
 7    1  0.5931885E-006  0.4709611E+02  0.7818608E-02  0.1509128E+00
          2   -1    0    0  502    0  0.00000000000E+00  0.00000000000E+00  0.14509072332E+04  0.14509072332E+04  0.00000000000E+00 0. -1.
          1   -1    0    0  501    0 -0.00000000000E+00 -0.00000000000E+00 -0.29274778948E+03  0.29274778948E+03  0.00000000000E+00 0. -1.
         25    2    1    2    0    0 -0.97037953223E+01  0.29740946608E+02  0.97746026184E+01  0.12922679071E+03  0.12500133212E+03 0.  0.
          2    1    1    2  501    0 -0.32621772089E+02 -0.87014972595E+01 -0.23139194008E+03  0.23384209631E+03  0.00000000000E+00 0. -1.
          1    1    1    2  502    0  0.42325567411E+02 -0.21039449349E+02  0.13797767812E+04  0.13805861356E+04  0.00000000000E+00 0. -1.
         22    1    3    3    0    0  0.50037914823E+02  0.37886617005E+02  0.24138888572E+02  0.67244885378E+02  0.00000000000E+00 0. -1.
         22    1    3    3    0    0 -0.59741710146E+02 -0.81456703962E+01 -0.14364285954E+02  0.61981905330E+02  0.00000000000E+00 0. -1.
</event>
<event>
 7    1  0.5931885E-006  0.1266615E+03  0.7818608E-02  0.1434614E+00
          2   -1    0    0  502    0  0.00000000000E+00  0.00000000000E+00  0.22221723988E+04  0.22221723988E+04  0.00000000000E+00 0. -1.
          1   -1    0    0  501    0 -0.00000000000E+00 -0.00000000000E+00 -0.51680584127E+02  0.51680584127E+02  0.00000000000E+00 0. -1.
         25    2    1    2    0    0 -0.40681593492E+02 -0.98669216874E+02  0.12796255064E+04  0.12901385603E+04  0.12500184749E+03 0.  0.
          2    1    1    2  501    0  0.50621153806E+02  0.11760404644E+03  0.42247275258E+02  0.13482598124E+03  0.00000000000E+00 0. -1.
          1    1    1    2  502    0 -0.99395603133E+01 -0.18934829564E+02  0.84861903305E+03  0.84888844136E+03  0.00000000000E+00 0. -1.
         22    1    3    3    0    0 -0.47137047668E+01 -0.31021603467E+02  0.99163004028E+03  0.99212635066E+03  0.00000000000E+00 0.  1.
         22    1    3    3    0    0 -0.35967888725E+02 -0.67647613406E+02  0.28799546608E+03  0.29801220965E+03  0.00000000000E+00 0.  1.
</event>
<event>
 7    1  0.5931885E-006  0.1429464E+03  0.7818608E-02  0.1275476E+00
          2   -1    0    0  502    0  0.00000000000E+00  0.00000000000E+00  0.92916103733E+03  0.92916103733E+03  0.00000000000E+00 0. -1.
          1   -1    0    0  501    0 -0.00000000000E+00 -0.00000000000E+00 -0.26752748280E+03  0.26752748280E+03  0.00000000000E+00 0. -1.
         25    2    1    2    0    0 -0.17616205818E+03  0.89390495467E+02 -0.64698437906E+02  0.24255728095E+03  0.12499766099E+03 0.  0.
          2    1    1    2  501    0  0.72934555989E+02  0.67982990306E+01 -0.95453720098E+02  0.12032073391E+03  0.00000000000E+00 0. -1.
          1    1    1    2  502    0  0.10322750219E+03 -0.96188794498E+02  0.82178571254E+03  0.83381050528E+03  0.00000000000E+00 0. -1.
         22    1    3    3    0    0 -0.52466676785E+02  0.22949641455E+02 -0.83126970887E+02  0.10094320930E+03  0.00000000000E+00 0. -1.
         22    1    3    3    0    0 -0.12369538139E+03  0.66440854012E+02  0.18428532981E+02  0.14161407164E+03  0.00000000000E+00 0. -1.
</event>
<event>
 7    1  0.5931885E-006  0.1198056E+03  0.7818608E-02  0.1272533E+00
          2   -1    0    0  502    0  0.00000000000E+00  0.00000000000E+00  0.98800734664E+03  0.98800734664E+03  0.00000000000E+00 0. -1.
          1   -1    0    0  501    0 -0.00000000000E+00 -0.00000000000E+00 -0.58929318428E+03  0.58929318428E+03  0.00000000000E+00 0. -1.
         25    2    1    2    0    0 -0.26043975866E+02  0.22662799902E+02 -0.46949557057E+02  0.13791568518E+03  0.12499833652E+03 0.  0.
          2    1    1    2  501    0 -0.80728637891E+02  0.39572223579E+02 -0.48869095965E+03  0.49689226991E+03  0.00000000000E+00 0. -1.
          1    1    1    2  502    0  0.10677261376E+03 -0.62235023481E+02  0.93435467907E+03  0.94249257583E+03  0.00000000000E+00 0. -1.
         22    1    3    3    0    0 -0.44939339315E+02 -0.32416479127E+02 -0.56237300102E+02  0.78949390497E+02  0.00000000000E+00 0. -1.
         22    1    3    3    0    0  0.18895363449E+02  0.55079279029E+02  0.92877430452E+01  0.58966294687E+02  0.00000000000E+00 0. -1.
</event>
<event>
 7    1  0.5931885E-006  0.6676188E+02  0.7818608E-02  0.1384688E+00
          2   -1    0    0  502    0  0.00000000000E+00  0.00000000000E+00  0.19928054738E+04  0.19928054738E+04  0.00000000000E+00 0. -1.
          1   -1    0    0  501    0 -0.00000000000E+00 -0.00000000000E+00 -0.42158427438E+02  0.42158427438E+02  0.00000000000E+00 0. -1.
         25    2    1    2    0    0  0.90082647818E+01  0.18108524252E+02  0.59640456474E+03  0.60969839495E+03  0.12499864189E+03 0.  0.
          2    1    1    2  501    0  0.58272780561E+02  0.13944530928E+02 -0.84725904297E+01  0.60514061884E+02  0.00000000000E+00 0. -1.
          1    1    1    2  502    0 -0.67281045343E+02 -0.32053055180E+02  0.13627150721E+04  0.13647514444E+04  0.00000000000E+00 0. -1.
         22    1    3    3    0    0  0.61020257913E+02  0.22365148735E+02  0.21114770776E+03  0.22092312293E+03  0.00000000000E+00 0. -1.
         22    1    3    3    0    0 -0.52011993132E+02 -0.42566244833E+01  0.38525685697E+03  0.38877527201E+03  0.00000000000E+00 0. -1.
</event>
<event>
 7    1  0.5931885E-006  0.1102261E+03  0.7818608E-02  0.1317789E+00
          2   -1    0    0  502    0  0.00000000000E+00  0.00000000000E+00  0.36495408229E+03  0.36495408229E+03  0.00000000000E+00 0. -1.
          1   -1    0    0  501    0 -0.00000000000E+00 -0.00000000000E+00 -0.20191455339E+03  0.20191455339E+03  0.00000000000E+00 0. -1.
         25    2    1    2    0    0  0.79084310860E+02  0.28052691227E+02  0.16943950442E+03  0.22666131163E+03  0.12499729126E+03 0.  0.
          2    1    1    2  501    0  0.36051228760E+02  0.53091432372E+02 -0.13499917948E+03  0.14947631835E+03  0.00000000000E+00 0. -1.
          1    1    1    2  502    0 -0.11513553962E+03 -0.81144123600E+02  0.12859920396E+03  0.19073100570E+03  0.00000000000E+00 0. -1.
         22    1    3    3    0    0  0.25938866862E+02  0.27560080443E+02 -0.10304391756E+02  0.39224524695E+02  0.00000000000E+00 0.  1.
         22    1    3    3    0    0  0.53145443998E+02  0.49261078390E+00  0.17974389617E+03  0.18743678693E+03  0.00000000000E+00 0.  1.
</event>
<event>
 7    1  0.5931885E-006  0.6898494E+02  0.7818608E-02  0.1402096E+00
          2   -1    0    0  502    0  0.00000000000E+00  0.00000000000E+00  0.14391915792E+04  0.14391915792E+04  0.00000000000E+00 0. -1.
          1   -1    0    0  501    0 -0.00000000000E+00 -0.00000000000E+00 -0.36373684875E+03  0.36373684875E+03  0.00000000000E+00 0. -1.
         25    2    1    2    0    0 -0.20343204495E+02 -0.19262039923E+02  0.16669060793E+03  0.21022556842E+03  0.12499663473E+03 0.  0.
          2    1    1    2  501    0 -0.49842375424E+02  0.78237818353E+01 -0.33909066300E+03  0.34282349931E+03  0.00000000000E+00 0. -1.
          1    1    1    2  502    0  0.70185579918E+02  0.11438258088E+02  0.12478547855E+04  0.12498793602E+04  0.00000000000E+00 0. -1.
         22    1    3    3    0    0 -0.68213651276E+02 -0.25917226902E+01  0.13259662837E+03  0.14913646469E+03  0.00000000000E+00 0.  1.
         22    1    3    3    0    0  0.47870446781E+02 -0.16670317233E+02  0.34093979564E+02  0.61089103727E+02  0.00000000000E+00 0.  1.
</event>
<event>
 7    1  0.5931885E-006  0.9145241E+02  0.7818608E-02  0.1343931E+00
          2   -1    0    0  502    0  0.00000000000E+00  0.00000000000E+00  0.40719273156E+03  0.40719273156E+03  0.00000000000E+00 0. -1.
          1   -1    0    0  501    0 -0.00000000000E+00 -0.00000000000E+00 -0.22318995281E+04  0.22318995281E+04  0.00000000000E+00 0. -1.
         25    2    1    2    0    0  0.19921454369E+02  0.11831087288E+03 -0.96102300964E+03  0.97651650966E+03  0.12499976641E+03 0.  0.
          2    1    1    2  501    0 -0.55792225816E+02 -0.68385555291E+02 -0.12592106983E+04  0.12622998611E+04  0.00000000000E+00 0. -1.
          1    1    1    2  502    0  0.35870771447E+02 -0.49925317586E+02  0.39552691140E+03  0.40027588889E+03  0.00000000000E+00 0. -1.
         22    1    3    3    0    0  0.63312392249E+01  0.14304523678E+03 -0.84922080048E+03  0.86120728766E+03  0.00000000000E+00 0. -1.
         22    1    3    3    0    0  0.13590215144E+02 -0.24734363902E+02 -0.11180220916E+03  0.11530922200E+03  0.00000000000E+00 0. -1.
</event>
<event>
 7    1  0.5931885E-006  0.4527466E+02  0.7818608E-02  0.1555773E+00
          2   -1    0    0  502    0  0.00000000000E+00  0.00000000000E+00  0.80276766902E+03  0.80276766902E+03  0.00000000000E+00 0. -1.
          1   -1    0    0  501    0 -0.00000000000E+00 -0.00000000000E+00 -0.13273946066E+03  0.13273946066E+03  0.00000000000E+00 0. -1.
         25    2    1    2    0    0 -0.76219792450E+01 -0.21342357054E+02  0.10301682697E+02  0.12745477455E+03  0.12500001647E+03 0.  0.
          2    1    1    2  501    0  0.79897787439E+01  0.47182130762E+02 -0.66189527660E+02  0.81676456825E+02  0.00000000000E+00 0. -1.
          1    1    1    2  502    0 -0.36779949895E+00 -0.25839773708E+02  0.72591605332E+03  0.72637589831E+03  0.00000000000E+00 0. -1.
         22    1    3    3    0    0  0.86923679630E+00 -0.39598501967E+02  0.61098247862E+02  0.72813411007E+02  0.00000000000E+00 0. -1.
         22    1    3    3    0    0 -0.84912160413E+01  0.18256144913E+02 -0.50796565166E+02  0.54641363540E+02  0.00000000000E+00 0. -1.
</event>
<event>
 7    1  0.5931885E-006  0.1255671E+03  0.7818608E-02  0.1332002E+00
          2   -1    0    0  502    0  0.00000000000E+00  0.00000000000E+00  0.13712385587E+04  0.13712385587E+04  0.00000000000E+00 0. -1.
          1   -1    0    0  501    0 -0.00000000000E+00 -0.00000000000E+00 -0.42948270337E+02  0.42948270337E+02  0.00000000000E+00 0. -1.
         25    2    1    2    0    0  0.11086653166E+02 -0.16338089445E+03  0.59417523289E+03  0.62887652167E+03  0.12500096631E+03 0.  0.
          2    1    1    2  501    0 -0.13524960553E+02  0.47786745107E+02  0.83104725346E+01  0.50354359490E+02  0.00000000000E+00 0. -1.
          1    1    1    2  502    0  0.24383073872E+01  0.11559414934E+03  0.72580458296E+03  0.73495594790E+03  0.00000000000E+00 0. -1.
         22    1    3    3    0    0  0.54451733432E+02 -0.12931184277E+03  0.50408295073E+03  0.52324579804E+03  0.00000000000E+00 0.  1.
         22    1    3    3    0    0 -0.43365080266E+02 -0.34069051677E+02  0.90092282158E+02  0.10563072362E+03  0.00000000000E+00 0.  1.
</event>
<event>
 7    1  0.5931885E-006  0.6539489E+02  0.7818608E-02  0.1381422E+00
          2   -1    0    0  502    0  0.00000000000E+00  0.00000000000E+00  0.33634325384E+03  0.33634325384E+03  0.00000000000E+00 0. -1.
          1   -1    0    0  501    0 -0.00000000000E+00 -0.00000000000E+00 -0.20742984878E+04  0.20742984878E+04  0.00000000000E+00 0. -1.
         25    2    1    2    0    0  0.27646206428E+02 -0.50215559768E+02 -0.10541417866E+03  0.17327337740E+03  0.12500239630E+03 0.  0.
          2    1    1    2  501    0 -0.62502485724E+02 -0.62473366999E+01 -0.19307979140E+04  0.19318193949E+04  0.00000000000E+00 0. -1.
          1    1    1    2  502    0  0.34856279296E+02  0.56462896468E+02  0.29825685870E+03  0.30554896930E+03  0.00000000000E+00 0. -1.
         22    1    3    3    0    0 -0.10395484774E+00  0.39274752667E+01 -0.11200794560E+03  0.11207682965E+03  0.00000000000E+00 0. -1.
         22    1    3    3    0    0  0.27750161276E+02 -0.54143035035E+02  0.65937669379E+01  0.61196547747E+02  0.00000000000E+00 0. -1.
</event>
<event>
 7    1  0.5931885E-006  0.8065326E+02  0.7818608E-02  0.1398783E+00
          2   -1    0    0  502    0  0.00000000000E+00  0.00000000000E+00  0.28959612665E+04  0.28959612665E+04  0.00000000000E+00 0. -1.
          1   -1    0    0  501    0 -0.00000000000E+00 -0.00000000000E+00 -0.29875888843E+04  0.29875888843E+04  0.00000000000E+00 0. -1.
         25    2    1    2    0    0 -0.52170864639E+02  0.10012545657E+02 -0.16075839512E+04  0.16133113446E+04  0.12500113680E+03 0.  0.
          2    1    1    2  501    0 -0.23691275321E+02 -0.37432516486E+02 -0.13762224841E+04  0.13769352910E+04  0.00000000000E+00 0. -1.
          1    1    1    2  502    0  0.75862139960E+02  0.27419970828E+02  0.28921788175E+04  0.28933035153E+04  0.00000000000E+00 0. -1.
         22    1    3    3    0    0 -0.75875469654E+02 -0.17068984652E+02 -0.59158869563E+03  0.59667882645E+03  0.00000000000E+00 0. -1.
         22    1    3    3    0    0  0.23704605015E+02  0.27081530309E+02 -0.10159952556E+04  0.10166325181E+04  0.00000000000E+00 0. -1.
</event>
<event>
 7    1  0.5931885E-006  0.3864095E+02  0.7818608E-02  0.1552624E+00
          2   -1    0    0  502    0  0.00000000000E+00  0.00000000000E+00  0.10886586062E+04  0.10886586062E+04  0.00000000000E+00 0. -1.
          1   -1    0    0  501    0 -0.00000000000E+00 -0.00000000000E+00 -0.20423011727E+02  0.20423011727E+02  0.00000000000E+00 0. -1.
         25    2    1    2    0    0  0.56625313375E+02  0.96982363044E+01  0.29858333701E+03  0.32875026212E+03  0.12499697516E+03 0.  0.
          2    1    1    2  501    0 -0.27166930062E+02  0.14710401144E+02  0.44511930221E+02  0.54182561057E+02  0.00000000000E+00 0. -1.
          1    1    1    2  502    0 -0.29458383314E+02 -0.24408637448E+02  0.72514032724E+03  0.72614879475E+03  0.00000000000E+00 0. -1.
         22    1    3    3    0    0 -0.66718391149E+01  0.53302221220E+02  0.17643105171E+03  0.18442764498E+03  0.00000000000E+00 0.  1.
         22    1    3    3    0    0  0.63297152490E+02 -0.43603984915E+02  0.12215228530E+03  0.14432261714E+03  0.00000000000E+00 0.  1.
</event>
<event>
 7    1  0.5931885E-006  0.9921956E+02  0.7818608E-02  0.1450603E+00
          2   -1    0    0  502    0  0.00000000000E+00  0.00000000000E+00  0.21444695942E+04  0.21444695942E+04  0.00000000000E+00 0. -1.
          1   -1    0    0  501    0 -0.00000000000E+00 -0.00000000000E+00 -0.14394273967E+04  0.14394273967E+04  0.00000000000E+00 0. -1.
         25    2    1    2    0    0  0.42683119479E+02  0.65741116749E+02  0.11002911023E+04  0.11101387306E+04  0.12499499227E+03 0.  0.
          2    1    1    2  501    0 -0.41922096433E+02 -0.89965098947E+02 -0.14326450533E+04  0.14360790472E+04  0.00000000000E+00 0. -1.
          1    1    1    2  502    0 -0.76102304574E+00  0.24223982198E+02  0.10373961484E+04  0.10376792131E+04  0.00000000000E+00 0. -1.
         22    1    3    3    0    0  0.43552232656E+02  0.98595948011E+02  0.96084559464E+03  0.96687238799E+03  0.00000000000E+00 0. -1.
         22    1    3    3    0    0 -0.86911317761E+00 -0.32854831262E+02  0.13944550770E+03  0.14326634257E+03  0.00000000000E+00 0. -1.
</event>
<event>
 7    1  0.5931885E-006  0.4412392E+02  0.7818608E-02  0.1536228E+00
          2   -1    0    0  502    0  0.00000000000E+00  0.00000000000E+00  0.15538452578E+04  0.15538452578E+04  0.00000000000E+00 0. -1.
          1   -1    0    0  501    0 -0.00000000000E+00 -0.00000000000E+00 -0.86887352908E+03  0.86887352908E+03  0.00000000000E+00 0. -1.
         25    2    1    2    0    0  0.28128745965E+02 -0.11974110782E+02  0.12539505142E+04  0.12605361336E+04  0.12499938607E+03 0.  0.
          2    1    1    2  501    0  0.28215024125E+02  0.10436224528E+02 -0.86263833299E+03  0.86316272853E+03  0.00000000000E+00 0. -1.
          1    1    1    2  502    0 -0.56343770090E+02  0.15378862535E+01  0.29365954749E+03  0.29901992468E+03  0.00000000000E+00 0. -1.
         22    1    3    3    0    0  0.19468363535E+02  0.30222500473E+02  0.10899841377E+03  0.11477399931E+03  0.00000000000E+00 0. -1.
         22    1    3    3    0    0  0.86603824303E+01 -0.42196611255E+02  0.11449521004E+04  0.11457621343E+04  0.00000000000E+00 0. -1.
</event>
<event>
 7    1  0.5931885E-006  0.9825285E+02  0.7818608E-02  0.1415702E+00
          2   -1    0    0  502    0  0.00000000000E+00  0.00000000000E+00  0.12544481130E+04  0.12544481130E+04  0.00000000000E+00 0. -1.
          1   -1    0    0  501    0 -0.00000000000E+00 -0.00000000000E+00 -0.94190527764E+03  0.94190527764E+03  0.00000000000E+00 0. -1.
         25    2    1    2    0    0 -0.62035876260E+02 -0.52667108752E+02  0.43288781526E+03  0.45786380587E+03  0.12500051933E+03 0.  0.
          2    1    1    2  501    0 -0.30915608748E+02  0.76584232427E+01 -0.92584665305E+03  0.92639432818E+03  0.00000000000E+00 0. -1.
          1    1    1    2  502    0  0.92951485007E+02  0.45008685510E+02  0.80550167317E+03  0.81209525661E+03  0.00000000000E+00 0. -1.
         22    1    3    3    0    0  0.32023942256E+02 -0.43570169561E+02  0.13853106597E+03  0.14871028476E+03  0.00000000000E+00 0.  1.
         22    1    3    3    0    0 -0.94059818516E+02 -0.90969391915E+01  0.29435674929E+03  0.30915352111E+03  0.00000000000E+00 0.  1.
</event>
<event>
 7    1  0.5931885E-006  0.1001548E+03  0.7818608E-02  0.1357501E+00
          2   -1    0    0  502    0  0.00000000000E+00  0.00000000000E+00  0.72733950467E+03  0.72733950467E+03  0.00000000000E+00 0. -1.
          1   -1    0    0  501    0 -0.00000000000E+00 -0.00000000000E+00 -0.11830743298E+04  0.11830743298E+04  0.00000000000E+00 0. -1.
         25    2    1    2    0    0 -0.47066098316E+02 -0.13893020272E+03 -0.21928934347E+03  0.29194132355E+03  0.12500040559E+03 0.  0.
          2    1    1    2  501    0  0.27354842141E+02  0.92975426823E+02 -0.92401673953E+03  0.92908538484E+03  0.00000000000E+00 0. -1.
          1    1    1    2  502    0  0.19711256176E+02  0.45954775902E+02  0.68757125784E+03  0.68938712612E+03  0.00000000000E+00 0. -1.
         22    1    3    3    0    0 -0.56628875152E+02 -0.15870509174E+03 -0.20648927544E+03  0.26651821048E+03  0.00000000000E+00 0. -1.
         22    1    3    3    0    0  0.95627768359E+01  0.19774889019E+02 -0.12800068025E+02  0.25423113066E+02  0.00000000000E+00 0. -1.
</event>
<event>
 7    1  0.5931885E-006  0.1867887E+03  0.7818608E-02  0.1255859E+00
          2   -1    0    0  502    0  0.00000000000E+00  0.00000000000E+00  0.45133900332E+03  0.45133900332E+03  0.00000000000E+00 0. -1.
          1   -1    0    0  501    0 -0.00000000000E+00 -0.00000000000E+00 -0.60734490152E+03  0.60734490152E+03  0.00000000000E+00 0. -1.
         25    2    1    2    0    0 -0.11300622962E+03  0.90729356551E+02 -0.12007029584E+03  0.22592540060E+03  0.12499274627E+03 0.  0.
          2    1    1    2  501    0  0.13919066381E+03 -0.15333154196E+03 -0.40640562664E+03  0.45612513197E+03  0.00000000000E+00 0. -1.
          1    1    1    2  502    0 -0.26184434190E+02  0.62602185404E+02  0.37047002428E+03  0.37663337226E+03  0.00000000000E+00 0. -1.
         22    1    3    3    0    0 -0.13948791020E+03  0.69653531239E+02 -0.10930304678E+03  0.19040915824E+03  0.00000000000E+00 0. -1.
         22    1    3    3    0    0  0.26481680584E+02  0.21075825313E+02 -0.10767249065E+02  0.35516242363E+02  0.00000000000E+00 0. -1.
</event>
<event>
 7    1  0.5931885E-006  0.2412324E+03  0.7818608E-02  0.1165256E+00
          2   -1    0    0  502    0  0.00000000000E+00  0.00000000000E+00  0.14190303423E+04  0.14190303423E+04  0.00000000000E+00 0. -1.
          1   -1    0    0  501    0 -0.00000000000E+00 -0.00000000000E+00 -0.11225373474E+04  0.11225373474E+04  0.00000000000E+00 0. -1.
         25    2    1    2    0    0  0.14117303471E+03 -0.30776893141E+03  0.59990014217E+03  0.70011135483E+03  0.12499675084E+03 0.  0.
          2    1    1    2  501    0 -0.21376837810E+02  0.23865223630E+03 -0.10526395683E+04  0.10795656163E+04  0.00000000000E+00 0. -1.
          1    1    1    2  502    0 -0.11979619690E+03  0.69116695104E+02  0.74923242103E+03  0.76189071858E+03  0.00000000000E+00 0. -1.
         22    1    3    3    0    0  0.96598705916E+02 -0.21581456563E+03  0.51707767840E+03  0.56857414840E+03  0.00000000000E+00 0.  1.
         22    1    3    3    0    0  0.44574328794E+02 -0.91954365773E+02  0.82822463767E+02  0.13153720643E+03  0.00000000000E+00 0.  1.
</event>
<event>
 7    1  0.5931885E-006  0.1007616E+03  0.7818608E-02  0.1375230E+00
          2   -1    0    0  502    0  0.00000000000E+00  0.00000000000E+00  0.65383679532E+03  0.65383679532E+03  0.00000000000E+00 0. -1.
          1   -1    0    0  501    0 -0.00000000000E+00 -0.00000000000E+00 -0.85838042222E+03  0.85838042222E+03  0.00000000000E+00 0. -1.
         25    2    1    2    0    0  0.15721973988E+02  0.91437953978E+02  0.29794194689E+01  0.15570003981E+03  0.12500218223E+03 0.  0.
          2    1    1    2  501    0  0.42168238969E+02 -0.78000304806E+01 -0.77692171361E+03  0.77810433101E+03  0.00000000000E+00 0. -1.
          1    1    1    2  502    0 -0.57890212956E+02 -0.83637923497E+02  0.56939866723E+03  0.57841284672E+03  0.00000000000E+00 0. -1.
         22    1    3    3    0    0 -0.51377795387E+02  0.33989013459E+02 -0.19382458583E+02  0.64580264752E+02  0.00000000000E+00 0. -1.
         22    1    3    3    0    0  0.67099769375E+02  0.57448940518E+02  0.22361878052E+02  0.91119775059E+02  0.00000000000E+00 0. -1.
</event>
<event>
 7    1  0.5931885E-006  0.7077663E+02  0.7818608E-02  0.1414526E+00
          2   -1    0    0  502    0  0.00000000000E+00  0.00000000000E+00  0.60297831498E+03  0.60297831498E+03  0.00000000000E+00 0. -1.
          1   -1    0    0  501    0 -0.00000000000E+00 -0.00000000000E+00 -0.10596503186E+03  0.10596503186E+03  0.00000000000E+00 0. -1.
         25    2    1    2    0    0 -0.19904626867E+02 -0.75900436961E+02  0.26162025157E+03  0.30037742502E+03  0.12499748368E+03 0.  0.
          2    1    1    2  501    0  0.53596619643E+02  0.46647830149E+02 -0.70111038217E+02  0.99820716159E+02  0.00000000000E+00 0. -1.
          1    1    1    2  502    0 -0.33691992776E+02  0.29252606812E+02  0.30550406976E+03  0.30874520566E+03  0.00000000000E+00 0. -1.
         22    1    3    3    0    0  0.38867118779E+02 -0.32396727978E+02  0.19500283658E+03  0.20146043577E+03  0.00000000000E+00 0.  1.
         22    1    3    3    0    0 -0.58771745645E+02 -0.43503708982E+02  0.66617414990E+02  0.98916989245E+02  0.00000000000E+00 0.  1.
</event>
<event>
 7    1  0.5931885E-006  0.9044300E+02  0.7818608E-02  0.1369127E+00
          2   -1    0    0  502    0  0.00000000000E+00  0.00000000000E+00  0.91793913627E+03  0.91793913627E+03  0.00000000000E+00 0. -1.
          1   -1    0    0  501    0 -0.00000000000E+00 -0.00000000000E+00 -0.27269700459E+03  0.27269700459E+03  0.00000000000E+00 0. -1.
         25    2    1    2    0    0 -0.10072127883E+03  0.68021246135E+02  0.48133492913E+03  0.51193622940E+03  0.12499489202E+03 0.  0.
          2    1    1    2  501    0  0.50210413196E+02 -0.18180591431E+01 -0.25076521232E+03  0.25574906186E+03  0.00000000000E+00 0. -1.
          1    1    1    2  502    0  0.50510865638E+02 -0.66203186992E+02  0.41467241488E+03  0.42295084960E+03  0.00000000000E+00 0. -1.
         22    1    3    3    0    0  0.62427229735E+01  0.42095459776E+02  0.27318344789E+03  0.27647820081E+03  0.00000000000E+00 0. -1.
         22    1    3    3    0    0 -0.10696400181E+03  0.25925786359E+02  0.20815148125E+03  0.23545802859E+03  0.00000000000E+00 0. -1.
</event>
<event>
 7    1  0.5931885E-006  0.7064568E+02  0.7818608E-02  0.1482720E+00
          2   -1    0    0  502    0  0.00000000000E+00  0.00000000000E+00  0.89538826319E+03  0.89538826319E+03  0.00000000000E+00 0. -1.
          1   -1    0    0  501    0 -0.00000000000E+00 -0.00000000000E+00 -0.42810340290E+03  0.42810340290E+03  0.00000000000E+00 0. -1.
         25    2    1    2    0    0  0.34949885386E+02 -0.28319077347E+02  0.65166422567E+02  0.14796910133E+03  0.12499891075E+03 0.  0.
          2    1    1    2  501    0 -0.50961681184E+02  0.50075925879E+02 -0.38316768816E+03  0.38977194429E+03  0.00000000000E+00 0. -1.
          1    1    1    2  502    0  0.16011795797E+02 -0.21756848532E+02  0.78528612589E+03  0.78575062047E+03  0.00000000000E+00 0. -1.
         22    1    3    3    0    0  0.23240039444E+02  0.30815091804E+02  0.77371103337E+02  0.86463616324E+02  0.00000000000E+00 0.  1.
         22    1    3    3    0    0  0.11709845943E+02 -0.59134169151E+02 -0.12204680770E+02  0.61505485006E+02  0.00000000000E+00 0.  1.
</event>
<event>
 7    1  0.5931885E-006  0.1030065E+03  0.7818608E-02  0.1397836E+00
          2   -1    0    0  502    0  0.00000000000E+00  0.00000000000E+00  0.40770759262E+03  0.40770759262E+03  0.00000000000E+00 0. -1.
          1   -1    0    0  501    0 -0.00000000000E+00 -0.00000000000E+00 -0.47502808173E+03  0.47502808173E+03  0.00000000000E+00 0. -1.
         25    2    1    2    0    0  0.26194650585E+02 -0.91657540223E+02  0.20824493040E+03  0.26091413623E+03  0.12499188392E+03 0.  0.
          2    1    1    2  501    0  0.68214819820E+01  0.10311606953E+03 -0.44089213838E+03  0.45284140060E+03  0.00000000000E+00 0. -1.
          1    1    1    2  502    0 -0.33016132567E+02 -0.11458529309E+02  0.16532671887E+03  0.16898013752E+03  0.00000000000E+00 0. -1.
         22    1    3    3    0    0  0.11307589420E+02  0.30607017224E+02  0.30492055053E+02  0.44658890528E+02  0.00000000000E+00 0.  1.
         22    1    3    3    0    0  0.14887061165E+02 -0.12226455745E+03  0.17775287535E+03  0.21625524570E+03  0.00000000000E+00 0.  1.
</event>
<event>
 7    1  0.5931885E-006  0.6449145E+02  0.7818608E-02  0.1448021E+00
          2   -1    0    0  502    0  0.00000000000E+00  0.00000000000E+00  0.33213843502E+04  0.33213843502E+04  0.00000000000E+00 0. -1.
          1   -1    0    0  501    0 -0.00000000000E+00 -0.00000000000E+00 -0.24700781367E+04  0.24700781367E+04  0.00000000000E+00 0. -1.
         25    2    1    2    0    0  0.19666229109E+02  0.18415357186E+02 -0.98816468910E+02  0.16160338569E+03  0.12500029516E+03 0.  0.
          2    1    1    2  501    0  0.21575102809E+02  0.31285391556E+02 -0.23393969165E+04  0.23397055784E+04  0.00000000000E+00 0. -1.
          1    1    1    2  502    0 -0.41241331918E+02 -0.49700748742E+02  0.32895195989E+04  0.32901535227E+04  0.00000000000E+00 0. -1.
         22    1    3    3    0    0  0.51753426434E+02 -0.26102254874E+02 -0.12462204660E+02  0.59287868930E+02  0.00000000000E+00 0.  1.
         22    1    3    3    0    0 -0.32087197325E+02  0.44517612060E+02 -0.86354264250E+02  0.10231551676E+03  0.00000000000E+00 0.  1.
</event>
<event>
 7    1  0.5931885E-006  0.1056528E+03  0.7818608E-02  0.1288421E+00
          2   -1    0    0  502    0  0.00000000000E+00  0.00000000000E+00  0.83757096156E+03  0.83757096156E+03  0.00000000000E+00 0. -1.
          1   -1    0    0  501    0 -0.00000000000E+00 -0.00000000000E+00 -0.51348706960E+03  0.51348706960E+03  0.00000000000E+00 0. -1.
         25    2    1    2    0    0  0.53248765380E+02  0.18672553462E+02  0.24029583617E+03  0.27667976212E+03  0.12500202645E+03 0.  0.
          2    1    1    2  501    0  0.80837629194E+01 -0.10534310955E+03 -0.48468910769E+03  0.49607060896E+03  0.00000000000E+00 0. -1.
          1    1    1    2  502    0 -0.61332528299E+02  0.86670556084E+02  0.56847716348E+03  0.57830766009E+03  0.00000000000E+00 0. -1.
         22    1    3    3    0    0  0.54213731287E+02 -0.40321530976E+02  0.18025095691E+03  0.19249769346E+03  0.00000000000E+00 0. -1.
         22    1    3    3    0    0 -0.96496590732E+00  0.58994084438E+02  0.60044879258E+02  0.84182068654E+02  0.00000000000E+00 0. -1.
</event>
<event>
 7    1  0.5931885E-006  0.1268065E+03  0.7818608E-02  0.1238367E+00
          2   -1    0    0  502    0  0.00000000000E+00  0.00000000000E+00  0.37897377738E+03  0.37897377738E+03  0.00000000000E+00 0. -1.
          1   -1    0    0  501    0 -0.00000000000E+00 -0.00000000000E+00 -0.92235869527E+03  0.92235869527E+03  0.00000000000E+00 0. -1.
         25    2    1    2    0    0  0.12196915105E+03  0.11404101370E+02  0.15146977833E+03  0.23146342522E+03  0.12500278449E+03 0.  0.
          2    1    1    2  501    0 -0.80134014249E+02  0.10014937095E+03 -0.85817714420E+03  0.86770926442E+03  0.00000000000E+00 0. -1.
          1    1    1    2  502    0 -0.41835136799E+02 -0.11155347232E+03  0.16332244797E+03  0.20215978301E+03  0.00000000000E+00 0. -1.
         22    1    3    3    0    0  0.11162929482E+02 -0.17853161077E+02 -0.17442794042E+02  0.27342227763E+02  0.00000000000E+00 0. -1.
         22    1    3    3    0    0  0.11080622157E+03  0.29257262447E+02  0.16891257238E+03  0.20412119746E+03  0.00000000000E+00 0. -1.
</event>
<event>
 7    1  0.5931885E-006  0.3464660E+02  0.7818608E-02  0.1641809E+00
          2   -1    0    0  502    0  0.00000000000E+00  0.00000000000E+00  0.67396353918E+02  0.67396353918E+02  0.00000000000E+00 0. -1.
          1   -1    0    0  501    0 -0.00000000000E+00 -0.00000000000E+00 -0.13220023986E+04  0.13220023986E+04  0.00000000000E+00 0. -1.
         25    2    1    2    0    0 -0.40700406622E+02 -0.31671045700E+02 -0.11035995980E+04  0.11118527046E+04  0.12499914330E+03 0.  0.
          2    1    1    2  501    0  0.19649038530E+02  0.42359636074E+01 -0.20903269024E+03  0.20999688972E+03  0.00000000000E+00 0. -1.
          1    1    1    2  502    0  0.21051368092E+02  0.27435082093E+02  0.58026243564E+02  0.67549158175E+02  0.00000000000E+00 0. -1.
         22    1    3    3    0    0 -0.36502667759E+02  0.35646167374E+02 -0.22704337950E+03  0.23270537204E+03  0.00000000000E+00 0.  1.
         22    1    3    3    0    0 -0.41977388630E+01 -0.67317213074E+02 -0.87655621849E+03  0.87914733257E+03  0.00000000000E+00 0.  1.
</event>
<event>
 7    1  0.5931885E-006  0.1437162E+03  0.7818608E-02  0.1260142E+00
          2   -1    0    0  502    0  0.00000000000E+00  0.00000000000E+00  0.97922615653E+03  0.97922615653E+03  0.00000000000E+00 0. -1.
          1   -1    0    0  501    0 -0.00000000000E+00 -0.00000000000E+00 -0.72278287906E+02  0.72278287906E+02  0.00000000000E+00 0. -1.
         25    2    1    2    0    0 -0.70593921305E+02 -0.97213713624E+02  0.20722967539E+03  0.27019128897E+03  0.12500074571E+03 0.  0.
          2    1    1    2  501    0  0.62203018407E+02 -0.57264549805E+02  0.23683906488E+02  0.87803027225E+02  0.00000000000E+00 0. -1.
          1    1    1    2  502    0  0.83909028989E+01  0.15447826343E+03  0.67603428675E+03  0.69351012825E+03  0.00000000000E+00 0. -1.
         22    1    3    3    0    0  0.20921685682E+02 -0.53741323707E+02  0.27544141391E+02  0.63910300661E+02  0.00000000000E+00 0.  1.
         22    1    3    3    0    0 -0.91515606988E+02 -0.43472389917E+02  0.17968553400E+03  0.20628098831E+03  0.00000000000E+00 0.  1.
</event>
<event>
 7    1  0.5931885E-006  0.9186785E+02  0.7818608E-02  0.1404792E+00
          2   -1    0    0  502    0  0.00000000000E+00  0.00000000000E+00  0.52990883653E+02  0.52990883653E+02  0.00000000000E+00 0. -1.
          1   -1    0    0  501    0 -0.00000000000E+00 -0.00000000000E+00 -0.11876365617E+04  0.11876365617E+04  0.00000000000E+00 0. -1.
         25    2    1    2    0    0 -0.41185662875E+02 -0.10487929145E+03 -0.30637635855E+03  0.34955365412E+03  0.12500143771E+03 0.  0.
          2    1    1    2  501    0  0.55687648392E+02  0.70742418677E+02 -0.84542745163E+03  0.85020772753E+03  0.00000000000E+00 0. -1.
          1    1    1    2  502    0 -0.14501985517E+02  0.34136872768E+02  0.17158132115E+02  0.40866063720E+02  0.00000000000E+00 0. -1.
         22    1    3    3    0    0  0.37468403116E+02 -0.50901032488E+01 -0.43893284841E+02  0.57934539243E+02  0.00000000000E+00 0.  1.
         22    1    3    3    0    0 -0.78654065991E+02 -0.99789188196E+02 -0.26248307371E+03  0.29161911488E+03  0.00000000000E+00 0.  1.
</event>
<event>
 7    1  0.5931885E-006  0.7825780E+02  0.7818608E-02  0.1456641E+00
          2   -1    0    0  502    0  0.00000000000E+00  0.00000000000E+00  0.11797315393E+03  0.11797315393E+03  0.00000000000E+00 0. -1.
          1   -1    0    0  501    0 -0.00000000000E+00 -0.00000000000E+00 -0.33708983623E+03  0.33708983623E+03  0.00000000000E+00 0. -1.
         25    2    1    2    0    0 -0.52286083997E+02 -0.72966244889E+02 -0.95690385110E+02  0.18121628018E+03  0.12499913170E+03 0.  0.
          2    1    1    2  501    0  0.62149489094E+02  0.45272875224E+02 -0.18788014933E+03  0.20300527761E+03  0.00000000000E+00 0. -1.
          1    1    1    2  502    0 -0.98634050968E+01  0.27693369665E+02  0.64453852149E+02  0.70841432371E+02  0.00000000000E+00 0. -1.
         22    1    3    3    0    0 -0.22222303568E+02 -0.79867918750E+01 -0.10625186858E+03  0.10884428877E+03  0.00000000000E+00 0.  1.
         22    1    3    3    0    0 -0.30063780430E+02 -0.64979453014E+02  0.10561483469E+02  0.72371991411E+02  0.00000000000E+00 0.  1.
</event>
<event>
 7    1  0.5931885E-006  0.1215573E+03  0.7818608E-02  0.1271293E+00
          2   -1    0    0  502    0  0.00000000000E+00  0.00000000000E+00  0.32246200095E+04  0.32246200095E+04  0.00000000000E+00 0. -1.
          1   -1    0    0  501    0 -0.00000000000E+00 -0.00000000000E+00 -0.93224906308E+02  0.93224906308E+02  0.00000000000E+00 0. -1.
         25    2    1    2    0    0 -0.87819226551E+02  0.97898468769E+02  0.87161208121E+02  0.20129382419E+03  0.12500320282E+03 0.  0.
          2    1    1    2  501    0  0.32624005771E+01 -0.12776384504E+03  0.79612151780E+02  0.15057336441E+03  0.00000000000E+00 0. -1.
          1    1    1    2  502    0  0.84556825974E+02  0.29865376275E+02  0.29646217433E+04  0.29659777272E+04  0.00000000000E+00 0. -1.
         22    1    3    3    0    0 -0.44922688785E+02 -0.24830761452E+02  0.27795149446E+02  0.58371097426E+02  0.00000000000E+00 0.  1.
         22    1    3    3    0    0 -0.42896537766E+02  0.12272923022E+03  0.59366058675E+02  0.14292272676E+03  0.00000000000E+00 0.  1.
</event>
<event>
 7    1  0.5931885E-006  0.1396136E+03  0.7818608E-02  0.1228949E+00
          2   -1    0    0  502    0  0.00000000000E+00  0.00000000000E+00  0.12436619585E+04  0.12436619585E+04  0.00000000000E+00 0. -1.
          1   -1    0    0  501    0 -0.00000000000E+00 -0.00000000000E+00 -0.99371080873E+02  0.99371080873E+02  0.00000000000E+00 0. -1.
         25    2    1    2    0    0  0.10710845441E+02 -0.20552961593E+00  0.13831019038E+03  0.18673428302E+03  0.12500087695E+03 0.  0.
          2    1    1    2  501    0  0.46029636745E+02  0.13180753968E+03 -0.55194229015E+00  0.13961468266E+03  0.00000000000E+00 0. -1.
          1    1    1    2  502    0 -0.56740482186E+02 -0.13160201006E+03  0.10065326295E+04  0.10166840736E+04  0.00000000000E+00 0. -1.
         22    1    3    3    0    0  0.45843087994E+02  0.43008357912E+01  0.14370897770E+03  0.15090512310E+03  0.00000000000E+00 0. -1.
         22    1    3    3    0    0 -0.35132242553E+02 -0.45063654072E+01 -0.53987873232E+01  0.35829159920E+02  0.00000000000E+00 0. -1.
</event>
<event>
 7    1  0.5931885E-006  0.6624380E+02  0.7818608E-02  0.1430501E+00
          2   -1    0    0  502    0  0.00000000000E+00  0.00000000000E+00  0.22785282039E+03  0.22785282039E+03  0.00000000000E+00 0. -1.
          1   -1    0    0  501    0 -0.00000000000E+00 -0.00000000000E+00 -0.58289861123E+03  0.58289861123E+03  0.00000000000E+00 0. -1.
         25    2    1    2    0    0  0.46005503958E+02  0.82322290683E+02 -0.40366769955E+02  0.16170346213E+03  0.12500027045E+03 0.  0.
          2    1    1    2  501    0 -0.75342608576E+01 -0.65028282140E+02 -0.47693113837E+03  0.48140290123E+03  0.00000000000E+00 0. -1.
          1    1    1    2  502    0 -0.38471243101E+02 -0.17294008543E+02  0.16225211749E+03  0.16764506825E+03  0.00000000000E+00 0. -1.
         22    1    3    3    0    0  0.16143240540E+02 -0.98014598655E+00 -0.67289220897E+02  0.69205521096E+02  0.00000000000E+00 0.  1.
         22    1    3    3    0    0  0.29862263419E+02  0.83302436669E+02  0.26922450942E+02  0.92497941038E+02  0.00000000000E+00 0.  1.
</event>
<event>
 7    1  0.5931885E-006  0.6897399E+02  0.7818608E-02  0.1403454E+00
          2   -1    0    0  502    0  0.00000000000E+00  0.00000000000E+00  0.16447226669E+04  0.16447226669E+04  0.00000000000E+00 0. -1.
          1   -1    0    0  501    0 -0.00000000000E+00 -0.00000000000E+00 -0.22156989521E+02  0.22156989521E+02  0.00000000000E+00 0. -1.
         25    2    1    2    0    0  0.64314095302E+02  0.53697748297E+02  0.73781587223E+03  0.75300330457E+03  0.12498785679E+03 0.  0.
          2    1    1    2  501    0 -0.48161248913E+02  0.13146561256E+02  0.34114864093E+02  0.60466204791E+02  0.00000000000E+00 0. -1.
          1    1    1    2  502    0 -0.16152846389E+02 -0.66844309554E+02  0.85063494109E+03  0.85341014710E+03  0.00000000000E+00 0. -1.
         22    1    3    3    0    0  0.64325821447E+02  0.15776955859E+02  0.68383079629E+03  0.68703077194E+03  0.00000000000E+00 0.  1.
         22    1    3    3    0    0 -0.11726144369E-01  0.37920792438E+02  0.53985075945E+02  0.65972532628E+02  0.00000000000E+00 0.  1.
</event>
<event>
 7    1  0.5931885E-006  0.8019883E+02  0.7818608E-02  0.1367096E+00
          2   -1    0    0  502    0  0.00000000000E+00  0.00000000000E+00  0.80176612301E+03  0.80176612301E+03  0.00000000000E+00 0. -1.
          1   -1    0    0  501    0 -0.00000000000E+00 -0.00000000000E+00 -0.39678259048E+03  0.39678259048E+03  0.00000000000E+00 0. -1.
         25    2    1    2    0    0  0.55995109514E+02 -0.98795846933E+01 -0.19936470032E+02  0.13876498510E+03  0.12500079907E+03 0.  0.
          2    1    1    2  501    0 -0.49990865442E+02  0.67190756177E+02 -0.31076172462E+03  0.32184861943E+03  0.00000000000E+00 0. -1.
          1    1    1    2  502    0 -0.60042440721E+01 -0.57311171484E+02  0.73568172719E+03  0.73793510896E+03  0.00000000000E+00 0. -1.
         22    1    3    3    0    0 -0.37396081725E+02 -0.19729345318E+02  0.19967348440E+01  0.42328488575E+02  0.00000000000E+00 0. -1.
         22    1    3    3    0    0  0.93391191239E+02  0.98497606243E+01 -0.21933204876E+02  0.96436496522E+02  0.00000000000E+00 0. -1.
</event>
<event>
 7    1  0.5931885E-006  0.1319191E+03  0.7818608E-02  0.1297952E+00
          2   -1    0    0  502    0  0.00000000000E+00  0.00000000000E+00  0.19298926828E+03  0.19298926828E+03  0.00000000000E+00 0. -1.
          1   -1    0    0  501    0 -0.00000000000E+00 -0.00000000000E+00 -0.21303629388E+04  0.21303629388E+04  0.00000000000E+00 0. -1.
         25    2    1    2    0    0 -0.47725713191E+02  0.12729464939E+03 -0.82839344102E+03  0.84872938812E+03  0.12499683864E+03 0.  0.
          2    1    1    2  501    0  0.99992590785E+02 -0.89951786140E+02 -0.12825317521E+04  0.12895648635E+04  0.00000000000E+00 0. -1.
          1    1    1    2  502    0 -0.52266877594E+02 -0.37342863251E+02  0.17355152253E+03  0.18505795552E+03  0.00000000000E+00 0. -1.
         22    1    3    3    0    0  0.20035609240E+02  0.11155041567E+03 -0.45437996648E+03  0.46830126501E+03  0.00000000000E+00 0. -1.
         22    1    3    3    0    0 -0.67761322431E+02  0.15744233718E+02 -0.37401347455E+03  0.38042812311E+03  0.00000000000E+00 0. -1.
</event>
<event>
 7    1  0.5931885E-006  0.1858093E+03  0.7818608E-02  0.1204386E+00
          2   -1    0    0  502    0  0.00000000000E+00  0.00000000000E+00  0.12987944902E+04  0.12987944902E+04  0.00000000000E+00 0. -1.
          1   -1    0    0  501    0 -0.00000000000E+00 -0.00000000000E+00 -0.63499794564E+03  0.63499794564E+03  0.00000000000E+00 0. -1.
         25    2    1    2    0    0 -0.17409487395E+02 -0.88134463329E+02  0.27505878115E+02  0.15637214090E+03  0.12499959696E+03 0.  0.
          2    1    1    2  501    0  0.58052177072E+02  0.19686147896E+03 -0.54918071280E+03  0.58627975615E+03  0.00000000000E+00 0. -1.
          1    1    1    2  502    0 -0.40642689677E+02 -0.10872701564E+03  0.11854713793E+04  0.11911405388E+04  0.00000000000E+00 0. -1.
         22    1    3    3    0    0  0.50189441268E+02 -0.44169890734E+02 -0.97122097825E+01  0.67559501782E+02  0.00000000000E+00 0. -1.
         22    1    3    3    0    0 -0.67598928662E+02 -0.43964572595E+02  0.37218087898E+02  0.88812639115E+02  0.00000000000E+00 0. -1.
</event>
<event>
 7    1  0.5931885E-006  0.5374520E+02  0.7818608E-02  0.1436978E+00
          2   -1    0    0  502    0  0.00000000000E+00  0.00000000000E+00  0.61705968046E+03  0.61705968046E+03  0.00000000000E+00 0. -1.
          1   -1    0    0  501    0 -0.00000000000E+00 -0.00000000000E+00 -0.39233161686E+03  0.39233161686E+03  0.00000000000E+00 0. -1.
         25    2    1    2    0    0  0.63602321228E+02  0.97457221505E+01  0.18828482958E+03  0.23497036203E+03  0.12497863664E+03 0.  0.
          2    1    1    2  501    0 -0.21656266693E+02 -0.44522908224E+02 -0.36548143980E+03  0.36881969319E+03  0.00000000000E+00 0. -1.
          1    1    1    2  502    0 -0.41946054535E+02  0.34777186074E+02  0.40192467382E+03  0.40560124209E+03  0.00000000000E+00 0. -1.
         22    1    3    3    0    0  0.80076768025E+02 -0.22038976064E+02  0.61820565251E+02  0.10353640679E+03  0.00000000000E+00 0. -1.
         22    1    3    3    0    0 -0.16474446797E+02  0.31784698215E+02  0.12646426433E+03  0.13143395524E+03  0.00000000000E+00 0. -1.
</event>
<event>
 7    1  0.5931885E-006  0.8547390E+02  0.7818608E-02  0.1352370E+00
          2   -1    0    0  502    0  0.00000000000E+00  0.00000000000E+00  0.18528911541E+04  0.18528911541E+04  0.00000000000E+00 0. -1.
          1   -1    0    0  501    0 -0.00000000000E+00 -0.00000000000E+00 -0.17301551475E+04  0.17301551475E+04  0.00000000000E+00 0. -1.
         25    2    1    2    0    0  0.93440462598E+02  0.10388299630E+03  0.12636275471E+03  0.22608707623E+03  0.12500009317E+03 0.  0.
          2    1    1    2  501    0 -0.53637928970E+02 -0.29456229257E+02 -0.16786729664E+04  0.16797879703E+04  0.00000000000E+00 0. -1.
          1    1    1    2  502    0 -0.39802533628E+02 -0.74426767040E+02  0.16750462183E+04  0.16771712551E+04  0.00000000000E+00 0. -1.
         22    1    3    3    0    0 -0.21995396712E+02 -0.62378820199E+01  0.48190690019E+00  0.22867900709E+02  0.00000000000E+00 0.  1.
         22    1    3    3    0    0  0.11543585931E+03  0.11012087832E+03  0.12588084781E+03  0.20321917552E+03  0.00000000000E+00 0.  1.
</event>
<event>
 7    1  0.5931885E-006  0.1604401E+03  0.7818608E-02  0.1229719E+00
          2   -1    0    0  502    0  0.00000000000E+00  0.00000000000E+00  0.47132719724E+03  0.47132719724E+03  0.00000000000E+00 0. -1.
          1   -1    0    0  501    0 -0.00000000000E+00 -0.00000000000E+00 -0.63749445233E+03  0.63749445233E+03  0.00000000000E+00 0. -1.
         25    2    1    2    0    0 -0.15163735436E+03  0.31704334213E+02  0.60585765193E+02  0.20805318791E+03  0.12496576336E+03 0.  0.
          2    1    1    2  501    0  0.39457432486E+02  0.95030784872E+02 -0.53731617818E+03  0.54707989762E+03  0.00000000000E+00 0. -1.
          1    1    1    2  502    0  0.11217992187E+03 -0.12673511908E+03  0.31056315790E+03  0.35368856403E+03  0.00000000000E+00 0. -1.
         22    1    3    3    0    0 -0.10571944304E+03 -0.23583985191E+02  0.78755241113E+02  0.13392233942E+03  0.00000000000E+00 0.  1.
         22    1    3    3    0    0 -0.45917911322E+02  0.55288319404E+02 -0.18169475921E+02  0.74130848490E+02  0.00000000000E+00 0.  1.
</event>
<event>
 7    1  0.5931885E-006  0.4975720E+02  0.7818608E-02  0.1482045E+00
          2   -1    0    0  502    0  0.00000000000E+00  0.00000000000E+00  0.32994371510E+03  0.32994371510E+03  0.00000000000E+00 0. -1.
          1   -1    0    0  501    0 -0.00000000000E+00 -0.00000000000E+00 -0.69937016667E+03  0.69937016667E+03  0.00000000000E+00 0. -1.
         25    2    1    2    0    0  0.44067581021E+02  0.33619615667E+02 -0.38975778427E+03  0.41304773445E+03  0.12500028111E+03 0.  0.
          2    1    1    2  501    0 -0.92471156248E+01 -0.50131233075E+02 -0.29460395390E+03  0.29898183779E+03  0.00000000000E+00 0. -1.
          1    1    1    2  502    0 -0.34820465397E+02  0.16511617408E+02  0.31493528660E+03  0.31728430952E+03  0.00000000000E+00 0. -1.
         22    1    3    3    0    0  0.69462549253E+02  0.68387269964E+01 -0.35681291530E+03  0.36357567364E+03  0.00000000000E+00 0.  1.
         22    1    3    3    0    0 -0.25394968231E+02  0.26780888670E+02 -0.32944868972E+02  0.49472060813E+02  0.00000000000E+00 0.  1.
</event>
<event>
 7    1  0.5931885E-006  0.8799426E+02  0.7818608E-02  0.1348140E+00
          2   -1    0    0  502    0  0.00000000000E+00  0.00000000000E+00  0.65720215310E+03  0.65720215310E+03  0.00000000000E+00 0. -1.
          1   -1    0    0  501    0 -0.00000000000E+00 -0.00000000000E+00 -0.31008880478E+03  0.31008880478E+03  0.00000000000E+00 0. -1.
         25    2    1    2    0    0  0.61027144903E+01  0.30791429776E+02  0.47705991385E+02  0.13742586379E+03  0.12499860461E+03 0.  0.
          2    1    1    2  501    0 -0.18914722876E+02 -0.91069745022E+02 -0.25531510328E+03  0.27173013665E+03  0.00000000000E+00 0. -1.
          1    1    1    2  502    0  0.12812008386E+02  0.60278315246E+02  0.55472246021E+03  0.55813495744E+03  0.00000000000E+00 0. -1.
         22    1    3    3    0    0  0.21939697505E+02  0.51469180465E+02  0.78939997969E+02  0.96757171020E+02  0.00000000000E+00 0. -1.
         22    1    3    3    0    0 -0.15836983014E+02 -0.20677750690E+02 -0.31234006584E+02  0.40668692773E+02  0.00000000000E+00 0. -1.
</event>
<event>
 7    1  0.5931885E-006  0.9959426E+02  0.7818608E-02  0.1415194E+00
          2   -1    0    0  502    0  0.00000000000E+00  0.00000000000E+00  0.22672470391E+03  0.22672470391E+03  0.00000000000E+00 0. -1.
          1   -1    0    0  501    0 -0.00000000000E+00 -0.00000000000E+00 -0.23479807849E+03  0.23479807849E+03  0.00000000000E+00 0. -1.
         25    2    1    2    0    0 -0.39198608170E+02  0.62989100440E+02 -0.63126102685E+02  0.15847479820E+03  0.12500079667E+03 0.  0.
          2    1    1    2  501    0 -0.27250282381E+02  0.15890353375E+02 -0.10666994519E+03  0.11123649772E+03  0.00000000000E+00 0. -1.
          1    1    1    2  502    0  0.66448890551E+02 -0.78879453814E+02  0.16172267329E+03  0.19181148648E+03  0.00000000000E+00 0. -1.
         22    1    3    3    0    0 -0.76414919755E+01  0.96402112588E+02 -0.56610110934E+02  0.11205563070E+03  0.00000000000E+00 0.  1.
         22    1    3    3    0    0 -0.31557116195E+02 -0.33413012149E+02 -0.65159917515E+01  0.46419167505E+02  0.00000000000E+00 0.  1.
</event>
<event>
 7    1  0.5931885E-006  0.7460381E+02  0.7818608E-02  0.1351545E+00
          2   -1    0    0  502    0  0.00000000000E+00  0.00000000000E+00  0.26235244084E+03  0.26235244084E+03  0.00000000000E+00 0. -1.
          1   -1    0    0  501    0 -0.00000000000E+00 -0.00000000000E+00 -0.18081976855E+03  0.18081976855E+03  0.00000000000E+00 0. -1.
         25    2    1    2    0    0  0.18307906919E+02 -0.11787967155E+02 -0.33660224047E+02  0.13127709614E+03  0.12500611850E+03 0.  0.
          2    1    1    2  501    0 -0.72674543539E+02  0.62876103545E+02 -0.65573125073E+02  0.11633928145E+03  0.00000000000E+00 0. -1.
          1    1    1    2  502    0  0.54366636620E+02 -0.51088136390E+02  0.18076602140E+03  0.19555583180E+03  0.00000000000E+00 0. -1.
         22    1    3    3    0    0  0.36654666037E+02  0.50066544070E+02 -0.21162408151E+02  0.65559674314E+02  0.00000000000E+00 0. -1.
         22    1    3    3    0    0 -0.18346759118E+02 -0.61854511225E+02 -0.12497815896E+02  0.65717421824E+02  0.00000000000E+00 0. -1.
</event>
<event>
 7    1  0.5931885E-006  0.7393690E+02  0.7818608E-02  0.1377889E+00
          2   -1    0    0  502    0  0.00000000000E+00  0.00000000000E+00  0.32913807392E+03  0.32913807392E+03  0.00000000000E+00 0. -1.
          1   -1    0    0  501    0 -0.00000000000E+00 -0.00000000000E+00 -0.35754520987E+04  0.35754520987E+04  0.00000000000E+00 0. -1.
         25    2    1    2    0    0  0.97707305734E+02  0.41777679075E+01 -0.55974831516E+02  0.16828344457E+03  0.12498785787E+03 0.  0.
          2    1    1    2  501    0 -0.36021147283E+02 -0.44409963553E+02 -0.34581151327E+04  0.34585878677E+04  0.00000000000E+00 0. -1.
          1    1    1    2  502    0 -0.61686158451E+02  0.40232195646E+02  0.26777593936E+03  0.27771886038E+03  0.00000000000E+00 0. -1.
         22    1    3    3    0    0  0.78484686071E+02 -0.23668068785E+02  0.20635888037E+02  0.84533208284E+02  0.00000000000E+00 0. -1.
         22    1    3    3    0    0  0.19222619663E+02  0.27845836692E+02 -0.76610719552E+02  0.83750236287E+02  0.00000000000E+00 0. -1.
</event>
<event>
 7    1  0.5931885E-006  0.9306989E+02  0.7818608E-02  0.1326733E+00
          2   -1    0    0  502    0  0.00000000000E+00  0.00000000000E+00  0.44271948651E+03  0.44271948651E+03  0.00000000000E+00 0. -1.
          1   -1    0    0  501    0 -0.00000000000E+00 -0.00000000000E+00 -0.53289297647E+03  0.53289297647E+03  0.00000000000E+00 0. -1.
         25    2    1    2    0    0  0.13231406728E+03 -0.26892623190E+02 -0.17599624725E+03  0.25461685987E+03  0.12499936281E+03 0.  0.
          2    1    1    2  501    0 -0.61931920142E+02 -0.33024924523E+02 -0.30829516518E+03  0.31618367644E+03  0.00000000000E+00 0. -1.
          1    1    1    2  502    0 -0.70382147137E+02  0.59917547713E+02  0.39411792248E+03  0.40481192667E+03  0.00000000000E+00 0. -1.
         22    1    3    3    0    0  0.57174635506E+02  0.28068422154E+02 -0.10245308787E+02  0.64511561907E+02  0.00000000000E+00 0. -1.
         22    1    3    3    0    0  0.75139431773E+02 -0.54961045344E+02 -0.16575093847E+03  0.19010529797E+03  0.00000000000E+00 0. -1.
</event>
<event>
 7    1  0.5931885E-006  0.2057558E+03  0.7818608E-02  0.1340505E+00
          2   -1    0    0  502    0  0.00000000000E+00  0.00000000000E+00  0.10352016841E+04  0.10352016841E+04  0.00000000000E+00 0. -1.
          1   -1    0    0  501    0 -0.00000000000E+00 -0.00000000000E+00 -0.22237622631E+04  0.22237622631E+04  0.00000000000E+00 0. -1.
         25    2    1    2    0    0  0.80075836343E+02  0.21776095845E+03 -0.13289443274E+03  0.29515699113E+03  0.12499897828E+03 0.  0.
          2    1    1    2  501    0 -0.73427771472E+02 -0.19041303122E+03 -0.20043464470E+04  0.20147092693E+04  0.00000000000E+00 0. -1.
          1    1    1    2  502    0 -0.66480648708E+01 -0.27347927222E+02  0.94868030074E+03  0.94909768670E+03  0.00000000000E+00 0. -1.
         22    1    3    3    0    0  0.43464929717E+02  0.40958602909E+02 -0.92557293918E+02  0.11015289340E+03  0.00000000000E+00 0.  1.
         22    1    3    3    0    0  0.36610906626E+02  0.17680235554E+03 -0.40337138824E+02  0.18500409773E+03  0.00000000000E+00 0.  1.
</event>
<event>
 7    1  0.5931885E-006  0.5982023E+02  0.7818608E-02  0.1441752E+00
          2   -1    0    0  502    0  0.00000000000E+00  0.00000000000E+00  0.11681192589E+04  0.11681192589E+04  0.00000000000E+00 0. -1.
          1   -1    0    0  501    0 -0.00000000000E+00 -0.00000000000E+00 -0.23827093485E+02  0.23827093485E+02  0.00000000000E+00 0. -1.
         25    2    1    2    0    0  0.24676321994E+02 -0.22108725079E+02  0.38444743266E+03  0.40561104786E+03  0.12499110798E+03 0.  0.
          2    1    1    2  501    0 -0.72342245279E+02 -0.14035707324E+02  0.69188423457E+03  0.69579752485E+03  0.00000000000E+00 0. -1.
          1    1    1    2  502    0  0.47665923285E+02  0.36144432403E+02  0.67960498183E+02  0.90537779681E+02  0.00000000000E+00 0. -1.
         22    1    3    3    0    0  0.95285790396E+01  0.44781531972E+02  0.69097983085E+02  0.82889750215E+02  0.00000000000E+00 0.  1.
         22    1    3    3    0    0  0.15147742954E+02 -0.66890257051E+02  0.31534944958E+03  0.32272129765E+03  0.00000000000E+00 0.  1.
</event>
<event>
 7    1  0.5931885E-006  0.1524198E+03  0.7818608E-02  0.1217573E+00
          2   -1    0    0  502    0  0.00000000000E+00  0.00000000000E+00  0.21305085493E+04  0.21305085493E+04  0.00000000000E+00 0. -1.
          1   -1    0    0  501    0 -0.00000000000E+00 -0.00000000000E+00 -0.90373205272E+03  0.90373205272E+03  0.00000000000E+00 0. -1.
         25    2    1    2    0    0  0.12946378441E+03 -0.22002654961E+03 -0.42866490604E+02  0.28746570442E+03  0.12500576464E+03 0.  0.
          2    1    1    2  501    0 -0.33657207626E+02  0.14297538841E+03 -0.72935567199E+03  0.74399896881E+03  0.00000000000E+00 0. -1.
          1    1    1    2  502    0 -0.95806576785E+02  0.77051161203E+02  0.19989986592E+04  0.20027759288E+04  0.00000000000E+00 0. -1.
         22    1    3    3    0    0  0.17364064599E+02 -0.15128062442E+03 -0.14692700717E+02  0.15298108876E+03  0.00000000000E+00 0.  1.
         22    1    3    3    0    0  0.11209971981E+03 -0.68745925190E+02 -0.28173789887E+02  0.13448461566E+03  0.00000000000E+00 0.  1.
</event>
<event>
 7    1  0.5931885E-006  0.1327834E+03  0.7818608E-02  0.1294732E+00
          2   -1    0    0  502    0  0.00000000000E+00  0.00000000000E+00  0.45048756368E+03  0.45048756368E+03  0.00000000000E+00 0. -1.
          1   -1    0    0  501    0 -0.00000000000E+00 -0.00000000000E+00 -0.18870487067E+04  0.18870487067E+04  0.00000000000E+00 0. -1.
         25    2    1    2    0    0 -0.97992650559E+02 -0.82058779683E+02 -0.25586544741E+03  0.31213617754E+03  0.12500265303E+03 0.  0.
          2    1    1    2  501    0 -0.33141888865E+02  0.56788659195E+02 -0.15917953317E+04  0.15931527594E+04  0.00000000000E+00 0. -1.
          1    1    1    2  502    0  0.13113453942E+03  0.25270120488E+02  0.41109963615E+03  0.43224733343E+03  0.00000000000E+00 0. -1.
         22    1    3    3    0    0 -0.89957577722E+02 -0.95267598170E+01 -0.20232283407E+03  0.22162503046E+03  0.00000000000E+00 0.  1.
         22    1    3    3    0    0 -0.80350728370E+01 -0.72532019866E+02 -0.53542613337E+02  0.90511147072E+02  0.00000000000E+00 0.  1.
</event>
<event>
 7    1  0.5931885E-006  0.2796498E+02  0.7818608E-02  0.1673951E+00
          2   -1    0    0  502    0  0.00000000000E+00  0.00000000000E+00  0.98233949166E+03  0.98233949166E+03  0.00000000000E+00 0. -1.
          1   -1    0    0  501    0 -0.00000000000E+00 -0.00000000000E+00 -0.65854255180E+02  0.65854255180E+02  0.00000000000E+00 0. -1.
         25    2    1    2    0    0  0.13773276535E+00  0.13899452156E+02  0.71639004828E+02  0.14474259177E+03  0.12500022848E+03 0.  0.
          2    1    1    2  501    0 -0.19912219950E+02  0.60335029787E+01 -0.25353899847E+02  0.32798169141E+02  0.00000000000E+00 0. -1.
          1    1    1    2  502    0  0.19774487185E+02 -0.19932955134E+02  0.87020013150E+03  0.87065298592E+03  0.00000000000E+00 0. -1.
         22    1    3    3    0    0 -0.40791165920E+02 -0.32744985121E+02  0.32696698483E+01  0.52410342572E+02  0.00000000000E+00 0.  1.
         22    1    3    3    0    0  0.40928898685E+02  0.46644437276E+02  0.68369334980E+02  0.92332249198E+02  0.00000000000E+00 0.  1.
</event>
<event>
 7    1  0.5931885E-006  0.4030107E+02  0.7818608E-02  0.1568987E+00
          2   -1    0    0  502    0  0.00000000000E+00  0.00000000000E+00  0.12439436150E+04  0.12439436150E+04  0.00000000000E+00 0. -1.
          1   -1    0    0  501    0 -0.00000000000E+00 -0.00000000000E+00 -0.97489394048E+03  0.97489394048E+03  0.00000000000E+00 0. -1.
         25    2    1    2    0    0  0.11504540794E+02  0.10634042273E+02 -0.38151586466E+03  0.40177839906E+03  0.12500435850E+03 0.  0.
          2    1    1    2  501    0 -0.27002857985E+02 -0.32382932811E+02 -0.58233998539E+03  0.58386442541E+03  0.00000000000E+00 0. -1.
          1    1    1    2  502    0  0.15498317190E+02  0.21748890538E+02  0.12329055246E+04  0.12331947311E+04  0.00000000000E+00 0. -1.
         22    1    3    3    0    0 -0.16002117990E+02 -0.51618463516E+02 -0.12101319207E+03  0.13253198184E+03  0.00000000000E+00 0. -1.
         22    1    3    3    0    0  0.27506658784E+02  0.62252505789E+02 -0.26050267259E+03  0.26924641721E+03  0.00000000000E+00 0. -1.
</event>
<event>
 7    1  0.5931885E-006  0.5585052E+02  0.7818608E-02  0.1483550E+00
          2   -1    0    0  502    0  0.00000000000E+00  0.00000000000E+00  0.12596818470E+04  0.12596818470E+04  0.00000000000E+00 0. -1.
          1   -1    0    0  501    0 -0.00000000000E+00 -0.00000000000E+00 -0.25493079023E+03  0.25493079023E+03  0.00000000000E+00 0. -1.
         25    2    1    2    0    0  0.39945142347E+02 -0.64174215845E+02  0.75003711810E+02  0.16421237029E+03  0.12500480549E+03 0.  0.
          2    1    1    2  501    0 -0.32760099356E+02  0.89887961191E+01 -0.20827035251E+03  0.21102265826E+03  0.00000000000E+00 0. -1.
          1    1    1    2  502    0 -0.71850429911E+01  0.55185419726E+02  0.11380176975E+04  0.11393776087E+04  0.00000000000E+00 0. -1.
         22    1    3    3    0    0  0.13365278685E+01 -0.63328679038E+02  0.99882559890E+02  0.11827439987E+03  0.00000000000E+00 0. -1.
         22    1    3    3    0    0  0.38608614479E+02 -0.84553680745E+00 -0.24878848079E+02  0.45937970419E+02  0.00000000000E+00 0. -1.
</event>
<event>
 7    1  0.5931885E-006  0.5083438E+02  0.7818608E-02  0.1516011E+00
          2   -1    0    0  502    0  0.00000000000E+00  0.00000000000E+00  0.64018327981E+03  0.64018327981E+03  0.00000000000E+00 0. -1.
          1   -1    0    0  501    0 -0.00000000000E+00 -0.00000000000E+00 -0.86163290048E+03  0.86163290048E+03  0.00000000000E+00 0. -1.
         25    2    1    2    0    0 -0.31769599451E+02  0.22510102854E+02 -0.10235332941E+03  0.16618011847E+03  0.12499446209E+03 0.  0.
          2    1    1    2  501    0  0.17020155232E+02 -0.48471394514E+02 -0.72609165347E+03  0.72790675983E+03  0.00000000000E+00 0. -1.
          1    1    1    2  502    0  0.14749444219E+02  0.25961291659E+02  0.60699536220E+03  0.60772930200E+03  0.00000000000E+00 0. -1.
         22    1    3    3    0    0 -0.36828003504E+02 -0.23488071308E+02  0.98774115856E+01  0.44783418756E+02  0.00000000000E+00 0. -1.
         22    1    3    3    0    0  0.50584040527E+01  0.45998174162E+02 -0.11223074099E+03  0.12139669971E+03  0.00000000000E+00 0. -1.
</event>
<event>
 7    1  0.5931885E-006  0.1616470E+03  0.7818608E-02  0.1409629E+00
          2   -1    0    0  502    0  0.00000000000E+00  0.00000000000E+00  0.38018519246E+03  0.38018519246E+03  0.00000000000E+00 0. -1.
          1   -1    0    0  501    0 -0.00000000000E+00 -0.00000000000E+00 -0.51017622349E+03  0.51017622349E+03  0.00000000000E+00 0. -1.
         25    2    1    2    0    0  0.14831892946E+03 -0.83726084541E+02  0.16143598813E+03  0.26588588999E+03  0.12500066465E+03 0.  0.
          2    1    1    2  501    0 -0.13084264523E+03  0.94044405359E+02 -0.44308025770E+03  0.47147032012E+03  0.00000000000E+00 0. -1.
          1    1    1    2  502    0 -0.17476284225E+02 -0.10318320818E+02  0.15165323854E+03  0.15300520584E+03  0.00000000000E+00 0. -1.
         22    1    3    3    0    0  0.57904513997E+02  0.17377410555E+02  0.10029744922E+03  0.11710886157E+03  0.00000000000E+00 0. -1.
         22    1    3    3    0    0  0.90414415459E+02 -0.10110349510E+03  0.61138538910E+02  0.14877702841E+03  0.00000000000E+00 0. -1.
</event>
<event>
 7    1  0.5931885E-006  0.1455610E+03  0.7818608E-02  0.1225623E+00
          2   -1    0    0  502    0  0.00000000000E+00  0.00000000000E+00  0.97181856621E+03  0.97181856621E+03  0.00000000000E+00 0. -1.
          1   -1    0    0  501    0 -0.00000000000E+00 -0.00000000000E+00 -0.11980141747E+04  0.11980141747E+04  0.00000000000E+00 0. -1.
         25    2    1    2    0    0  0.14780014745E+03 -0.20168938108E+03 -0.94423957677E+02  0.29506590344E+03  0.12499805423E+03 0.  0.
          2    1    1    2  501    0 -0.53541268605E+02  0.13014884597E+03 -0.99427423444E+03  0.10041845661E+04  0.00000000000E+00 0. -1.
          1    1    1    2  502    0 -0.94258878848E+02  0.71540535112E+02  0.86250258363E+03  0.87058227135E+03  0.00000000000E+00 0. -1.
         22    1    3    3    0    0  0.42816416053E+02 -0.58406689916E+02 -0.92436960649E+02  0.11742733329E+03  0.00000000000E+00 0. -1.
         22    1    3    3    0    0  0.10498373140E+03 -0.14328269117E+03 -0.19869970289E+01  0.17763857015E+03  0.00000000000E+00 0. -1.
</event>
<event>
 7    1  0.5931885E-006  0.4828640E+02  0.7818608E-02  0.1536499E+00
          2   -1    0    0  502    0  0.00000000000E+00  0.00000000000E+00  0.17476371684E+04  0.17476371684E+04  0.00000000000E+00 0. -1.
          1   -1    0    0  501    0 -0.00000000000E+00 -0.00000000000E+00 -0.13663232346E+02  0.13663232346E+02  0.00000000000E+00 0. -1.
         25    2    1    2    0    0 -0.51021447743E+02 -0.27067910079E+01  0.37722188276E+03  0.40066804413E+03  0.12501207102E+03 0.  0.
          2    1    1    2  501    0  0.85522532552E+01  0.26074661680E+02  0.12725483299E+03  0.13017995827E+03  0.00000000000E+00 0. -1.
          1    1    1    2  502    0  0.42469194488E+02 -0.23367870672E+02  0.12294972203E+04  0.12304523983E+04  0.00000000000E+00 0. -1.
         22    1    3    3    0    0 -0.44836671262E+02  0.46779344741E+02  0.10112837427E+03  0.12010654548E+03  0.00000000000E+00 0.  1.
         22    1    3    3    0    0 -0.61847764808E+01 -0.49486135749E+02  0.27609350849E+03  0.28056149865E+03  0.00000000000E+00 0.  1.
</event>
<event>
 7    1  0.5931885E-006  0.1253820E+03  0.7818608E-02  0.1373588E+00
          2   -1    0    0  502    0  0.00000000000E+00  0.00000000000E+00  0.12216893977E+04  0.12216893977E+04  0.00000000000E+00 0. -1.
          1   -1    0    0  501    0 -0.00000000000E+00 -0.00000000000E+00 -0.53832952466E+02  0.53832952466E+02  0.00000000000E+00 0. -1.
         25    2    1    2    0    0 -0.61639972294E+02  0.12429297267E+03  0.94827595751E+03  0.96648870593E+03  0.12499959144E+03 0.  0.
          2    1    1    2  501    0  0.80531987337E+02 -0.94911260220E+02  0.47155546221E+02  0.13310594968E+03  0.00000000000E+00 0. -1.
          1    1    1    2  502    0 -0.18892015043E+02 -0.29381712454E+02  0.17242494154E+03  0.17592769459E+03  0.00000000000E+00 0. -1.
         22    1    3    3    0    0 -0.32422184607E+02 -0.17624172965E+02  0.29736055263E+03  0.29964163227E+03  0.00000000000E+00 0. -1.
         22    1    3    3    0    0 -0.29217787687E+02  0.14191714564E+03  0.65091540488E+03  0.66684707366E+03  0.00000000000E+00 0. -1.
</event>
<event>
 7    1  0.5931885E-006  0.7993675E+02  0.7818608E-02  0.1488982E+00
          2   -1    0    0  502    0  0.00000000000E+00  0.00000000000E+00  0.34211360131E+03  0.34211360131E+03  0.00000000000E+00 0. -1.
          1   -1    0    0  501    0 -0.00000000000E+00 -0.00000000000E+00 -0.13504257621E+03  0.13504257621E+03  0.00000000000E+00 0. -1.
         25    2    1    2    0    0 -0.90221363997E+02  0.22942602147E+02  0.16524734791E+02  0.15673358627E+03  0.12500437068E+03 0.  0.
          2    1    1    2  501    0  0.19437012996E+02  0.12011924651E+02 -0.56565967003E+02  0.61006494991E+02  0.00000000000E+00 0. -1.
          1    1    1    2  502    0  0.70784351002E+02 -0.34954526798E+02  0.24711225731E+03  0.25941609627E+03  0.00000000000E+00 0. -1.
         22    1    3    3    0    0  0.16664291739E+02 -0.97534363853E+01  0.38268338812E+02  0.42863666384E+02  0.00000000000E+00 0. -1.
         22    1    3    3    0    0 -0.10688565574E+03  0.32696038533E+02 -0.21743604021E+02  0.11386991988E+03  0.00000000000E+00 0. -1.
</event>
<event>
 7    1  0.5931885E-006  0.6626456E+02  0.7818608E-02  0.1521009E+00
          2   -1    0    0  502    0  0.00000000000E+00  0.00000000000E+00  0.32791299436E+03  0.32791299436E+03  0.00000000000E+00 0. -1.
          1   -1    0    0  501    0 -0.00000000000E+00 -0.00000000000E+00 -0.19791608115E+03  0.19791608115E+03  0.00000000000E+00 0. -1.
         25    2    1    2    0    0  0.86275084053E+02  0.49093495156E+01  0.33943829825E+02  0.15570367088E+03  0.12499583073E+03 0.  0.
          2    1    1    2  501    0 -0.64647304092E+02 -0.12099348409E+00 -0.12883717778E+03  0.14414682426E+03  0.00000000000E+00 0. -1.
          1    1    1    2  502    0 -0.21627779960E+02 -0.47883560315E+01  0.22489026116E+03  0.22597858037E+03  0.00000000000E+00 0. -1.
         22    1    3    3    0    0  0.97881174850E+02 -0.36978544726E+02  0.76706544436E+01  0.10491413680E+03  0.00000000000E+00 0. -1.
         22    1    3    3    0    0 -0.11606090797E+02  0.41887894242E+02  0.26273175381E+02  0.50789534081E+02  0.00000000000E+00 0. -1.
</event>
<event>
 7    1  0.5931885E-006  0.8086973E+02  0.7818608E-02  0.1358377E+00
          2   -1    0    0  502    0  0.00000000000E+00  0.00000000000E+00  0.41975839939E+04  0.41975839939E+04  0.00000000000E+00 0. -1.
          1   -1    0    0  501    0 -0.00000000000E+00 -0.00000000000E+00 -0.15189786388E+03  0.15189786388E+03  0.00000000000E+00 0. -1.
         25    2    1    2    0    0 -0.15415698412E+02  0.16453288373E+02  0.18061238783E+03  0.22080236703E+03  0.12499798474E+03 0.  0.
          2    1    1    2  501    0 -0.58017245939E+02  0.20319069065E+02 -0.12418954371E+03  0.13857094991E+03  0.00000000000E+00 0. -1.
          1    1    1    2  502    0  0.73432944351E+02 -0.36772357438E+02  0.39892632859E+04  0.39901085409E+04  0.00000000000E+00 0. -1.
         22    1    3    3    0    0  0.18526856041E+02 -0.44458961800E+02  0.35592446535E+02  0.59888779663E+02  0.00000000000E+00 0.  1.
         22    1    3    3    0    0 -0.33942554452E+02  0.60912250173E+02  0.14501994130E+03  0.16091358736E+03  0.00000000000E+00 0.  1.
</event>
<event>
 7    1  0.5931885E-006  0.2820772E+02  0.7818608E-02  0.1660537E+00
          2   -1    0    0  502    0  0.00000000000E+00  0.00000000000E+00  0.82451996963E+03  0.82451996963E+03  0.00000000000E+00 0. -1.
          1   -1    0    0  501    0 -0.00000000000E+00 -0.00000000000E+00 -0.37167914864E+03  0.37167914864E+03  0.00000000000E+00 0. -1.
         25    2    1    2    0    0  0.21688448827E+02  0.18898815588E+02  0.21300791982E+03  0.24864603165E+03  0.12499968443E+03 0.  0.
          2    1    1    2  501    0 -0.20119458977E+02  0.94175634271E+01 -0.35317224017E+03  0.35387019422E+03  0.00000000000E+00 0. -1.
          1    1    1    2  502    0 -0.15689898495E+01 -0.28316379016E+02  0.59300514135E+03  0.59368289239E+03  0.00000000000E+00 0. -1.
         22    1    3    3    0    0  0.25157343304E+02  0.61317205307E+02  0.58561457748E+02  0.88442839860E+02  0.00000000000E+00 0.  1.
         22    1    3    3    0    0 -0.34688944776E+01 -0.42418389719E+02  0.15444646207E+03  0.16020319179E+03  0.00000000000E+00 0.  1.
</event>
<event>
 7    1  0.5931885E-006  0.3303537E+03  0.7818608E-02  0.1162969E+00
          2   -1    0    0  502    0  0.00000000000E+00  0.00000000000E+00  0.28562199391E+04  0.28562199391E+04  0.00000000000E+00 0. -1.
          1   -1    0    0  501    0 -0.00000000000E+00 -0.00000000000E+00 -0.94004168097E+02  0.94004168097E+02  0.00000000000E+00 0. -1.
         25    2    1    2    0    0  0.56201441151E+02  0.26581009982E+03  0.74935055014E+03  0.80682403355E+03  0.12500065187E+03 0.  0.
          2    1    1    2  501    0 -0.32382763092E+02  0.98511664512E+02  0.62987786510E+01  0.10388871932E+03  0.00000000000E+00 0. -1.
          1    1    1    2  502    0 -0.23818678059E+02 -0.36432176433E+03  0.20065664422E+04  0.20395113543E+04  0.00000000000E+00 0. -1.
         22    1    3    3    0    0 -0.70904483743E+01  0.72765850616E+02  0.85055428395E+02  0.11215867944E+03  0.00000000000E+00 0.  1.
         22    1    3    3    0    0  0.63291889525E+02  0.19304424921E+03  0.66429512174E+03  0.69466535411E+03  0.00000000000E+00 0.  1.
</event>
<event>
 7    1  0.5931885E-006  0.7685614E+02  0.7818608E-02  0.1388292E+00
          2   -1    0    0  502    0  0.00000000000E+00  0.00000000000E+00  0.10770430325E+04  0.10770430325E+04  0.00000000000E+00 0. -1.
          1   -1    0    0  501    0 -0.00000000000E+00 -0.00000000000E+00 -0.71014175781E+03  0.71014175781E+03  0.00000000000E+00 0. -1.
         25    2    1    2    0    0 -0.12120006570E+02  0.42636467715E+02  0.38241576732E+03  0.40476135614E+03  0.12500069358E+03 0.  0.
          2    1    1    2  501    0  0.28941596759E+02  0.41451075376E+02 -0.69535778147E+03  0.69719312384E+03  0.00000000000E+00 0. -1.
          1    1    1    2  502    0 -0.16821590189E+02 -0.84087543091E+02  0.67984328880E+03  0.68523031028E+03  0.00000000000E+00 0. -1.
         22    1    3    3    0    0 -0.39366633084E+02  0.72520769338E+00  0.31831419507E+02  0.50630988479E+02  0.00000000000E+00 0. -1.
         22    1    3    3    0    0  0.27246626514E+02  0.41911260021E+02  0.35058434781E+03  0.35413036766E+03  0.00000000000E+00 0. -1.
</event>
<event>
 7    1  0.5931885E-006  0.4064057E+02  0.7818608E-02  0.1510856E+00
          2   -1    0    0  502    0  0.00000000000E+00  0.00000000000E+00  0.28560329967E+04  0.28560329967E+04  0.00000000000E+00 0. -1.
          1   -1    0    0  501    0 -0.00000000000E+00 -0.00000000000E+00 -0.12985808152E+03  0.12985808152E+03  0.00000000000E+00 0. -1.
         25    2    1    2    0    0  0.46904352542E+02 -0.53161235843E+01  0.14245983331E+04  0.14308505382E+04  0.12499829000E+03 0.  0.
          2    1    1    2  501    0 -0.24651069904E+02 -0.29793745289E+02 -0.12347202740E+03  0.12938579541E+03  0.00000000000E+00 0. -1.
          1    1    1    2  502    0 -0.22253282638E+02  0.35109868873E+02  0.14250486095E+04  0.14256547447E+04  0.00000000000E+00 0. -1.
         22    1    3    3    0    0  0.35172864188E+02  0.35597051997E+02  0.12548568979E+04  0.12558543366E+04  0.00000000000E+00 0. -1.
         22    1    3    3    0    0  0.11731488354E+02 -0.40913175582E+02  0.16974143518E+03  0.17499620160E+03  0.00000000000E+00 0. -1.
</event>
<event>
 7    1  0.5931885E-006  0.3402350E+02  0.7818608E-02  0.1614919E+00
          2   -1    0    0  502    0  0.00000000000E+00  0.00000000000E+00  0.47031518779E+03  0.47031518779E+03  0.00000000000E+00 0. -1.
          1   -1    0    0  501    0 -0.00000000000E+00 -0.00000000000E+00 -0.60729876867E+03  0.60729876867E+03  0.00000000000E+00 0. -1.
         25    2    1    2    0    0  0.40621942769E+02  0.31443456059E+02  0.70749823476E+02  0.15254597477E+03  0.12500361488E+03 0.  0.
          2    1    1    2  501    0 -0.23827542655E+02 -0.21574722924E+01 -0.56535271266E+03  0.56585872458E+03  0.00000000000E+00 0. -1.
          1    1    1    2  502    0 -0.16794400114E+02 -0.29285983766E+02  0.35761930830E+03  0.35920925711E+03  0.00000000000E+00 0. -1.
         22    1    3    3    0    0 -0.72239353669E+01 -0.20177506475E+02  0.78837381963E+02  0.81698530002E+02  0.00000000000E+00 0. -1.
         22    1    3    3    0    0  0.47845878135E+02  0.51620962534E+02 -0.80875584875E+01  0.70847444765E+02  0.00000000000E+00 0. -1.
</event>
<event>
 7    1  0.5931885E-006  0.9071396E+02  0.7818608E-02  0.1344130E+00
          2   -1    0    0  502    0  0.00000000000E+00  0.00000000000E+00  0.28201416694E+04  0.28201416694E+04  0.00000000000E+00 0. -1.
          1   -1    0    0  501    0 -0.00000000000E+00 -0.00000000000E+00 -0.88312382775E+02  0.88312382775E+02  0.00000000000E+00 0. -1.
         25    2    1    2    0    0  0.14514464566E+03  0.14059135502E+02  0.35506307634E+03  0.40368302628E+03  0.12500228029E+03 0.  0.
          2    1    1    2  501    0 -0.83764280414E+02 -0.21825988097E+02 -0.34155167190E+02  0.93055918003E+02  0.00000000000E+00 0. -1.
          1    1    1    2  502    0 -0.61380365244E+02  0.77668525955E+01  0.24109213775E+04  0.24117151079E+04  0.00000000000E+00 0. -1.
         22    1    3    3    0    0  0.16163580149E+03  0.33233632156E+02  0.32420672411E+03  0.36378648489E+03  0.00000000000E+00 0. -1.
         22    1    3    3    0    0 -0.16491155829E+02 -0.19174496655E+02  0.30856352228E+02  0.39896541396E+02  0.00000000000E+00 0. -1.
</event>
<event>
 7    1  0.5931885E-006  0.3039883E+02  0.7818608E-02  0.1632416E+00
          2   -1    0    0  502    0  0.00000000000E+00  0.00000000000E+00  0.63099868460E+01  0.63099868460E+01  0.00000000000E+00 0. -1.
          1   -1    0    0  501    0 -0.00000000000E+00 -0.00000000000E+00 -0.19631566733E+04  0.19631566733E+04  0.00000000000E+00 0. -1.
         25    2    1    2    0    0 -0.94962306802E+01  0.19066205218E+02 -0.10329365205E+04  0.10406900827E+04  0.12499717719E+03 0.  0.
          2    1    1    2  501    0 -0.12528267740E+02 -0.29040738279E+02 -0.85781762432E+03  0.85840048845E+03  0.00000000000E+00 0. -1.
          1    1    1    2  502    0  0.22024498420E+02  0.99745330612E+01 -0.66092541598E+02  0.70376088946E+02  0.00000000000E+00 0. -1.
         22    1    3    3    0    0 -0.28045511387E+02  0.23241832335E+02 -0.10110182975E+04  0.10116742220E+04  0.00000000000E+00 0.  1.
         22    1    3    3    0    0  0.18549280706E+02 -0.41756271169E+01 -0.21918223000E+02  0.29015860766E+02  0.00000000000E+00 0.  1.
</event>
<event>
 7    1  0.5931885E-006  0.1247870E+03  0.7818608E-02  0.1437485E+00
          2   -1    0    0  502    0  0.00000000000E+00  0.00000000000E+00  0.93554047681E+03  0.93554047681E+03  0.00000000000E+00 0. -1.
          1   -1    0    0  501    0 -0.00000000000E+00 -0.00000000000E+00 -0.63271053664E+03  0.63271053664E+03  0.00000000000E+00 0. -1.
         25    2    1    2    0    0 -0.89494901159E+02 -0.60293835367E+02  0.43426849748E+03  0.46460614827E+03  0.12500024474E+03 0.  0.
          2    1    1    2  501    0  0.11063892559E+03  0.58244427042E+02 -0.61097527406E+03  0.62363785216E+03  0.00000000000E+00 0. -1.
          1    1    1    2  502    0 -0.21144024428E+02  0.20494083245E+01  0.47953671675E+03  0.48000701303E+03  0.00000000000E+00 0. -1.
         22    1    3    3    0    0 -0.10875960964E+03 -0.77406067704E+02  0.40028817739E+03  0.42196087137E+03  0.00000000000E+00 0. -1.
         22    1    3    3    0    0  0.19264708479E+02  0.17112232337E+02  0.33980320090E+02  0.42645276899E+02  0.00000000000E+00 0. -1.
</event>
<event>
 7    1  0.5931885E-006  0.7928226E+02  0.7818608E-02  0.1434351E+00
          2   -1    0    0  502    0  0.00000000000E+00  0.00000000000E+00  0.14227425701E+03  0.14227425701E+03  0.00000000000E+00 0. -1.
          1   -1    0    0  501    0 -0.00000000000E+00 -0.00000000000E+00 -0.15708021700E+04  0.15708021700E+04  0.00000000000E+00 0. -1.
         25    2    1    2    0    0  0.79438683081E+02 -0.94142134358E+01 -0.52310266988E+03  0.54374745097E+03  0.12500302166E+03 0.  0.
          2    1    1    2  501    0 -0.76243994667E+02 -0.24668949478E+02 -0.10335795053E+04  0.10366813867E+04  0.00000000000E+00 0. -1.
          1    1    1    2  502    0 -0.31946884143E+01  0.34083162914E+02  0.12815426220E+03  0.13264758930E+03  0.00000000000E+00 0. -1.
         22    1    3    3    0    0 -0.22300069800E+02  0.45069922830E+01 -0.20062228683E+02  0.30333135549E+02  0.00000000000E+00 0.  1.
         22    1    3    3    0    0  0.10173875288E+03 -0.13921205719E+02 -0.50304044119E+03  0.51341431542E+03  0.00000000000E+00 0.  1.
</event>
<event>
 7    1  0.5931885E-006  0.1247020E+03  0.7818608E-02  0.1384441E+00
          2   -1    0    0  502    0  0.00000000000E+00  0.00000000000E+00  0.11139494779E+04  0.11139494779E+04  0.00000000000E+00 0. -1.
          1   -1    0    0  501    0 -0.00000000000E+00 -0.00000000000E+00 -0.78933853874E+03  0.78933853874E+03  0.00000000000E+00 0. -1.
         25    2    1    2    0    0  0.21185440936E+02 -0.96974115346E+02  0.32663931263E+03  0.36355369983E+03  0.12500100061E+03 0.  0.
          2    1    1    2  501    0 -0.54119515191E+01  0.12498039313E+03 -0.76546578326E+03  0.77562056008E+03  0.00000000000E+00 0. -1.
          1    1    1    2  502    0 -0.15773489417E+02 -0.28006277787E+02  0.76343740983E+03  0.76411375677E+03  0.00000000000E+00 0. -1.
         22    1    3    3    0    0  0.28674179165E+02 -0.32184780696E+02  0.28018241961E+03  0.28347884739E+03  0.00000000000E+00 0. -1.
         22    1    3    3    0    0 -0.74887382284E+01 -0.64789334649E+02  0.46456893015E+02  0.80074852439E+02  0.00000000000E+00 0. -1.
</event>
<event>
 7    1  0.5931885E-006  0.8872762E+02  0.7818608E-02  0.1416564E+00
          2   -1    0    0  502    0  0.00000000000E+00  0.00000000000E+00  0.27739937687E+03  0.27739937687E+03  0.00000000000E+00 0. -1.
          1   -1    0    0  501    0 -0.00000000000E+00 -0.00000000000E+00 -0.19886716855E+04  0.19886716855E+04  0.00000000000E+00 0. -1.
         25    2    1    2    0    0 -0.46621265000E+02  0.29145555280E+02 -0.34463316114E+03  0.37070210921E+03  0.12500012908E+03 0.  0.
          2    1    1    2  501    0 -0.33170814446E+02  0.11276215028E+02 -0.16232436567E+04  0.16236217000E+04  0.00000000000E+00 0. -1.
          1    1    1    2  502    0  0.79792079446E+02 -0.40421770308E+02  0.25660450916E+03  0.27174725312E+03  0.00000000000E+00 0. -1.
         22    1    3    3    0    0 -0.64865198468E+02  0.17449374958E+02 -0.76951102191E+02  0.10214424500E+03  0.00000000000E+00 0. -1.
         22    1    3    3    0    0  0.18243933468E+02  0.11696180322E+02 -0.26768205895E+03  0.26855786421E+03  0.00000000000E+00 0. -1.
</event>
<event>
 7    1  0.5931885E-006  0.1551522E+03  0.7818608E-02  0.1389854E+00
          2   -1    0    0  502    0  0.00000000000E+00  0.00000000000E+00  0.97895195517E+03  0.97895195517E+03  0.00000000000E+00 0. -1.
          1   -1    0    0  501    0 -0.00000000000E+00 -0.00000000000E+00 -0.18993376262E+03  0.18993376262E+03  0.00000000000E+00 0. -1.
         25    2    1    2    0    0  0.11891380482E+03  0.60454511422E+02 -0.92503015124E+02  0.20488078271E+03  0.12499634551E+03 0.  0.
          2    1    1    2  501    0  0.15186396419E+02  0.19518136015E+02 -0.30187054139E+02  0.39023614739E+02  0.00000000000E+00 0. -1.
          1    1    1    2  502    0 -0.13410020124E+03 -0.79972647438E+02  0.91170826182E+03  0.92498132034E+03  0.00000000000E+00 0. -1.
         22    1    3    3    0    0  0.69963219739E+02  0.94367015260E+02 -0.36190835273E+02  0.12292177286E+03  0.00000000000E+00 0. -1.
         22    1    3    3    0    0  0.48950585078E+02 -0.33912503838E+02 -0.56312179851E+02  0.81959009850E+02  0.00000000000E+00 0. -1.
</event>
<event>
 7    1  0.5931885E-006  0.1025610E+03  0.7818608E-02  0.1368669E+00
          2   -1    0    0  502    0  0.00000000000E+00  0.00000000000E+00  0.23008698049E+04  0.23008698049E+04  0.00000000000E+00 0. -1.
          1   -1    0    0  501    0 -0.00000000000E+00 -0.00000000000E+00 -0.45734846380E+03  0.45734846380E+03  0.00000000000E+00 0. -1.
         25    2    1    2    0    0 -0.90668899623E+02  0.26293979902E+02 -0.32252767509E+03  0.35855398487E+03  0.12499854448E+03 0.  0.
          2    1    1    2  501    0  0.14204445360E+02  0.42146429704E+02 -0.11137627002E+03  0.11992815069E+03  0.00000000000E+00 0. -1.
          1    1    1    2  502    0  0.76464454263E+02 -0.68440409606E+02  0.22774252863E+04  0.22797361332E+04  0.00000000000E+00 0. -1.
         22    1    3    3    0    0 -0.10290374350E+03  0.32214718446E+01 -0.13792381061E+03  0.17211198634E+03  0.00000000000E+00 0. -1.
         22    1    3    3    0    0  0.12234843879E+02  0.23072508057E+02 -0.18460386448E+03  0.18644199853E+03  0.00000000000E+00 0. -1.
</event>
<event>
 7    1  0.5931885E-006  0.8305507E+02  0.7818608E-02  0.1470728E+00
          2   -1    0    0  502    0  0.00000000000E+00  0.00000000000E+00  0.83189740755E+03  0.83189740755E+03  0.00000000000E+00 0. -1.
          1   -1    0    0  501    0 -0.00000000000E+00 -0.00000000000E+00 -0.82772214275E+03  0.82772214275E+03  0.00000000000E+00 0. -1.
         25    2    1    2    0    0  0.71718451285E+01 -0.70379415337E+02  0.31130114244E+03  0.34282802634E+03  0.12497182441E+03 0.  0.
          2    1    1    2  501    0  0.15102783590E+02  0.81770589479E+02 -0.80951764413E+03  0.81377720510E+03  0.00000000000E+00 0. -1.
          1    1    1    2  502    0 -0.22274628719E+02 -0.11391174142E+02  0.50239176650E+03  0.50301431886E+03  0.00000000000E+00 0. -1.
         22    1    3    3    0    0  0.24916167386E+02 -0.70241844973E+02  0.31583788522E+03  0.32451240642E+03  0.00000000000E+00 0. -1.
         22    1    3    3    0    0 -0.17744322257E+02 -0.13757036346E+00 -0.45367427814E+01  0.18315619920E+02  0.00000000000E+00 0. -1.
</event>
<event>
 7    1  0.5931885E-006  0.7306405E+02  0.7818608E-02  0.1433355E+00
          2   -1    0    0  502    0  0.00000000000E+00  0.00000000000E+00  0.19251267781E+03  0.19251267781E+03  0.00000000000E+00 0. -1.
          1   -1    0    0  501    0 -0.00000000000E+00 -0.00000000000E+00 -0.12628198282E+04  0.12628198282E+04  0.00000000000E+00 0. -1.
         25    2    1    2    0    0  0.37255460190E+02  0.82334596100E+02  0.10922260320E+03  0.18900455584E+03  0.12500476010E+03 0.  0.
          2    1    1    2  501    0 -0.10161005232E+01 -0.72984564086E+02 -0.12135543283E+04  0.12157474602E+04  0.00000000000E+00 0. -1.
          1    1    1    2  502    0 -0.36239359667E+02 -0.93500320145E+01  0.34024574725E+02  0.50580490042E+02  0.00000000000E+00 0. -1.
         22    1    3    3    0    0 -0.96357029602E+01 -0.13803349422E+02  0.74751176297E+02  0.76623218313E+02  0.00000000000E+00 0.  1.
         22    1    3    3    0    0  0.46891163150E+02  0.96137945522E+02  0.34471426902E+02  0.11238133752E+03  0.00000000000E+00 0.  1.
</event>
<event>
 7    1  0.5931885E-006  0.4408326E+02  0.7818608E-02  0.1500713E+00
          2   -1    0    0  502    0  0.00000000000E+00  0.00000000000E+00  0.61081111326E+03  0.61081111326E+03  0.00000000000E+00 0. -1.
          1   -1    0    0  501    0 -0.00000000000E+00 -0.00000000000E+00 -0.36382393825E+03  0.36382393825E+03  0.00000000000E+00 0. -1.
         25    2    1    2    0    0 -0.71233470080E+02  0.23756126254E+02 -0.26322146806E+02  0.14817672392E+03  0.12499970122E+03 0.  0.
          2    1    1    2  501    0  0.43294809084E+02  0.22980649045E+01 -0.27420573400E+03  0.27761215059E+03  0.00000000000E+00 0. -1.
          1    1    1    2  502    0  0.27938660997E+02 -0.26054191159E+02  0.54751505582E+03  0.54884617700E+03  0.00000000000E+00 0. -1.
         22    1    3    3    0    0  0.19797770989E+02 -0.70806584097E+01 -0.45542075124E+02  0.50161420098E+02  0.00000000000E+00 0.  1.
         22    1    3    3    0    0 -0.91031241070E+02  0.30836784664E+02  0.19219928318E+02  0.98015303824E+02  0.00000000000E+00 0.  1.
</event>
<event>
 7    1  0.5931885E-006  0.2329755E+03  0.7818608E-02  0.1248546E+00
          2   -1    0    0  502    0  0.00000000000E+00  0.00000000000E+00  0.64473701067E+02  0.64473701067E+02  0.00000000000E+00 0. -1.
          1   -1    0    0  501    0 -0.00000000000E+00 -0.00000000000E+00 -0.20554662906E+04  0.20554662906E+04  0.00000000000E+00 0. -1.
         25    2    1    2    0    0 -0.96111559031E+02  0.17503313792E+03 -0.66781392929E+03  0.70814295637E+03  0.12496788129E+03 0.  0.
          2    1    1    2  501    0  0.35839672331E+01  0.58402920929E+02 -0.10039020383E+04  0.10056058117E+04  0.00000000000E+00 0. -1.
          1    1    1    2  502    0  0.92527591798E+02 -0.23343605885E+03 -0.31927662192E+03  0.40619122358E+03  0.00000000000E+00 0. -1.
         22    1    3    3    0    0 -0.47832547057E+02  0.43852214640E+02 -0.40785870597E+03  0.41298873268E+03  0.00000000000E+00 0. -1.
         22    1    3    3    0    0 -0.48279011974E+02  0.13118092328E+03 -0.25995522332E+03  0.29515422369E+03  0.00000000000E+00 0. -1.
</event>
<event>
 7    1  0.5931885E-006  0.7389768E+02  0.7818608E-02  0.1368183E+00
          2   -1    0    0  502    0  0.00000000000E+00  0.00000000000E+00  0.32102192473E+04  0.32102192473E+04  0.00000000000E+00 0. -1.
          1   -1    0    0  501    0 -0.00000000000E+00 -0.00000000000E+00 -0.60192622003E+03  0.60192622003E+03  0.00000000000E+00 0. -1.
         25    2    1    2    0    0  0.37989862197E+02 -0.81837345561E+02  0.20916268226E+04  0.20973001045E+04  0.12499753015E+03 0.  0.
          2    1    1    2  501    0  0.22897195310E+02  0.70269815266E+02 -0.59594454669E+03  0.60050980943E+03  0.00000000000E+00 0. -1.
          1    1    1    2  502    0 -0.60887057507E+02  0.11567530295E+02  0.11126107514E+04  0.11143355534E+04  0.00000000000E+00 0. -1.
         22    1    3    3    0    0 -0.30191081645E+02 -0.65962172129E+02  0.14609473449E+04  0.14627472967E+04  0.00000000000E+00 0.  1.
         22    1    3    3    0    0  0.68180943842E+02 -0.15875173432E+02  0.63067947774E+03  0.63455280779E+03  0.00000000000E+00 0.  1.
</event>
<event>
 7    1  0.5931885E-006  0.7862246E+02  0.7818608E-02  0.1432392E+00
          2   -1    0    0  502    0  0.00000000000E+00  0.00000000000E+00  0.95515266717E+03  0.95515266717E+03  0.00000000000E+00 0. -1.
          1   -1    0    0  501    0 -0.00000000000E+00 -0.00000000000E+00 -0.10039058126E+03  0.10039058126E+03  0.00000000000E+00 0. -1.
         25    2    1    2    0    0  0.31483331119E+02 -0.10362014526E+03  0.99738163375E+02  0.19313405917E+03  0.12499891574E+03 0.  0.
          2    1    1    2  501    0 -0.18124662935E+02  0.71233269642E+02 -0.27960480747E+02  0.78641405087E+02  0.00000000000E+00 0. -1.
          1    1    1    2  502    0 -0.13358668184E+02  0.32386875618E+02  0.78298440328E+03  0.78376778417E+03  0.00000000000E+00 0. -1.
         22    1    3    3    0    0  0.24207522137E+02 -0.10858898842E+03  0.12443180832E+03  0.16691568967E+03  0.00000000000E+00 0.  1.
         22    1    3    3    0    0  0.72758089814E+01  0.49688431618E+01 -0.24693644946E+02  0.26218369504E+02  0.00000000000E+00 0.  1.
</event>
<event>
 7    1  0.6130976E-006  0.1038958E+03  0.7818608E-02  0.1370660E+00
          2   -1    0    0  502    0  0.00000000000E+00  0.00000000000E+00  0.13578790968E+04  0.13578790968E+04  0.00000000000E+00 0. -1.
          1   -1    0    0  501    0 -0.00000000000E+00 -0.00000000000E+00 -0.78274235882E+03  0.78274235882E+03  0.00000000000E+00 0. -1.
         25    2    1    2    0    0 -0.11485010454E+03 -0.25344011301E+02 -0.10074268991E+03  0.19901532976E+03  0.12500058596E+03 0.  0.
          2    1    1    2  501    0  0.12283129707E+02  0.41402535485E+02 -0.63006421131E+03  0.63154252081E+03  0.00000000000E+00 0. -1.
          1    1    1    2  502    0  0.10256697483E+03 -0.16058524184E+02  0.13059436392E+04  0.13100636051E+04  0.00000000000E+00 0. -1.
         22    1    3    3    0    0 -0.99480037968E+02 -0.59695711820E+02 -0.11041335300E+03  0.16015918482E+03  0.00000000000E+00 0. -1.
         22    1    3    3    0    0 -0.15370066571E+02  0.34351700519E+02  0.96706630878E+01  0.38856144939E+02  0.00000000000E+00 0. -1.
</event>
<event>
 7    1  0.5931885E-006  0.2088820E+03  0.7818608E-02  0.1364425E+00
          2   -1    0    0  502    0  0.00000000000E+00  0.00000000000E+00  0.15939065406E+04  0.15939065406E+04  0.00000000000E+00 0. -1.
          1   -1    0    0  501    0 -0.00000000000E+00 -0.00000000000E+00 -0.11796849928E+03  0.11796849928E+03  0.00000000000E+00 0. -1.
         25    2    1    2    0    0 -0.13616787741E+03 -0.16586207710E+03  0.58708482180E+03  0.63745245258E+03  0.12500048740E+03 0.  0.
          2    1    1    2  501    0  0.14770862260E+03  0.14640487086E+03  0.24088568671E+02  0.20936208478E+03  0.00000000000E+00 0. -1.
          1    1    1    2  502    0 -0.11540745187E+02  0.19457206234E+02  0.86476465087E+03  0.86506050254E+03  0.00000000000E+00 0. -1.
         22    1    3    3    0    0 -0.13977679784E+03 -0.93792663133E+02  0.47695988504E+03  0.50579180382E+03  0.00000000000E+00 0. -1.
         22    1    3    3    0    0  0.36089204242E+01 -0.72069413964E+02  0.11012493676E+03  0.13166064876E+03  0.00000000000E+00 0. -1.
</event>
<event>
 7    1  0.5931885E-006  0.1669338E+03  0.7818608E-02  0.1195540E+00
          2   -1    0    0  502    0  0.00000000000E+00  0.00000000000E+00  0.18323271367E+04  0.18323271367E+04  0.00000000000E+00 0. -1.
          1   -1    0    0  501    0 -0.00000000000E+00 -0.00000000000E+00 -0.50190722324E+03  0.50190722324E+03  0.00000000000E+00 0. -1.
         25    2    1    2    0    0  0.77918194992E+02 -0.12341753326E+03 -0.16577059943E+03  0.25378902145E+03  0.12500337254E+03 0.  0.
          2    1    1    2  501    0  0.89994810710E+02  0.11013421540E+03 -0.27056978214E+03  0.30567403940E+03  0.00000000000E+00 0. -1.
          1    1    1    2  502    0 -0.16791300570E+03  0.13283317862E+02  0.17667602950E+04  0.17747712991E+04  0.00000000000E+00 0. -1.
         22    1    3    3    0    0  0.10664252952E+03 -0.10736196612E+03 -0.16027686912E+03  0.22042662191E+03  0.00000000000E+00 0.  1.
         22    1    3    3    0    0 -0.28724334526E+02 -0.16055567138E+02 -0.54937303066E+01  0.33362399536E+02  0.00000000000E+00 0.  1.
</event>
<event>
 7    1  0.5931885E-006  0.1871971E+03  0.7818608E-02  0.1264176E+00
          2   -1    0    0  502    0  0.00000000000E+00  0.00000000000E+00  0.22936334411E+04  0.22936334411E+04  0.00000000000E+00 0. -1.
          1   -1    0    0  501    0 -0.00000000000E+00 -0.00000000000E+00 -0.30635593201E+03  0.30635593201E+03  0.00000000000E+00 0. -1.
         25    2    1    2    0    0  0.76138832589E+02 -0.12545388964E+03  0.19913067326E+02  0.19379550415E+03  0.12499746768E+03 0.  0.
          2    1    1    2  501    0 -0.85838631436E+02  0.18709108214E+03 -0.17058150918E+03  0.26733760479E+03  0.00000000000E+00 0. -1.
          1    1    1    2  502    0  0.96997988465E+01 -0.61637192499E+02  0.21379459510E+04  0.21388562642E+04  0.00000000000E+00 0. -1.
         22    1    3    3    0    0 -0.14684398713E+01 -0.10994901299E+03 -0.70575453716E+01  0.11018507485E+03  0.00000000000E+00 0. -1.
         22    1    3    3    0    0  0.77607272461E+02 -0.15504876648E+02  0.26970612698E+02  0.83610429301E+02  0.00000000000E+00 0. -1.
</event>
<event>
 7    1  0.5931885E-006  0.7838409E+02  0.7818608E-02  0.1384088E+00
          2   -1    0    0  502    0  0.00000000000E+00  0.00000000000E+00  0.24594064322E+04  0.24594064322E+04  0.00000000000E+00 0. -1.
          1   -1    0    0  501    0 -0.00000000000E+00 -0.00000000000E+00 -0.48541886018E+03  0.48541886018E+03  0.00000000000E+00 0. -1.
         25    2    1    2    0    0 -0.22290905392E+02 -0.11498368655E+03  0.12255025536E+04  0.12374166568E+04  0.12500136429E+03 0.  0.
          2    1    1    2  501    0 -0.12490779052E+02  0.77299281229E+02 -0.47572448681E+03  0.48212548759E+03  0.00000000000E+00 0. -1.
          1    1    1    2  502    0  0.34781684444E+02  0.37684405325E+02  0.12242095053E+04  0.12252831480E+04  0.00000000000E+00 0. -1.
         22    1    3    3    0    0 -0.56116728201E+01  0.26432959483E+02  0.13700023860E+03  0.13963974217E+03  0.00000000000E+00 0. -1.
         22    1    3    3    0    0 -0.16679232572E+02 -0.14141664604E+03  0.10885023150E+04  0.10977769146E+04  0.00000000000E+00 0. -1.
</event>
<event>
 7    1  0.5931885E-006  0.1460044E+03  0.7818608E-02  0.1239648E+00
          2   -1    0    0  502    0  0.00000000000E+00  0.00000000000E+00  0.87044522662E+03  0.87044522662E+03  0.00000000000E+00 0. -1.
          1   -1    0    0  501    0 -0.00000000000E+00 -0.00000000000E+00 -0.51068802102E+03  0.51068802102E+03  0.00000000000E+00 0. -1.
         25    2    1    2    0    0  0.22565788703E+03 -0.28094882092E+01 -0.32172164640E+03  0.41238616538E+03  0.12501262509E+03 0.  0.
          2    1    1    2  501    0 -0.88859740589E+02  0.50353384856E+02 -0.11811158057E+03  0.15614692545E+03  0.00000000000E+00 0. -1.
          1    1    1    2  502    0 -0.13679814644E+03 -0.47543896647E+02  0.79959043257E+03  0.81260015680E+03  0.00000000000E+00 0. -1.
         22    1    3    3    0    0  0.23827104250E+03 -0.27376837627E+01 -0.32096676993E+03  0.39975023703E+03  0.00000000000E+00 0.  1.
         22    1    3    3    0    0 -0.12613155470E+02 -0.71804446497E-01 -0.75487646962E+00  0.12635928350E+02  0.00000000000E+00 0.  1.
</event>
<event>
 7    1  0.5931885E-006  0.6312542E+02  0.7818608E-02  0.1443056E+00
          2   -1    0    0  502    0  0.00000000000E+00  0.00000000000E+00  0.10563251280E+04  0.10563251280E+04  0.00000000000E+00 0. -1.
          1   -1    0    0  501    0 -0.00000000000E+00 -0.00000000000E+00 -0.13474062997E+03  0.13474062997E+03  0.00000000000E+00 0. -1.
         25    2    1    2    0    0  0.80610897502E+02 -0.33144260141E+02  0.21789446041E+03  0.26589492048E+03  0.12500181632E+03 0.  0.
          2    1    1    2  501    0 -0.38272455238E+02 -0.12563722590E+02 -0.10584023726E+03  0.11324656189E+03  0.00000000000E+00 0. -1.
          1    1    1    2  502    0 -0.42338442264E+02  0.45707982732E+02  0.80953027485E+03  0.81192427558E+03  0.00000000000E+00 0. -1.
         22    1    3    3    0    0  0.29342921815E+02 -0.55665927215E+02  0.19585768269E+03  0.20571809445E+03  0.00000000000E+00 0.  1.
         22    1    3    3    0    0  0.51267975687E+02  0.22521667074E+02  0.22036777716E+02  0.60176826029E+02  0.00000000000E+00 0.  1.
</event>
<event>
 7    1  0.5931885E-006  0.4976452E+02  0.7818608E-02  0.1519233E+00
          2   -1    0    0  502    0  0.00000000000E+00  0.00000000000E+00  0.15383047333E+04  0.15383047333E+04  0.00000000000E+00 0. -1.
          1   -1    0    0  501    0 -0.00000000000E+00 -0.00000000000E+00 -0.68172465509E+03  0.68172465509E+03  0.00000000000E+00 0. -1.
         25    2    1    2    0    0  0.76567003535E+02 -0.12713093073E+02 -0.20227482525E+03  0.25013801152E+03  0.12501916298E+03 0.  0.
          2    1    1    2  501    0 -0.48159682803E+02  0.35508646764E+01 -0.45409077979E+03  0.45665128925E+03  0.00000000000E+00 0. -1.
          1    1    1    2  502    0 -0.28407320731E+02  0.91622283970E+01  0.15129456833E+04  0.15132400876E+04  0.00000000000E+00 0. -1.
         22    1    3    3    0    0  0.30176191665E+02 -0.66984300720E+02 -0.12450791087E+03  0.14456735094E+03  0.00000000000E+00 0. -1.
         22    1    3    3    0    0  0.46390811870E+02  0.54271207647E+02 -0.77766914376E+02  0.10557066059E+03  0.00000000000E+00 0. -1.
</event>
<event>
 7    1  0.5931885E-006  0.7977552E+02  0.7818608E-02  0.1376553E+00
          2   -1    0    0  502    0  0.00000000000E+00  0.00000000000E+00  0.77334816293E+03  0.77334816293E+03  0.00000000000E+00 0. -1.
          1   -1    0    0  501    0 -0.00000000000E+00 -0.00000000000E+00 -0.67143079296E+02  0.67143079296E+02  0.00000000000E+00 0. -1.
         25    2    1    2    0    0 -0.31400854263E+02  0.35384126419E+02  0.40088727902E+03  0.42257885143E+03  0.12499690053E+03 0.  0.
          2    1    1    2  501    0  0.81412130328E+02 -0.16157242091E+02 -0.22298951367E+02  0.85943206064E+02  0.00000000000E+00 0. -1.
          1    1    1    2  502    0 -0.50011276065E+02 -0.19226884328E+02  0.32761675598E+03  0.33196918473E+03  0.00000000000E+00 0. -1.
         22    1    3    3    0    0  0.43660078013E+02  0.34951298405E+02  0.13079636251E+03  0.14225148195E+03  0.00000000000E+00 0. -1.
         22    1    3    3    0    0 -0.75060932276E+02  0.43282801431E+00  0.27009091651E+03  0.28032736947E+03  0.00000000000E+00 0. -1.
</event>
<event>
 7    1  0.5931885E-006  0.6243051E+02  0.7818608E-02  0.1401751E+00
          2   -1    0    0  502    0  0.00000000000E+00  0.00000000000E+00  0.12810084518E+04  0.12810084518E+04  0.00000000000E+00 0. -1.
          1   -1    0    0  501    0 -0.00000000000E+00 -0.00000000000E+00 -0.19503575646E+02  0.19503575646E+02  0.00000000000E+00 0. -1.
         25    2    1    2    0    0  0.76058045444E+01 -0.65176694786E+01  0.51347017229E+03  0.52856054779E+03  0.12499722627E+03 0.  0.
          2    1    1    2  501    0 -0.60903259080E+02 -0.25993092966E+02  0.94214177206E+02  0.11515710588E+03  0.00000000000E+00 0. -1.
          1    1    1    2  502    0  0.53297454535E+02  0.32510762444E+02  0.65382052661E+03  0.65679437372E+03  0.00000000000E+00 0. -1.
         22    1    3    3    0    0 -0.27235188059E+02  0.50258670004E+02  0.19541322743E+03  0.20360260026E+03  0.00000000000E+00 0.  1.
         22    1    3    3    0    0  0.34840992604E+02 -0.56776339483E+02  0.31805694486E+03  0.32495794753E+03  0.00000000000E+00 0.  1.
</event>
<event>
 7    1  0.5931885E-006  0.3325307E+02  0.7818608E-02  0.1605542E+00
          2   -1    0    0  502    0  0.00000000000E+00  0.00000000000E+00  0.23765940827E+03  0.23765940827E+03  0.00000000000E+00 0. -1.
          1   -1    0    0  501    0 -0.00000000000E+00 -0.00000000000E+00 -0.87767899058E+03  0.87767899058E+03  0.00000000000E+00 0. -1.
         25    2    1    2    0    0  0.37052672427E+02 -0.29934259707E+02  0.65031430858E+02  0.14874103416E+03  0.12500339117E+03 0.  0.
          2    1    1    2  501    0 -0.44939774356E+01  0.25487949025E+02 -0.83355583171E+03  0.83395752647E+03  0.00000000000E+00 0. -1.
          1    1    1    2  502    0 -0.32558694992E+02  0.44463106822E+01  0.12850481854E+03  0.13263983823E+03  0.00000000000E+00 0. -1.
         22    1    3    3    0    0 -0.11512110136E+02  0.32230777041E+00 -0.33155270116E+02  0.35098497098E+02  0.00000000000E+00 0.  1.
         22    1    3    3    0    0  0.48564782563E+02 -0.30256567478E+02  0.98186700974E+02  0.11364253706E+03  0.00000000000E+00 0.  1.
</event>
<event>
 7    1  0.5931885E-006  0.1828189E+03  0.7818608E-02  0.1347741E+00
          2   -1    0    0  502    0  0.00000000000E+00  0.00000000000E+00  0.17706377136E+04  0.17706377136E+04  0.00000000000E+00 0. -1.
          1   -1    0    0  501    0 -0.00000000000E+00 -0.00000000000E+00 -0.11356155942E+04  0.11356155942E+04  0.00000000000E+00 0. -1.
         25    2    1    2    0    0  0.11483860970E+03  0.10525953095E+03 -0.13622751596E+03  0.24176358040E+03  0.12499687025E+03 0.  0.
          2    1    1    2  501    0  0.12291314709E+02  0.27105949912E+02 -0.94148241369E+03  0.94195272930E+03  0.00000000000E+00 0. -1.
          1    1    1    2  502    0 -0.12712992441E+03 -0.13236548086E+03  0.17127320490E+04  0.17225369981E+04  0.00000000000E+00 0. -1.
         22    1    3    3    0    0  0.38403555833E+02  0.11356626374E+03 -0.10280869888E+03  0.15792959801E+03  0.00000000000E+00 0.  1.
         22    1    3    3    0    0  0.76435053864E+02 -0.83067327952E+01 -0.33418817075E+02  0.83833982391E+02  0.00000000000E+00 0.  1.
</event>
<event>
 7    1  0.5931885E-006  0.5657513E+02  0.7818608E-02  0.1423281E+00
          2   -1    0    0  502    0  0.00000000000E+00  0.00000000000E+00  0.17659218530E+04  0.17659218530E+04  0.00000000000E+00 0. -1.
          1   -1    0    0  501    0 -0.00000000000E+00 -0.00000000000E+00 -0.56169668306E+02  0.56169668306E+02  0.00000000000E+00 0. -1.
         25    2    1    2    0    0  0.29704545707E+01 -0.42960091518E+02  0.76103113251E+03  0.77242995481E+03  0.12500102945E+03 0.  0.
          2    1    1    2  501    0  0.51003526715E+02  0.24482351568E+02 -0.33523645295E+02  0.65761539440E+02  0.00000000000E+00 0. -1.
          1    1    1    2  502    0 -0.53973981285E+02  0.18477739950E+02  0.98224469750E+03  0.98390002709E+03  0.00000000000E+00 0. -1.
         22    1    3    3    0    0  0.37227733393E+02  0.17016809388E+02  0.52246910666E+03  0.52407007484E+03  0.00000000000E+00 0.  1.
         22    1    3    3    0    0 -0.34257278822E+02 -0.59976900906E+02  0.23856202586E+03  0.24835987996E+03  0.00000000000E+00 0.  1.
</event>
<event>
 7    1  0.5931885E-006  0.1024358E+03  0.7818608E-02  0.1390416E+00
          2   -1    0    0  502    0  0.00000000000E+00  0.00000000000E+00  0.11148107046E+04  0.11148107046E+04  0.00000000000E+00 0. -1.
          1   -1    0    0  501    0 -0.00000000000E+00 -0.00000000000E+00 -0.33689297170E+02  0.33689297170E+02  0.00000000000E+00 0. -1.
         25    2    1    2    0    0  0.69903707401E+02  0.15017687016E+02  0.61648382166E+03  0.63307924678E+03  0.12499988443E+03 0.  0.
          2    1    1    2  501    0 -0.10442599653E+03 -0.29110913729E+02  0.95705376143E+02  0.14460896609E+03  0.00000000000E+00 0. -1.
          1    1    1    2  502    0  0.34522289132E+02  0.14093226712E+02  0.36893220966E+03  0.37081178893E+03  0.00000000000E+00 0. -1.
         22    1    3    3    0    0  0.10171404720E+03  0.89914494137E+01  0.54665450372E+03  0.55610946764E+03  0.00000000000E+00 0.  1.
         22    1    3    3    0    0 -0.31810339798E+02  0.60262376027E+01  0.69829317941E+02  0.76969779146E+02  0.00000000000E+00 0.  1.
</event>
<event>
 7    1  0.5931885E-006  0.8783765E+02  0.7818608E-02  0.1318287E+00
          2   -1    0    0  502    0  0.00000000000E+00  0.00000000000E+00  0.91410246530E+02  0.91410246530E+02  0.00000000000E+00 0. -1.
          1   -1    0    0  501    0 -0.00000000000E+00 -0.00000000000E+00 -0.43731280262E+04  0.43731280262E+04  0.00000000000E+00 0. -1.
         25    2    1    2    0    0 -0.10784677629E+03 -0.58861722695E+02 -0.76088162142E+02  0.19107541188E+03  0.12499910020E+03 0.  0.
          2    1    1    2  501    0  0.78244232850E+02 -0.17478884769E+02 -0.41891806906E+04  0.41899477956E+04  0.00000000000E+00 0. -1.
          1    1    1    2  502    0  0.29602543436E+02  0.76340607463E+02 -0.16448926922E+02  0.83515065244E+02  0.00000000000E+00 0. -1.
         22    1    3    3    0    0 -0.12012081855E+03 -0.24043827483E+02 -0.20294105716E+02  0.12417313484E+03  0.00000000000E+00 0. -1.
         22    1    3    3    0    0  0.12274042263E+02 -0.34817895211E+02 -0.55794056426E+02  0.66902277038E+02  0.00000000000E+00 0. -1.
</event>
<event>
 7    1  0.5931885E-006  0.9195117E+02  0.7818608E-02  0.1486725E+00
          2   -1    0    0  502    0  0.00000000000E+00  0.00000000000E+00  0.29416284259E+03  0.29416284259E+03  0.00000000000E+00 0. -1.
          1   -1    0    0  501    0 -0.00000000000E+00 -0.00000000000E+00 -0.35099989184E+03  0.35099989184E+03  0.00000000000E+00 0. -1.
         25    2    1    2    0    0 -0.81517769454E+01 -0.76472732993E+02 -0.42310634990E+02  0.15274070148E+03  0.12500000679E+03 0.  0.
          2    1    1    2  501    0 -0.14331059796E+02 -0.14206695103E+02 -0.24390965759E+03  0.24474298872E+03  0.00000000000E+00 0. -1.
          1    1    1    2  502    0  0.22482836742E+02  0.90679428095E+02  0.22938324333E+03  0.24767904422E+03  0.00000000000E+00 0. -1.
         22    1    3    3    0    0 -0.77748428179E+01 -0.10133191959E+03 -0.63700907932E+02  0.11994336906E+03  0.00000000000E+00 0.  1.
         22    1    3    3    0    0 -0.37693412759E+00  0.24859186600E+02  0.21390272942E+02  0.32797332427E+02  0.00000000000E+00 0.  1.
</event>
<event>
 7    1  0.5931885E-006  0.1306581E+03  0.7818608E-02  0.1253500E+00
          2   -1    0    0  502    0  0.00000000000E+00  0.00000000000E+00  0.75331567509E+03  0.75331567509E+03  0.00000000000E+00 0. -1.
          1   -1    0    0  501    0 -0.00000000000E+00 -0.00000000000E+00 -0.30752319730E+03  0.30752319730E+03  0.00000000000E+00 0. -1.
         25    2    1    2    0    0 -0.16383903959E+03  0.12175478287E+03 -0.72957059425E+02  0.25022952325E+03  0.12499849496E+03 0.  0.
          2    1    1    2  501    0  0.10530781759E+03 -0.41533386987E+02 -0.11954378987E+03  0.16463740880E+03  0.00000000000E+00 0. -1.
          1    1    1    2  502    0  0.58531221995E+02 -0.80221395883E+02  0.63829332709E+03  0.64597194034E+03  0.00000000000E+00 0. -1.
         22    1    3    3    0    0 -0.29567012804E+02  0.96410855998E+02 -0.15623894214E+02  0.10204590864E+03  0.00000000000E+00 0.  1.
         22    1    3    3    0    0 -0.13427202678E+03  0.25343926871E+02 -0.57333165212E+02  0.14818361461E+03  0.00000000000E+00 0.  1.
</event>
<event>
 7    1  0.5931885E-006  0.6865050E+02  0.7818608E-02  0.1394565E+00
          2   -1    0    0  502    0  0.00000000000E+00  0.00000000000E+00  0.23176522955E+04  0.23176522955E+04  0.00000000000E+00 0. -1.
          1   -1    0    0  501    0 -0.00000000000E+00 -0.00000000000E+00 -0.14751439635E+02  0.14751439635E+02  0.00000000000E+00 0. -1.
         25    2    1    2    0    0  0.95956550262E+02  0.20781530063E+02  0.76416389613E+03  0.78051841553E+03  0.12499202097E+03 0.  0.
          2    1    1    2  501    0 -0.47267893807E+02 -0.43719972603E+02  0.16534506744E+03  0.17743923218E+03  0.00000000000E+00 0. -1.
          1    1    1    2  502    0 -0.48688656455E+02  0.22938442539E+02  0.13733918923E+04  0.13744460874E+04  0.00000000000E+00 0. -1.
         22    1    3    3    0    0  0.32025046309E+02  0.11541144921E+02  0.63680931950E+03  0.63771852021E+03  0.00000000000E+00 0. -1.
         22    1    3    3    0    0  0.63931503952E+02  0.92403851423E+01  0.12735457663E+03  0.14279989532E+03  0.00000000000E+00 0. -1.
</event>
<event>
 7    1  0.5931885E-006  0.4783652E+02  0.7818608E-02  0.1509750E+00
          2   -1    0    0  502    0  0.00000000000E+00  0.00000000000E+00  0.41026046556E+03  0.41026046556E+03  0.00000000000E+00 0. -1.
          1   -1    0    0  501    0 -0.00000000000E+00 -0.00000000000E+00 -0.41619238290E+03  0.41619238290E+03  0.00000000000E+00 0. -1.
         25    2    1    2    0    0 -0.28016272689E+02  0.70031312223E+02 -0.23448293218E+03  0.27621819427E+03  0.12499979654E+03 0.  0.
          2    1    1    2  501    0  0.24295658963E+02 -0.22479145776E+02 -0.15765612690E+03  0.16109328164E+03  0.00000000000E+00 0. -1.
          1    1    1    2  502    0  0.37206137265E+01 -0.47552166447E+02  0.38620714174E+03  0.38914137256E+03  0.00000000000E+00 0. -1.
         22    1    3    3    0    0 -0.70854023120E+02  0.47614733232E+02 -0.90840966420E+02  0.12465767763E+03  0.00000000000E+00 0. -1.
         22    1    3    3    0    0  0.42837750431E+02  0.22416578990E+02 -0.14364196576E+03  0.15156051663E+03  0.00000000000E+00 0. -1.
</event>
<event>
 7    1  0.5931885E-006  0.4220123E+02  0.7818608E-02  0.1566081E+00
          2   -1    0    0  502    0  0.00000000000E+00  0.00000000000E+00  0.30455233749E+03  0.30455233749E+03  0.00000000000E+00 0. -1.
          1   -1    0    0  501    0 -0.00000000000E+00 -0.00000000000E+00 -0.20399773170E+04  0.20399773170E+04  0.00000000000E+00 0. -1.
         25    2    1    2    0    0  0.23546238632E+02  0.75580515139E+01 -0.12632468580E+04  0.12696570748E+04  0.12499965581E+03 0.  0.
          2    1    1    2  501    0  0.16887025473E+02 -0.19733836546E+02 -0.77182656060E+03  0.77226344959E+03  0.00000000000E+00 0. -1.
          1    1    1    2  502    0 -0.40433264105E+02  0.12175785032E+02  0.29964843905E+03  0.30260913009E+03  0.00000000000E+00 0. -1.
         22    1    3    3    0    0 -0.49785931111E+02  0.13693777065E+02 -0.40900233357E+03  0.41224879300E+03  0.00000000000E+00 0. -1.
         22    1    3    3    0    0  0.73332169743E+02 -0.61357255515E+01 -0.85424452443E+03  0.85740828184E+03  0.00000000000E+00 0. -1.
</event>
<event>
 7    1  0.5931885E-006  0.1137839E+03  0.7818608E-02  0.1336703E+00
          2   -1    0    0  502    0  0.00000000000E+00  0.00000000000E+00  0.29940710404E+03  0.29940710404E+03  0.00000000000E+00 0. -1.
          1   -1    0    0  501    0 -0.00000000000E+00 -0.00000000000E+00 -0.10297222193E+04  0.10297222193E+04  0.00000000000E+00 0. -1.
         25    2    1    2    0    0 -0.54785851810E+01 -0.12435391564E+03 -0.22370532577E+03  0.28489233586E+03  0.12500263605E+03 0.  0.
          2    1    1    2  501    0 -0.43465083154E+02  0.10508147867E+03 -0.76862622966E+03  0.77699267148E+03  0.00000000000E+00 0. -1.
          1    1    1    2  502    0  0.48943668335E+02  0.19272436968E+02  0.26201644019E+03  0.26724431599E+03  0.00000000000E+00 0. -1.
         22    1    3    3    0    0  0.52960788894E+02 -0.31552468807E+02 -0.11497463672E+03  0.13045907610E+03  0.00000000000E+00 0.  1.
         22    1    3    3    0    0 -0.58439374075E+02 -0.92801446829E+02 -0.10873068905E+03  0.15443325975E+03  0.00000000000E+00 0.  1.
</event>
<event>
 7    1  0.5931885E-006  0.7341710E+02  0.7818608E-02  0.1349446E+00
          2   -1    0    0  502    0  0.00000000000E+00  0.00000000000E+00  0.37448671944E+03  0.37448671944E+03  0.00000000000E+00 0. -1.
          1   -1    0    0  501    0 -0.00000000000E+00 -0.00000000000E+00 -0.19975176521E+04  0.19975176521E+04  0.00000000000E+00 0. -1.
         25    2    1    2    0    0  0.45995171530E+02  0.54402696368E+02  0.23388920764E+03  0.27459704478E+03  0.12499666546E+03 0.  0.
          2    1    1    2  501    0  0.43168750960E+02 -0.59384585460E+02 -0.19598000947E+04  0.19611747707E+04  0.00000000000E+00 0. -1.
          1    1    1    2  502    0 -0.89163922490E+02  0.49818890922E+01  0.10287995444E+03  0.13623255601E+03  0.00000000000E+00 0. -1.
         22    1    3    3    0    0  0.15618512757E+02  0.93254671301E+02  0.15307596710E+03  0.17992393772E+03  0.00000000000E+00 0.  1.
         22    1    3    3    0    0  0.30376658772E+02 -0.38851974933E+02  0.80813240541E+02  0.94673107064E+02  0.00000000000E+00 0.  1.
</event>
<event>
 7    1  0.5931885E-006  0.1839082E+03  0.7818608E-02  0.1323148E+00
          2   -1    0    0  502    0  0.00000000000E+00  0.00000000000E+00  0.24743352382E+04  0.24743352382E+04  0.00000000000E+00 0. -1.
          1   -1    0    0  501    0 -0.00000000000E+00 -0.00000000000E+00 -0.83019712332E+03  0.83019712332E+03  0.00000000000E+00 0. -1.
         25    2    1    2    0    0  0.10313639864E+03 -0.12989132875E+03 -0.22354843704E+03  0.30513582907E+03  0.12500038588E+03 0.  0.
          2    1    1    2  501    0 -0.13978408859E+03  0.13105835136E+03 -0.54949054464E+03  0.58194135575E+03  0.00000000000E+00 0. -1.
          1    1    1    2  502    0  0.36647689945E+02 -0.11670226114E+01  0.24171770965E+04  0.24174551767E+04  0.00000000000E+00 0. -1.
         22    1    3    3    0    0  0.20176933898E+02  0.23994517941E+02 -0.21827935118E+02  0.38200841670E+02  0.00000000000E+00 0.  1.
         22    1    3    3    0    0  0.82959464745E+02 -0.15388584669E+03 -0.20172050193E+03  0.26693498740E+03  0.00000000000E+00 0.  1.
</event>
<event>
 7    1  0.5931885E-006  0.1053882E+03  0.7818608E-02  0.1439642E+00
          2   -1    0    0  502    0  0.00000000000E+00  0.00000000000E+00  0.27722984840E+03  0.27722984840E+03  0.00000000000E+00 0. -1.
          1   -1    0    0  501    0 -0.00000000000E+00 -0.00000000000E+00 -0.73995883102E+03  0.73995883102E+03  0.00000000000E+00 0. -1.
         25    2    1    2    0    0  0.10396795537E+02 -0.84818837199E+02  0.87253132836E+02  0.17475577605E+03  0.12499657424E+03 0.  0.
          2    1    1    2  501    0 -0.27932687879E+02  0.10228491948E+03 -0.69108713535E+03  0.69917370406E+03  0.00000000000E+00 0. -1.
          1    1    1    2  502    0  0.17535892343E+02 -0.17466082284E+02  0.14110501989E+03  0.14325919932E+03  0.00000000000E+00 0. -1.
         22    1    3    3    0    0  0.46438255288E+02 -0.15347791244E+02  0.83047378280E+02  0.96379112309E+02  0.00000000000E+00 0.  1.
         22    1    3    3    0    0 -0.36041459752E+02 -0.69471045955E+02  0.42057545561E+01  0.78376663737E+02  0.00000000000E+00 0.  1.
</event>
<event>
 7    1  0.5931885E-006  0.6067018E+02  0.7818608E-02  0.1471880E+00
          2   -1    0    0  502    0  0.00000000000E+00  0.00000000000E+00  0.97075440641E+03  0.97075440641E+03  0.00000000000E+00 0. -1.
          1   -1    0    0  501    0 -0.00000000000E+00 -0.00000000000E+00 -0.14369903983E+04  0.14369903983E+04  0.00000000000E+00 0. -1.
         25    2    1    2    0    0  0.55042859408E+01 -0.79866933174E+02  0.57339067734E+03  0.59229225818E+03  0.12499690423E+03 0.  0.
          2    1    1    2  501    0  0.19057681775E+02  0.28118576337E+02 -0.14252214960E+04  0.14256262351E+04  0.00000000000E+00 0. -1.
          1    1    1    2  502    0 -0.24561967716E+02  0.51748356837E+02  0.38559482674E+03  0.38982631145E+03  0.00000000000E+00 0. -1.
         22    1    3    3    0    0 -0.54294029720E+02 -0.11680550999E+02  0.17037394235E+03  0.17919697868E+03  0.00000000000E+00 0. -1.
         22    1    3    3    0    0  0.59798315661E+02 -0.68186382175E+02  0.40301673499E+03  0.41309527951E+03  0.00000000000E+00 0. -1.
</event>
<event>
 7    1  0.5931885E-006  0.7535007E+02  0.7818608E-02  0.1512159E+00
          2   -1    0    0  502    0  0.00000000000E+00  0.00000000000E+00  0.29543438711E+03  0.29543438711E+03  0.00000000000E+00 0. -1.
          1   -1    0    0  501    0 -0.00000000000E+00 -0.00000000000E+00 -0.52286135594E+03  0.52286135594E+03  0.00000000000E+00 0. -1.
         25    2    1    2    0    0  0.72171790290E+02 -0.43575564548E+02 -0.75519458308E+02  0.16862825513E+03  0.12499881081E+03 0.  0.
          2    1    1    2  501    0 -0.72118079337E+00  0.20661225780E+02 -0.39485532928E+03  0.39539617779E+03  0.00000000000E+00 0. -1.
          1    1    1    2  502    0 -0.71450609496E+02  0.22914338768E+02  0.24294781876E+03  0.25427131013E+03  0.00000000000E+00 0. -1.
         22    1    3    3    0    0  0.10694852209E+03 -0.44555804564E+02 -0.60919687422E+02  0.13089848896E+03  0.00000000000E+00 0.  1.
         22    1    3    3    0    0 -0.34776731797E+02  0.98024001651E+00 -0.14599770886E+02  0.37729766166E+02  0.00000000000E+00 0.  1.
</event>
<event>
 7    1  0.5931885E-006  0.4055404E+02  0.7818608E-02  0.1566927E+00
          2   -1    0    0  502    0  0.00000000000E+00  0.00000000000E+00  0.61086267057E+03  0.61086267057E+03  0.00000000000E+00 0. -1.
          1   -1    0    0  501    0 -0.00000000000E+00 -0.00000000000E+00 -0.90594000589E+03  0.90594000589E+03  0.00000000000E+00 0. -1.
         25    2    1    2    0    0 -0.17704644263E+02  0.45605342326E+02 -0.17174624460E+03  0.21797586301E+03  0.12499361042E+03 0.  0.
          2    1    1    2  501    0  0.33025256691E+02 -0.23513281948E+02 -0.71019312897E+03  0.71134929708E+03  0.00000000000E+00 0. -1.
          1    1    1    2  502    0 -0.15320612428E+02 -0.22092060378E+02  0.58686203825E+03  0.58747751637E+03  0.00000000000E+00 0. -1.
         22    1    3    3    0    0 -0.72050815369E+01  0.60998933862E+02 -0.18511723018E+03  0.19504146236E+03  0.00000000000E+00 0.  1.
         22    1    3    3    0    0 -0.10499562726E+02 -0.15393591535E+02  0.13370985580E+02  0.22934400650E+02  0.00000000000E+00 0.  1.
</event>
<event>
 7    1  0.5931885E-006  0.8763175E+02  0.7818608E-02  0.1318916E+00
          2   -1    0    0  502    0  0.00000000000E+00  0.00000000000E+00  0.66622966421E+03  0.66622966421E+03  0.00000000000E+00 0. -1.
          1   -1    0    0  501    0 -0.00000000000E+00 -0.00000000000E+00 -0.18354039018E+03  0.18354039018E+03  0.00000000000E+00 0. -1.
         25    2    1    2    0    0 -0.15157207038E+02  0.11372383157E+02  0.76164080933E+02  0.14759196591E+03  0.12499339643E+03 0.  0.
          2    1    1    2  501    0 -0.38780888722E+02 -0.80437607753E+02 -0.13045703988E+03  0.15809239490E+03  0.00000000000E+00 0. -1.
          1    1    1    2  502    0  0.53938095761E+02  0.69065224595E+02  0.53698223298E+03  0.54408569358E+03  0.00000000000E+00 0. -1.
         22    1    3    3    0    0  0.50724581502E+02 -0.11304622035E+02  0.52846596805E+02  0.74118421744E+02  0.00000000000E+00 0. -1.
         22    1    3    3    0    0 -0.65881788540E+02  0.22677005193E+02  0.23317484128E+02  0.73473544163E+02  0.00000000000E+00 0. -1.
</event>
<event>
 7    1  0.5931885E-006  0.1606043E+03  0.7818608E-02  0.1244165E+00
          2   -1    0    0  502    0  0.00000000000E+00  0.00000000000E+00  0.65100237427E+03  0.65100237427E+03  0.00000000000E+00 0. -1.
          1   -1    0    0  501    0 -0.00000000000E+00 -0.00000000000E+00 -0.72439168719E+03  0.72439168719E+03  0.00000000000E+00 0. -1.
         25    2    1    2    0    0 -0.24096596931E+03 -0.31294186201E+02  0.17635186578E+03  0.32522152732E+03  0.12500054724E+03 0.  0.
          2    1    1    2  501    0  0.15750437529E+03  0.12639974331E+01 -0.63530406548E+03  0.65453837286E+03  0.00000000000E+00 0. -1.
          1    1    1    2  502    0  0.83461594015E+02  0.30030188768E+02  0.38556288678E+03  0.39563416128E+03  0.00000000000E+00 0. -1.
         22    1    3    3    0    0 -0.19008975366E+03  0.18603401431E+02  0.16630818043E+03  0.25325602040E+03  0.00000000000E+00 0.  1.
         22    1    3    3    0    0 -0.50876215647E+02 -0.49897587633E+02  0.10043685352E+02  0.71965506915E+02  0.00000000000E+00 0.  1.
</event>
<event>
 7    1  0.5931885E-006  0.2479543E+03  0.7818608E-02  0.1221421E+00
          2   -1    0    0  502    0  0.00000000000E+00  0.00000000000E+00  0.24171489009E+03  0.24171489009E+03  0.00000000000E+00 0. -1.
          1   -1    0    0  501    0 -0.00000000000E+00 -0.00000000000E+00 -0.10901411204E+04  0.10901411204E+04  0.00000000000E+00 0. -1.
         25    2    1    2    0    0  0.10918765282E+03  0.15490099812E+03 -0.31356400209E+03  0.38712180958E+03  0.12499859719E+03 0.  0.
          2    1    1    2  501    0  0.43729538275E+02  0.57929500073E+02 -0.65317526173E+03  0.65719557365E+03  0.00000000000E+00 0. -1.
          1    1    1    2  502    0 -0.15291719110E+03 -0.21283049819E+03  0.11831303347E+03  0.28753862729E+03  0.00000000000E+00 0. -1.
         22    1    3    3    0    0 -0.16589346784E+02  0.53962429153E+02 -0.38722865105E+02  0.68458823162E+02  0.00000000000E+00 0.  1.
         22    1    3    3    0    0  0.12577699960E+03  0.10093856897E+03 -0.27484113699E+03  0.31866298642E+03  0.00000000000E+00 0.  1.
</event>
<event>
 7    1  0.5931885E-006  0.3504454E+02  0.7818608E-02  0.1583018E+00
          2   -1    0    0  502    0  0.00000000000E+00  0.00000000000E+00  0.37068490121E+02  0.37068490121E+02  0.00000000000E+00 0. -1.
          1   -1    0    0  501    0 -0.00000000000E+00 -0.00000000000E+00 -0.86207855875E+03  0.86207855875E+03  0.00000000000E+00 0. -1.
         25    2    1    2    0    0 -0.36237828096E+00 -0.13933654754E+02 -0.21093393327E+03  0.24558731687E+03  0.12500291177E+03 0.  0.
          2    1    1    2  501    0 -0.25441188748E+02  0.25186336124E+02 -0.62300074174E+03  0.62402846876E+03  0.00000000000E+00 0. -1.
          1    1    1    2  502    0  0.25803567029E+02 -0.11252681370E+02  0.89246063825E+01  0.29531263240E+02  0.00000000000E+00 0. -1.
         22    1    3    3    0    0 -0.61796338617E+02  0.31678229064E+01 -0.10946886375E+03  0.12574678803E+03  0.00000000000E+00 0.  1.
         22    1    3    3    0    0  0.61433960336E+02 -0.17101477661E+02 -0.10146506952E+03  0.11984052884E+03  0.00000000000E+00 0.  1.
</event>
<event>
 7    1  0.5931885E-006  0.4307106E+02  0.7818608E-02  0.1497326E+00
          2   -1    0    0  502    0  0.00000000000E+00  0.00000000000E+00  0.23027740286E+04  0.23027740286E+04  0.00000000000E+00 0. -1.
          1   -1    0    0  501    0 -0.00000000000E+00 -0.00000000000E+00 -0.11499142640E+04  0.11499142640E+04  0.00000000000E+00 0. -1.
         25    2    1    2    0    0 -0.10897750229E+02  0.69076588762E+01  0.16711632127E+01  0.12567152307E+03  0.12499624879E+03 0.  0.
          2    1    1    2  501    0 -0.24535829575E+02 -0.31618371598E+02 -0.10873375460E+04  0.10880738336E+04  0.00000000000E+00 0. -1.
          1    1    1    2  502    0  0.35433579804E+02  0.24710712722E+02  0.22385261474E+04  0.22389429360E+04  0.00000000000E+00 0. -1.
         22    1    3    3    0    0 -0.20416769160E+02  0.36179583177E+02  0.52073037241E+02  0.66613871749E+02  0.00000000000E+00 0. -1.
         22    1    3    3    0    0  0.95190189310E+01 -0.29271924301E+02 -0.50401874029E+02  0.59057651319E+02  0.00000000000E+00 0. -1.
</event>
<event>
 7    1  0.7413240E-006  0.7779887E+02  0.7818608E-02  0.1436938E+00
          2   -1    0    0  502    0  0.00000000000E+00  0.00000000000E+00  0.14090847731E+04  0.14090847731E+04  0.00000000000E+00 0. -1.
          1   -1    0    0  501    0 -0.00000000000E+00 -0.00000000000E+00 -0.72511104892E+03  0.72511104892E+03  0.00000000000E+00 0. -1.
         25    2    1    2    0    0  0.49782897512E+02 -0.37710577464E+02 -0.33963437537E+03  0.36725556219E+03  0.12499885794E+03 0.  0.
          2    1    1    2  501    0  0.26424508448E+02  0.21732359255E+02 -0.36978946607E+03  0.37136881843E+03  0.00000000000E+00 0. -1.
          1    1    1    2  502    0 -0.76207405960E+02  0.15978218210E+02  0.13933975656E+04  0.13955714414E+04  0.00000000000E+00 0. -1.
         22    1    3    3    0    0  0.77921927839E+02 -0.33766959478E+01 -0.29159625413E+03  0.30184698828E+03  0.00000000000E+00 0.  1.
         22    1    3    3    0    0 -0.28139030327E+02 -0.34333881516E+02 -0.48038121244E+02  0.65408573906E+02  0.00000000000E+00 0.  1.
</event>
<event>
 7    1  0.5931885E-006  0.6556562E+02  0.7818608E-02  0.1403170E+00
          2   -1    0    0  502    0  0.00000000000E+00  0.00000000000E+00  0.18046211059E+03  0.18046211059E+03  0.00000000000E+00 0. -1.
          1   -1    0    0  501    0 -0.00000000000E+00 -0.00000000000E+00 -0.13107417332E+04  0.13107417332E+04  0.00000000000E+00 0. -1.
         25    2    1    2    0    0 -0.60239086133E+02 -0.67256328446E+02 -0.38132034654E+03  0.41131836329E+03  0.12500171229E+03 0.  0.
          2    1    1    2  501    0  0.63121171169E+02  0.14699191708E+02 -0.90905323895E+03  0.91136059808E+03  0.00000000000E+00 0. -1.
          1    1    1    2  502    0 -0.28820850357E+01  0.52557136738E+02  0.16009396290E+03  0.16852488241E+03  0.00000000000E+00 0. -1.
         22    1    3    3    0    0  0.27797979255E+02  0.26920140931E+01 -0.24333260717E+02  0.37041627497E+02  0.00000000000E+00 0.  1.
         22    1    3    3    0    0 -0.88037065388E+02 -0.69948342539E+02 -0.35698708583E+03  0.37427673579E+03  0.00000000000E+00 0.  1.
</event>
<event>
 7    1  0.5931885E-006  0.1127727E+03  0.7818608E-02  0.1275327E+00
          2   -1    0    0  502    0  0.00000000000E+00  0.00000000000E+00  0.14191023780E+03  0.14191023780E+03  0.00000000000E+00 0. -1.
          1   -1    0    0  501    0 -0.00000000000E+00 -0.00000000000E+00 -0.54312673528E+03  0.54312673528E+03  0.00000000000E+00 0. -1.
         25    2    1    2    0    0 -0.46466706777E+02 -0.47429654654E+02 -0.51363303117E+02  0.15057159560E+03  0.12499955806E+03 0.  0.
          2    1    1    2  501    0 -0.46308309497E+01  0.12511367025E+03 -0.40666450107E+03  0.42550075383E+03  0.00000000000E+00 0. -1.
          1    1    1    2  502    0  0.51097537726E+02 -0.77684015595E+02  0.56811306704E+02  0.10896462366E+03  0.00000000000E+00 0. -1.
         22    1    3    3    0    0 -0.23082616054E+02 -0.82574917767E+02 -0.63446531668E+02  0.10666248914E+03  0.00000000000E+00 0. -1.
         22    1    3    3    0    0 -0.23384090722E+02  0.35145263113E+02  0.12083228552E+02  0.43909106464E+02  0.00000000000E+00 0. -1.
</event>
<event>
 7    1  0.5931885E-006  0.1144544E+03  0.7818608E-02  0.1395707E+00
          2   -1    0    0  502    0  0.00000000000E+00  0.00000000000E+00  0.17856812646E+04  0.17856812646E+04  0.00000000000E+00 0. -1.
          1   -1    0    0  501    0 -0.00000000000E+00 -0.00000000000E+00 -0.51064622294E+03  0.51064622294E+03  0.00000000000E+00 0. -1.
         25    2    1    2    0    0  0.69139590450E+02  0.11656497203E+03  0.86836778459E+01  0.18457488224E+03  0.12499922088E+03 0.  0.
          2    1    1    2  501    0 -0.74400795309E+02 -0.85010918125E+02 -0.41499766324E+03  0.43009928509E+03  0.00000000000E+00 0. -1.
          1    1    1    2  502    0  0.52612048591E+01 -0.31554053905E+02  0.16813490271E+04  0.16816533202E+04  0.00000000000E+00 0. -1.
         22    1    3    3    0    0  0.10444789340E+03  0.70113890395E+02  0.10167622107E+02  0.12620895611E+03  0.00000000000E+00 0. -1.
         22    1    3    3    0    0 -0.35308302951E+02  0.46451081636E+02 -0.14839442611E+01  0.58365926130E+02  0.00000000000E+00 0. -1.
</event>
<event>
 7    1  0.5931885E-006  0.5542122E+02  0.7818608E-02  0.1447189E+00
          2   -1    0    0  502    0  0.00000000000E+00  0.00000000000E+00  0.81377762310E+03  0.81377762310E+03  0.00000000000E+00 0. -1.
          1   -1    0    0  501    0 -0.00000000000E+00 -0.00000000000E+00 -0.17554355209E+03  0.17554355209E+03  0.00000000000E+00 0. -1.
         25    2    1    2    0    0  0.13199008225E+02 -0.66632571762E+01  0.50755663452E+03  0.52293137586E+03  0.12499949522E+03 0.  0.
          2    1    1    2  501    0 -0.17429099025E+02 -0.52609299428E+02 -0.16019427263E+03  0.16951022643E+03  0.00000000000E+00 0. -1.
          1    1    1    2  502    0  0.42300907997E+01  0.59272556604E+02  0.29087170912E+03  0.29687957290E+03  0.00000000000E+00 0. -1.
         22    1    3    3    0    0 -0.15590472538E+02  0.55188902556E+02  0.24982065016E+03  0.25631862017E+03  0.00000000000E+00 0. -1.
         22    1    3    3    0    0  0.28789480763E+02 -0.61852159732E+02  0.25773598435E+03  0.26661275569E+03  0.00000000000E+00 0. -1.
</event>
<event>
 7    1  0.5931885E-006  0.1133089E+03  0.7818608E-02  0.1297841E+00
          2   -1    0    0  502    0  0.00000000000E+00  0.00000000000E+00  0.14732677848E+04  0.14732677848E+04  0.00000000000E+00 0. -1.
          1   -1    0    0  501    0 -0.00000000000E+00 -0.00000000000E+00 -0.10607185954E+03  0.10607185954E+03  0.00000000000E+00 0. -1.
         25    2    1    2    0    0 -0.93480631575E+02 -0.14779872295E+03  0.57913770183E+03  0.61774514039E+03  0.12500195921E+03 0.  0.
          2    1    1    2  501    0  0.31862768925E+02  0.10528046194E+03 -0.49554039587E+02  0.12064333612E+03  0.00000000000E+00 0. -1.
          1    1    1    2  502    0  0.61617862650E+02  0.42518261002E+02  0.83761226303E+03  0.84095116784E+03  0.00000000000E+00 0. -1.
         22    1    3    3    0    0 -0.10827634637E+03 -0.63939639003E+02  0.40189865468E+03  0.42111111747E+03  0.00000000000E+00 0. -1.
         22    1    3    3    0    0  0.14795714795E+02 -0.83859083943E+02  0.17723904715E+03  0.19663402292E+03  0.00000000000E+00 0. -1.
</event>
<event>
 7    1  0.5931885E-006  0.3189135E+03  0.7818608E-02  0.1124251E+00
          2   -1    0    0  502    0  0.00000000000E+00  0.00000000000E+00  0.24725780277E+03  0.24725780277E+03  0.00000000000E+00 0. -1.
          1   -1    0    0  501    0 -0.00000000000E+00 -0.00000000000E+00 -0.42574102035E+04  0.42574102035E+04  0.00000000000E+00 0. -1.
         25    2    1    2    0    0  0.49017152665E+01 -0.21559736038E+03 -0.54990762143E+03  0.60376194778E+03  0.12499539536E+03 0.  0.
          2    1    1    2  501    0  0.13787757897E+03 -0.10090189966E+03 -0.35404324436E+04  0.35445526245E+04  0.00000000000E+00 0. -1.
          1    1    1    2  502    0 -0.14277929424E+03  0.31649926004E+03  0.80187664239E+02  0.35635343406E+03  0.00000000000E+00 0. -1.
         22    1    3    3    0    0  0.52957291108E+02 -0.38493222219E+02 -0.13225184370E+03  0.14756948533E+03  0.00000000000E+00 0.  1.
         22    1    3    3    0    0 -0.48055575841E+02 -0.17710413816E+03 -0.41765577773E+03  0.45619246244E+03  0.00000000000E+00 0.  1.
</event>
<event>
 7    1  0.5931885E-006  0.9045979E+02  0.7818608E-02  0.1400747E+00
          2   -1    0    0  502    0  0.00000000000E+00  0.00000000000E+00  0.30835097413E+03  0.30835097413E+03  0.00000000000E+00 0. -1.
          1   -1    0    0  501    0 -0.00000000000E+00 -0.00000000000E+00 -0.27519911806E+03  0.27519911806E+03  0.00000000000E+00 0. -1.
         25    2    1    2    0    0 -0.58695633264E+02  0.11082375658E+03  0.15226456374E+03  0.23352959637E+03  0.12499797049E+03 0.  0.
          2    1    1    2  501    0  0.51344102051E+02 -0.72637238068E+02 -0.22246763303E+03  0.23959180478E+03  0.00000000000E+00 0. -1.
          1    1    1    2  502    0  0.73515312126E+01 -0.38186518510E+02  0.10335492537E+03  0.11042869104E+03  0.00000000000E+00 0. -1.
         22    1    3    3    0    0 -0.74827973735E+02  0.19548828631E+02  0.37331174647E+02  0.85877814100E+02  0.00000000000E+00 0. -1.
         22    1    3    3    0    0  0.16132340471E+02  0.91274927947E+02  0.11493338909E+03  0.14765178227E+03  0.00000000000E+00 0. -1.
</event>
<event>
 7    1  0.5931885E-006  0.1688065E+03  0.7818608E-02  0.1345708E+00
          2   -1    0    0  502    0  0.00000000000E+00  0.00000000000E+00  0.10829372766E+04  0.10829372766E+04  0.00000000000E+00 0. -1.
          1   -1    0    0  501    0 -0.00000000000E+00 -0.00000000000E+00 -0.92190214060E+03  0.92190214060E+03  0.00000000000E+00 0. -1.
         25    2    1    2    0    0  0.15233109661E+03  0.65207186148E+02 -0.17352110311E+02  0.20831033023E+03  0.12504142445E+03 0.  0.
          2    1    1    2  501    0 -0.16565609698E+03 -0.35235943038E+02 -0.79992996440E+03  0.81766219314E+03  0.00000000000E+00 0. -1.
          1    1    1    2  502    0  0.13325000371E+02 -0.29971243110E+02  0.97831721073E+03  0.97886689384E+03  0.00000000000E+00 0. -1.
         22    1    3    3    0    0 -0.57300337111E+00  0.81809735312E+01  0.35763536196E+02  0.36691786302E+02  0.00000000000E+00 0.  1.
         22    1    3    3    0    0  0.15290409998E+03  0.57026212617E+02 -0.53115646507E+02  0.17161854393E+03  0.00000000000E+00 0.  1.
</event>
<event>
 7    1  0.5931885E-006  0.2418264E+02  0.7818608E-02  0.1686227E+00
          2   -1    0    0  502    0  0.00000000000E+00  0.00000000000E+00  0.55160797889E+03  0.55160797889E+03  0.00000000000E+00 0. -1.
          1   -1    0    0  501    0 -0.00000000000E+00 -0.00000000000E+00 -0.80363732842E+03  0.80363732842E+03  0.00000000000E+00 0. -1.
         25    2    1    2    0    0  0.28269982062E+02 -0.53903339809E+01 -0.34735224562E+03  0.37027915874E+03  0.12499930110E+03 0.  0.
          2    1    1    2  501    0 -0.12140458185E+02  0.21086348747E+02 -0.44425413428E+03  0.44491994859E+03  0.00000000000E+00 0. -1.
          1    1    1    2  502    0 -0.16129523878E+02 -0.15696014766E+02  0.53957703037E+03  0.54004619999E+03  0.00000000000E+00 0. -1.
         22    1    3    3    0    0 -0.22536418866E+02  0.36165116426E+02 -0.24507693601E+03  0.24875391532E+03  0.00000000000E+00 0.  1.
         22    1    3    3    0    0  0.50806400928E+02 -0.41555450407E+02 -0.10227530961E+03  0.12152524342E+03  0.00000000000E+00 0.  1.
</event>
<event>
 7    1  0.5931885E-006  0.2893894E+03  0.7818608E-02  0.1260583E+00
          2   -1    0    0  502    0  0.00000000000E+00  0.00000000000E+00  0.48215823892E+03  0.48215823892E+03  0.00000000000E+00 0. -1.
          1   -1    0    0  501    0 -0.00000000000E+00 -0.00000000000E+00 -0.31873878123E+03  0.31873878123E+03  0.00000000000E+00 0. -1.
         25    2    1    2    0    0 -0.25589323062E+03 -0.11572224096E+03 -0.58835805929E+02  0.31298467298E+03  0.12499908372E+03 0.  0.
          2    1    1    2  501    0 -0.25191748573E+02  0.33364192979E+02 -0.65243791092E+02  0.77489004674E+02  0.00000000000E+00 0. -1.
          1    1    1    2  502    0  0.28108497920E+03  0.82358047980E+02  0.28749905471E+03  0.41042334249E+03  0.00000000000E+00 0. -1.
         22    1    3    3    0    0 -0.13304876269E+03 -0.11216362403E+03 -0.74110919912E+02  0.18914301536E+03  0.00000000000E+00 0.  1.
         22    1    3    3    0    0 -0.12284446793E+03 -0.35586169310E+01  0.15275113983E+02  0.12384165762E+03  0.00000000000E+00 0.  1.
</event>
<event>
 7    1  0.5931885E-006  0.6871279E+02  0.7818608E-02  0.1427190E+00
          2   -1    0    0  502    0  0.00000000000E+00  0.00000000000E+00  0.12190234133E+04  0.12190234133E+04  0.00000000000E+00 0. -1.
          1   -1    0    0  501    0 -0.00000000000E+00 -0.00000000000E+00 -0.63733739622E+02  0.63733739622E+02  0.00000000000E+00 0. -1.
         25    2    1    2    0    0  0.22396907086E+02 -0.83239939521E+02  0.11046681036E+04  0.11150550079E+04  0.12500216976E+03 0.  0.
          2    1    1    2  501    0 -0.24696237732E+02  0.33599413803E+02 -0.44127022099E+02  0.60712592149E+02  0.00000000000E+00 0. -1.
          1    1    1    2  502    0  0.22993306459E+01  0.49640525718E+02  0.94748592178E+02  0.10698955292E+03  0.00000000000E+00 0. -1.
         22    1    3    3    0    0  0.13274422443E+02 -0.79970486681E+02  0.31298810839E+03  0.32331570489E+03  0.00000000000E+00 0. -1.
         22    1    3    3    0    0  0.91224846432E+01 -0.32694528403E+01  0.79167999521E+03  0.79173930297E+03  0.00000000000E+00 0. -1.
</event>
<event>
 7    1  0.5931885E-006  0.1029576E+03  0.7818608E-02  0.1278191E+00
          2   -1    0    0  502    0  0.00000000000E+00  0.00000000000E+00  0.24517197769E+03  0.24517197769E+03  0.00000000000E+00 0. -1.
          1   -1    0    0  501    0 -0.00000000000E+00 -0.00000000000E+00 -0.87080641125E+03  0.87080641125E+03  0.00000000000E+00 0. -1.
         25    2    1    2    0    0 -0.11541280536E+03 -0.14562389350E+03 -0.30158207995E+02  0.22596825374E+03  0.12500280073E+03 0.  0.
          2    1    1    2  501    0  0.29662950025E+02  0.95956779834E+02 -0.72219484567E+03  0.72914538283E+03  0.00000000000E+00 0. -1.
          1    1    1    2  502    0  0.85749855335E+02  0.49667113668E+02  0.12671862011E+03  0.16086475236E+03  0.00000000000E+00 0. -1.
         22    1    3    3    0    0 -0.70491359436E-01 -0.29970586088E+00  0.30704680735E+02  0.30706224315E+02  0.00000000000E+00 0.  1.
         22    1    3    3    0    0 -0.11534231400E+03 -0.14532418764E+03 -0.60862888729E+02  0.19526202943E+03  0.00000000000E+00 0.  1.
</event>
<event>
 7    1  0.5931885E-006  0.1671095E+03  0.7818608E-02  0.1207111E+00
          2   -1    0    0  502    0  0.00000000000E+00  0.00000000000E+00  0.13726137446E+04  0.13726137446E+04  0.00000000000E+00 0. -1.
          1   -1    0    0  501    0 -0.00000000000E+00 -0.00000000000E+00 -0.60823305678E+03  0.60823305678E+03  0.00000000000E+00 0. -1.
         25    2    1    2    0    0 -0.21373729047E+03  0.17737746979E+03  0.10229988662E+03  0.32130616191E+03  0.12500394693E+03 0.  0.
          2    1    1    2  501    0  0.99281073305E+02 -0.12630049149E+03 -0.48228180283E+03  0.50833481389E+03  0.00000000000E+00 0. -1.
          1    1    1    2  502    0  0.11445621716E+03 -0.51076978301E+02  0.11443626041E+04  0.11512058256E+04  0.00000000000E+00 0. -1.
         22    1    3    3    0    0  0.12734548240E+02  0.34147380133E+02  0.87285962085E+01  0.37475334296E+02  0.00000000000E+00 0.  1.
         22    1    3    3    0    0 -0.22647183871E+03  0.14323008966E+03  0.93571290408E+02  0.28383082761E+03  0.00000000000E+00 0.  1.
</event>
<event>
 7    1  0.5931885E-006  0.1437129E+03  0.7818608E-02  0.1315977E+00
          2   -1    0    0  502    0  0.00000000000E+00  0.00000000000E+00  0.23875112549E+04  0.23875112549E+04  0.00000000000E+00 0. -1.
          1   -1    0    0  501    0 -0.00000000000E+00 -0.00000000000E+00 -0.24404032229E+03  0.24404032229E+03  0.00000000000E+00 0. -1.
         25    2    1    2    0    0 -0.77931297979E+02 -0.70526889193E+02  0.98906060999E+03  0.10024533984E+04  0.12499838578E+03 0.  0.
          2    1    1    2  501    0  0.79982763185E+02  0.12051318671E+03 -0.21480836172E+03  0.25896583335E+03  0.00000000000E+00 0. -1.
          1    1    1    2  502    0 -0.20514652055E+01 -0.49986297517E+02  0.13692186844E+04  0.13701323455E+04  0.00000000000E+00 0. -1.
         22    1    3    3    0    0  0.82827862801E+01  0.92727109971E+01  0.89308345056E+01  0.15308413463E+02  0.00000000000E+00 0. -1.
         22    1    3    3    0    0 -0.86214084259E+02 -0.79799600190E+02  0.98012977549E+03  0.98714498495E+03  0.00000000000E+00 0. -1.
</event>
<event>
 7    1  0.5931885E-006  0.2028004E+03  0.7818608E-02  0.1369148E+00
          2   -1    0    0  502    0  0.00000000000E+00  0.00000000000E+00  0.11493912196E+04  0.11493912196E+04  0.00000000000E+00 0. -1.
          1   -1    0    0  501    0 -0.00000000000E+00 -0.00000000000E+00 -0.36239233765E+03  0.36239233765E+03  0.00000000000E+00 0. -1.
         25    2    1    2    0    0 -0.16875679318E+03 -0.10205493270E+03  0.17359821932E+03  0.29095500342E+03  0.12499763090E+03 0.  0.
          2    1    1    2  501    0  0.63403968935E+01 -0.21487208236E+02 -0.29192815374E+03  0.29278652239E+03  0.00000000000E+00 0. -1.
          1    1    1    2  502    0  0.16241639629E+03  0.12354214094E+03  0.90532881640E+03  0.92804203147E+03  0.00000000000E+00 0. -1.
         22    1    3    3    0    0  0.14493482641E+02  0.10542519319E+02  0.86098743077E+01  0.19883050276E+02  0.00000000000E+00 0.  1.
         22    1    3    3    0    0 -0.18325027582E+03 -0.11259745202E+03  0.16498834501E+03  0.27107195314E+03  0.00000000000E+00 0.  1.
</event>
<event>
 7    1  0.5931885E-006  0.7575058E+02  0.7818608E-02  0.1445651E+00
          2   -1    0    0  502    0  0.00000000000E+00  0.00000000000E+00  0.28362589419E+04  0.28362589419E+04  0.00000000000E+00 0. -1.
          1   -1    0    0  501    0 -0.00000000000E+00 -0.00000000000E+00 -0.68790698293E+02  0.68790698293E+02  0.00000000000E+00 0. -1.
         25    2    1    2    0    0 -0.72264843164E+02  0.37058678390E+02  0.17710404903E+04  0.17773026797E+04  0.12499937529E+03 0.  0.
          2    1    1    2  501    0  0.75645605043E+02 -0.43051828593E+01 -0.43453752488E+02  0.87344265794E+02  0.00000000000E+00 0. -1.
          1    1    1    2  502    0 -0.33807618788E+01 -0.32753495531E+02  0.10398815058E+04  0.10404026947E+04  0.00000000000E+00 0. -1.
         22    1    3    3    0    0 -0.66936038452E+02 -0.19470239465E+02  0.14191224354E+04  0.14208335617E+04  0.00000000000E+00 0.  1.
         22    1    3    3    0    0 -0.53288047124E+01  0.56528917855E+02  0.35191805496E+03  0.35646911804E+03  0.00000000000E+00 0.  1.
</event>
<event>
 7    1  0.5931885E-006  0.1510542E+03  0.7818608E-02  0.1280414E+00
          2   -1    0    0  502    0  0.00000000000E+00  0.00000000000E+00  0.89321175474E+03  0.89321175474E+03  0.00000000000E+00 0. -1.
          1   -1    0    0  501    0 -0.00000000000E+00 -0.00000000000E+00 -0.10516306107E+04  0.10516306107E+04  0.00000000000E+00 0. -1.
         25    2    1    2    0    0 -0.19279707331E+02 -0.15921235832E+03 -0.18853064083E+03  0.27729852082E+03  0.12502153799E+03 0.  0.
          2    1    1    2  501    0 -0.45214502659E+02  0.14460654160E+03 -0.81039667478E+03  0.82443809568E+03  0.00000000000E+00 0. -1.
          1    1    1    2  502    0  0.64494209990E+02  0.14605816716E+02  0.84050845969E+03  0.84310574889E+03  0.00000000000E+00 0. -1.
         22    1    3    3    0    0  0.22515290377E+02 -0.89265384415E+02 -0.17061782254E+03  0.19387028789E+03  0.00000000000E+00 0.  1.
         22    1    3    3    0    0 -0.41794997708E+02 -0.69946973902E+02 -0.17912818283E+02  0.83428232933E+02  0.00000000000E+00 0.  1.
</event>
<event>
 7    1  0.5931885E-006  0.2136007E+03  0.7818608E-02  0.1373584E+00
          2   -1    0    0  502    0  0.00000000000E+00  0.00000000000E+00  0.15555095641E+03  0.15555095641E+03  0.00000000000E+00 0. -1.
          1   -1    0    0  501    0 -0.00000000000E+00 -0.00000000000E+00 -0.10413095837E+04  0.10413095837E+04  0.00000000000E+00 0. -1.
         25    2    1    2    0    0 -0.21705547942E+03  0.58585358224E+02 -0.36182288126E+03  0.44394368087E+03  0.12499947612E+03 0.  0.
          2    1    1    2  501    0  0.10024990860E+02 -0.17887300175E+02 -0.54085800083E+03  0.54124655473E+03  0.00000000000E+00 0. -1.
          1    1    1    2  502    0  0.20703048856E+03 -0.40698058048E+02  0.16922254749E+02  0.21167030455E+03  0.00000000000E+00 0. -1.
         22    1    3    3    0    0 -0.26952857481E+02  0.56212341440E+02 -0.12967537037E+03  0.14388184575E+03  0.00000000000E+00 0.  1.
         22    1    3    3    0    0 -0.19010262194E+03  0.23730167836E+01 -0.23214751089E+03  0.30006183511E+03  0.00000000000E+00 0.  1.
</event>
<event>
 7    1  0.5931885E-006  0.4660530E+02  0.7818608E-02  0.1486752E+00
          2   -1    0    0  502    0  0.00000000000E+00  0.00000000000E+00  0.24853211924E+04  0.24853211924E+04  0.00000000000E+00 0. -1.
          1   -1    0    0  501    0 -0.00000000000E+00 -0.00000000000E+00 -0.20487936251E+04  0.20487936251E+04  0.00000000000E+00 0. -1.
         25    2    1    2    0    0 -0.36571851516E+02  0.15949007821E+02  0.18694719769E+03  0.22839912005E+03  0.12500012857E+03 0.  0.
          2    1    1    2  501    0 -0.38870099797E+01 -0.39615672928E+02 -0.20276311461E+04  0.20280218379E+04  0.00000000000E+00 0. -1.
          1    1    1    2  502    0  0.40458861496E+02  0.23666665108E+02  0.22772115157E+04  0.22776938595E+04  0.00000000000E+00 0. -1.
         22    1    3    3    0    0  0.14126620570E+02 -0.10028474546E+02 -0.12249089137E+02  0.21217254656E+02  0.00000000000E+00 0. -1.
         22    1    3    3    0    0 -0.50698472086E+02  0.25977482366E+02  0.19919628683E+03  0.20718186540E+03  0.00000000000E+00 0. -1.
</event>
<event>
 7    1  0.5931885E-006  0.4876977E+02  0.7818608E-02  0.1484830E+00
          2   -1    0    0  502    0  0.00000000000E+00  0.00000000000E+00  0.82381878953E+02  0.82381878953E+02  0.00000000000E+00 0. -1.
          1   -1    0    0  501    0 -0.00000000000E+00 -0.00000000000E+00 -0.31405180591E+04  0.31405180591E+04  0.00000000000E+00 0. -1.
         25    2    1    2    0    0 -0.72388642040E+02  0.17565348097E+02 -0.54031460756E+03  0.55956538153E+03  0.12499953647E+03 0.  0.
          2    1    1    2  501    0  0.25272497660E+02 -0.29116776858E+02 -0.25823316891E+04  0.25826194916E+04  0.00000000000E+00 0. -1.
          1    1    1    2  502    0  0.47116144380E+02  0.11551428761E+02  0.64510116533E+02  0.80715064906E+02  0.00000000000E+00 0. -1.
         22    1    3    3    0    0 -0.42658718492E+02 -0.25466754804E+02 -0.46627841667E+03  0.46891777927E+03  0.00000000000E+00 0. -1.
         22    1    3    3    0    0 -0.29729923548E+02  0.43032102901E+02 -0.74036190886E+02  0.90647602259E+02  0.00000000000E+00 0. -1.
</event>
<event>
 7    1  0.5931885E-006  0.2201782E+03  0.7818608E-02  0.1135898E+00
          2   -1    0    0  502    0  0.00000000000E+00  0.00000000000E+00  0.19348427983E+04  0.19348427983E+04  0.00000000000E+00 0. -1.
          1   -1    0    0  501    0 -0.00000000000E+00 -0.00000000000E+00 -0.22656899514E+04  0.22656899514E+04  0.00000000000E+00 0. -1.
         25    2    1    2    0    0 -0.23816321099E+03 -0.34629732124E+03 -0.76788315864E+02  0.44515678659E+03  0.12499827769E+03 0.  0.
          2    1    1    2  501    0  0.81789384890E+02  0.19829165167E+03 -0.19923187398E+04  0.20038320896E+04  0.00000000000E+00 0. -1.
          1    1    1    2  502    0  0.15637382610E+03  0.14800566957E+03  0.17382599026E+04  0.17515438735E+04  0.00000000000E+00 0. -1.
         22    1    3    3    0    0 -0.23596215270E+03 -0.34910523765E+03 -0.90508139571E+02  0.43098065825E+03  0.00000000000E+00 0. -1.
         22    1    3    3    0    0 -0.22010582943E+01  0.28079164042E+01  0.13719823707E+02  0.14176128340E+02  0.00000000000E+00 0. -1.
</event>
<event>
 7    1  0.5931885E-006  0.8585253E+02  0.7818608E-02  0.1463353E+00
          2   -1    0    0  502    0  0.00000000000E+00  0.00000000000E+00  0.16928644837E+03  0.16928644837E+03  0.00000000000E+00 0. -1.
          1   -1    0    0  501    0 -0.00000000000E+00 -0.00000000000E+00 -0.27805721025E+03  0.27805721025E+03  0.00000000000E+00 0. -1.
         25    2    1    2    0    0  0.84671772913E+02 -0.27356100485E+02 -0.16066151161E+03  0.22215738828E+03  0.12499647393E+03 0.  0.
          2    1    1    2  501    0  0.11858147389E+01  0.25494181118E+02 -0.70894806094E+02  0.75348742250E+02  0.00000000000E+00 0. -1.
          1    1    1    2  502    0 -0.85857587652E+02  0.18619193662E+01  0.12278555583E+03  0.14983752808E+03  0.00000000000E+00 0. -1.
         22    1    3    3    0    0  0.10412638127E+03  0.14376784393E+02 -0.12838456506E+03  0.16592646489E+03  0.00000000000E+00 0. -1.
         22    1    3    3    0    0 -0.19454608360E+02 -0.41732884878E+02 -0.32276946555E+02  0.56230923393E+02  0.00000000000E+00 0. -1.
</event>
<event>
 7    1  0.5931885E-006  0.7191731E+02  0.7818608E-02  0.1400857E+00
          2   -1    0    0  502    0  0.00000000000E+00  0.00000000000E+00  0.10338025962E+04  0.10338025962E+04  0.00000000000E+00 0. -1.
          1   -1    0    0  501    0 -0.00000000000E+00 -0.00000000000E+00 -0.11224672547E+04  0.11224672547E+04  0.00000000000E+00 0. -1.
         25    2    1    2    0    0 -0.30476259722E+02  0.69264822220E+02  0.48020733722E+03  0.50194716509E+03  0.12500180728E+03 0.  0.
          2    1    1    2  501    0 -0.34858185308E+02 -0.34253926075E+02 -0.11085255317E+04  0.11096023067E+04  0.00000000000E+00 0. -1.
          1    1    1    2  502    0  0.65334445030E+02 -0.35010896145E+02  0.53965353595E+03  0.54472037911E+03  0.00000000000E+00 0. -1.
         22    1    3    3    0    0 -0.22579747486E+01  0.85050503954E+02  0.17042445070E+03  0.19048144285E+03  0.00000000000E+00 0. -1.
         22    1    3    3    0    0 -0.28218284973E+02 -0.15785681734E+02  0.30978288652E+03  0.31146572224E+03  0.00000000000E+00 0. -1.
</event>
<event>
 7    1  0.5931885E-006  0.4972883E+02  0.7818608E-02  0.1571356E+00
          2   -1    0    0  502    0  0.00000000000E+00  0.00000000000E+00  0.19744606288E+04  0.19744606288E+04  0.00000000000E+00 0. -1.
          1   -1    0    0  501    0 -0.00000000000E+00 -0.00000000000E+00 -0.25512122313E+03  0.25512122313E+03  0.00000000000E+00 0. -1.
         25    2    1    2    0    0  0.70654627331E+02 -0.26299763783E+01 -0.88528404978E+02  0.16870599474E+03  0.12500176413E+03 0.  0.
          2    1    1    2  501    0 -0.20990406467E+02  0.37613009864E+01 -0.12528398341E+03  0.12708588060E+03  0.00000000000E+00 0. -1.
          1    1    1    2  502    0 -0.49664220864E+02 -0.11313246081E+01  0.19331517941E+04  0.19337899766E+04  0.00000000000E+00 0. -1.
         22    1    3    3    0    0  0.88490278532E+01 -0.58645339426E+02 -0.46126423541E+02  0.75134732840E+02  0.00000000000E+00 0. -1.
         22    1    3    3    0    0  0.61805599478E+02  0.56015363047E+02 -0.42401981437E+02  0.93571261902E+02  0.00000000000E+00 0. -1.
</event>
<event>
 7    1  0.5931885E-006  0.5707876E+02  0.7818608E-02  0.1486346E+00
          2   -1    0    0  502    0  0.00000000000E+00  0.00000000000E+00  0.12347145741E+03  0.12347145741E+03  0.00000000000E+00 0. -1.
          1   -1    0    0  501    0 -0.00000000000E+00 -0.00000000000E+00 -0.28535351529E+03  0.28535351529E+03  0.00000000000E+00 0. -1.
         25    2    1    2    0    0  0.26594450255E+02 -0.20315034966E+02 -0.10880610855E+03  0.16906661652E+03  0.12499914453E+03 0.  0.
          2    1    1    2  501    0 -0.59181572424E+02  0.20999617337E+02 -0.13646785460E+03  0.15022289367E+03  0.00000000000E+00 0. -1.
          1    1    1    2  502    0  0.32587122170E+02 -0.68458237083E+00  0.83391905269E+02  0.89535462520E+02  0.00000000000E+00 0. -1.
         22    1    3    3    0    0  0.41937677173E+02 -0.22782884603E+02 -0.13244231821E+03  0.14077924652E+03  0.00000000000E+00 0.  1.
         22    1    3    3    0    0 -0.15343226918E+02  0.24678496366E+01  0.23636209665E+02  0.28287369999E+02  0.00000000000E+00 0.  1.
</event>
<event>
 7    1  0.5931885E-006  0.1577909E+03  0.7818608E-02  0.1216477E+00
          2   -1    0    0  502    0  0.00000000000E+00  0.00000000000E+00  0.51759725104E+03  0.51759725104E+03  0.00000000000E+00 0. -1.
          1   -1    0    0  501    0 -0.00000000000E+00 -0.00000000000E+00 -0.52175811874E+03  0.52175811874E+03  0.00000000000E+00 0. -1.
         25    2    1    2    0    0  0.16676923064E+03 -0.36161781003E+02 -0.95834363850E+02  0.23223275536E+03  0.12501270605E+03 0.  0.
          2    1    1    2  501    0 -0.74034432474E+02 -0.94621311123E+02 -0.33256468421E+03  0.35360084685E+03  0.00000000000E+00 0. -1.
          1    1    1    2  502    0 -0.92734798169E+02  0.13078309213E+03  0.42423818036E+03  0.45352176756E+03  0.00000000000E+00 0. -1.
         22    1    3    3    0    0  0.80805628867E+02  0.31680958899E+02 -0.12663743477E+00  0.86794290425E+02  0.00000000000E+00 0.  1.
         22    1    3    3    0    0  0.85963601776E+02 -0.67842739902E+02 -0.95707726415E+02  0.14543846494E+03  0.00000000000E+00 0.  1.
</event>
<event>
 7    1  0.5931885E-006  0.1011038E+03  0.7818608E-02  0.1309492E+00
          2   -1    0    0  502    0  0.00000000000E+00  0.00000000000E+00  0.34080410982E+04  0.34080410982E+04  0.00000000000E+00 0. -1.
          1   -1    0    0  501    0 -0.00000000000E+00 -0.00000000000E+00 -0.15385236146E+04  0.15385236146E+04  0.00000000000E+00 0. -1.
         25    2    1    2    0    0 -0.52362459695E+02  0.82931343359E+02 -0.12254857556E+03  0.20065474977E+03  0.12499896135E+03 0.  0.
          2    1    1    2  501    0 -0.46166558040E+02 -0.59618134196E+02 -0.13751281086E+04  0.13771938818E+04  0.00000000000E+00 0. -1.
          1    1    1    2  502    0  0.98529017735E+02 -0.23313209162E+02  0.33671941677E+04  0.33687160813E+04  0.00000000000E+00 0. -1.
         22    1    3    3    0    0 -0.72258174138E+02  0.11243930594E+02 -0.98071969714E+02  0.12233470868E+03  0.00000000000E+00 0.  1.
         22    1    3    3    0    0  0.19895714443E+02  0.71687412765E+02 -0.24476605842E+02  0.78320041086E+02  0.00000000000E+00 0.  1.
</event>
<event>
 7    1  0.5931885E-006  0.1041742E+03  0.7818608E-02  0.1365595E+00
          2   -1    0    0  502    0  0.00000000000E+00  0.00000000000E+00  0.16452446807E+04  0.16452446807E+04  0.00000000000E+00 0. -1.
          1   -1    0    0  501    0 -0.00000000000E+00 -0.00000000000E+00 -0.13823955030E+04  0.13823955030E+04  0.00000000000E+00 0. -1.
         25    2    1    2    0    0  0.83366499628E+01 -0.11074055644E+03  0.13406813328E+02  0.16774346716E+03  0.12500063023E+03 0.  0.
          2    1    1    2  501    0  0.34810242041E+02  0.98243589738E+02 -0.13028209656E+04  0.13069835593E+04  0.00000000000E+00 0. -1.
          1    1    1    2  502    0 -0.43146892004E+02  0.12496966697E+02  0.15522633300E+04  0.15529131573E+04  0.00000000000E+00 0. -1.
         22    1    3    3    0    0  0.28923930282E+01 -0.35547930217E+02  0.66550984855E+02  0.75505330045E+02  0.00000000000E+00 0.  1.
         22    1    3    3    0    0  0.54442569347E+01 -0.75192626218E+02 -0.53144171526E+02  0.92238137115E+02  0.00000000000E+00 0.  1.
</event>
<event>
 7    1  0.5931885E-006  0.1259298E+03  0.7818608E-02  0.1317729E+00
          2   -1    0    0  502    0  0.00000000000E+00  0.00000000000E+00  0.27883023549E+03  0.27883023549E+03  0.00000000000E+00 0. -1.
          1   -1    0    0  501    0 -0.00000000000E+00 -0.00000000000E+00 -0.83200447724E+03  0.83200447724E+03  0.00000000000E+00 0. -1.
         25    2    1    2    0    0  0.12116504724E+03 -0.63991526690E+01 -0.93430240144E+02  0.19767485048E+03  0.12499687561E+03 0.  0.
          2    1    1    2  501    0 -0.11765963550E+03 -0.49693637427E+02 -0.67690220364E+03  0.68884674690E+03  0.00000000000E+00 0. -1.
          1    1    1    2  502    0 -0.35054117367E+01  0.56092790096E+02  0.21715820203E+03  0.22431311535E+03  0.00000000000E+00 0. -1.
         22    1    3    3    0    0  0.14583388754E+03  0.60340483552E+01 -0.72232286716E+02  0.16285403200E+03  0.00000000000E+00 0.  1.
         22    1    3    3    0    0 -0.24668840306E+02 -0.12433201024E+02 -0.21197953428E+02  0.34820818475E+02  0.00000000000E+00 0.  1.
</event>
<event>
 7    1  0.5931885E-006  0.8380835E+02  0.7818608E-02  0.1408410E+00
          2   -1    0    0  502    0  0.00000000000E+00  0.00000000000E+00  0.10654243398E+04  0.10654243398E+04  0.00000000000E+00 0. -1.
          1   -1    0    0  501    0 -0.00000000000E+00 -0.00000000000E+00 -0.20480105028E+03  0.20480105028E+03  0.00000000000E+00 0. -1.
         25    2    1    2    0    0 -0.66924687290E+02  0.13764493207E+02  0.65539288088E+03  0.67069623166E+03  0.12500092721E+03 0.  0.
          2    1    1    2  501    0  0.80856713846E+02  0.23217073548E+02 -0.18713744699E+03  0.20517617977E+03  0.00000000000E+00 0. -1.
          1    1    1    2  502    0 -0.13932026555E+02 -0.36981566756E+02  0.39236785560E+03  0.39435297863E+03  0.00000000000E+00 0. -1.
         22    1    3    3    0    0 -0.10183259414E+03 -0.57277932182E+01  0.49464504605E+03  0.50505089489E+03  0.00000000000E+00 0.  1.
         22    1    3    3    0    0  0.34907906845E+02  0.19492286425E+02  0.16074783483E+03  0.16564533677E+03  0.00000000000E+00 0.  1.
</event>
<event>
 7    1  0.5931885E-006  0.3297310E+02  0.7818608E-02  0.1630741E+00
          2   -1    0    0  502    0  0.00000000000E+00  0.00000000000E+00  0.19160379541E+02  0.19160379541E+02  0.00000000000E+00 0. -1.
          1   -1    0    0  501    0 -0.00000000000E+00 -0.00000000000E+00 -0.30714933110E+04  0.30714933110E+04  0.00000000000E+00 0. -1.
         25    2    1    2    0    0  0.47208220855E+02 -0.26609503776E+02 -0.75507073285E+03  0.76726361717E+03  0.12499985926E+03 0.  0.
          2    1    1    2  501    0 -0.30456217408E+02  0.11578148467E+02 -0.23004303201E+04  0.23006610555E+04  0.00000000000E+00 0. -1.
          1    1    1    2  502    0 -0.16752003447E+02  0.15031355309E+02  0.31681214396E+01  0.22729017915E+02  0.00000000000E+00 0. -1.
         22    1    3    3    0    0  0.65773767049E+02 -0.64739662639E+02 -0.46064196245E+03  0.46979615784E+03  0.00000000000E+00 0.  1.
         22    1    3    3    0    0 -0.18565546194E+02  0.38130158863E+02 -0.29442877040E+03  0.29746745933E+03  0.00000000000E+00 0.  1.
</event>
<event>
 7    1  0.5931885E-006  0.9676819E+02  0.7818608E-02  0.1307560E+00
          2   -1    0    0  502    0  0.00000000000E+00  0.00000000000E+00  0.41646875000E+03  0.41646875000E+03  0.00000000000E+00 0. -1.
          1   -1    0    0  501    0 -0.00000000000E+00 -0.00000000000E+00 -0.35638296085E+03  0.35638296085E+03  0.00000000000E+00 0. -1.
         25    2    1    2    0    0 -0.13408662163E+03 -0.26824132527E+02  0.14399124705E+03  0.23464373788E+03  0.12500179324E+03 0.  0.
          2    1    1    2  501    0  0.49312293502E+02  0.63220806177E+02 -0.29613290071E+03  0.30679515561E+03  0.00000000000E+00 0. -1.
          1    1    1    2  502    0  0.84774328126E+02 -0.36396673649E+02  0.21222744280E+03  0.23141281737E+03  0.00000000000E+00 0. -1.
         22    1    3    3    0    0 -0.99603846377E+02  0.37334944647E+02  0.11386583243E+03  0.15582121839E+03  0.00000000000E+00 0. -1.
         22    1    3    3    0    0 -0.34482775251E+02 -0.64159077174E+02  0.30125414621E+02  0.78822519491E+02  0.00000000000E+00 0. -1.
</event>
<event>
 7    1  0.5931885E-006  0.2651587E+03  0.7818608E-02  0.1231201E+00
          2   -1    0    0  502    0  0.00000000000E+00  0.00000000000E+00  0.18552673951E+04  0.18552673951E+04  0.00000000000E+00 0. -1.
          1   -1    0    0  501    0 -0.00000000000E+00 -0.00000000000E+00 -0.52102820606E+03  0.52102820606E+03  0.00000000000E+00 0. -1.
         25    2    1    2    0    0  0.21803212454E+03 -0.57499913101E+02 -0.37803314862E+02  0.26057377245E+03  0.12500141175E+03 0.  0.
          2    1    1    2  501    0 -0.27931235541E+03  0.55424044485E+02 -0.31668398363E+03  0.42588256842E+03  0.00000000000E+00 0. -1.
          1    1    1    2  502    0  0.61280230870E+02  0.20758686154E+01  0.16887264876E+04  0.16898392603E+04  0.00000000000E+00 0. -1.
         22    1    3    3    0    0  0.19478537760E+03 -0.80525001352E+02 -0.26067906261E+00  0.21077401909E+03  0.00000000000E+00 0.  1.
         22    1    3    3    0    0  0.23246746935E+02  0.23025088252E+02 -0.37542635799E+02  0.49799753361E+02  0.00000000000E+00 0.  1.
</event>
<event>
 7    1  0.5931885E-006  0.1303883E+03  0.7818608E-02  0.1393271E+00
          2   -1    0    0  502    0  0.00000000000E+00  0.00000000000E+00  0.68385073641E+03  0.68385073641E+03  0.00000000000E+00 0. -1.
          1   -1    0    0  501    0 -0.00000000000E+00 -0.00000000000E+00 -0.30892672752E+03  0.30892672752E+03  0.00000000000E+00 0. -1.
         25    2    1    2    0    0  0.42358112734E+02 -0.12259320438E+03  0.60158201114E+03  0.62797232215E+03  0.12500007113E+03 0.  0.
          2    1    1    2  501    0 -0.14611244059E+02  0.12965657536E+03 -0.27739380519E+03  0.30654793939E+03  0.00000000000E+00 0. -1.
          1    1    1    2  502    0 -0.27746868674E+02 -0.70633709785E+01  0.50735802943E+02  0.58257202397E+02  0.00000000000E+00 0. -1.
         22    1    3    3    0    0 -0.36695239645E+02 -0.23797267086E+02  0.26113677227E+03  0.26477398733E+03  0.00000000000E+00 0.  1.
         22    1    3    3    0    0  0.79053352378E+02 -0.98795937298E+02  0.34044523886E+03  0.36319833482E+03  0.00000000000E+00 0.  1.
</event>
<event>
 7    1  0.5931885E-006  0.1562685E+03  0.7818608E-02  0.1291042E+00
          2   -1    0    0  502    0  0.00000000000E+00  0.00000000000E+00  0.69237220672E+03  0.69237220672E+03  0.00000000000E+00 0. -1.
          1   -1    0    0  501    0 -0.00000000000E+00 -0.00000000000E+00 -0.29174868009E+03  0.29174868009E+03  0.00000000000E+00 0. -1.
         25    2    1    2    0    0  0.36019887808E+02 -0.99276638844E+02 -0.27335739065E+02  0.16591543036E+03  0.12500961588E+03 0.  0.
          2    1    1    2  501    0  0.34397685007E+02 -0.46482202841E+02 -0.18000202509E+03  0.18906222508E+03  0.00000000000E+00 0. -1.
          1    1    1    2  502    0 -0.70417572815E+02  0.14575884168E+03  0.60796129079E+03  0.62914323138E+03  0.00000000000E+00 0. -1.
         22    1    3    3    0    0 -0.42156451991E+02 -0.54148582585E+02  0.77702660548E+01  0.69062381040E+02  0.00000000000E+00 0.  1.
         22    1    3    3    0    0  0.78176339799E+02 -0.45128056259E+02 -0.35106005120E+02  0.96853049315E+02  0.00000000000E+00 0.  1.
</event>
<event>
 7    1  0.5931885E-006  0.5538822E+02  0.7818608E-02  0.1418841E+00
          2   -1    0    0  502    0  0.00000000000E+00  0.00000000000E+00  0.18361442568E+04  0.18361442568E+04  0.00000000000E+00 0. -1.
          1   -1    0    0  501    0 -0.00000000000E+00 -0.00000000000E+00 -0.20225003310E+02  0.20225003310E+02  0.00000000000E+00 0. -1.
         25    2    1    2    0    0 -0.14546455812E+02  0.23883859424E+02  0.45687869176E+03  0.47449434285E+03  0.12499881719E+03 0.  0.
          2    1    1    2  501    0  0.63478446923E+02  0.15472087338E+01  0.82319748017E+02  0.10396368593E+03  0.00000000000E+00 0. -1.
          1    1    1    2  502    0 -0.48931991111E+02 -0.25431068158E+02  0.12767208138E+04  0.12779112314E+04  0.00000000000E+00 0. -1.
         22    1    3    3    0    0 -0.31872665402E+01 -0.26985095787E+02  0.38364632777E+03  0.38460740876E+03  0.00000000000E+00 0. -1.
         22    1    3    3    0    0 -0.11359189272E+02  0.50868955211E+02  0.73232363996E+02  0.89886934099E+02  0.00000000000E+00 0. -1.
</event>
<event>
 7    1  0.5931885E-006  0.1700832E+03  0.7818608E-02  0.1181473E+00
          2   -1    0    0  502    0  0.00000000000E+00  0.00000000000E+00  0.18165850146E+03  0.18165850146E+03  0.00000000000E+00 0. -1.
          1   -1    0    0  501    0 -0.00000000000E+00 -0.00000000000E+00 -0.59198766256E+03  0.59198766256E+03  0.00000000000E+00 0. -1.
         25    2    1    2    0    0 -0.23037312097E+02  0.38561774745E+02  0.29374479562E+02  0.13603250037E+03  0.12499701151E+03 0.  0.
          2    1    1    2  501    0  0.57551550644E+02 -0.19799745393E+03 -0.42677340975E+03  0.47397332837E+03  0.00000000000E+00 0. -1.
          1    1    1    2  502    0 -0.34514238548E+02  0.15943567919E+03 -0.12930230915E+02  0.16364033528E+03  0.00000000000E+00 0. -1.
         22    1    3    3    0    0 -0.14691524475E+02 -0.57774958069E+01  0.72152106290E+02  0.73858965545E+02  0.00000000000E+00 0.  1.
         22    1    3    3    0    0 -0.83457876214E+01  0.44339270552E+02 -0.42777626729E+02  0.62173534825E+02  0.00000000000E+00 0.  1.
</event>
<event>
 7    1  0.5931885E-006  0.4987847E+02  0.7818608E-02  0.1550450E+00
          2   -1    0    0  502    0  0.00000000000E+00  0.00000000000E+00  0.19331237052E+04  0.19331237052E+04  0.00000000000E+00 0. -1.
          1   -1    0    0  501    0 -0.00000000000E+00 -0.00000000000E+00 -0.22656735691E+02  0.22656735691E+02  0.00000000000E+00 0. -1.
         25    2    1    2    0    0  0.22305846800E+02 -0.60147740693E+02  0.99435412144E+03  0.10042300897E+04  0.12499061056E+03 0.  0.
          2    1    1    2  501    0 -0.49486637033E+00  0.49504060092E+02  0.17348285548E+02  0.52458172574E+02  0.00000000000E+00 0. -1.
          1    1    1    2  502    0 -0.21810980430E+02  0.10643680601E+02  0.89876456249E+03  0.89909217859E+03  0.00000000000E+00 0. -1.
         22    1    3    3    0    0  0.33192714029E+02 -0.84752261222E+02  0.93047083301E+03  0.93491212053E+03  0.00000000000E+00 0. -1.
         22    1    3    3    0    0 -0.10886867229E+02  0.24604520529E+02  0.63883288433E+02  0.69317969168E+02  0.00000000000E+00 0. -1.
</event>
<event>
 7    1  0.5931885E-006  0.4215549E+02  0.7818608E-02  0.1495394E+00
          2   -1    0    0  502    0  0.00000000000E+00  0.00000000000E+00  0.17413607157E+03  0.17413607157E+03  0.00000000000E+00 0. -1.
          1   -1    0    0  501    0 -0.00000000000E+00 -0.00000000000E+00 -0.18603335873E+04  0.18603335873E+04  0.00000000000E+00 0. -1.
         25    2    1    2    0    0  0.55979110610E+01 -0.10564082812E+02 -0.38665923122E+02  0.13138680869E+03  0.12499801371E+03 0.  0.
          2    1    1    2  501    0  0.32211014701E+02  0.27528106665E+02 -0.17716872676E+04  0.17721938721E+04  0.00000000000E+00 0. -1.
          1    1    1    2  502    0 -0.37808925762E+02 -0.16964023853E+02  0.12415567495E+03  0.13088897812E+03  0.00000000000E+00 0. -1.
         22    1    3    3    0    0  0.59718436569E+02 -0.71802379322E+01 -0.47246636349E+02  0.76485894970E+02  0.00000000000E+00 0. -1.
         22    1    3    3    0    0 -0.54120525508E+02 -0.33838448796E+01  0.85807132273E+01  0.54900913717E+02  0.00000000000E+00 0. -1.
</event>
<event>
 7    1  0.5931885E-006  0.2850920E+02  0.7818608E-02  0.1672574E+00
          2   -1    0    0  502    0  0.00000000000E+00  0.00000000000E+00  0.44047920037E+03  0.44047920037E+03  0.00000000000E+00 0. -1.
          1   -1    0    0  501    0 -0.00000000000E+00 -0.00000000000E+00 -0.33698026070E+02  0.33698026070E+02  0.00000000000E+00 0. -1.
         25    2    1    2    0    0 -0.31101381489E+02 -0.27986176489E+02  0.33066161026E+03  0.35596671940E+03  0.12499873126E+03 0.  0.
          2    1    1    2  501    0  0.20287952762E+02  0.33569337408E+01 -0.13527946022E+02  0.24614535441E+02  0.00000000000E+00 0. -1.
          1    1    1    2  502    0  0.10813428727E+02  0.24629242748E+02  0.89647510055E+02  0.93595971592E+02  0.00000000000E+00 0. -1.
         22    1    3    3    0    0  0.46737875009E+02 -0.26921109201E+02  0.13918897274E+03  0.14927406076E+03  0.00000000000E+00 0. -1.
         22    1    3    3    0    0 -0.77839256498E+02 -0.10650672883E+01  0.19147263752E+03  0.20669265865E+03  0.00000000000E+00 0. -1.
</event>
<event>
 7    1  0.5931885E-006  0.4148711E+02  0.7818608E-02  0.1541981E+00
          2   -1    0    0  502    0  0.00000000000E+00  0.00000000000E+00  0.82615056972E+03  0.82615056972E+03  0.00000000000E+00 0. -1.
          1   -1    0    0  501    0 -0.00000000000E+00 -0.00000000000E+00 -0.91136783282E+02  0.91136783282E+02  0.00000000000E+00 0. -1.
         25    2    1    2    0    0 -0.12610393027E+02  0.23726618313E+01  0.16977249184E+03  0.21122280663E+03  0.12501089360E+03 0.  0.
          2    1    1    2  501    0 -0.23743849141E+02  0.19646398170E+02 -0.66290619914E+02  0.73104019189E+02  0.00000000000E+00 0. -1.
          1    1    1    2  502    0  0.36354242167E+02 -0.22019060001E+02  0.63153191451E+03  0.63296052718E+03  0.00000000000E+00 0. -1.
         22    1    3    3    0    0  0.39029683933E+01 -0.48695498891E+02  0.14325950943E+03  0.15135974305E+03  0.00000000000E+00 0.  1.
         22    1    3    3    0    0 -0.16513361420E+02  0.51068160722E+02  0.26512982414E+02  0.59863063582E+02  0.00000000000E+00 0.  1.
</event>
<event>
 7    1  0.5931885E-006  0.7208982E+02  0.7818608E-02  0.1385559E+00
          2   -1    0    0  502    0  0.00000000000E+00  0.00000000000E+00  0.25144736547E+04  0.25144736547E+04  0.00000000000E+00 0. -1.
          1   -1    0    0  501    0 -0.00000000000E+00 -0.00000000000E+00 -0.19848280364E+03  0.19848280364E+03  0.00000000000E+00 0. -1.
         25    2    1    2    0    0 -0.94869033143E+02  0.46682185751E+02  0.37128245695E+03  0.40577517963E+03  0.12499389446E+03 0.  0.
          2    1    1    2  501    0  0.53844335008E+02  0.11694913643E+02 -0.17643480864E+03  0.18483837566E+03  0.00000000000E+00 0. -1.
          1    1    1    2  502    0  0.41024698135E+02 -0.58377099394E+02  0.21211432027E+04  0.21223429031E+04  0.00000000000E+00 0. -1.
         22    1    3    3    0    0  0.65384629249E+01 -0.20849512078E+02  0.16313527782E+03  0.16459213991E+03  0.00000000000E+00 0. -1.
         22    1    3    3    0    0 -0.10140749607E+03  0.67531697830E+02  0.20814717913E+03  0.24118303972E+03  0.00000000000E+00 0. -1.
</event>
<event>
 7    1  0.5931885E-006  0.1905444E+03  0.7818608E-02  0.1283963E+00
          2   -1    0    0  502    0  0.00000000000E+00  0.00000000000E+00  0.25278469667E+03  0.25278469667E+03  0.00000000000E+00 0. -1.
          1   -1    0    0  501    0 -0.00000000000E+00 -0.00000000000E+00 -0.47109878676E+03  0.47109878676E+03  0.00000000000E+00 0. -1.
         25    2    1    2    0    0 -0.14472904582E+03  0.93226345557E+02 -0.16288624627E+03  0.26793257784E+03  0.12497315245E+03 0.  0.
          2    1    1    2  501    0  0.14902029732E+03 -0.14373191222E+03 -0.20902499172E+03  0.29420632006E+03  0.00000000000E+00 0. -1.
          1    1    1    2  502    0 -0.42912515001E+01  0.50505566660E+02  0.15359714790E+03  0.16174458553E+03  0.00000000000E+00 0. -1.
         22    1    3    3    0    0 -0.13874302470E+02  0.70458522116E+02 -0.94057677946E+02  0.11833742598E+03  0.00000000000E+00 0.  1.
         22    1    3    3    0    0 -0.13085474335E+03  0.22767823441E+02 -0.68828568322E+02  0.14959515185E+03  0.00000000000E+00 0.  1.
</event>
<event>
 7    1  0.5931885E-006  0.1228111E+03  0.7818608E-02  0.1290432E+00
          2   -1    0    0  502    0  0.00000000000E+00  0.00000000000E+00  0.22240598016E+04  0.22240598016E+04  0.00000000000E+00 0. -1.
          1   -1    0    0  501    0 -0.00000000000E+00 -0.00000000000E+00 -0.18756425471E+03  0.18756425471E+03  0.00000000000E+00 0. -1.
         25    2    1    2    0    0 -0.23571063349E+02 -0.62868973707E+02  0.76302399746E+02  0.16110455580E+03  0.12499807523E+03 0.  0.
          2    1    1    2  501    0  0.22738866039E+02  0.13686445543E+03 -0.11120039159E+03  0.17780456203E+03  0.00000000000E+00 0. -1.
          1    1    1    2  502    0  0.83219730987E+00 -0.73995481720E+02  0.20713935388E+04  0.20727149385E+04  0.00000000000E+00 0. -1.
         22    1    3    3    0    0  0.91205266493E+01 -0.24270385314E+02 -0.32229620308E+02  0.41364042776E+02  0.00000000000E+00 0.  1.
         22    1    3    3    0    0 -0.32691589999E+02 -0.38598588393E+02  0.10853202005E+03  0.11974051302E+03  0.00000000000E+00 0.  1.
</event>
<event>
 7    1  0.5931885E-006  0.3383771E+02  0.7818608E-02  0.1579445E+00
          2   -1    0    0  502    0  0.00000000000E+00  0.00000000000E+00  0.10427077953E+04  0.10427077953E+04  0.00000000000E+00 0. -1.
          1   -1    0    0  501    0 -0.00000000000E+00 -0.00000000000E+00 -0.42522402599E+03  0.42522402599E+03  0.00000000000E+00 0. -1.
         25    2    1    2    0    0  0.55677357706E+02  0.13616798576E+02  0.59116073080E+02  0.14968317132E+03  0.12499982526E+03 0.  0.
          2    1    1    2  501    0 -0.28977766603E+02  0.69672747354E+01 -0.37905252749E+03  0.38022239869E+03  0.00000000000E+00 0. -1.
          1    1    1    2  502    0 -0.26699591103E+02 -0.20584073312E+02  0.93742022368E+03  0.93802625124E+03  0.00000000000E+00 0. -1.
         22    1    3    3    0    0 -0.20594879957E+02 -0.29524010946E+02  0.49961202522E+02  0.61578714344E+02  0.00000000000E+00 0. -1.
         22    1    3    3    0    0  0.76272237663E+02  0.43140809522E+02  0.91548705582E+01  0.88104456978E+02  0.00000000000E+00 0. -1.
</event>
<event>
 7    1  0.5931885E-006  0.1690712E+03  0.7818608E-02  0.1210272E+00
          2   -1    0    0  502    0  0.00000000000E+00  0.00000000000E+00  0.29840557882E+04  0.29840557882E+04  0.00000000000E+00 0. -1.
          1   -1    0    0  501    0 -0.00000000000E+00 -0.00000000000E+00 -0.98037724471E+03  0.98037724471E+03  0.00000000000E+00 0. -1.
         25    2    1    2    0    0  0.12676604836E+02 -0.54097579337E+02  0.38061231597E+03  0.40444348748E+03  0.12498621961E+03 0.  0.
          2    1    1    2  501    0 -0.89009438096E+02  0.14638046512E+03 -0.95948666928E+03  0.97466126894E+03  0.00000000000E+00 0. -1.
          1    1    1    2  502    0  0.76332833260E+02 -0.92282885787E+02  0.25825528968E+04  0.25853282765E+04  0.00000000000E+00 0. -1.
         22    1    3    3    0    0 -0.13032518102E+02  0.27577423589E+02  0.27402753852E+02  0.41003313751E+02  0.00000000000E+00 0. -1.
         22    1    3    3    0    0  0.25709122938E+02 -0.81675002925E+02  0.35320956212E+03  0.36344017373E+03  0.00000000000E+00 0. -1.
</event>
<event>
 7    1  0.5931885E-006  0.1585850E+03  0.7818608E-02  0.1382959E+00
          2   -1    0    0  502    0  0.00000000000E+00  0.00000000000E+00  0.25745982595E+04  0.25745982595E+04  0.00000000000E+00 0. -1.
          1   -1    0    0  501    0 -0.00000000000E+00 -0.00000000000E+00 -0.14804894265E+03  0.14804894265E+03  0.00000000000E+00 0. -1.
         25    2    1    2    0    0 -0.14962077481E+03 -0.10372680727E+03  0.13370147658E+04  0.13551307060E+04  0.12500047928E+03 0.  0.
          2    1    1    2  501    0  0.13386114291E+03  0.83577107471E+02 -0.94014013880E+02  0.18369151663E+03  0.00000000000E+00 0. -1.
          1    1    1    2  502    0  0.15759631891E+02  0.20149699803E+02  0.11835485650E+04  0.11838249795E+04  0.00000000000E+00 0. -1.
         22    1    3    3    0    0  0.12572750021E+02  0.57972904695E+01  0.24810047655E+02  0.28411636428E+02  0.00000000000E+00 0.  1.
         22    1    3    3    0    0 -0.16219352483E+03 -0.10952409774E+03  0.13122047181E+04  0.13267190696E+04  0.00000000000E+00 0.  1.
</event>
<event>
 7    1  0.5931885E-006  0.1173276E+03  0.7818608E-02  0.1359809E+00
          2   -1    0    0  502    0  0.00000000000E+00  0.00000000000E+00  0.13663606359E+03  0.13663606359E+03  0.00000000000E+00 0. -1.
          1   -1    0    0  501    0 -0.00000000000E+00 -0.00000000000E+00 -0.15597571953E+04  0.15597571953E+04  0.00000000000E+00 0. -1.
         25    2    1    2    0    0  0.13361948982E+03 -0.35697718637E+02 -0.81308469223E+03  0.83418220377E+03  0.12499894865E+03 0.  0.
          2    1    1    2  501    0 -0.11023169209E+03  0.97680905882E+00 -0.72838347087E+03  0.73667798985E+03  0.00000000000E+00 0. -1.
          1    1    1    2  502    0 -0.23387797731E+02  0.34720909578E+02  0.11834703138E+03  0.12553306529E+03  0.00000000000E+00 0. -1.
         22    1    3    3    0    0  0.38333585561E+02 -0.64082618991E+02 -0.50395599077E+03  0.50945822839E+03  0.00000000000E+00 0.  1.
         22    1    3    3    0    0  0.95285904258E+02  0.28384900354E+02 -0.30912870146E+03  0.32472397538E+03  0.00000000000E+00 0.  1.
</event>
<event>
 7    1  0.5931885E-006  0.5275905E+02  0.7818608E-02  0.1466566E+00
          2   -1    0    0  502    0  0.00000000000E+00  0.00000000000E+00  0.32417004839E+02  0.32417004839E+02  0.00000000000E+00 0. -1.
          1   -1    0    0  501    0 -0.00000000000E+00 -0.00000000000E+00 -0.24779884031E+04  0.24779884031E+04  0.00000000000E+00 0. -1.
         25    2    1    2    0    0  0.18875976837E+00  0.39268529833E+02 -0.31357497716E+03  0.33984570016E+03  0.12499512209E+03 0.  0.
          2    1    1    2  501    0  0.40565444805E+02 -0.10430965110E+01 -0.21101892265E+04  0.21105793553E+04  0.00000000000E+00 0. -1.
          1    1    1    2  502    0 -0.40754204573E+02 -0.38225433322E+02 -0.21807194528E+02  0.59980352419E+02  0.00000000000E+00 0. -1.
         22    1    3    3    0    0  0.27765827916E+01  0.81824920482E+02 -0.15093389748E+03  0.17170925552E+03  0.00000000000E+00 0. -1.
         22    1    3    3    0    0 -0.25878230232E+01 -0.42556390648E+02 -0.16264107969E+03  0.16813644464E+03  0.00000000000E+00 0. -1.
</event>
<event>
 7    1  0.5931885E-006  0.5039512E+02  0.7818608E-02  0.1488987E+00
          2   -1    0    0  502    0  0.00000000000E+00  0.00000000000E+00  0.29731684803E+03  0.29731684803E+03  0.00000000000E+00 0. -1.
          1   -1    0    0  501    0 -0.00000000000E+00 -0.00000000000E+00 -0.40207219200E+03  0.40207219200E+03  0.00000000000E+00 0. -1.
         25    2    1    2    0    0 -0.46203601788E+02 -0.67552777548E+02 -0.21130135925E+03  0.25879238865E+03  0.12500834144E+03 0.  0.
          2    1    1    2  501    0  0.29946057976E+02  0.35161680423E+02 -0.16259453790E+03  0.16902690293E+03  0.00000000000E+00 0. -1.
          1    1    1    2  502    0  0.16257543812E+02  0.32391097125E+02  0.26914055319E+03  0.27156974845E+03  0.00000000000E+00 0. -1.
         22    1    3    3    0    0 -0.47372718349E+02 -0.93822081501E+02 -0.20699041162E+03  0.23214604869E+03  0.00000000000E+00 0.  1.
         22    1    3    3    0    0  0.11691165607E+01  0.26269303953E+02 -0.43109476337E+01  0.26646339959E+02  0.00000000000E+00 0.  1.
</event>
<event>
 7    1  0.5931885E-006  0.5640989E+02  0.7818608E-02  0.1518995E+00
          2   -1    0    0  502    0  0.00000000000E+00  0.00000000000E+00  0.64336442099E+03  0.64336442099E+03  0.00000000000E+00 0. -1.
          1   -1    0    0  501    0 -0.00000000000E+00 -0.00000000000E+00 -0.54086322743E+03  0.54086322743E+03  0.00000000000E+00 0. -1.
         25    2    1    2    0    0 -0.34544923098E+02 -0.15129245522E+02  0.23747703236E+03  0.27100353419E+03  0.12500131545E+03 0.  0.
          2    1    1    2  501    0 -0.24400340686E+02  0.10010846409E+02 -0.52151569708E+03  0.52218216742E+03  0.00000000000E+00 0. -1.
          1    1    1    2  502    0  0.58945263784E+02  0.51183991131E+01  0.38653985827E+03  0.39104194681E+03  0.00000000000E+00 0. -1.
         22    1    3    3    0    0 -0.50862277903E+02 -0.62039633270E+02  0.15976257323E+03  0.17877350815E+03  0.00000000000E+00 0. -1.
         22    1    3    3    0    0  0.16317354804E+02  0.46910387747E+02  0.77714459133E+02  0.92230026048E+02  0.00000000000E+00 0. -1.
</event>
<event>
 7    1  0.5931885E-006  0.4565827E+02  0.7818608E-02  0.1527948E+00
          2   -1    0    0  502    0  0.00000000000E+00  0.00000000000E+00  0.23674109583E+03  0.23674109583E+03  0.00000000000E+00 0. -1.
          1   -1    0    0  501    0 -0.00000000000E+00 -0.00000000000E+00 -0.20595464440E+04  0.20595464440E+04  0.00000000000E+00 0. -1.
         25    2    1    2    0    0 -0.47473917994E+02  0.91718907242E+01 -0.36921963728E+03  0.39279335130E+03  0.12500231918E+03 0.  0.
          2    1    1    2  501    0  0.67638911339E+01 -0.29945392508E+02 -0.16760765216E+04  0.16763576537E+04  0.00000000000E+00 0. -1.
          1    1    1    2  502    0  0.40710026860E+02  0.20773501784E+02  0.22249081066E+03  0.22713653491E+03  0.00000000000E+00 0. -1.
         22    1    3    3    0    0  0.19859715970E+02  0.47820325742E+02 -0.10010969934E+03  0.11270822408E+03  0.00000000000E+00 0. -1.
         22    1    3    3    0    0 -0.67333633964E+02 -0.38648435018E+02 -0.26910993794E+03  0.28008512722E+03  0.00000000000E+00 0. -1.
</event>
<event>
 7    1  0.5931885E-006  0.5283448E+02  0.7818608E-02  0.1488748E+00
          2   -1    0    0  502    0  0.00000000000E+00  0.00000000000E+00  0.94913439653E+03  0.94913439653E+03  0.00000000000E+00 0. -1.
          1   -1    0    0  501    0 -0.00000000000E+00 -0.00000000000E+00 -0.14735423984E+04  0.14735423984E+04  0.00000000000E+00 0. -1.
         25    2    1    2    0    0 -0.62778507931E+02  0.57229387185E+02  0.11008371115E+03  0.18696588237E+03  0.12498589478E+03 0.  0.
          2    1    1    2  501    0  0.44979646733E+02 -0.27527736251E+02 -0.14342421103E+04  0.14352112652E+04  0.00000000000E+00 0. -1.
          1    1    1    2  502    0  0.17798861198E+02 -0.29701650934E+02  0.79975039725E+03  0.80049964736E+03  0.00000000000E+00 0. -1.
         22    1    3    3    0    0 -0.60897206712E+02 -0.89878443321E+00 -0.17331029693E+01  0.60928492880E+02  0.00000000000E+00 0.  1.
         22    1    3    3    0    0 -0.18813012186E+01  0.58128171619E+02  0.11181681412E+03  0.12603738949E+03  0.00000000000E+00 0.  1.
</event>
<event>
 7    1  0.5931885E-006  0.2011049E+03  0.7818608E-02  0.1234025E+00
          2   -1    0    0  502    0  0.00000000000E+00  0.00000000000E+00  0.25839198081E+04  0.25839198081E+04  0.00000000000E+00 0. -1.
          1   -1    0    0  501    0 -0.00000000000E+00 -0.00000000000E+00 -0.82603373112E+02  0.82603373112E+02  0.00000000000E+00 0. -1.
         25    2    1    2    0    0  0.12372201185E+03  0.13019232010E+03  0.13844161370E+03  0.25890836343E+03  0.12494112140E+03 0.  0.
          2    1    1    2  501    0 -0.50719413030E+02  0.59956717024E+02  0.68476627480E+02  0.10419364321E+03  0.00000000000E+00 0. -1.
          1    1    1    2  502    0 -0.73002598824E+02 -0.19014903712E+03  0.22943981938E+04  0.23034211745E+04  0.00000000000E+00 0. -1.
         22    1    3    3    0    0  0.59112093357E+02 -0.12977980597E+02  0.26726644789E+02  0.66158756814E+02  0.00000000000E+00 0.  1.
         22    1    3    3    0    0  0.64609918497E+02  0.14317030070E+03  0.11171496891E+03  0.19274960661E+03  0.00000000000E+00 0.  1.
</event>
<event>
 7    1  0.5931885E-006  0.5316316E+02  0.7818608E-02  0.1502007E+00
          2   -1    0    0  502    0  0.00000000000E+00  0.00000000000E+00  0.91012833017E+03  0.91012833017E+03  0.00000000000E+00 0. -1.
          1   -1    0    0  501    0 -0.00000000000E+00 -0.00000000000E+00 -0.12390750784E+03  0.12390750784E+03  0.00000000000E+00 0. -1.
         25    2    1    2    0    0  0.74094688067E+02 -0.36900822925E+02  0.54435714238E+03  0.56462503758E+03  0.12500016428E+03 0.  0.
          2    1    1    2  501    0 -0.50183271387E+02  0.16552815041E+02 -0.10689429184E+03  0.11924238357E+03  0.00000000000E+00 0. -1.
          1    1    1    2  502    0 -0.23911416679E+02  0.20348007884E+02  0.34875797179E+03  0.35016841685E+03  0.00000000000E+00 0. -1.
         22    1    3    3    0    0  0.11919863680E+02 -0.73960857380E+02  0.32928915365E+03  0.33770347686E+03  0.00000000000E+00 0. -1.
         22    1    3    3    0    0  0.62174824387E+02  0.37060034455E+02  0.21506798873E+03  0.22692156071E+03  0.00000000000E+00 0. -1.
</event>
<event>
 7    1  0.5931885E-006  0.9765756E+02  0.7818608E-02  0.1302876E+00
          2   -1    0    0  502    0  0.00000000000E+00  0.00000000000E+00  0.91622148601E+03  0.91622148601E+03  0.00000000000E+00 0. -1.
          1   -1    0    0  501    0 -0.00000000000E+00 -0.00000000000E+00 -0.57250657825E+03  0.57250657825E+03  0.00000000000E+00 0. -1.
         25    2    1    2    0    0  0.11181598589E+03  0.25058843069E+02 -0.27419938565E+03  0.32239928246E+03  0.12500093569E+03 0.  0.
          2    1    1    2  501    0 -0.54029146893E+02 -0.84532625802E+02 -0.26301807619E+03  0.28150208159E+03  0.00000000000E+00 0. -1.
          1    1    1    2  502    0 -0.57786838997E+02  0.59473782732E+02  0.88093236960E+03  0.88482670021E+03  0.00000000000E+00 0. -1.
         22    1    3    3    0    0 -0.18995668959E+01  0.16501697608E+02 -0.16052723313E+03  0.16138434544E+03  0.00000000000E+00 0. -1.
         22    1    3    3    0    0  0.11371555279E+03  0.85571454614E+01 -0.11367215252E+03  0.16101493702E+03  0.00000000000E+00 0. -1.
</event>
<event>
 7    1  0.5931885E-006  0.7400509E+02  0.7818608E-02  0.1416337E+00
          2   -1    0    0  502    0  0.00000000000E+00  0.00000000000E+00  0.12944597043E+04  0.12944597043E+04  0.00000000000E+00 0. -1.
          1   -1    0    0  501    0 -0.00000000000E+00 -0.00000000000E+00 -0.51835524741E+03  0.51835524741E+03  0.00000000000E+00 0. -1.
         25    2    1    2    0    0 -0.95925832804E+02  0.24683522106E+02  0.19466898179E+03  0.25165786442E+03  0.12499850635E+03 0.  0.
          2    1    1    2  501    0  0.37391423822E+02  0.19300001450E+02 -0.48770278907E+03  0.48951467711E+03  0.00000000000E+00 0. -1.
          1    1    1    2  502    0  0.58534408982E+02 -0.43983523556E+02  0.10691382642E+04  0.10716424102E+04  0.00000000000E+00 0. -1.
         22    1    3    3    0    0 -0.22235798943E+02  0.66109788798E+02  0.56871282922E+02  0.89995987415E+02  0.00000000000E+00 0. -1.
         22    1    3    3    0    0 -0.73690033861E+02 -0.41426266693E+02  0.13779769887E+03  0.16166187701E+03  0.00000000000E+00 0. -1.
</event>
<event>
 7    1  0.5931885E-006  0.1345112E+03  0.7818608E-02  0.1416413E+00
          2   -1    0    0  502    0  0.00000000000E+00  0.00000000000E+00  0.97868133009E+03  0.97868133009E+03  0.00000000000E+00 0. -1.
          1   -1    0    0  501    0 -0.00000000000E+00 -0.00000000000E+00 -0.12134102725E+03  0.12134102725E+03  0.00000000000E+00 0. -1.
         25    2    1    2    0    0  0.91177062077E+02  0.83773254563E+02  0.21633738923E+03  0.27885039396E+03  0.12499784561E+03 0.  0.
          2    1    1    2  501    0 -0.86309957184E+02 -0.10639265220E+03 -0.37686506982E+02  0.14208827524E+03  0.00000000000E+00 0. -1.
          1    1    1    2  502    0 -0.48671048927E+01  0.22619397637E+02  0.67868942060E+03  0.67908368814E+03  0.00000000000E+00 0. -1.
         22    1    3    3    0    0  0.65498722901E+02 -0.17536567238E+02  0.11359530322E+03  0.13229326062E+03  0.00000000000E+00 0.  1.
         22    1    3    3    0    0  0.25678339176E+02  0.10130982180E+03  0.10274208601E+03  0.14655713334E+03  0.00000000000E+00 0.  1.
</event>
<event>
 7    1  0.5931885E-006  0.8314051E+02  0.7818608E-02  0.1336258E+00
          2   -1    0    0  502    0  0.00000000000E+00  0.00000000000E+00  0.27213601342E+04  0.27213601342E+04  0.00000000000E+00 0. -1.
          1   -1    0    0  501    0 -0.00000000000E+00 -0.00000000000E+00 -0.73064862691E+03  0.73064862691E+03  0.00000000000E+00 0. -1.
         25    2    1    2    0    0 -0.17224373972E+02  0.69151186580E+01  0.41395391824E+03  0.43280861558E+03  0.12498381244E+03 0.  0.
          2    1    1    2  501    0 -0.71967161537E+02 -0.65923298033E+01 -0.71854258088E+03  0.72216768945E+03  0.00000000000E+00 0. -1.
          1    1    1    2  502    0  0.89191535509E+02 -0.32278885466E+00  0.22953001699E+04  0.22970324561E+04  0.00000000000E+00 0. -1.
         22    1    3    3    0    0  0.17535039400E+02 -0.60144279275E+01  0.38580343839E+03  0.38624855213E+03  0.00000000000E+00 0.  1.
         22    1    3    3    0    0 -0.34759413373E+02  0.12929546585E+02  0.28150479851E+02  0.46560063453E+02  0.00000000000E+00 0.  1.
</event>
<event>
 7    1  0.5931885E-006  0.1759368E+03  0.7818608E-02  0.1348324E+00
          2   -1    0    0  502    0  0.00000000000E+00  0.00000000000E+00  0.43620402523E+03  0.43620402523E+03  0.00000000000E+00 0. -1.
          1   -1    0    0  501    0 -0.00000000000E+00 -0.00000000000E+00 -0.12368743972E+04  0.12368743972E+04  0.00000000000E+00 0. -1.
         25    2    1    2    0    0 -0.17338979034E+03 -0.64227236462E+02 -0.65300587519E+03  0.69009402912E+03  0.12499575475E+03 0.  0.
          2    1    1    2  501    0  0.84994785292E+00  0.30761252198E+02 -0.54638240338E+03  0.54724830540E+03  0.00000000000E+00 0. -1.
          1    1    1    2  502    0  0.17253984248E+03  0.33465984264E+02  0.39871790654E+03  0.43573608795E+03  0.00000000000E+00 0. -1.
         22    1    3    3    0    0 -0.72056820329E+02 -0.74966981468E+02 -0.19609720388E+03  0.22196023751E+03  0.00000000000E+00 0.  1.
         22    1    3    3    0    0 -0.10133297001E+03  0.10739745006E+02 -0.45690867131E+03  0.46813379161E+03  0.00000000000E+00 0.  1.
</event>
<event>
 7    1  0.5931885E-006  0.7622795E+02  0.7818608E-02  0.1375637E+00
          2   -1    0    0  502    0  0.00000000000E+00  0.00000000000E+00  0.44245462640E+04  0.44245462640E+04  0.00000000000E+00 0. -1.
          1   -1    0    0  501    0 -0.00000000000E+00 -0.00000000000E+00 -0.37636261805E+03  0.37636261805E+03  0.00000000000E+00 0. -1.
         25    2    1    2    0    0 -0.64472973245E+02  0.19693329584E+02 -0.22690082708E+02  0.14381947284E+03  0.12499843761E+03 0.  0.
          2    1    1    2  501    0  0.29511499020E+02  0.48175914050E+02 -0.29004820736E+03  0.29549925526E+03  0.00000000000E+00 0. -1.
          1    1    1    2  502    0  0.34961474225E+02 -0.67869243634E+02  0.43609219361E+04  0.43615901540E+04  0.00000000000E+00 0. -1.
         22    1    3    3    0    0 -0.21880710463E+02 -0.50972729998E+02 -0.25961532959E+02  0.61245292777E+02  0.00000000000E+00 0. -1.
         22    1    3    3    0    0 -0.42592262782E+02  0.70666059581E+02  0.32714502508E+01  0.82574180059E+02  0.00000000000E+00 0. -1.
</event>
<event>
 7    1  0.5931885E-006  0.8518827E+02  0.7818608E-02  0.1369917E+00
          2   -1    0    0  502    0  0.00000000000E+00  0.00000000000E+00  0.39989061310E+03  0.39989061310E+03  0.00000000000E+00 0. -1.
          1   -1    0    0  501    0 -0.00000000000E+00 -0.00000000000E+00 -0.18874576375E+04  0.18874576375E+04  0.00000000000E+00 0. -1.
         25    2    1    2    0    0 -0.20375441383E+02  0.13439256683E+03 -0.56762426516E+03  0.59690834362E+03  0.12500297460E+03 0.  0.
          2    1    1    2  501    0 -0.30628061054E+01 -0.52906238190E+02 -0.12999795031E+04  0.13010592451E+04  0.00000000000E+00 0. -1.
          1    1    1    2  502    0  0.23438247488E+02 -0.81486328637E+02  0.38003674382E+03  0.38938066189E+03  0.00000000000E+00 0. -1.
         22    1    3    3    0    0  0.50770317140E+02  0.36929654186E+02 -0.16291935820E+03  0.17459708399E+03  0.00000000000E+00 0.  1.
         22    1    3    3    0    0 -0.71145758523E+02  0.97462912640E+02 -0.40470490697E+03  0.42231125964E+03  0.00000000000E+00 0.  1.
</event>
<event>
 7    1  0.5931885E-006  0.8129591E+02  0.7818608E-02  0.1326939E+00
          2   -1    0    0  502    0  0.00000000000E+00  0.00000000000E+00  0.50233352468E+03  0.50233352468E+03  0.00000000000E+00 0. -1.
          1   -1    0    0  501    0 -0.00000000000E+00 -0.00000000000E+00 -0.24490768316E+04  0.24490768316E+04  0.00000000000E+00 0. -1.
         25    2    1    2    0    0 -0.99961889271E+02  0.82959911112E+01 -0.26306747476E+03  0.30804456200E+03  0.12500301246E+03 0.  0.
          2    1    1    2  501    0  0.46065235428E+02 -0.67693883879E+02 -0.21593878817E+04  0.21609397242E+04  0.00000000000E+00 0. -1.
          1    1    1    2  502    0  0.53896653843E+02  0.59397892768E+02  0.47571204959E+03  0.48242607008E+03  0.00000000000E+00 0. -1.
         22    1    3    3    0    0 -0.84220449998E+02  0.88597676773E+01 -0.58627902934E+02  0.10299908098E+03  0.00000000000E+00 0.  1.
         22    1    3    3    0    0 -0.15741439273E+02 -0.56377656612E+00 -0.20443957183E+03  0.20504548101E+03  0.00000000000E+00 0.  1.
</event>
<event>
 7    1  0.5931885E-006  0.7691947E+02  0.7818608E-02  0.1381960E+00
          2   -1    0    0  502    0  0.00000000000E+00  0.00000000000E+00  0.17632688778E+04  0.17632688778E+04  0.00000000000E+00 0. -1.
          1   -1    0    0  501    0 -0.00000000000E+00 -0.00000000000E+00 -0.13387593715E+04  0.13387593715E+04  0.00000000000E+00 0. -1.
         25    2    1    2    0    0  0.10230645234E+03 -0.48322344551E+02  0.26838047602E+03  0.31694659457E+03  0.12500161888E+03 0.  0.
          2    1    1    2  501    0 -0.50072967102E+02  0.58255412787E+02 -0.13128726402E+04  0.13151180801E+04  0.00000000000E+00 0. -1.
          1    1    1    2  502    0 -0.52233485242E+02 -0.99330682361E+01  0.14690016705E+04  0.14699635747E+04  0.00000000000E+00 0. -1.
         22    1    3    3    0    0  0.98186490419E+01 -0.59125956731E+02  0.45041612014E+02  0.74973538273E+02  0.00000000000E+00 0. -1.
         22    1    3    3    0    0  0.92487803302E+02  0.10803612180E+02  0.22333886401E+03  0.24197305629E+03  0.00000000000E+00 0. -1.
</event>
<event>
 7    1  0.5931885E-006  0.1037661E+03  0.7818608E-02  0.1293314E+00
          2   -1    0    0  502    0  0.00000000000E+00  0.00000000000E+00  0.25604487242E+04  0.25604487242E+04  0.00000000000E+00 0. -1.
          1   -1    0    0  501    0 -0.00000000000E+00 -0.00000000000E+00 -0.13271679437E+04  0.13271679437E+04  0.00000000000E+00 0. -1.
         25    2    1    2    0    0  0.27849422277E+02  0.10432515760E+02  0.24126994879E+03  0.27335080162E+03  0.12500017942E+03 0.  0.
          2    1    1    2  501    0 -0.96305070211E+02  0.40385218730E+02 -0.13082571222E+04  0.13124185042E+04  0.00000000000E+00 0. -1.
          1    1    1    2  502    0  0.68455647934E+02 -0.50817734491E+02  0.23002679540E+04  0.23018473620E+04  0.00000000000E+00 0. -1.
         22    1    3    3    0    0  0.14525696563E+02 -0.55819697523E+02  0.81203382683E+02  0.99603332532E+02  0.00000000000E+00 0. -1.
         22    1    3    3    0    0  0.13323725714E+02  0.66252213283E+02  0.16006656610E+03  0.17374746909E+03  0.00000000000E+00 0. -1.
</event>
<event>
 7    1  0.5931885E-006  0.6878452E+02  0.7818608E-02  0.1366709E+00
          2   -1    0    0  502    0  0.00000000000E+00  0.00000000000E+00  0.20626792512E+04  0.20626792512E+04  0.00000000000E+00 0. -1.
          1   -1    0    0  501    0 -0.00000000000E+00 -0.00000000000E+00 -0.18116730552E+04  0.18116730552E+04  0.00000000000E+00 0. -1.
         25    2    1    2    0    0 -0.83282151884E+00 -0.15728834537E+02  0.39836761105E+03  0.41781560135E+03  0.12500013347E+03 0.  0.
          2    1    1    2  501    0 -0.68602633723E+02 -0.49988982767E+01 -0.18004986519E+04  0.18018120617E+04  0.00000000000E+00 0. -1.
          1    1    1    2  502    0  0.69435455242E+02  0.20727732814E+02  0.16531372368E+04  0.16547246433E+04  0.00000000000E+00 0. -1.
         22    1    3    3    0    0  0.21981814625E+02  0.24188910428E+02  0.34833718180E+03  0.34986725452E+03  0.00000000000E+00 0.  1.
         22    1    3    3    0    0 -0.22814636144E+02 -0.39917744965E+02  0.50030429257E+02  0.67948346831E+02  0.00000000000E+00 0.  1.
</event>
<event>
 7    1  0.5931885E-006  0.2079691E+03  0.7818608E-02  0.1207849E+00
          2   -1    0    0  502    0  0.00000000000E+00  0.00000000000E+00  0.15774257380E+04  0.15774257380E+04  0.00000000000E+00 0. -1.
          1   -1    0    0  501    0 -0.00000000000E+00 -0.00000000000E+00 -0.92324357058E+03  0.92324357058E+03  0.00000000000E+00 0. -1.
         25    2    1    2    0    0  0.10852267217E+02 -0.14365286042E+03  0.37125270180E+03  0.41738240273E+03  0.12500234200E+03 0.  0.
          2    1    1    2  501    0 -0.12759985259E+02 -0.99098975025E+02 -0.88488463404E+03  0.89050785490E+03  0.00000000000E+00 0. -1.
          1    1    1    2  502    0  0.19077180418E+01  0.24275183544E+03  0.11678140996E+04  0.11927790509E+04  0.00000000000E+00 0. -1.
         22    1    3    3    0    0 -0.49444654956E+02 -0.55354611339E+02  0.21977632178E+03  0.23197098637E+03  0.00000000000E+00 0.  1.
         22    1    3    3    0    0  0.60296922174E+02 -0.88298249080E+02  0.15147638002E+03  0.18541141636E+03  0.00000000000E+00 0.  1.
</event>
<event>
 7    1  0.5931885E-006  0.5458326E+02  0.7818608E-02  0.1484140E+00
          2   -1    0    0  502    0  0.00000000000E+00  0.00000000000E+00  0.18905143740E+04  0.18905143740E+04  0.00000000000E+00 0. -1.
          1   -1    0    0  501    0 -0.00000000000E+00 -0.00000000000E+00 -0.26956016202E+03  0.26956016202E+03  0.00000000000E+00 0. -1.
         25    2    1    2    0    0 -0.34376461837E+01  0.76609044675E+02  0.31683031053E+03  0.34912196150E+03  0.12499574070E+03 0.  0.
          2    1    1    2  501    0 -0.19617440072E+02 -0.50788063782E+02 -0.25029508402E+03  0.25614820019E+03  0.00000000000E+00 0. -1.
          1    1    1    2  502    0  0.23055086255E+02 -0.25820980893E+02  0.15544189854E+04  0.15548043743E+04  0.00000000000E+00 0. -1.
         22    1    3    3    0    0  0.47925622249E+02  0.26808573619E+02  0.55107252276E+02  0.77797005989E+02  0.00000000000E+00 0. -1.
         22    1    3    3    0    0 -0.51363268433E+02  0.49800471056E+02  0.26172305826E+03  0.27132495551E+03  0.00000000000E+00 0. -1.
</event>
<event>
 7    1  0.5931885E-006  0.8401992E+02  0.7818608E-02  0.1381427E+00
          2   -1    0    0  502    0  0.00000000000E+00  0.00000000000E+00  0.13147168141E+04  0.13147168141E+04  0.00000000000E+00 0. -1.
          1   -1    0    0  501    0 -0.00000000000E+00 -0.00000000000E+00 -0.22252908607E+03  0.22252908607E+03  0.00000000000E+00 0. -1.
         25    2    1    2    0    0 -0.10230518178E+03 -0.48192334804E+02 -0.75110605317E+01  0.16873326770E+03  0.12500259296E+03 0.  0.
          2    1    1    2  501    0  0.54696876693E+02  0.59304663780E+02 -0.12176723612E+03  0.14606865255E+03  0.00000000000E+00 0. -1.
          1    1    1    2  502    0  0.47608305089E+02 -0.11112328976E+02  0.12214660247E+04  0.12224439799E+04  0.00000000000E+00 0. -1.
         22    1    3    3    0    0 -0.65274880423E+02 -0.52200811465E+02  0.52066012725E+02  0.98471338027E+02  0.00000000000E+00 0.  1.
         22    1    3    3    0    0 -0.37030301359E+02  0.40084766611E+01 -0.59577073256E+02  0.70261929675E+02  0.00000000000E+00 0.  1.
</event>
<event>
 7    1  0.5931885E-006  0.6626603E+02  0.7818608E-02  0.1432641E+00
          2   -1    0    0  502    0  0.00000000000E+00  0.00000000000E+00  0.13283166290E+04  0.13283166290E+04  0.00000000000E+00 0. -1.
          1   -1    0    0  501    0 -0.00000000000E+00 -0.00000000000E+00 -0.26078904834E+03  0.26078904834E+03  0.00000000000E+00 0. -1.
         25    2    1    2    0    0 -0.41989202235E+02 -0.63494063360E+02  0.76543349054E+01  0.14655423572E+03  0.12499986391E+03 0.  0.
          2    1    1    2  501    0  0.41394091688E+02 -0.27976173605E+01 -0.18819997038E+03  0.19271877526E+03  0.00000000000E+00 0. -1.
          1    1    1    2  502    0  0.59511054676E+00  0.66291680720E+02  0.12480732161E+04  0.12498326663E+04  0.00000000000E+00 0. -1.
         22    1    3    3    0    0 -0.11532642481E+02 -0.96151363836E+02  0.22639417079E+02  0.99451645616E+02  0.00000000000E+00 0. -1.
         22    1    3    3    0    0 -0.30456559755E+02  0.32657300476E+02 -0.14985082173E+02  0.47102590101E+02  0.00000000000E+00 0. -1.
</event>
<event>
 7    1  0.5931885E-006  0.3202606E+02  0.7818608E-02  0.1578938E+00
          2   -1    0    0  502    0  0.00000000000E+00  0.00000000000E+00  0.14041388260E+04  0.14041388260E+04  0.00000000000E+00 0. -1.
          1   -1    0    0  501    0 -0.00000000000E+00 -0.00000000000E+00 -0.12211411554E+04  0.12211411554E+04  0.00000000000E+00 0. -1.
         25    2    1    2    0    0 -0.34990556418E+02  0.15796807504E+02  0.22236111349E+02  0.13263771313E+03  0.12499776051E+03 0.  0.
          2    1    1    2  501    0  0.27584664048E+02  0.15391933954E+02 -0.11655326996E+04  0.11659606765E+04  0.00000000000E+00 0. -1.
          1    1    1    2  502    0  0.74058923699E+01 -0.31188741458E+02  0.13262942588E+04  0.13266815917E+04  0.00000000000E+00 0. -1.
         22    1    3    3    0    0  0.46755015830E+02  0.98739167130E+01  0.27670464813E+00  0.47787051615E+02  0.00000000000E+00 0. -1.
         22    1    3    3    0    0 -0.81745572249E+02  0.59228907914E+01  0.21959406701E+02  0.84850661519E+02  0.00000000000E+00 0. -1.
</event>
<event>
 7    1  0.5931885E-006  0.1041691E+03  0.7818608E-02  0.1372614E+00
          2   -1    0    0  502    0  0.00000000000E+00  0.00000000000E+00  0.23737230481E+03  0.23737230481E+03  0.00000000000E+00 0. -1.
          1   -1    0    0  501    0 -0.00000000000E+00 -0.00000000000E+00 -0.20141871638E+03  0.20141871638E+03  0.00000000000E+00 0. -1.
         25    2    1    2    0    0  0.11069330932E+03  0.98585270625E+01  0.51812247557E+02  0.17510136892E+03  0.12500312443E+03 0.  0.
          2    1    1    2  501    0 -0.18577676243E+02  0.38095106208E+02 -0.11349428346E+03  0.12114998783E+03  0.00000000000E+00 0. -1.
          1    1    1    2  502    0 -0.92115633077E+02 -0.47953633270E+02  0.97635624334E+02  0.14253966445E+03  0.00000000000E+00 0. -1.
         22    1    3    3    0    0  0.14467168945E+02  0.45698287928E+02  0.54244841893E+02  0.72388779302E+02  0.00000000000E+00 0. -1.
         22    1    3    3    0    0  0.96226140375E+02 -0.35839760866E+02 -0.24325943360E+01  0.10271258962E+03  0.00000000000E+00 0. -1.
</event>
<event>
 7    1  0.5931885E-006  0.6154087E+02  0.7818608E-02  0.1482814E+00
          2   -1    0    0  502    0  0.00000000000E+00  0.00000000000E+00  0.82921232703E+03  0.82921232703E+03  0.00000000000E+00 0. -1.
          1   -1    0    0  501    0 -0.00000000000E+00 -0.00000000000E+00 -0.24968476078E+04  0.24968476078E+04  0.00000000000E+00 0. -1.
         25    2    1    2    0    0  0.17819845675E+02  0.25460136209E+02 -0.16552854750E+02  0.12986645605E+03  0.12500213587E+03 0.  0.
          2    1    1    2  501    0 -0.30164423246E+02 -0.53885077560E+02 -0.24229336032E+04  0.24237204335E+04  0.00000000000E+00 0. -1.
          1    1    1    2  502    0  0.12344577571E+02  0.28424941351E+02  0.77185117723E+03  0.77247304528E+03  0.00000000000E+00 0. -1.
         22    1    3    3    0    0 -0.26283298853E+02  0.31469461994E+02  0.40414920340E+02  0.57571734583E+02  0.00000000000E+00 0.  1.
         22    1    3    3    0    0  0.44103144528E+02 -0.60093257850E+01 -0.56967775091E+02  0.72294721470E+02  0.00000000000E+00 0.  1.
</event>
<event>
 7    1  0.5931885E-006  0.1255725E+03  0.7818608E-02  0.1289403E+00
          2   -1    0    0  502    0  0.00000000000E+00  0.00000000000E+00  0.83864530243E+03  0.83864530243E+03  0.00000000000E+00 0. -1.
          1   -1    0    0  501    0 -0.00000000000E+00 -0.00000000000E+00 -0.63733493538E+03  0.63733493538E+03  0.00000000000E+00 0. -1.
         25    2    1    2    0    0 -0.91277478978E+02 -0.16245168738E+03  0.10481923132E+03  0.24765639148E+03  0.12499795232E+03 0.  0.
          2    1    1    2  501    0  0.56441560189E+02  0.46412646923E+02 -0.55797417621E+03  0.56273880693E+03  0.00000000000E+00 0. -1.
          1    1    1    2  502    0  0.34835918789E+02  0.11603904045E+03  0.65446531193E+03  0.66558503940E+03  0.00000000000E+00 0. -1.
         22    1    3    3    0    0 -0.10157973423E+03 -0.11575387202E+03  0.12238483575E+03  0.19671158918E+03  0.00000000000E+00 0.  1.
         22    1    3    3    0    0  0.10302255256E+02 -0.46697815357E+02 -0.17565604429E+02  0.50944802300E+02  0.00000000000E+00 0.  1.
</event>
<event>
 7    1  0.5931885E-006  0.3992278E+02  0.7818608E-02  0.1555198E+00
          2   -1    0    0  502    0  0.00000000000E+00  0.00000000000E+00  0.26432499173E+02  0.26432499173E+02  0.00000000000E+00 0. -1.
          1   -1    0    0  501    0 -0.00000000000E+00 -0.00000000000E+00 -0.66919898995E+03  0.66919898995E+03  0.00000000000E+00 0. -1.
         25    2    1    2    0    0  0.32271657845E+02 -0.29079104902E+02 -0.38323213361E+03  0.40543683557E+03  0.12500042065E+03 0.  0.
          2    1    1    2  501    0  0.81011614545E+01  0.28276755559E+02 -0.24578266771E+03  0.24753650937E+03  0.00000000000E+00 0. -1.
          1    1    1    2  502    0 -0.40372819299E+02  0.80234934339E+00 -0.13751689453E+02  0.42658144187E+02  0.00000000000E+00 0. -1.
         22    1    3    3    0    0 -0.27068880689E+01  0.27545127535E+01 -0.34390494330E+03  0.34392662679E+03  0.00000000000E+00 0.  1.
         22    1    3    3    0    0  0.34978545914E+02 -0.31833617655E+02 -0.39327190310E+02  0.61510208786E+02  0.00000000000E+00 0.  1.
</event>
<event>
 7    1  0.5931885E-006  0.1177723E+03  0.7818608E-02  0.1260372E+00
          2   -1    0    0  502    0  0.00000000000E+00  0.00000000000E+00  0.24110910291E+03  0.24110910291E+03  0.00000000000E+00 0. -1.
          1   -1    0    0  501    0 -0.00000000000E+00 -0.00000000000E+00 -0.20236290589E+04  0.20236290589E+04  0.00000000000E+00 0. -1.
         25    2    1    2    0    0 -0.77091082045E+02  0.19497646029E+03 -0.69100190698E+02  0.25369146422E+03  0.12500267064E+03 0.  0.
          2    1    1    2  501    0  0.35841655323E+02 -0.96499783205E+02 -0.18414588144E+04  0.18443338629E+04  0.00000000000E+00 0. -1.
          1    1    1    2  502    0  0.41249426722E+02 -0.98476677088E+02  0.12803904918E+03  0.16671283469E+03  0.00000000000E+00 0. -1.
         22    1    3    3    0    0 -0.10106666845E+03  0.11336962126E+03 -0.73072278658E+02  0.16854287408E+03  0.00000000000E+00 0.  1.
         22    1    3    3    0    0  0.23975586401E+02  0.81606839038E+02  0.39720879596E+01  0.85148590146E+02  0.00000000000E+00 0.  1.
</event>
<event>
 7    1  0.5931885E-006  0.1082451E+03  0.7818608E-02  0.1392117E+00
          2   -1    0    0  502    0  0.00000000000E+00  0.00000000000E+00  0.60080921651E+03  0.60080921651E+03  0.00000000000E+00 0. -1.
          1   -1    0    0  501    0 -0.00000000000E+00 -0.00000000000E+00 -0.72748895998E+02  0.72748895998E+02  0.00000000000E+00 0. -1.
         25    2    1    2    0    0 -0.52720729240E+02 -0.80506399836E+02  0.34715863279E+03  0.38131901725E+03  0.12499728352E+03 0.  0.
          2    1    1    2  501    0  0.85879260519E+02  0.69915543024E+02  0.28084323579E+01  0.11077598041E+03  0.00000000000E+00 0. -1.
          1    1    1    2  502    0 -0.33158531280E+02  0.10590856812E+02  0.17809325537E+03  0.18146311485E+03  0.00000000000E+00 0. -1.
         22    1    3    3    0    0 -0.19714978490E+02 -0.23098051762E+02  0.26269146822E+01  0.30481158980E+02  0.00000000000E+00 0. -1.
         22    1    3    3    0    0 -0.33005750750E+02 -0.57408348074E+02  0.34453171811E+03  0.35083785827E+03  0.00000000000E+00 0. -1.
</event>
<event>
 7    1  0.5931885E-006  0.1243857E+03  0.7818608E-02  0.1314969E+00
          2   -1    0    0  502    0  0.00000000000E+00  0.00000000000E+00  0.21622862465E+04  0.21622862465E+04  0.00000000000E+00 0. -1.
          1   -1    0    0  501    0 -0.00000000000E+00 -0.00000000000E+00 -0.78607779880E+02  0.78607779880E+02  0.00000000000E+00 0. -1.
         25    2    1    2    0    0 -0.14596232266E+03  0.58382298543E+02  0.10470811802E+04  0.10661697529E+04  0.12500180717E+03 0.  0.
          2    1    1    2  501    0  0.12301811853E+03 -0.47562686541E+01 -0.12739684547E+02  0.12376743975E+03  0.00000000000E+00 0. -1.
          1    1    1    2  502    0  0.22944204122E+02 -0.53626029888E+02  0.10493369710E+04  0.10509568337E+04  0.00000000000E+00 0. -1.
         22    1    3    3    0    0 -0.84737940931E+02  0.96727626464E+02  0.67529697131E+03  0.68743199795E+03  0.00000000000E+00 0. -1.
         22    1    3    3    0    0 -0.61224381726E+02 -0.38345327921E+02  0.37178420886E+03  0.37873775498E+03  0.00000000000E+00 0. -1.
</event>
<event>
 7    1  0.5931885E-006  0.1670627E+03  0.7818608E-02  0.1253286E+00
          2   -1    0    0  502    0  0.00000000000E+00  0.00000000000E+00  0.56591676592E+03  0.56591676592E+03  0.00000000000E+00 0. -1.
          1   -1    0    0  501    0 -0.00000000000E+00 -0.00000000000E+00 -0.88699165154E+03  0.88699165154E+03  0.00000000000E+00 0. -1.
         25    2    1    2    0    0 -0.42923610941E+01  0.10119055808E+03  0.72108718835E+02  0.17626930637E+03  0.12495298167E+03 0.  0.
          2    1    1    2  501    0  0.49103906240E+02 -0.16482655819E+03 -0.82251834753E+03  0.84030674156E+03  0.00000000000E+00 0. -1.
          1    1    1    2  502    0 -0.44811545146E+02  0.63636000114E+02  0.42933474307E+03  0.43633236953E+03  0.00000000000E+00 0. -1.
         22    1    3    3    0    0 -0.23516937306E+02  0.39447844719E+02  0.96726385774E+02  0.10707554575E+03  0.00000000000E+00 0. -1.
         22    1    3    3    0    0  0.19224576212E+02  0.61742713356E+02 -0.24617666939E+02  0.69193760619E+02  0.00000000000E+00 0. -1.
</event>
<event>
 7    1  0.5931885E-006  0.1079869E+03  0.7818608E-02  0.1307393E+00
          2   -1    0    0  502    0  0.00000000000E+00  0.00000000000E+00  0.91325643868E+03  0.91325643868E+03  0.00000000000E+00 0. -1.
          1   -1    0    0  501    0 -0.00000000000E+00 -0.00000000000E+00 -0.60892683995E+03  0.60892683995E+03  0.00000000000E+00 0. -1.
         25    2    1    2    0    0 -0.16470435678E+03  0.52137690150E+02 -0.98328099684E+02  0.23480913063E+03  0.12498419405E+03 0.  0.
          2    1    1    2  501    0  0.93485088558E+02 -0.41850637979E+02 -0.43486570239E+03  0.44676516963E+03  0.00000000000E+00 0. -1.
          1    1    1    2  502    0  0.71219268219E+02 -0.10287052171E+02  0.83752340080E+03  0.84060897836E+03  0.00000000000E+00 0. -1.
         22    1    3    3    0    0 -0.11518045976E+03  0.59948691615E+02 -0.62879541845E+01  0.12999970117E+03  0.00000000000E+00 0.  1.
         22    1    3    3    0    0 -0.49523897019E+02 -0.78110014647E+01 -0.92040145500E+02  0.10480942946E+03  0.00000000000E+00 0.  1.
</event>
<event>
 7    1  0.5931885E-006  0.1416171E+03  0.7818608E-02  0.1258582E+00
          2   -1    0    0  502    0  0.00000000000E+00  0.00000000000E+00  0.22010504823E+04  0.22010504823E+04  0.00000000000E+00 0. -1.
          1   -1    0    0  501    0 -0.00000000000E+00 -0.00000000000E+00 -0.38206717367E+03  0.38206717367E+03  0.00000000000E+00 0. -1.
         25    2    1    2    0    0  0.19078107531E+03 -0.10324465463E+03  0.54911489933E+02  0.25631603560E+03  0.12500304386E+03 0.  0.
          2    1    1    2  501    0 -0.10636906038E+03  0.81659964453E+02 -0.26439833796E+03  0.29646114065E+03  0.00000000000E+00 0. -1.
          1    1    1    2  502    0 -0.84412014925E+02  0.21584690177E+02  0.20284701566E+04  0.20303404797E+04  0.00000000000E+00 0. -1.
         22    1    3    3    0    0  0.97033405499E+02 -0.74080014946E+02 -0.30891243924E+02  0.12592696037E+03  0.00000000000E+00 0.  1.
         22    1    3    3    0    0  0.93747669809E+02 -0.29164639683E+02  0.85802733857E+02  0.13038907523E+03  0.00000000000E+00 0.  1.
</event>
<event>
 7    1  0.5931885E-006  0.1518741E+03  0.7818608E-02  0.1281042E+00
          2   -1    0    0  502    0  0.00000000000E+00  0.00000000000E+00  0.41776344331E+03  0.41776344331E+03  0.00000000000E+00 0. -1.
          1   -1    0    0  501    0 -0.00000000000E+00 -0.00000000000E+00 -0.18809437907E+04  0.18809437907E+04  0.00000000000E+00 0. -1.
         25    2    1    2    0    0 -0.13712322767E+03 -0.99193771170E+02 -0.31170526841E+03  0.37606804682E+03  0.12499927071E+03 0.  0.
          2    1    1    2  501    0  0.57991618236E+02 -0.30187961313E+02 -0.15214144350E+04  0.15228185131E+04  0.00000000000E+00 0. -1.
          1    1    1    2  502    0  0.79131609431E+02  0.12938173248E+03  0.36993935602E+03  0.39982067411E+03  0.00000000000E+00 0. -1.
         22    1    3    3    0    0 -0.56081351665E+02 -0.25193393988E+02 -0.20400327138E+02  0.64776527019E+02  0.00000000000E+00 0.  1.
         22    1    3    3    0    0 -0.81041876001E+02 -0.74000377182E+02 -0.29130494127E+03  0.31129151980E+03  0.00000000000E+00 0.  1.
</event>
<event>
 7    1  0.5931885E-006  0.6363956E+02  0.7818608E-02  0.1497577E+00
          2   -1    0    0  502    0  0.00000000000E+00  0.00000000000E+00  0.16271997797E+04  0.16271997797E+04  0.00000000000E+00 0. -1.
          1   -1    0    0  501    0 -0.00000000000E+00 -0.00000000000E+00 -0.14750357980E+03  0.14750357980E+03  0.00000000000E+00 0. -1.
         25    2    1    2    0    0  0.70147865316E+02  0.56671896390E+02  0.38509751400E+03  0.41479838882E+03  0.12500072493E+03 0.  0.
          2    1    1    2  501    0 -0.49159395975E+02 -0.39624052375E+02 -0.12498137329E+03  0.14002519562E+03  0.00000000000E+00 0. -1.
          1    1    1    2  502    0 -0.20988469340E+02 -0.17047844015E+02  0.12195800592E+04  0.12198797751E+04  0.00000000000E+00 0. -1.
         22    1    3    3    0    0 -0.26328075337E+02  0.22030706066E+02  0.20255635466E+03  0.20544487430E+03  0.00000000000E+00 0. -1.
         22    1    3    3    0    0  0.96475940652E+02  0.34641190324E+02  0.18254115933E+03  0.20935351452E+03  0.00000000000E+00 0. -1.
</event>
<event>
 7    1  0.5931885E-006  0.9617057E+02  0.7818608E-02  0.1312482E+00
          2   -1    0    0  502    0  0.00000000000E+00  0.00000000000E+00  0.16996928344E+03  0.16996928344E+03  0.00000000000E+00 0. -1.
          1   -1    0    0  501    0 -0.00000000000E+00 -0.00000000000E+00 -0.11446460015E+04  0.11446460015E+04  0.00000000000E+00 0. -1.
         25    2    1    2    0    0  0.15678729401E+03 -0.10383379878E+02 -0.35966103044E+03  0.41191242254E+03  0.12500286750E+03 0.  0.
          2    1    1    2  501    0 -0.83587314751E+02  0.34761667735E+02 -0.74557513925E+03  0.75105093103E+03  0.00000000000E+00 0. -1.
          1    1    1    2  502    0 -0.73199979254E+02 -0.24378287857E+02  0.13055945163E+03  0.15165193138E+03  0.00000000000E+00 0. -1.
         22    1    3    3    0    0  0.11554795666E+03  0.83431841228E+01 -0.34558141443E+03  0.36448244540E+03  0.00000000000E+00 0.  1.
         22    1    3    3    0    0  0.41239337342E+02 -0.18726564000E+02 -0.14079616015E+02  0.47429977133E+02  0.00000000000E+00 0.  1.
</event>
<event>
 7    1  0.5931885E-006  0.6289174E+02  0.7818608E-02  0.1452509E+00
          2   -1    0    0  502    0  0.00000000000E+00  0.00000000000E+00  0.25839107908E+04  0.25839107908E+04  0.00000000000E+00 0. -1.
          1   -1    0    0  501    0 -0.00000000000E+00 -0.00000000000E+00 -0.12075480532E+04  0.12075480532E+04  0.00000000000E+00 0. -1.
         25    2    1    2    0    0 -0.38386278456E+02  0.83099497083E+02  0.10241433011E+02  0.15526792942E+03  0.12499684063E+03 0.  0.
          2    1    1    2  501    0  0.31501650645E+02 -0.20716572883E+02 -0.11343278236E+04  0.11349542465E+04  0.00000000000E+00 0. -1.
          1    1    1    2  502    0  0.68846278112E+01 -0.62382924200E+02  0.25004491282E+04  0.25012366681E+04  0.00000000000E+00 0. -1.
         22    1    3    3    0    0 -0.40069366515E+02  0.87437413717E+02 -0.40466138818E+02  0.10434732312E+03  0.00000000000E+00 0. -1.
         22    1    3    3    0    0  0.16830880592E+01 -0.43379166338E+01  0.50707571829E+02  0.50920606310E+02  0.00000000000E+00 0. -1.
</event>
<event>
 7    1  0.5931885E-006  0.9106790E+02  0.7818608E-02  0.1327565E+00
          2   -1    0    0  502    0  0.00000000000E+00  0.00000000000E+00  0.47368363851E+03  0.47368363851E+03  0.00000000000E+00 0. -1.
          1   -1    0    0  501    0 -0.00000000000E+00 -0.00000000000E+00 -0.49208932602E+03  0.49208932602E+03  0.00000000000E+00 0. -1.
         25    2    1    2    0    0 -0.72924197511E+02 -0.74816858596E+02  0.59946291100E+02  0.17359179548E+03  0.12500021091E+03 0.  0.
          2    1    1    2  501    0 -0.19066161298E+02  0.68604275807E+02 -0.42630974416E+03  0.43221529720E+03  0.00000000000E+00 0. -1.
          1    1    1    2  502    0  0.91990358809E+02  0.62125827896E+01  0.34795776554E+03  0.35996587186E+03  0.00000000000E+00 0. -1.
         22    1    3    3    0    0 -0.91467759361E+02 -0.52769723923E+02 -0.16286384788E+01  0.10561082913E+03  0.00000000000E+00 0. -1.
         22    1    3    3    0    0  0.18543561850E+02 -0.22047134673E+02  0.61574929579E+02  0.67980966351E+02  0.00000000000E+00 0. -1.
</event>
<event>
 7    1  0.5931885E-006  0.9827155E+02  0.7818608E-02  0.1430095E+00
          2   -1    0    0  502    0  0.00000000000E+00  0.00000000000E+00  0.57225683512E+03  0.57225683512E+03  0.00000000000E+00 0. -1.
          1   -1    0    0  501    0 -0.00000000000E+00 -0.00000000000E+00 -0.58438090438E+03  0.58438090438E+03  0.00000000000E+00 0. -1.
         25    2    1    2    0    0 -0.69111913957E+02 -0.98874563781E+02  0.12685144382E+03  0.21509989197E+03  0.12499615480E+03 0.  0.
          2    1    1    2  501    0  0.24636222856E+02  0.14369158108E+02 -0.53418954777E+03  0.53495036137E+03  0.00000000000E+00 0. -1.
          1    1    1    2  502    0  0.44475691101E+02  0.84505405673E+02  0.39521403469E+03  0.40658748616E+03  0.00000000000E+00 0. -1.
         22    1    3    3    0    0 -0.32439431730E+02 -0.10284989320E+03  0.30720347219E+02  0.11213454863E+03  0.00000000000E+00 0.  1.
         22    1    3    3    0    0 -0.36672482227E+02  0.39753294201E+01  0.96131096600E+02  0.10296534335E+03  0.00000000000E+00 0.  1.
</event>
<event>
 7    1  0.5931885E-006  0.6259353E+02  0.7818608E-02  0.1422137E+00
          2   -1    0    0  502    0  0.00000000000E+00  0.00000000000E+00  0.22529698078E+04  0.22529698078E+04  0.00000000000E+00 0. -1.
          1   -1    0    0  501    0 -0.00000000000E+00 -0.00000000000E+00 -0.10114631165E+02  0.10114631165E+02  0.00000000000E+00 0. -1.
         25    2    1    2    0    0  0.73356018668E+02  0.46362387638E+02  0.11566959384E+04  0.11666623178E+04  0.12499957358E+03 0.  0.
          2    1    1    2  501    0 -0.26413766258E+02 -0.54111008350E+02  0.19714023768E+03  0.20613093311E+03  0.00000000000E+00 0. -1.
          1    1    1    2  502    0 -0.46942252410E+02  0.77486207129E+01  0.88901900053E+03  0.89029118804E+03  0.00000000000E+00 0. -1.
         22    1    3    3    0    0  0.80594565972E+02 -0.14046986821E+02  0.85418805481E+03  0.85809675147E+03  0.00000000000E+00 0. -1.
         22    1    3    3    0    0 -0.72385473039E+01  0.60409374458E+02  0.30250788362E+03  0.30856556635E+03  0.00000000000E+00 0. -1.
</event>
<event>
 7    1  0.5931885E-006  0.1478039E+03  0.7818608E-02  0.1308651E+00
          2   -1    0    0  502    0  0.00000000000E+00  0.00000000000E+00  0.71091896735E+03  0.71091896735E+03  0.00000000000E+00 0. -1.
          1   -1    0    0  501    0 -0.00000000000E+00 -0.00000000000E+00 -0.29628279135E+03  0.29628279135E+03  0.00000000000E+00 0. -1.
         25    2    1    2    0    0 -0.84437341288E+02 -0.17533109234E+03  0.16164018296E+03  0.28217642901E+03  0.12500132719E+03 0.  0.
          2    1    1    2  501    0  0.56072746082E+02  0.13177856605E+03 -0.21271004135E+03  0.25642797237E+03  0.00000000000E+00 0. -1.
          1    1    1    2  502    0  0.28364595205E+02  0.43552526294E+02  0.46570603439E+03  0.46859735731E+03  0.00000000000E+00 0. -1.
         22    1    3    3    0    0 -0.44923630923E+02 -0.17917533885E+03  0.15657920447E+03  0.24215487180E+03  0.00000000000E+00 0.  1.
         22    1    3    3    0    0 -0.39513710365E+02  0.38442465092E+01  0.50609784903E+01  0.40021557207E+02  0.00000000000E+00 0.  1.
</event>
<event>
 7    1  0.5931885E-006  0.1383333E+03  0.7818608E-02  0.1289659E+00
          2   -1    0    0  502    0  0.00000000000E+00  0.00000000000E+00  0.16263147114E+03  0.16263147114E+03  0.00000000000E+00 0. -1.
          1   -1    0    0  501    0 -0.00000000000E+00 -0.00000000000E+00 -0.19411307799E+04  0.19411307799E+04  0.00000000000E+00 0. -1.
         25    2    1    2    0    0  0.87576368224E+02  0.23302146666E+02 -0.90705168646E+02  0.17906848761E+03  0.12500194129E+03 0.  0.
          2    1    1    2  501    0  0.64398098581E+02  0.15227711807E+02 -0.17534648574E+04  0.17547130832E+04  0.00000000000E+00 0. -1.
          1    1    1    2  502    0 -0.15197446680E+03 -0.38529858474E+02  0.65670717237E+02  0.16998068025E+03  0.00000000000E+00 0. -1.
         22    1    3    3    0    0  0.39627330746E+02  0.12301884170E+02  0.28347728362E+02  0.50251919361E+02  0.00000000000E+00 0. -1.
         22    1    3    3    0    0  0.47949037478E+02  0.11000262496E+02 -0.11905289701E+03  0.12881656825E+03  0.00000000000E+00 0. -1.
</event>
<event>
 7    1  0.5931885E-006  0.8339315E+02  0.7818608E-02  0.1384189E+00
          2   -1    0    0  502    0  0.00000000000E+00  0.00000000000E+00  0.91157191962E+03  0.91157191962E+03  0.00000000000E+00 0. -1.
          1   -1    0    0  501    0 -0.00000000000E+00 -0.00000000000E+00 -0.37166751149E+03  0.37166751149E+03  0.00000000000E+00 0. -1.
         25    2    1    2    0    0 -0.15220016703E+02 -0.88088368055E+02  0.18426834919E+03  0.23993817626E+03  0.12499717764E+03 0.  0.
          2    1    1    2  501    0  0.47034421638E+02  0.10363206198E+02 -0.33960640118E+03  0.34300457808E+03  0.00000000000E+00 0. -1.
          1    1    1    2  502    0 -0.31814404936E+02  0.77725161856E+02  0.69524246011E+03  0.70029667677E+03  0.00000000000E+00 0. -1.
         22    1    3    3    0    0  0.30680116600E+02 -0.92364805032E+02  0.80187868333E+02  0.12610559461E+03  0.00000000000E+00 0.  1.
         22    1    3    3    0    0 -0.45900133302E+02  0.42764369770E+01  0.10408048086E+03  0.11383258165E+03  0.00000000000E+00 0.  1.
</event>
<event>
 7    1  0.5931885E-006  0.1138114E+03  0.7818608E-02  0.1350340E+00
          2   -1    0    0  502    0  0.00000000000E+00  0.00000000000E+00  0.75347747413E+02  0.75347747413E+02  0.00000000000E+00 0. -1.
          1   -1    0    0  501    0 -0.00000000000E+00 -0.00000000000E+00 -0.15198402536E+04  0.15198402536E+04  0.00000000000E+00 0. -1.
         25    2    1    2    0    0 -0.34958950211E+01 -0.72400161393E+02 -0.14979123704E+03  0.20812400192E+03  0.12499672327E+03 0.  0.
          2    1    1    2  501    0  0.21431760565E+02  0.11558207624E+03 -0.13257398110E+04  0.13309412396E+04  0.00000000000E+00 0. -1.
          1    1    1    2  502    0 -0.17935865544E+02 -0.43181914851E+02  0.31038541934E+02  0.56122759451E+02  0.00000000000E+00 0. -1.
         22    1    3    3    0    0  0.70796734667E+01 -0.10665801703E+03 -0.97224009742E+02  0.14449416059E+03  0.00000000000E+00 0. -1.
         22    1    3    3    0    0 -0.10575568488E+02  0.34257855637E+02 -0.52567227300E+02  0.63629841330E+02  0.00000000000E+00 0. -1.
</event>
<event>
 7    1  0.5931885E-006  0.6993212E+02  0.7818608E-02  0.1403510E+00
          2   -1    0    0  502    0  0.00000000000E+00  0.00000000000E+00  0.47127685169E+02  0.47127685169E+02  0.00000000000E+00 0. -1.
          1   -1    0    0  501    0 -0.00000000000E+00 -0.00000000000E+00 -0.21953248894E+04  0.21953248894E+04  0.00000000000E+00 0. -1.
         25    2    1    2    0    0 -0.64022409856E+02 -0.46657115870E+02 -0.70858545333E+03  0.72387432214E+03  0.12499973666E+03 0.  0.
          2    1    1    2  501    0  0.44593211802E+02 -0.20827715298E+02 -0.14471157219E+04  0.14479524373E+04  0.00000000000E+00 0. -1.
          1    1    1    2  502    0  0.19429198054E+02  0.67484831167E+02  0.75039709941E+01  0.70625815078E+02  0.00000000000E+00 0. -1.
         22    1    3    3    0    0 -0.25620660567E+02 -0.79250238846E+02 -0.57696125628E+03  0.58294194381E+03  0.00000000000E+00 0. -1.
         22    1    3    3    0    0 -0.38401749289E+02  0.32593122976E+02 -0.13162419705E+03  0.14093237833E+03  0.00000000000E+00 0. -1.
</event>
<event>
 7    1  0.5931885E-006  0.7698331E+02  0.7818608E-02  0.1416348E+00
          2   -1    0    0  502    0  0.00000000000E+00  0.00000000000E+00  0.30065159149E+03  0.30065159149E+03  0.00000000000E+00 0. -1.
          1   -1    0    0  501    0 -0.00000000000E+00 -0.00000000000E+00 -0.51507924274E+03  0.51507924274E+03  0.00000000000E+00 0. -1.
         25    2    1    2    0    0 -0.35657039287E+02  0.47546076661E+02 -0.93334510281E+02  0.16693770786E+03  0.12499925456E+03 0.  0.
          2    1    1    2  501    0  0.10339601495E+02 -0.79089814293E+02 -0.37921944434E+03  0.38751708743E+03  0.00000000000E+00 0. -1.
          1    1    1    2  502    0  0.25317437792E+02  0.31543737632E+02  0.25812630337E+03  0.26127603895E+03  0.00000000000E+00 0. -1.
         22    1    3    3    0    0  0.11196930914E+02 -0.38245685509E+02 -0.19093430118E+02  0.44188944269E+02  0.00000000000E+00 0. -1.
         22    1    3    3    0    0 -0.46853970201E+02  0.85791762170E+02 -0.74241080163E+02  0.12274876359E+03  0.00000000000E+00 0. -1.
</event>
<event>
 7    1  0.5931885E-006  0.6831107E+02  0.7818608E-02  0.1425621E+00
          2   -1    0    0  502    0  0.00000000000E+00  0.00000000000E+00  0.63938637244E+03  0.63938637244E+03  0.00000000000E+00 0. -1.
          1   -1    0    0  501    0 -0.00000000000E+00 -0.00000000000E+00 -0.36033026558E+03  0.36033026558E+03  0.00000000000E+00 0. -1.
         25    2    1    2    0    0 -0.38267002417E+02 -0.61413612219E+02  0.41309997362E+03  0.43762261014E+03  0.12500386179E+03 0.  0.
          2    1    1    2  501    0  0.62894644839E+02  0.26839208230E+02 -0.34255104203E+03  0.34930974199E+03  0.00000000000E+00 0. -1.
          1    1    1    2  502    0 -0.24627642421E+02  0.34574403989E+02  0.20850717527E+03  0.21278428589E+03  0.00000000000E+00 0. -1.
         22    1    3    3    0    0  0.19814953236E+02 -0.69290777960E+02  0.13117177869E+03  0.14966589394E+03  0.00000000000E+00 0. -1.
         22    1    3    3    0    0 -0.58081955654E+02  0.78771657408E+01  0.28192819493E+03  0.28795671620E+03  0.00000000000E+00 0. -1.
</event>
<event>
 7    1  0.5931885E-006  0.9692519E+02  0.7818608E-02  0.1353414E+00
          2   -1    0    0  502    0  0.00000000000E+00  0.00000000000E+00  0.48048558353E+03  0.48048558353E+03  0.00000000000E+00 0. -1.
          1   -1    0    0  501    0 -0.00000000000E+00 -0.00000000000E+00 -0.71085017388E+02  0.71085017388E+02  0.00000000000E+00 0. -1.
         25    2    1    2    0    0 -0.51435584625E+02 -0.37858014331E+02  0.12399553882E+03  0.18729257675E+03  0.12499906817E+03 0.  0.
          2    1    1    2  501    0  0.98890942509E+02  0.62534529134E+02  0.57855873323E+02  0.13052696243E+03  0.00000000000E+00 0. -1.
          1    1    1    2  502    0 -0.47455357884E+02 -0.24676514803E+02  0.22754915400E+03  0.23375106174E+03  0.00000000000E+00 0. -1.
         22    1    3    3    0    0  0.35412757408E+02 -0.35971203515E+02  0.27601184157E+02  0.57531002394E+02  0.00000000000E+00 0. -1.
         22    1    3    3    0    0 -0.86848342034E+02 -0.18868108161E+01  0.96394354661E+02  0.12976157436E+03  0.00000000000E+00 0. -1.
</event>
<event>
 7    1  0.5931885E-006  0.1048999E+03  0.7818608E-02  0.1294653E+00
          2   -1    0    0  502    0  0.00000000000E+00  0.00000000000E+00  0.55032054697E+03  0.55032054697E+03  0.00000000000E+00 0. -1.
          1   -1    0    0  501    0 -0.00000000000E+00 -0.00000000000E+00 -0.13977286054E+04  0.13977286054E+04  0.00000000000E+00 0. -1.
         25    2    1    2    0    0 -0.17824287763E+03  0.12490640478E+02 -0.28426466604E+03  0.35827181556E+03  0.12500301574E+03 0.  0.
          2    1    1    2  501    0  0.96430746126E+02 -0.28113963026E+02 -0.10707155791E+04  0.10754167262E+04  0.00000000000E+00 0. -1.
          1    1    1    2  502    0  0.81812131509E+02  0.15623322547E+02  0.50757218667E+03  0.51436061061E+03  0.00000000000E+00 0. -1.
         22    1    3    3    0    0 -0.74591982740E+02 -0.50822728952E+02 -0.79928082313E+02  0.12056289649E+03  0.00000000000E+00 0. -1.
         22    1    3    3    0    0 -0.10365089489E+03  0.63313369430E+02 -0.20433658372E+03  0.23770891908E+03  0.00000000000E+00 0. -1.
</event>
<event>
 7    1  0.5931885E-006  0.6917927E+02  0.7818608E-02  0.1374293E+00
          2   -1    0    0  502    0  0.00000000000E+00  0.00000000000E+00  0.57283200180E+03  0.57283200180E+03  0.00000000000E+00 0. -1.
          1   -1    0    0  501    0 -0.00000000000E+00 -0.00000000000E+00 -0.65827297605E+03  0.65827297605E+03  0.00000000000E+00 0. -1.
         25    2    1    2    0    0  0.78595244396E+02  0.99319290509E+02 -0.37542298049E+02  0.18186630099E+03  0.12499757351E+03 0.  0.
          2    1    1    2  501    0 -0.53199383411E+02 -0.41725702994E+02 -0.54449123030E+03  0.54867286114E+03  0.00000000000E+00 0. -1.
          1    1    1    2  502    0 -0.25395860986E+02 -0.57593587515E+02  0.49659255410E+03  0.50056581572E+03  0.00000000000E+00 0. -1.
         22    1    3    3    0    0  0.30430062762E+02  0.94551860027E+02  0.25344457784E+02  0.10251041164E+03  0.00000000000E+00 0.  1.
         22    1    3    3    0    0  0.48165181634E+02  0.47674304817E+01 -0.62886755833E+02  0.79355889350E+02  0.00000000000E+00 0.  1.
</event>
<event>
 7    1  0.5931885E-006  0.2105268E+03  0.7818608E-02  0.1301184E+00
          2   -1    0    0  502    0  0.00000000000E+00  0.00000000000E+00  0.16608718087E+04  0.16608718087E+04  0.00000000000E+00 0. -1.
          1   -1    0    0  501    0 -0.00000000000E+00 -0.00000000000E+00 -0.14762905123E+04  0.14762905123E+04  0.00000000000E+00 0. -1.
         25    2    1    2    0    0 -0.43090464407E+02 -0.20371153973E+03 -0.55191333577E+03  0.60298345154E+03  0.12500213233E+03 0.  0.
          2    1    1    2  501    0  0.38466675007E+02 -0.68335368446E+01 -0.89163253366E+03  0.89248807129E+03  0.00000000000E+00 0. -1.
          1    1    1    2  502    0  0.46237894001E+01  0.21054507658E+03  0.16281271658E+04  0.16416907982E+04  0.00000000000E+00 0. -1.
         22    1    3    3    0    0  0.40603077111E+02 -0.52136627309E+02 -0.20274273665E+03  0.21324036917E+03  0.00000000000E+00 0.  1.
         22    1    3    3    0    0 -0.83693541518E+02 -0.15157491242E+03 -0.34917059912E+03  0.38974308237E+03  0.00000000000E+00 0.  1.
</event>
<event>
 7    1  0.5931885E-006  0.2731410E+02  0.7818608E-02  0.1634416E+00
          2   -1    0    0  502    0  0.00000000000E+00  0.00000000000E+00  0.18935161558E+02  0.18935161558E+02  0.00000000000E+00 0. -1.
          1   -1    0    0  501    0 -0.00000000000E+00 -0.00000000000E+00 -0.11524786745E+04  0.11524786745E+04  0.00000000000E+00 0. -1.
         25    2    1    2    0    0 -0.22736611532E+02 -0.43225652797E+02 -0.64248967257E+03  0.65635563532E+03  0.12499732031E+03 0.  0.
          2    1    1    2  501    0  0.20951094822E+02  0.16389418872E+02 -0.48715597451E+03  0.48788165053E+03  0.00000000000E+00 0. -1.
          1    1    1    2  502    0  0.17855167103E+01  0.26836233925E+02 -0.38978658182E+01  0.27176550170E+02  0.00000000000E+00 0. -1.
         22    1    3    3    0    0  0.16501760546E+01 -0.62609955307E+02 -0.14571484159E+03  0.15860499565E+03  0.00000000000E+00 0.  1.
         22    1    3    3    0    0 -0.24386787587E+02  0.19384302510E+02 -0.49677483099E+03  0.49775063967E+03  0.00000000000E+00 0.  1.
</event>
<event>
 7    1  0.5931885E-006  0.6920197E+02  0.7818608E-02  0.1417392E+00
          2   -1    0    0  502    0  0.00000000000E+00  0.00000000000E+00  0.71651175619E+01  0.71651175619E+01  0.00000000000E+00 0. -1.
          1   -1    0    0  501    0 -0.00000000000E+00 -0.00000000000E+00 -0.37132817111E+04  0.37132817111E+04  0.00000000000E+00 0. -1.
         25    2    1    2    0    0  0.43581909642E+02  0.67058468842E+01 -0.13537317527E+04  0.13602055685E+04  0.12500071559E+03 0.  0.
          2    1    1    2  501    0  0.30251884466E+02 -0.32817839375E+02 -0.19384076020E+04  0.19389214060E+04  0.00000000000E+00 0. -1.
          1    1    1    2  502    0 -0.73833794108E+02  0.26111992491E+02 -0.41397723885E+03  0.42131985426E+03  0.00000000000E+00 0. -1.
         22    1    3    3    0    0  0.72171718019E+01  0.60486331982E+02 -0.87105310216E+03  0.87318050293E+03  0.00000000000E+00 0.  1.
         22    1    3    3    0    0  0.36364737840E+02 -0.53780485097E+02 -0.48267865058E+03  0.48702506554E+03  0.00000000000E+00 0.  1.
</event>
<event>
 7    1  0.5931885E-006  0.5047833E+02  0.7818608E-02  0.1488495E+00
          2   -1    0    0  502    0  0.00000000000E+00  0.00000000000E+00  0.29741983357E+04  0.29741983357E+04  0.00000000000E+00 0. -1.
          1   -1    0    0  501    0 -0.00000000000E+00 -0.00000000000E+00 -0.10906379582E+02  0.10906379582E+02  0.00000000000E+00 0. -1.
         25    2    1    2    0    0  0.12730059715E+02 -0.28270527785E+02  0.10113113178E+04  0.10194804565E+04  0.12501416903E+03 0.  0.
          2    1    1    2  501    0 -0.28769440540E+02 -0.22147001712E+02  0.44597370246E+02  0.57507354544E+02  0.00000000000E+00 0. -1.
          1    1    1    2  502    0  0.16039380825E+02  0.50417529498E+02  0.19073832681E+04  0.19081169043E+04  0.00000000000E+00 0. -1.
         22    1    3    3    0    0 -0.52819340284E+00 -0.65974494156E+00  0.95797352593E+03  0.95797389872E+03  0.00000000000E+00 0. -1.
         22    1    3    3    0    0  0.13258253118E+02 -0.27610782844E+02  0.53337791893E+02  0.61506557773E+02  0.00000000000E+00 0. -1.
</event>
<event>
 7    1  0.5931885E-006  0.4341985E+02  0.7818608E-02  0.1491784E+00
          2   -1    0    0  502    0  0.00000000000E+00  0.00000000000E+00  0.94993626434E+02  0.94993626434E+02  0.00000000000E+00 0. -1.
          1   -1    0    0  501    0 -0.00000000000E+00 -0.00000000000E+00 -0.82107976498E+03  0.82107976498E+03  0.00000000000E+00 0. -1.
         25    2    1    2    0    0  0.29931483493E+02  0.72422454697E+00 -0.32286928297E+03  0.34751667360E+03  0.12500738512E+03 0.  0.
          2    1    1    2  501    0 -0.12080629382E+02  0.39444454639E+02 -0.47909402153E+03  0.48086680908E+03  0.00000000000E+00 0. -1.
          1    1    1    2  502    0 -0.17850854111E+02 -0.40168679186E+02  0.75877165961E+02  0.87689908737E+02  0.00000000000E+00 0. -1.
         22    1    3    3    0    0  0.74433951105E+02  0.39477838178E+01 -0.13288126894E+03  0.15235954092E+03  0.00000000000E+00 0.  1.
         22    1    3    3    0    0 -0.44502467612E+02 -0.32235592708E+01 -0.18998801404E+03  0.19515713268E+03  0.00000000000E+00 0.  1.
</event>
<event>
 7    1  0.5931885E-006  0.5144786E+02  0.7818608E-02  0.1442658E+00
          2   -1    0    0  502    0  0.00000000000E+00  0.00000000000E+00  0.13476351582E+04  0.13476351582E+04  0.00000000000E+00 0. -1.
          1   -1    0    0  501    0 -0.00000000000E+00 -0.00000000000E+00 -0.15557538931E+04  0.15557538931E+04  0.00000000000E+00 0. -1.
         25    2    1    2    0    0 -0.27228704734E+01 -0.66246986267E+01  0.99743230624E+01  0.12560327676E+03  0.12500158142E+03 0.  0.
          2    1    1    2  501    0  0.39400217747E+02 -0.30082754981E+02 -0.14970030076E+04  0.14978235390E+04  0.00000000000E+00 0. -1.
          1    1    1    2  502    0 -0.36677347274E+02  0.36707453608E+02  0.12789099496E+04  0.12799622355E+04  0.00000000000E+00 0. -1.
         22    1    3    3    0    0  0.59359140296E+02 -0.16641168823E+02  0.11445737515E+02  0.62701203687E+02  0.00000000000E+00 0. -1.
         22    1    3    3    0    0 -0.62082010770E+02  0.10016470196E+02 -0.14714144525E+01  0.62902073073E+02  0.00000000000E+00 0. -1.
</event>
<event>
 7    1  0.5931885E-006  0.7739576E+02  0.7818608E-02  0.1350916E+00
          2   -1    0    0  502    0  0.00000000000E+00  0.00000000000E+00  0.74523530599E+02  0.74523530599E+02  0.00000000000E+00 0. -1.
          1   -1    0    0  501    0 -0.00000000000E+00 -0.00000000000E+00 -0.22023284340E+04  0.22023284340E+04  0.00000000000E+00 0. -1.
         25    2    1    2    0    0 -0.39732474895E+02  0.29503791681E+01 -0.66164227839E+02  0.14693284517E+03  0.12499672654E+03 0.  0.
          2    1    1    2  501    0 -0.68409914469E+02 -0.12968225827E+01 -0.20080494342E+04  0.20092148039E+04  0.00000000000E+00 0. -1.
          1    1    1    2  502    0  0.10814238936E+03 -0.16535565854E+01 -0.53591241338E+02  0.12070431548E+03  0.00000000000E+00 0. -1.
         22    1    3    3    0    0 -0.61048493558E+02  0.19873362746E+02  0.10974884745E+02  0.65133073071E+02  0.00000000000E+00 0. -1.
         22    1    3    3    0    0  0.21316018663E+02 -0.16922983578E+02 -0.77139112583E+02  0.81799772096E+02  0.00000000000E+00 0. -1.
</event>
<event>
 7    1  0.5931885E-006  0.1503513E+03  0.7818608E-02  0.1281791E+00
          2   -1    0    0  502    0  0.00000000000E+00  0.00000000000E+00  0.12060174634E+04  0.12060174634E+04  0.00000000000E+00 0. -1.
          1   -1    0    0  501    0 -0.00000000000E+00 -0.00000000000E+00 -0.24478176110E+03  0.24478176110E+03  0.00000000000E+00 0. -1.
         25    2    1    2    0    0  0.87303783817E+02 -0.19140874167E+03  0.43224708061E+02  0.24850055294E+03  0.12499956947E+03 0.  0.
          2    1    1    2  501    0 -0.12617480573E+02  0.64347501940E+02 -0.12913581187E+03  0.14483045167E+03  0.00000000000E+00 0. -1.
          1    1    1    2  502    0 -0.74686303243E+02  0.12706123973E+03  0.10471468061E+04  0.10574682199E+04  0.00000000000E+00 0. -1.
         22    1    3    3    0    0  0.22208567766E+02 -0.35025335768E+02  0.65629001867E+02  0.77634789328E+02  0.00000000000E+00 0.  1.
         22    1    3    3    0    0  0.65095216051E+02 -0.15638340590E+03 -0.22404293807E+02  0.17086576361E+03  0.00000000000E+00 0.  1.
</event>
<event>
 7    1  0.5931885E-006  0.8489512E+02  0.7818608E-02  0.1383754E+00
          2   -1    0    0  502    0  0.00000000000E+00  0.00000000000E+00  0.87527318777E+02  0.87527318777E+02  0.00000000000E+00 0. -1.
          1   -1    0    0  501    0 -0.00000000000E+00 -0.00000000000E+00 -0.60144890316E+03  0.60144890316E+03  0.00000000000E+00 0. -1.
         25    2    1    2    0    0 -0.27888564072E+01 -0.12419227818E+02 -0.38977428224E+03  0.40952475422E+03  0.12499807310E+03 0.  0.
          2    1    1    2  501    0  0.64207166055E+02  0.71027873743E+02 -0.16066817614E+03  0.18703417294E+03  0.00000000000E+00 0. -1.
          1    1    1    2  502    0 -0.61418309647E+02 -0.58608645925E+02  0.36520874004E+02  0.92417294784E+02  0.00000000000E+00 0. -1.
         22    1    3    3    0    0 -0.57322415408E+02 -0.32103116483E+02 -0.17065289620E+03  0.18286300987E+03  0.00000000000E+00 0.  1.
         22    1    3    3    0    0  0.54533559001E+02  0.19683888665E+02 -0.21912138604E+03  0.22666174435E+03  0.00000000000E+00 0.  1.
</event>
<event>
 7    1  0.9204988E-006  0.8791907E+02  0.7818608E-02  0.1319950E+00
          2   -1    0    0  502    0  0.00000000000E+00  0.00000000000E+00  0.24603225121E+04  0.24603225121E+04  0.00000000000E+00 0. -1.
          1   -1    0    0  501    0 -0.00000000000E+00 -0.00000000000E+00 -0.20499128043E+04  0.20499128043E+04  0.00000000000E+00 0. -1.
         25    2    1    2    0    0  0.94149080153E+02 -0.26208554031E+01 -0.87299946967E+03  0.88691769609E+03  0.12499602962E+03 0.  0.
          2    1    1    2  501    0 -0.37172272029E+02  0.69613089556E+02 -0.11678339919E+04  0.11704973270E+04  0.00000000000E+00 0. -1.
          1    1    1    2  502    0 -0.56976808124E+02 -0.66992234153E+02  0.24512431693E+04  0.24528202933E+04  0.00000000000E+00 0. -1.
         22    1    3    3    0    0  0.91543691286E+02  0.46703231108E+02 -0.48366382929E+03  0.49446146359E+03  0.00000000000E+00 0. -1.
         22    1    3    3    0    0  0.26053888664E+01 -0.49324086511E+02 -0.38933564037E+03  0.39245623250E+03  0.00000000000E+00 0. -1.
</event>
<event>
 7    1  0.5931885E-006  0.5380241E+02  0.7818608E-02  0.1470129E+00
          2   -1    0    0  502    0  0.00000000000E+00  0.00000000000E+00  0.13121449077E+04  0.13121449077E+04  0.00000000000E+00 0. -1.
          1   -1    0    0  501    0 -0.00000000000E+00 -0.00000000000E+00 -0.93019832889E+03  0.93019832889E+03  0.00000000000E+00 0. -1.
         25    2    1    2    0    0 -0.77030786381E+02 -0.10385764782E+02  0.41789732030E+02  0.15301416076E+03  0.12500138211E+03 0.  0.
          2    1    1    2  501    0  0.26485646491E+02  0.28336421385E+02 -0.87356346096E+03  0.87442413197E+03  0.00000000000E+00 0. -1.
          1    1    1    2  502    0  0.50545139890E+02 -0.17950656603E+02  0.12137203077E+04  0.12149049439E+04  0.00000000000E+00 0. -1.
         22    1    3    3    0    0 -0.27118732205E+02  0.51382514369E+02 -0.89350716775E+01  0.58782854006E+02  0.00000000000E+00 0. -1.
         22    1    3    3    0    0 -0.49912054176E+02 -0.61768279151E+02  0.50724803708E+02  0.94231306754E+02  0.00000000000E+00 0. -1.
</event>
<event>
 7    1  0.5931885E-006  0.8585319E+02  0.7818608E-02  0.1418669E+00
          2   -1    0    0  502    0  0.00000000000E+00  0.00000000000E+00  0.24613080026E+03  0.24613080026E+03  0.00000000000E+00 0. -1.
          1   -1    0    0  501    0 -0.00000000000E+00 -0.00000000000E+00 -0.12847830215E+04  0.12847830215E+04  0.00000000000E+00 0. -1.
         25    2    1    2    0    0 -0.24724236228E+01  0.11498658658E+03 -0.71468473919E+02  0.18428276408E+03  0.12499746558E+03 0.  0.
          2    1    1    2  501    0 -0.13988110444E+02 -0.32763371411E+02 -0.11473518285E+04  0.11479047540E+04  0.00000000000E+00 0. -1.
          1    1    1    2  502    0  0.16460534067E+02 -0.82223215166E+02  0.18016808122E+03  0.19872630371E+03  0.00000000000E+00 0. -1.
         22    1    3    3    0    0  0.50605316270E+02  0.99675698263E+02 -0.63230721604E+02  0.12843000823E+03  0.00000000000E+00 0.  1.
         22    1    3    3    0    0 -0.53077739893E+02  0.15310888315E+02 -0.82377523151E+01  0.55852755853E+02  0.00000000000E+00 0.  1.
</event>
<event>
 7    1  0.5931885E-006  0.1076764E+03  0.7818608E-02  0.1321584E+00
          2   -1    0    0  502    0  0.00000000000E+00  0.00000000000E+00  0.11307783076E+04  0.11307783076E+04  0.00000000000E+00 0. -1.
          1   -1    0    0  501    0 -0.00000000000E+00 -0.00000000000E+00 -0.43977475289E+03  0.43977475289E+03  0.00000000000E+00 0. -1.
         25    2    1    2    0    0  0.53999630872E+02 -0.14476986262E+03  0.13990795529E+03  0.24305514459E+03  0.12500917607E+03 0.  0.
          2    1    1    2  501    0 -0.66769595029E+02  0.82563822318E+02 -0.37983813242E+03  0.39440077385E+03  0.00000000000E+00 0. -1.
          1    1    1    2  502    0  0.12769964156E+02  0.62206040303E+02  0.93093373186E+03  0.93309714208E+03  0.00000000000E+00 0. -1.
         22    1    3    3    0    0 -0.38894380175E+02 -0.30286368218E+02  0.50808922725E+02  0.70792538714E+02  0.00000000000E+00 0.  1.
         22    1    3    3    0    0  0.92894011048E+02 -0.11448349440E+03  0.89099032560E+02  0.17226260587E+03  0.00000000000E+00 0.  1.
</event>
<event>
 7    1  0.5931885E-006  0.1372745E+03  0.7818608E-02  0.1239428E+00
          2   -1    0    0  502    0  0.00000000000E+00  0.00000000000E+00  0.68849461873E+03  0.68849461873E+03  0.00000000000E+00 0. -1.
          1   -1    0    0  501    0 -0.00000000000E+00 -0.00000000000E+00 -0.25264895840E+03  0.25264895840E+03  0.00000000000E+00 0. -1.
         25    2    1    2    0    0 -0.17434179473E+03  0.81510476371E+02  0.24769232989E+03  0.33765884014E+03  0.12499193130E+03 0.  0.
          2    1    1    2  501    0  0.46140917774E+02 -0.98612305589E+02 -0.18161557557E+03  0.21174888051E+03  0.00000000000E+00 0. -1.
          1    1    1    2  502    0  0.12820087695E+03  0.17101829218E+02  0.36976890600E+03  0.39173585649E+03  0.00000000000E+00 0. -1.
         22    1    3    3    0    0 -0.61710171405E+02  0.24579429694E+02  0.18535986296E+03  0.19690244390E+03  0.00000000000E+00 0. -1.
         22    1    3    3    0    0 -0.11263162332E+03  0.56931046677E+02  0.62332466936E+02  0.14075639624E+03  0.00000000000E+00 0. -1.
</event>
<event>
 7    1  0.5931885E-006  0.1906606E+03  0.7818608E-02  0.1337769E+00
          2   -1    0    0  502    0  0.00000000000E+00  0.00000000000E+00  0.31154004662E+03  0.31154004662E+03  0.00000000000E+00 0. -1.
          1   -1    0    0  501    0 -0.00000000000E+00 -0.00000000000E+00 -0.12815821575E+04  0.12815821575E+04  0.00000000000E+00 0. -1.
         25    2    1    2    0    0 -0.87116844377E+02  0.16385493428E+03 -0.36243169365E+03  0.42592948958E+03  0.12498565308E+03 0.  0.
          2    1    1    2  501    0  0.25826571626E+02  0.17330032253E+02 -0.85439641347E+03  0.85496232266E+03  0.00000000000E+00 0. -1.
          1    1    1    2  502    0  0.61290272751E+02 -0.18118496653E+03  0.24678599628E+03  0.31223039184E+03  0.00000000000E+00 0. -1.
         22    1    3    3    0    0 -0.29201676992E+02 -0.53323241721E+01 -0.11074789918E+02  0.31683159437E+02  0.00000000000E+00 0. -1.
         22    1    3    3    0    0 -0.57915167385E+02  0.16918725845E+03 -0.35135690373E+03  0.39424633014E+03  0.00000000000E+00 0. -1.
</event>
<event>
 7    1  0.5931885E-006  0.9332363E+02  0.7818608E-02  0.1391899E+00
          2   -1    0    0  502    0  0.00000000000E+00  0.00000000000E+00  0.12587387685E+04  0.12587387685E+04  0.00000000000E+00 0. -1.
          1   -1    0    0  501    0 -0.00000000000E+00 -0.00000000000E+00 -0.52321139291E+03  0.52321139291E+03  0.00000000000E+00 0. -1.
         25    2    1    2    0    0 -0.12444291935E+03 -0.39667948908E+02  0.95487854175E+02  0.20445314407E+03  0.12499428578E+03 0.  0.
          2    1    1    2  501    0  0.40386918165E+02  0.21666829678E+01 -0.46594102682E+03  0.46769310252E+03  0.00000000000E+00 0. -1.
          1    1    1    2  502    0  0.84056001187E+02  0.37501265940E+02  0.11059805482E+04  0.11098039148E+04  0.00000000000E+00 0. -1.
         22    1    3    3    0    0 -0.98119159169E+02 -0.39767458600E+02  0.12572407100E+03  0.16436350625E+03  0.00000000000E+00 0. -1.
         22    1    3    3    0    0 -0.26323760183E+02  0.99509692698E-01 -0.30236216824E+02  0.40089637815E+02  0.00000000000E+00 0. -1.
</event>
<event>
 7    1  0.5931885E-006  0.1768630E+03  0.7818608E-02  0.1276097E+00
          2   -1    0    0  502    0  0.00000000000E+00  0.00000000000E+00  0.12461482834E+04  0.12461482834E+04  0.00000000000E+00 0. -1.
          1   -1    0    0  501    0 -0.00000000000E+00 -0.00000000000E+00 -0.16271588029E+04  0.16271588029E+04  0.00000000000E+00 0. -1.
         25    2    1    2    0    0  0.20087073448E+03 -0.10639606644E+03  0.69424742295E+02  0.26853830006E+03  0.12499539525E+03 0.  0.
          2    1    1    2  501    0 -0.16491220304E+03  0.59806364266E+02 -0.15217555758E+04  0.15318331725E+04  0.00000000000E+00 0. -1.
          1    1    1    2  502    0 -0.35958531441E+02  0.46589702174E+02  0.10713203140E+04  0.10729356138E+04  0.00000000000E+00 0. -1.
         22    1    3    3    0    0  0.13264386734E+03  0.42867618278E+00  0.36736999720E+02  0.13763788161E+03  0.00000000000E+00 0. -1.
         22    1    3    3    0    0  0.68226867140E+02 -0.10682474262E+03  0.32687742575E+02  0.13090041845E+03  0.00000000000E+00 0. -1.
</event>
<event>
 7    1  0.5931885E-006  0.4518198E+02  0.7818608E-02  0.1588426E+00
          2   -1    0    0  502    0  0.00000000000E+00  0.00000000000E+00  0.10798393520E+04  0.10798393520E+04  0.00000000000E+00 0. -1.
          1   -1    0    0  501    0 -0.00000000000E+00 -0.00000000000E+00 -0.25928421900E+02  0.25928421900E+02  0.00000000000E+00 0. -1.
         25    2    1    2    0    0  0.20631303195E+02 -0.57487618578E+02  0.61521417831E+03  0.63074918586E+03  0.12500229317E+03 0.  0.
          2    1    1    2  501    0 -0.15267875646E+02  0.14596393154E+02 -0.10609877809E+02  0.23637517360E+02  0.00000000000E+00 0. -1.
          1    1    1    2  502    0 -0.53634275484E+01  0.42891225425E+02  0.44930662964E+03  0.45138107073E+03  0.00000000000E+00 0. -1.
         22    1    3    3    0    0  0.33392573940E+02 -0.59613137978E+02  0.14432665024E+03  0.15968397598E+03  0.00000000000E+00 0. -1.
         22    1    3    3    0    0 -0.12761270746E+02  0.21255193992E+01  0.47088752807E+03  0.47106520988E+03  0.00000000000E+00 0. -1.
</event>
<event>
 7    1  0.5931885E-006  0.1628427E+03  0.7818608E-02  0.1274141E+00
          2   -1    0    0  502    0  0.00000000000E+00  0.00000000000E+00  0.12677814533E+04  0.12677814533E+04  0.00000000000E+00 0. -1.
          1   -1    0    0  501    0 -0.00000000000E+00 -0.00000000000E+00 -0.11587698994E+04  0.11587698994E+04  0.00000000000E+00 0. -1.
         25    2    1    2    0    0  0.21474195365E+03  0.34080736737E+02  0.59739142934E+03  0.64789767121E+03  0.12497707485E+03 0.  0.
          2    1    1    2  501    0 -0.15292033199E+03 -0.54573855704E+02 -0.11260350827E+04  0.11376809487E+04  0.00000000000E+00 0. -1.
          1    1    1    2  502    0 -0.61821621663E+02  0.20493118967E+02  0.63765520725E+03  0.64097273278E+03  0.00000000000E+00 0. -1.
         22    1    3    3    0    0  0.79107935192E+02  0.71393872510E+02  0.31249010697E+03  0.33015938181E+03  0.00000000000E+00 0. -1.
         22    1    3    3    0    0  0.13563401846E+03 -0.37313135773E+02  0.28490132237E+03  0.31773828941E+03  0.00000000000E+00 0. -1.
</event>
<event>
 7    1  0.5931885E-006  0.7899383E+02  0.7818608E-02  0.1421775E+00
          2   -1    0    0  502    0  0.00000000000E+00  0.00000000000E+00  0.10359147636E+04  0.10359147636E+04  0.00000000000E+00 0. -1.
          1   -1    0    0  501    0 -0.00000000000E+00 -0.00000000000E+00 -0.73824225797E+03  0.73824225797E+03  0.00000000000E+00 0. -1.
         25    2    1    2    0    0 -0.81929490086E+01  0.97662547156E+02 -0.18994633506E+03  0.24760741283E+03  0.12499889261E+03 0.  0.
          2    1    1    2  501    0 -0.21732616306E+02 -0.74561942176E+02 -0.51620470359E+03  0.52201444984E+03  0.00000000000E+00 0. -1.
          1    1    1    2  502    0  0.29925565315E+02 -0.23100604979E+02  0.10038235443E+04  0.10045351589E+04  0.00000000000E+00 0. -1.
         22    1    3    3    0    0 -0.45151231855E+02  0.10485672937E+03 -0.17060191256E+03  0.20527683746E+03  0.00000000000E+00 0. -1.
         22    1    3    3    0    0  0.36958282847E+02 -0.71941822105E+01 -0.19344422501E+02  0.42330575363E+02  0.00000000000E+00 0. -1.
</event>
<event>
 7    1  0.5931885E-006  0.5275913E+02  0.7818608E-02  0.1453513E+00
          2   -1    0    0  502    0  0.00000000000E+00  0.00000000000E+00  0.17624756450E+04  0.17624756450E+04  0.00000000000E+00 0. -1.
          1   -1    0    0  501    0 -0.00000000000E+00 -0.00000000000E+00 -0.10408874909E+04  0.10408874909E+04  0.00000000000E+00 0. -1.
         25    2    1    2    0    0  0.96575848599E+02 -0.42853089408E+01  0.13543752921E+03  0.20811870832E+03  0.12499925611E+03 0.  0.
          2    1    1    2  501    0 -0.52514594545E+02 -0.27188925224E+01 -0.10035455596E+04  0.10049223180E+04  0.00000000000E+00 0. -1.
          1    1    1    2  502    0 -0.44061254054E+02  0.70042014632E+01  0.15896961845E+04  0.15903221095E+04  0.00000000000E+00 0. -1.
         22    1    3    3    0    0  0.93291553090E+01 -0.39823938487E+02  0.98988931612E+02  0.10710643210E+03  0.00000000000E+00 0. -1.
         22    1    3    3    0    0  0.87246693290E+02  0.35538629546E+02  0.36448597601E+02  0.10101227622E+03  0.00000000000E+00 0. -1.
</event>
<event>
 7    1  0.5931885E-006  0.7958926E+02  0.7818608E-02  0.1371317E+00
          2   -1    0    0  502    0  0.00000000000E+00  0.00000000000E+00  0.16926062066E+04  0.16926062066E+04  0.00000000000E+00 0. -1.
          1   -1    0    0  501    0 -0.00000000000E+00 -0.00000000000E+00 -0.74640212484E+03  0.74640212484E+03  0.00000000000E+00 0. -1.
         25    2    1    2    0    0  0.32398127322E+01 -0.12079502636E+03  0.86524665205E+02  0.19418864610E+03  0.12498311007E+03 0.  0.
          2    1    1    2  501    0  0.28316747909E+02  0.48394276326E+02 -0.69042828146E+03  0.69270127474E+03  0.00000000000E+00 0. -1.
          1    1    1    2  502    0 -0.31556560641E+02  0.72400750033E+02  0.15501076980E+04  0.15521184106E+04  0.00000000000E+00 0. -1.
         22    1    3    3    0    0 -0.28672613107E+02 -0.11508312023E+03  0.20124091818E+02  0.12029639386E+03  0.00000000000E+00 0. -1.
         22    1    3    3    0    0  0.31912425839E+02 -0.57119061321E+01  0.66400573387E+02  0.73892252237E+02  0.00000000000E+00 0. -1.
</event>
<event>
 7    1  0.5931885E-006  0.8857423E+02  0.7818608E-02  0.1401777E+00
          2   -1    0    0  502    0  0.00000000000E+00  0.00000000000E+00  0.15766181195E+04  0.15766181195E+04  0.00000000000E+00 0. -1.
          1   -1    0    0  501    0 -0.00000000000E+00 -0.00000000000E+00 -0.12270671660E+04  0.12270671660E+04  0.00000000000E+00 0. -1.
         25    2    1    2    0    0 -0.23680301465E+02 -0.12106769647E+03  0.34910332616E+03  0.39079728837E+03  0.12502497532E+03 0.  0.
          2    1    1    2  501    0  0.17681724651E+02  0.35202344674E+02 -0.12043627511E+04  0.12050068401E+04  0.00000000000E+00 0. -1.
          1    1    1    2  502    0  0.59985768145E+01  0.85865351798E+02  0.12048103784E+04  0.12078811571E+04  0.00000000000E+00 0. -1.
         22    1    3    3    0    0  0.11329598395E+02 -0.23803740834E+01 -0.71894350903E+01  0.13627690834E+02  0.00000000000E+00 0. -1.
         22    1    3    3    0    0 -0.35009899860E+02 -0.11868732239E+03  0.35629276125E+03  0.37716959753E+03  0.00000000000E+00 0. -1.
</event>
<event>
 7    1  0.5931885E-006  0.7126478E+02  0.7818608E-02  0.1422341E+00
          2   -1    0    0  502    0  0.00000000000E+00  0.00000000000E+00  0.12664801360E+04  0.12664801360E+04  0.00000000000E+00 0. -1.
          1   -1    0    0  501    0 -0.00000000000E+00 -0.00000000000E+00 -0.11314409491E+04  0.11314409491E+04  0.00000000000E+00 0. -1.
         25    2    1    2    0    0  0.36462479835E+01 -0.32912742786E+02  0.24974298907E+03  0.28123556913E+03  0.12500136396E+03 0.  0.
          2    1    1    2  501    0 -0.31147355067E+02  0.64289491299E+02 -0.11141154189E+04  0.11164033603E+04  0.00000000000E+00 0. -1.
          1    1    1    2  502    0  0.27501107083E+02 -0.31376748513E+02  0.99941161671E+03  0.10002821556E+04  0.00000000000E+00 0. -1.
         22    1    3    3    0    0 -0.48301873991E+02 -0.54211535731E+02  0.12773466071E+03  0.14692891201E+03  0.00000000000E+00 0. -1.
         22    1    3    3    0    0  0.51948121974E+02  0.21298792945E+02  0.12200832836E+03  0.13430665712E+03  0.00000000000E+00 0. -1.
</event>
<event>
 7    1  0.5931885E-006  0.1096521E+03  0.7818608E-02  0.1329628E+00
          2   -1    0    0  502    0  0.00000000000E+00  0.00000000000E+00  0.64069188397E+03  0.64069188397E+03  0.00000000000E+00 0. -1.
          1   -1    0    0  501    0 -0.00000000000E+00 -0.00000000000E+00 -0.79351316036E+03  0.79351316036E+03  0.00000000000E+00 0. -1.
         25    2    1    2    0    0  0.14446014075E+03 -0.33418929172E+02 -0.26616057480E+02  0.19575280361E+03  0.12500075406E+03 0.  0.
          2    1    1    2  501    0 -0.91574035150E+02  0.57404542129E+02 -0.67651151942E+03  0.68509044751E+03  0.00000000000E+00 0. -1.
          1    1    1    2  502    0 -0.52886105597E+02 -0.23985612957E+02  0.55030630051E+03  0.55336179321E+03  0.00000000000E+00 0. -1.
         22    1    3    3    0    0  0.13275411032E+03 -0.43391417755E+02  0.25008159218E+02  0.14188684566E+03  0.00000000000E+00 0. -1.
         22    1    3    3    0    0  0.11706030424E+02  0.99724885830E+01 -0.51624216699E+02  0.53865957956E+02  0.00000000000E+00 0. -1.
</event>
<event>
 7    1  0.5931885E-006  0.5834141E+02  0.7818608E-02  0.1496723E+00
          2   -1    0    0  502    0  0.00000000000E+00  0.00000000000E+00  0.20974577851E+02  0.20974577851E+02  0.00000000000E+00 0. -1.
          1   -1    0    0  501    0 -0.00000000000E+00 -0.00000000000E+00 -0.17736819701E+04  0.17736819701E+04  0.00000000000E+00 0. -1.
         25    2    1    2    0    0 -0.85549188533E+01  0.81026224775E+02 -0.58663751808E+03  0.60531897325E+03  0.12501618303E+03 0.  0.
          2    1    1    2  501    0 -0.77595384403E+01 -0.56244745142E+02 -0.11568870139E+04  0.11582794329E+04  0.00000000000E+00 0. -1.
          1    1    1    2  502    0  0.16314457294E+02 -0.24781479633E+02 -0.91828603010E+01  0.31058141813E+02  0.00000000000E+00 0. -1.
         22    1    3    3    0    0 -0.17749998204E+02  0.46573424226E+02 -0.62361636657E+02  0.79831823272E+02  0.00000000000E+00 0.  1.
         22    1    3    3    0    0  0.91950793509E+01  0.34452800549E+02 -0.52427588143E+03  0.52548714998E+03  0.00000000000E+00 0.  1.
</event>
<event>
 7    1  0.5931885E-006  0.1830305E+03  0.7818608E-02  0.1272649E+00
          2   -1    0    0  502    0  0.00000000000E+00  0.00000000000E+00  0.26334257862E+04  0.26334257862E+04  0.00000000000E+00 0. -1.
          1   -1    0    0  501    0 -0.00000000000E+00 -0.00000000000E+00 -0.30291550697E+02  0.30291550697E+02  0.00000000000E+00 0. -1.
         25    2    1    2    0    0  0.17000111608E+02  0.21196346327E+03  0.10626421466E+04  0.10908948495E+04  0.12500290996E+03 0.  0.
          2    1    1    2  501    0  0.23845810416E+02 -0.16968919497E+03  0.46241013434E+03  0.49313910604E+03  0.00000000000E+00 0. -1.
          1    1    1    2  502    0 -0.40845922024E+02 -0.42274268292E+02  0.10780819546E+04  0.10796833813E+04  0.00000000000E+00 0. -1.
         22    1    3    3    0    0  0.62707283427E+02  0.11534225842E+03  0.44088113357E+03  0.46001327580E+03  0.00000000000E+00 0. -1.
         22    1    3    3    0    0 -0.45707171820E+02  0.96621204847E+02  0.62176101299E+03  0.63088157372E+03  0.00000000000E+00 0. -1.
</event>
<event>
 7    1  0.5931885E-006  0.5125603E+02  0.7818608E-02  0.1527954E+00
          2   -1    0    0  502    0  0.00000000000E+00  0.00000000000E+00  0.27136937891E+02  0.27136937891E+02  0.00000000000E+00 0. -1.
          1   -1    0    0  501    0 -0.00000000000E+00 -0.00000000000E+00 -0.75405785921E+03  0.75405785921E+03  0.00000000000E+00 0. -1.
         25    2    1    2    0    0 -0.46184176069E+02 -0.40627166159E+02 -0.21549721245E+03  0.25660764227E+03  0.12499955500E+03 0.  0.
          2    1    1    2  501    0  0.19601796210E+02  0.47044429747E+02 -0.48094965943E+03  0.48364241304E+03  0.00000000000E+00 0. -1.
          1    1    1    2  502    0  0.26582379859E+02 -0.64172635886E+01 -0.30474049441E+02  0.40944741790E+02  0.00000000000E+00 0. -1.
         22    1    3    3    0    0 -0.34885655481E+02 -0.84804196422E+02 -0.16341014117E+03  0.18738098870E+03  0.00000000000E+00 0. -1.
         22    1    3    3    0    0 -0.11298520588E+02  0.44177030263E+02 -0.52087071279E+02  0.69226653572E+02  0.00000000000E+00 0. -1.
</event>
<event>
 7    1  0.5931885E-006  0.2633345E+02  0.7818608E-02  0.1648159E+00
          2   -1    0    0  502    0  0.00000000000E+00  0.00000000000E+00  0.87739238758E+03  0.87739238758E+03  0.00000000000E+00 0. -1.
          1   -1    0    0  501    0 -0.00000000000E+00 -0.00000000000E+00 -0.71466701128E+02  0.71466701128E+02  0.00000000000E+00 0. -1.
         25    2    1    2    0    0 -0.18386392769E+02 -0.24159121920E+02  0.10860209349E+03  0.16834918231E+03  0.12500123944E+03 0.  0.
          2    1    1    2  501    0  0.25477194454E+02 -0.12668820444E+01 -0.37422690136E+02  0.45289625350E+02  0.00000000000E+00 0. -1.
          1    1    1    2  502    0 -0.70908016851E+01  0.25426003965E+02  0.73474628309E+03  0.73522028105E+03  0.00000000000E+00 0. -1.
         22    1    3    3    0    0 -0.42394585299E+02  0.68895614043E+01  0.12002015033E+03  0.12747393226E+03  0.00000000000E+00 0. -1.
         22    1    3    3    0    0  0.24008192530E+02 -0.31048683325E+02 -0.11418056839E+02  0.40875250051E+02  0.00000000000E+00 0. -1.
</event>
<event>
 7    1  0.5931885E-006  0.1302475E+03  0.7818608E-02  0.1357172E+00
          2   -1    0    0  502    0  0.00000000000E+00  0.00000000000E+00  0.31343548468E+04  0.31343548468E+04  0.00000000000E+00 0. -1.
          1   -1    0    0  501    0 -0.00000000000E+00 -0.00000000000E+00 -0.17774144050E+02  0.17774144050E+02  0.00000000000E+00 0. -1.
         25    2    1    2    0    0 -0.61625040743E+02 -0.11187063814E+03  0.98538692313E+03  0.10014622808E+04  0.12500650460E+03 0.  0.
          2    1    1    2  501    0  0.27750615312E+02  0.13028848302E+03  0.45675108333E+03  0.47578013576E+03  0.00000000000E+00 0. -1.
          1    1    1    2  502    0  0.33874425431E+02 -0.18417844877E+02  0.16744426963E+04  0.16748865743E+04  0.00000000000E+00 0. -1.
         22    1    3    3    0    0 -0.53761244536E+02 -0.11714568805E+03  0.98336933942E+03  0.99178054093E+03  0.00000000000E+00 0.  1.
         22    1    3    3    0    0 -0.78637962074E+01  0.52750499053E+01  0.20175837090E+01  0.96817398394E+01  0.00000000000E+00 0.  1.
</event>
<event>
 7    1  0.5931885E-006  0.6552490E+02  0.7818608E-02  0.1497448E+00
          2   -1    0    0  502    0  0.00000000000E+00  0.00000000000E+00  0.13238676371E+03  0.13238676371E+03  0.00000000000E+00 0. -1.
          1   -1    0    0  501    0 -0.00000000000E+00 -0.00000000000E+00 -0.87525528358E+03  0.87525528358E+03  0.00000000000E+00 0. -1.
         25    2    1    2    0    0  0.28912636132E+02 -0.55478001030E+02  0.43825316639E+02  0.14649153645E+03  0.12500145098E+03 0.  0.
          2    1    1    2  501    0  0.23992895032E+02  0.10735141311E+02 -0.79127416670E+03  0.79171062210E+03  0.00000000000E+00 0. -1.
          1    1    1    2  502    0 -0.52905531163E+02  0.44742859718E+02  0.45803301906E+01  0.69439888739E+02  0.00000000000E+00 0. -1.
         22    1    3    3    0    0  0.38812864851E+02  0.15923316029E+02  0.59422099061E+02  0.72739097658E+02  0.00000000000E+00 0. -1.
         22    1    3    3    0    0 -0.99002287194E+01 -0.71401317058E+02 -0.15596782422E+02  0.73752438795E+02  0.00000000000E+00 0. -1.
</event>
<event>
 7    1  0.5931885E-006  0.1002837E+03  0.7818608E-02  0.1291999E+00
          2   -1    0    0  502    0  0.00000000000E+00  0.00000000000E+00  0.76695549980E+03  0.76695549980E+03  0.00000000000E+00 0. -1.
          1   -1    0    0  501    0 -0.00000000000E+00 -0.00000000000E+00 -0.16829402139E+04  0.16829402139E+04  0.00000000000E+00 0. -1.
         25    2    1    2    0    0 -0.27063145534E+02  0.73079302174E+02 -0.85011652226E+02  0.17007243767E+03  0.12499861915E+03 0.  0.
          2    1    1    2  501    0  0.88956250671E+02  0.78937884218E+01 -0.15505222186E+04  0.15530919730E+04  0.00000000000E+00 0. -1.
          1    1    1    2  502    0 -0.61893105137E+02 -0.80973090596E+02  0.71954915669E+03  0.72673130300E+03  0.00000000000E+00 0. -1.
         22    1    3    3    0    0  0.41035442740E+02  0.19164888310E+02 -0.67785494647E+02  0.81523455455E+02  0.00000000000E+00 0.  1.
         22    1    3    3    0    0 -0.68098588274E+02  0.53914413864E+02 -0.17226157579E+02  0.88548982220E+02  0.00000000000E+00 0.  1.
</event>
<event>
 7    1  0.5931885E-006  0.5237774E+02  0.7818608E-02  0.1491845E+00
          2   -1    0    0  502    0  0.00000000000E+00  0.00000000000E+00  0.65228343847E+03  0.65228343847E+03  0.00000000000E+00 0. -1.
          1   -1    0    0  501    0 -0.00000000000E+00 -0.00000000000E+00 -0.14140043429E+03  0.14140043429E+03  0.00000000000E+00 0. -1.
         25    2    1    2    0    0  0.31303657160E+02  0.18562104946E+02  0.22028889821E+03  0.25588351914E+03  0.12499882400E+03 0.  0.
          2    1    1    2  501    0 -0.11118924914E+02  0.32324373777E+02 -0.11938504281E+03  0.12418246284E+03  0.00000000000E+00 0. -1.
          1    1    1    2  502    0 -0.20184732246E+02 -0.50886478723E+02  0.40997914879E+03  0.41361789078E+03  0.00000000000E+00 0. -1.
         22    1    3    3    0    0  0.34434552687E+02  0.49144157127E+02  0.38015048243E+02  0.71035417162E+02  0.00000000000E+00 0.  1.
         22    1    3    3    0    0 -0.31308955266E+01 -0.30582052181E+02  0.18227384997E+03  0.18484810198E+03  0.00000000000E+00 0.  1.
</event>
<event>
 7    1  0.5931885E-006  0.7282978E+02  0.7818608E-02  0.1371077E+00
          2   -1    0    0  502    0  0.00000000000E+00  0.00000000000E+00  0.12175502667E+04  0.12175502667E+04  0.00000000000E+00 0. -1.
          1   -1    0    0  501    0 -0.00000000000E+00 -0.00000000000E+00 -0.23018637845E+04  0.23018637845E+04  0.00000000000E+00 0. -1.
         25    2    1    2    0    0  0.30121842018E+02 -0.51991184946E+02 -0.11177920365E+03  0.17808828592E+03  0.12494174056E+03 0.  0.
          2    1    1    2  501    0 -0.59548242604E+02 -0.14946032147E+02 -0.21553639729E+04  0.21562382134E+04  0.00000000000E+00 0. -1.
          1    1    1    2  502    0  0.29426400586E+02  0.66937217093E+02  0.11828296587E+04  0.11850875519E+04  0.00000000000E+00 0. -1.
         22    1    3    3    0    0 -0.24558584448E+02 -0.29043125309E+00 -0.98697373019E+02  0.10170732452E+03  0.00000000000E+00 0. -1.
         22    1    3    3    0    0  0.54680426467E+02 -0.51700753693E+02 -0.13081830627E+02  0.76380961394E+02  0.00000000000E+00 0. -1.
</event>
<event>
 7    1  0.5931885E-006  0.3912242E+02  0.7818608E-02  0.1551798E+00
          2   -1    0    0  502    0  0.00000000000E+00  0.00000000000E+00  0.16992648924E+04  0.16992648924E+04  0.00000000000E+00 0. -1.
          1   -1    0    0  501    0 -0.00000000000E+00 -0.00000000000E+00 -0.80442905272E+02  0.80442905272E+02  0.00000000000E+00 0. -1.
         25    2    1    2    0    0  0.36425376454E+02 -0.24332825349E+02  0.95318252052E+03  0.96234086318E+03  0.12499650033E+03 0.  0.
          2    1    1    2  501    0 -0.27108410263E+02 -0.14357283822E+02 -0.72204495639E+02  0.78450536622E+02  0.00000000000E+00 0. -1.
          1    1    1    2  502    0 -0.93169661903E+01  0.38690109171E+02  0.73784396227E+03  0.73891639789E+03  0.00000000000E+00 0. -1.
         22    1    3    3    0    0 -0.31855109449E+02  0.30944232397E+02  0.34475695979E+03  0.34760560243E+03  0.00000000000E+00 0. -1.
         22    1    3    3    0    0  0.68280485903E+02 -0.55277057747E+02  0.60842556073E+03  0.61473526076E+03  0.00000000000E+00 0. -1.
</event>
<event>
 7    1  0.5931885E-006  0.6996063E+02  0.7818608E-02  0.1513924E+00
          2   -1    0    0  502    0  0.00000000000E+00  0.00000000000E+00  0.64496383448E+03  0.64496383448E+03  0.00000000000E+00 0. -1.
          1   -1    0    0  501    0 -0.00000000000E+00 -0.00000000000E+00 -0.49858150563E+03  0.49858150563E+03  0.00000000000E+00 0. -1.
         25    2    1    2    0    0  0.61896065827E+02  0.53318639144E+02 -0.23871386728E+03  0.28156806915E+03  0.12498906706E+03 0.  0.
          2    1    1    2  501    0 -0.21666262598E+02  0.38326073240E+01 -0.23596866996E+03  0.23699225518E+03  0.00000000000E+00 0. -1.
          1    1    1    2  502    0 -0.40229803229E+02 -0.57151246468E+02  0.62106486610E+03  0.62498501577E+03  0.00000000000E+00 0. -1.
         22    1    3    3    0    0 -0.24161297458E+02  0.32734599728E+02 -0.15321472124E+03  0.15852467668E+03  0.00000000000E+00 0.  1.
         22    1    3    3    0    0  0.86057363285E+02  0.20584039416E+02 -0.85499146049E+02  0.12304339247E+03  0.00000000000E+00 0.  1.
</event>
<event>
 7    1  0.5931885E-006  0.3597444E+02  0.7818608E-02  0.1624690E+00
          2   -1    0    0  502    0  0.00000000000E+00  0.00000000000E+00  0.20031083824E+03  0.20031083824E+03  0.00000000000E+00 0. -1.
          1   -1    0    0  501    0 -0.00000000000E+00 -0.00000000000E+00 -0.86586471155E+03  0.86586471155E+03  0.00000000000E+00 0. -1.
         25    2    1    2    0    0  0.21107581487E+01  0.19804075868E+02 -0.42101957156E+02  0.13339344867E+03  0.12499832251E+03 0.  0.
          2    1    1    2  501    0  0.14664386666E+02 -0.33038505106E+02 -0.77695683280E+03  0.77779721463E+03  0.00000000000E+00 0. -1.
          1    1    1    2  502    0 -0.16775144815E+02  0.13234429238E+02  0.15350491665E+03  0.15498488648E+03  0.00000000000E+00 0. -1.
         22    1    3    3    0    0  0.47064522429E+02  0.52857517728E+02 -0.23067541188E+02  0.74438551224E+02  0.00000000000E+00 0.  1.
         22    1    3    3    0    0 -0.44953764281E+02 -0.33053441860E+02 -0.19034415968E+02  0.58954897447E+02  0.00000000000E+00 0.  1.
</event>
<event>
 7    1  0.5931885E-006  0.2052408E+03  0.7818608E-02  0.1273480E+00
          2   -1    0    0  502    0  0.00000000000E+00  0.00000000000E+00  0.53021057288E+03  0.53021057288E+03  0.00000000000E+00 0. -1.
          1   -1    0    0  501    0 -0.00000000000E+00 -0.00000000000E+00 -0.22385479655E+03  0.22385479655E+03  0.00000000000E+00 0. -1.
         25    2    1    2    0    0  0.17169285087E+03  0.60609711389E+02 -0.99277801617E+01  0.22107807560E+03  0.12499993016E+03 0.  0.
          2    1    1    2  501    0 -0.21717298026E+03 -0.85830529382E+02  0.22459326431E+02  0.23459625843E+03  0.00000000000E+00 0. -1.
          1    1    1    2  502    0  0.45480129391E+02  0.25220817993E+02  0.29382423007E+03  0.29839103540E+03  0.00000000000E+00 0. -1.
         22    1    3    3    0    0  0.11099299511E+03  0.88711740780E+02  0.27060976725E+02  0.14464271284E+03  0.00000000000E+00 0.  1.
         22    1    3    3    0    0  0.60699855754E+02 -0.28102029391E+02 -0.36988756887E+02  0.76435362762E+02  0.00000000000E+00 0.  1.
</event>
<event>
 7    1  0.5931885E-006  0.1353946E+03  0.7818608E-02  0.1232885E+00
          2   -1    0    0  502    0  0.00000000000E+00  0.00000000000E+00  0.24737931510E+04  0.24737931510E+04  0.00000000000E+00 0. -1.
          1   -1    0    0  501    0 -0.00000000000E+00 -0.00000000000E+00 -0.25720282306E+03  0.25720282306E+03  0.00000000000E+00 0. -1.
         25    2    1    2    0    0 -0.12776213847E+03 -0.16551774163E+03  0.18326164223E+04  0.18487366681E+04  0.12500011918E+03 0.  0.
          2    1    1    2  501    0  0.13966124138E+02  0.13423413702E+03 -0.22477349346E+03  0.26217738179E+03  0.00000000000E+00 0. -1.
          1    1    1    2  502    0  0.11379601433E+03  0.31283604615E+02  0.60874739914E+03  0.62008192422E+03  0.00000000000E+00 0. -1.
         22    1    3    3    0    0 -0.12381086230E+03 -0.11660009393E+03  0.16760972684E+04  0.16847037617E+04  0.00000000000E+00 0.  1.
         22    1    3    3    0    0 -0.39512761663E+01 -0.48917647699E+02  0.15651915394E+03  0.16403290642E+03  0.00000000000E+00 0.  1.
</event>
<event>
 7    1  0.5931885E-006  0.1549052E+03  0.7818608E-02  0.1351795E+00
          2   -1    0    0  502    0  0.00000000000E+00  0.00000000000E+00  0.60294645341E+03  0.60294645341E+03  0.00000000000E+00 0. -1.
          1   -1    0    0  501    0 -0.00000000000E+00 -0.00000000000E+00 -0.30667124528E+03  0.30667124528E+03  0.00000000000E+00 0. -1.
         25    2    1    2    0    0 -0.16362185916E+03 -0.85941113017E+02  0.21783775351E+02  0.22418182807E+03  0.12499988587E+03 0.  0.
          2    1    1    2  501    0  0.27267931680E+02  0.20193832747E+02 -0.19201174774E+03  0.19498677455E+03  0.00000000000E+00 0. -1.
          1    1    1    2  502    0  0.13635392748E+03  0.65747280270E+02  0.46650318052E+03  0.49044909607E+03  0.00000000000E+00 0. -1.
         22    1    3    3    0    0 -0.83727564040E+02  0.40411585851E+01 -0.35350755598E+02  0.90974237365E+02  0.00000000000E+00 0.  1.
         22    1    3    3    0    0 -0.79894295120E+02 -0.89982271602E+02  0.57134530949E+02  0.13320759071E+03  0.00000000000E+00 0.  1.
</event>
<event>
 7    1  0.5931885E-006  0.2988352E+03  0.7818608E-02  0.1269254E+00
          2   -1    0    0  502    0  0.00000000000E+00  0.00000000000E+00  0.20830683911E+04  0.20830683911E+04  0.00000000000E+00 0. -1.
          1   -1    0    0  501    0 -0.00000000000E+00 -0.00000000000E+00 -0.14078238633E+04  0.14078238633E+04  0.00000000000E+00 0. -1.
         25    2    1    2    0    0 -0.17380894280E+03  0.23812562970E+03 -0.63453463521E+03  0.71075573266E+03  0.12500457638E+03 0.  0.
          2    1    1    2  501    0  0.14775098891E+03 -0.26467896736E+03 -0.70375362885E+03  0.76626006069E+03  0.00000000000E+00 0. -1.
          1    1    1    2  502    0  0.26057953887E+02  0.26553337665E+02  0.20135327919E+04  0.20138764611E+04  0.00000000000E+00 0. -1.
         22    1    3    3    0    0 -0.84435090281E+02  0.35489709758E+02 -0.12316541471E+03  0.15348786059E+03  0.00000000000E+00 0. -1.
         22    1    3    3    0    0 -0.89373852521E+02  0.20263591994E+03 -0.51136922050E+03  0.55726787207E+03  0.00000000000E+00 0. -1.
</event>
<event>
 7    1  0.5931885E-006  0.5959508E+02  0.7818608E-02  0.1412235E+00
          2   -1    0    0  502    0  0.00000000000E+00  0.00000000000E+00  0.56168283079E+03  0.56168283079E+03  0.00000000000E+00 0. -1.
          1   -1    0    0  501    0 -0.00000000000E+00 -0.00000000000E+00 -0.19503955920E+03  0.19503955920E+03  0.00000000000E+00 0. -1.
         25    2    1    2    0    0 -0.13031235372E+02  0.22149133517E+02 -0.81823876465E+02  0.15161084995E+03  0.12502122160E+03 0.  0.
          2    1    1    2  501    0  0.38583943485E+02 -0.69654919783E+02 -0.56268161650E+02  0.97501972084E+02  0.00000000000E+00 0. -1.
          1    1    1    2  502    0 -0.25552708113E+02  0.47505786266E+02  0.50473530971E+03  0.50760956796E+03  0.00000000000E+00 0. -1.
         22    1    3    3    0    0 -0.14668093508E+02 -0.19891039864E+02  0.25998482205E+02  0.35870984249E+02  0.00000000000E+00 0. -1.
         22    1    3    3    0    0  0.16368581353E+01  0.42040173380E+02 -0.10782235867E+03  0.11573986570E+03  0.00000000000E+00 0. -1.
</event>
<event>
 7    1  0.5931885E-006  0.1398030E+03  0.7818608E-02  0.1341653E+00
          2   -1    0    0  502    0  0.00000000000E+00  0.00000000000E+00  0.28244181992E+04  0.28244181992E+04  0.00000000000E+00 0. -1.
          1   -1    0    0  501    0 -0.00000000000E+00 -0.00000000000E+00 -0.17951042814E+03  0.17951042814E+03  0.00000000000E+00 0. -1.
         25    2    1    2    0    0  0.95468735800E+02  0.45070158752E+02  0.16786896769E+03  0.23444420445E+03  0.12505397219E+03 0.  0.
          2    1    1    2  501    0 -0.12852510706E+03 -0.69345433954E+02 -0.10955563544E+03  0.18256486412E+03  0.00000000000E+00 0. -1.
          1    1    1    2  502    0  0.33056371265E+02  0.24275275202E+02  0.25865944388E+04  0.25869195587E+04  0.00000000000E+00 0. -1.
         22    1    3    3    0    0  0.77626762440E+02 -0.24014211056E+02  0.46404587305E+02  0.93573405958E+02  0.00000000000E+00 0.  1.
         22    1    3    3    0    0  0.17841973360E+02  0.69084369808E+02  0.12146438039E+03  0.14087079849E+03  0.00000000000E+00 0.  1.
</event>
<event>
 7    1  0.5931885E-006  0.6906242E+02  0.7818608E-02  0.1439562E+00
          2   -1    0    0  502    0  0.00000000000E+00  0.00000000000E+00  0.32540244997E+04  0.32540244997E+04  0.00000000000E+00 0. -1.
          1   -1    0    0  501    0 -0.00000000000E+00 -0.00000000000E+00 -0.16227790573E+02  0.16227790573E+02  0.00000000000E+00 0. -1.
         25    2    1    2    0    0 -0.60779934224E+02 -0.22710928333E+02  0.20554023739E+04  0.20602217719E+04  0.12499937620E+03 0.  0.
          2    1    1    2  501    0  0.42061093411E+02  0.55540329737E+02  0.76421944756E+02  0.10341265612E+03  0.00000000000E+00 0. -1.
          1    1    1    2  502    0  0.18718840813E+02 -0.32829401404E+02  0.11059723904E+04  0.11066178622E+04  0.00000000000E+00 0. -1.
         22    1    3    3    0    0  0.26216773063E+02  0.14152254431E+01  0.11563329600E+04  0.11566309855E+04  0.00000000000E+00 0.  1.
         22    1    3    3    0    0 -0.86996707287E+02 -0.24126153776E+02  0.89906941389E+03  0.90359078645E+03  0.00000000000E+00 0.  1.
</event>
<event>
 7    1  0.5931885E-006  0.1304111E+03  0.7818608E-02  0.1403629E+00
          2   -1    0    0  502    0  0.00000000000E+00  0.00000000000E+00  0.68339469783E+03  0.68339469783E+03  0.00000000000E+00 0. -1.
          1   -1    0    0  501    0 -0.00000000000E+00 -0.00000000000E+00 -0.63649808244E+03  0.63649808244E+03  0.00000000000E+00 0. -1.
         25    2    1    2    0    0 -0.80751366244E+02  0.71780742737E+02  0.44720041896E+01  0.16528010474E+03  0.12499702406E+03 0.  0.
          2    1    1    2  501    0 -0.10653927754E+02  0.24119539580E+02 -0.54844206177E+03  0.54907554443E+03  0.00000000000E+00 0. -1.
          1    1    1    2  502    0  0.91405293998E+02 -0.95900282317E+02  0.59086667297E+03  0.60553713110E+03  0.00000000000E+00 0. -1.
         22    1    3    3    0    0 -0.10036277558E+03  0.11831187190E+02 -0.64599291272E+01  0.10126398371E+03  0.00000000000E+00 0. -1.
         22    1    3    3    0    0  0.19611409335E+02  0.59949555547E+02  0.10931933317E+02  0.64016121035E+02  0.00000000000E+00 0. -1.
</event>
<event>
 7    1  0.5931885E-006  0.8834321E+02  0.7818608E-02  0.1435390E+00
          2   -1    0    0  502    0  0.00000000000E+00  0.00000000000E+00  0.49209494598E+03  0.49209494598E+03  0.00000000000E+00 0. -1.
          1   -1    0    0  501    0 -0.00000000000E+00 -0.00000000000E+00 -0.10239223202E+04  0.10239223202E+04  0.00000000000E+00 0. -1.
         25    2    1    2    0    0 -0.95911192677E+02 -0.63049567953E+02  0.19796641372E+03  0.26073389795E+03  0.12496903489E+03 0.  0.
          2    1    1    2  501    0  0.79946507803E+02  0.37082373573E+02 -0.98968985432E+03  0.99360583447E+03  0.00000000000E+00 0. -1.
          1    1    1    2  502    0  0.15964684874E+02  0.25967194380E+02  0.25989606639E+03  0.26167753375E+03  0.00000000000E+00 0. -1.
         22    1    3    3    0    0 -0.44949956170E+01 -0.24549254724E+02 -0.12611672874E+02  0.27962925201E+02  0.00000000000E+00 0. -1.
         22    1    3    3    0    0 -0.91416197060E+02 -0.38500313229E+02  0.21057808659E+03  0.23277097275E+03  0.00000000000E+00 0. -1.
</event>
<event>
 7    1  0.5931885E-006  0.2121042E+03  0.7818608E-02  0.1231327E+00
          2   -1    0    0  502    0  0.00000000000E+00  0.00000000000E+00  0.31347601070E+03  0.31347601070E+03  0.00000000000E+00 0. -1.
          1   -1    0    0  501    0 -0.00000000000E+00 -0.00000000000E+00 -0.30985688463E+04  0.30985688463E+04  0.00000000000E+00 0. -1.
         25    2    1    2    0    0  0.21461216224E+03 -0.18721835356E+03 -0.10772070561E+04  0.11212078439E+04  0.12499158104E+03 0.  0.
          2    1    1    2  501    0 -0.65077695959E+02  0.40314581365E+02 -0.19608290394E+04  0.19623228312E+04  0.00000000000E+00 0. -1.
          1    1    1    2  502    0 -0.14953446628E+03  0.14690377220E+03  0.25294326001E+03  0.32851418185E+03  0.00000000000E+00 0. -1.
         22    1    3    3    0    0  0.23392678455E+02 -0.51040704468E+02 -0.86924834966E+02  0.10348090573E+03  0.00000000000E+00 0.  1.
         22    1    3    3    0    0  0.19121948378E+03 -0.13617764910E+03 -0.99028222118E+03  0.10177269382E+04  0.00000000000E+00 0.  1.
</event>
<event>
 7    1  0.5931885E-006  0.4566019E+02  0.7818608E-02  0.1476874E+00
          2   -1    0    0  502    0  0.00000000000E+00  0.00000000000E+00  0.93877954131E+03  0.93877954131E+03  0.00000000000E+00 0. -1.
          1   -1    0    0  501    0 -0.00000000000E+00 -0.00000000000E+00 -0.71517862220E+02  0.71517862220E+02  0.00000000000E+00 0. -1.
         25    2    1    2    0    0  0.10172977648E+02 -0.50366762913E+02  0.14451813657E+03  0.19787293629E+03  0.12501162682E+03 0.  0.
          2    1    1    2  501    0 -0.40585951373E+02  0.15814830372E+02 -0.33394641029E+02  0.54886522553E+02  0.00000000000E+00 0. -1.
          1    1    1    2  502    0  0.30412973725E+02  0.34551932541E+02  0.75613818355E+03  0.75753794468E+03  0.00000000000E+00 0. -1.
         22    1    3    3    0    0 -0.43512344294E+02 -0.54441657350E+02  0.11987305171E+03  0.13866061693E+03  0.00000000000E+00 0. -1.
         22    1    3    3    0    0  0.53685321941E+02  0.40748944374E+01  0.24645084858E+02  0.59212319362E+02  0.00000000000E+00 0. -1.
</event>
<event>
 7    1  0.5931885E-006  0.4335624E+03  0.7818608E-02  0.1075063E+00
          2   -1    0    0  502    0  0.00000000000E+00  0.00000000000E+00  0.22865185427E+04  0.22865185427E+04  0.00000000000E+00 0. -1.
          1   -1    0    0  501    0 -0.00000000000E+00 -0.00000000000E+00 -0.24576947759E+03  0.24576947759E+03  0.00000000000E+00 0. -1.
         25    2    1    2    0    0 -0.21834488611E+03 -0.12837771439E+03  0.10164893003E+04  0.10550023412E+04  0.12499646201E+03 0.  0.
          2    1    1    2  501    0  0.36337342902E+03  0.31717773567E+03  0.62339025625E+02  0.48634156623E+03  0.00000000000E+00 0. -1.
          1    1    1    2  502    0 -0.14502854291E+03 -0.18880002128E+03  0.96192073922E+03  0.99094411287E+03  0.00000000000E+00 0. -1.
         22    1    3    3    0    0 -0.15892223013E+02 -0.60106100265E+02  0.14618660299E+03  0.15885788911E+03  0.00000000000E+00 0.  1.
         22    1    3    3    0    0 -0.20245266310E+03 -0.68271614128E+02  0.87030269731E+03  0.89614445211E+03  0.00000000000E+00 0.  1.
</event>
<event>
 7    1  0.5931885E-006  0.9894765E+02  0.7818608E-02  0.1326832E+00
          2   -1    0    0  502    0  0.00000000000E+00  0.00000000000E+00  0.99236703744E+03  0.99236703744E+03  0.00000000000E+00 0. -1.
          1   -1    0    0  501    0 -0.00000000000E+00 -0.00000000000E+00 -0.69060484510E+03  0.69060484510E+03  0.00000000000E+00 0. -1.
         25    2    1    2    0    0  0.13976777236E+03  0.23173894875E+02  0.89874643534E+02  0.20922489493E+03  0.12500218203E+03 0.  0.
          2    1    1    2  501    0 -0.45457240549E+02 -0.47795196515E+02 -0.62637409273E+03  0.62983747552E+03  0.00000000000E+00 0. -1.
          1    1    1    2  502    0 -0.94310531815E+02  0.24621301640E+02  0.83826164154E+03  0.84390951208E+03  0.00000000000E+00 0. -1.
         22    1    3    3    0    0  0.16173142062E+03  0.12357994362E+02  0.66275707148E+02  0.17522055187E+03  0.00000000000E+00 0.  1.
         22    1    3    3    0    0 -0.21963648253E+02  0.10815900513E+02  0.23598936386E+02  0.34004343061E+02  0.00000000000E+00 0.  1.
</event>
<event>
 7    1  0.5931885E-006  0.6186679E+02  0.7818608E-02  0.1426132E+00
          2   -1    0    0  502    0  0.00000000000E+00  0.00000000000E+00  0.11224438941E+04  0.11224438941E+04  0.00000000000E+00 0. -1.
          1   -1    0    0  501    0 -0.00000000000E+00 -0.00000000000E+00 -0.31346618229E+03  0.31346618229E+03  0.00000000000E+00 0. -1.
         25    2    1    2    0    0 -0.72669894849E+02 -0.78936367185E+02  0.14297857635E+03  0.21813044446E+03  0.12500461521E+03 0.  0.
          2    1    1    2  501    0  0.33093912460E+02  0.32933018480E+02 -0.27292847414E+03  0.27689301679E+03  0.00000000000E+00 0. -1.
          1    1    1    2  502    0  0.39575982389E+02  0.46003348705E+02  0.93892760960E+03  0.94088661513E+03  0.00000000000E+00 0. -1.
         22    1    3    3    0    0  0.21342278386E+02 -0.14432432250E+02 -0.97429445024E+01  0.27544743872E+02  0.00000000000E+00 0. -1.
         22    1    3    3    0    0 -0.94012173235E+02 -0.64503934935E+02  0.15272152085E+03  0.19058570059E+03  0.00000000000E+00 0. -1.
</event>
<event>
 7    1  0.5931885E-006  0.7315773E+02  0.7818608E-02  0.1446120E+00
          2   -1    0    0  502    0  0.00000000000E+00  0.00000000000E+00  0.13498446858E+03  0.13498446858E+03  0.00000000000E+00 0. -1.
          1   -1    0    0  501    0 -0.00000000000E+00 -0.00000000000E+00 -0.92986615014E+03  0.92986615014E+03  0.00000000000E+00 0. -1.
         25    2    1    2    0    0  0.87348800397E+02 -0.49812501440E+02 -0.14545261348E+03  0.21654424965E+03  0.12499540415E+03 0.  0.
          2    1    1    2  501    0 -0.68658203190E+02  0.21439318364E+02 -0.74418000294E+03  0.74764795860E+03  0.00000000000E+00 0. -1.
          1    1    1    2  502    0 -0.18690597207E+02  0.28373183076E+02  0.94750934850E+02  0.10065841046E+03  0.00000000000E+00 0. -1.
         22    1    3    3    0    0  0.10775677151E+03 -0.67616098499E+02 -0.13953814646E+03  0.18882360260E+03  0.00000000000E+00 0.  1.
         22    1    3    3    0    0 -0.20407971108E+02  0.17803597058E+02 -0.59144670225E+01  0.27720647054E+02  0.00000000000E+00 0.  1.
</event>
<event>
 7    1  0.5931885E-006  0.5720235E+02  0.7818608E-02  0.1493477E+00
          2   -1    0    0  502    0  0.00000000000E+00  0.00000000000E+00  0.17140354976E+04  0.17140354976E+04  0.00000000000E+00 0. -1.
          1   -1    0    0  501    0 -0.00000000000E+00 -0.00000000000E+00 -0.33449514174E+02  0.33449514174E+02  0.00000000000E+00 0. -1.
         25    2    1    2    0    0  0.26015509138E+02  0.68753072849E+02  0.30841414190E+03  0.34081679311E+03  0.12503204310E+03 0.  0.
          2    1    1    2  501    0  0.19839131439E+01 -0.55570259803E+02  0.28213779779E+02  0.62353885648E+02  0.00000000000E+00 0. -1.
          1    1    1    2  502    0 -0.27999422282E+02 -0.13182813046E+02  0.13439580617E+04  0.13443143330E+04  0.00000000000E+00 0. -1.
         22    1    3    3    0    0 -0.13477432379E+02 -0.28745895555E+02  0.12889461998E+03  0.13274709321E+03  0.00000000000E+00 0.  1.
         22    1    3    3    0    0  0.39492941517E+02  0.97498968404E+02  0.17951952192E+03  0.20806969991E+03  0.00000000000E+00 0.  1.
</event>
<event>
 7    1  0.5931885E-006  0.1879419E+03  0.7818608E-02  0.1325775E+00
          2   -1    0    0  502    0  0.00000000000E+00  0.00000000000E+00  0.89712088854E+03  0.89712088854E+03  0.00000000000E+00 0. -1.
          1   -1    0    0  501    0 -0.00000000000E+00 -0.00000000000E+00 -0.13284048730E+03  0.13284048730E+03  0.00000000000E+00 0. -1.
         25    2    1    2    0    0 -0.17107851668E+03 -0.12435062694E+03  0.28789096443E+03  0.37846685348E+03  0.12500005796E+03 0.  0.
          2    1    1    2  501    0  0.15595119437E+03  0.92729897207E+02  0.78098039064E+01  0.18160562188E+03  0.00000000000E+00 0. -1.
          1    1    1    2  502    0  0.15127322314E+02  0.31620729730E+02  0.46857963290E+03  0.46988890048E+03  0.00000000000E+00 0. -1.
         22    1    3    3    0    0 -0.11413133255E+03 -0.82289184768E+02  0.27150615480E+03  0.30579905673E+03  0.00000000000E+00 0.  1.
         22    1    3    3    0    0 -0.56947184131E+02 -0.42061442169E+02  0.16384809628E+02  0.72667796749E+02  0.00000000000E+00 0.  1.
</event>
<event>
 7    1  0.5931885E-006  0.7322989E+02  0.7818608E-02  0.1477050E+00
          2   -1    0    0  502    0  0.00000000000E+00  0.00000000000E+00  0.11120332133E+03  0.11120332133E+03  0.00000000000E+00 0. -1.
          1   -1    0    0  501    0 -0.00000000000E+00 -0.00000000000E+00 -0.13291101110E+04  0.13291101110E+04  0.00000000000E+00 0. -1.
         25    2    1    2    0    0  0.38494407846E+02  0.88430486505E+02 -0.40607721406E+03  0.43570376323E+03  0.12504917085E+03 0.  0.
          2    1    1    2  501    0 -0.20008553471E+02 -0.18315390247E+02 -0.89434791563E+03  0.89475917984E+03  0.00000000000E+00 0. -1.
          1    1    1    2  502    0 -0.18485854374E+02 -0.70115096258E+02  0.82518340064E+02  0.10985048922E+03  0.00000000000E+00 0. -1.
         22    1    3    3    0    0  0.61936784322E+02  0.10715461051E+03 -0.36035304590E+03  0.38101521425E+03  0.00000000000E+00 0. -1.
         22    1    3    3    0    0 -0.23442376476E+02 -0.18724124001E+02 -0.45724168169E+02  0.54688548977E+02  0.00000000000E+00 0. -1.
</event>
<event>
 7    1  0.5931885E-006  0.6988197E+02  0.7818608E-02  0.1425782E+00
          2   -1    0    0  502    0  0.00000000000E+00  0.00000000000E+00  0.25452257988E+03  0.25452257988E+03  0.00000000000E+00 0. -1.
          1   -1    0    0  501    0 -0.00000000000E+00 -0.00000000000E+00 -0.80197041945E+02  0.80197041945E+02  0.00000000000E+00 0. -1.
         25    2    1    2    0    0  0.95689200408E+02  0.17147814142E+02  0.86310924464E+02  0.18034386815E+03  0.12499545788E+03 0.  0.
          2    1    1    2  501    0 -0.56136272712E+02 -0.29523350258E+02  0.75615300143E+01  0.63875551352E+02  0.00000000000E+00 0. -1.
          1    1    1    2  502    0 -0.39552927696E+02  0.12375536115E+02  0.80453083461E+02  0.90500202331E+02  0.00000000000E+00 0. -1.
         22    1    3    3    0    0 -0.20697488778E+02  0.24289719512E+02 -0.49212241667E+01  0.32289239121E+02  0.00000000000E+00 0. -1.
         22    1    3    3    0    0  0.11638668919E+03 -0.71419053698E+01  0.91232148630E+02  0.14805462903E+03  0.00000000000E+00 0. -1.
</event>
<event>
 7    1  0.5931885E-006  0.6192586E+02  0.7818608E-02  0.1463797E+00
          2   -1    0    0  502    0  0.00000000000E+00  0.00000000000E+00  0.87447688607E+02  0.87447688607E+02  0.00000000000E+00 0. -1.
          1   -1    0    0  501    0 -0.00000000000E+00 -0.00000000000E+00 -0.72215809088E+03  0.72215809088E+03  0.00000000000E+00 0. -1.
         25    2    1    2    0    0  0.67080369908E+02  0.36712646278E+02 -0.14522953038E+03  0.20631206871E+03  0.12500183509E+03 0.  0.
          2    1    1    2  501    0 -0.58592476096E+01 -0.34779187482E+02 -0.52914627081E+03  0.53032037353E+03  0.00000000000E+00 0. -1.
          1    1    1    2  502    0 -0.61221122298E+02 -0.19334587962E+01  0.39665398918E+02  0.72973337252E+02  0.00000000000E+00 0. -1.
         22    1    3    3    0    0  0.10005374597E+03  0.85217957084E+01 -0.11863606540E+03  0.15542808336E+03  0.00000000000E+00 0.  1.
         22    1    3    3    0    0 -0.32973376062E+02  0.28190850569E+02 -0.26593464979E+02  0.50883985343E+02  0.00000000000E+00 0.  1.
</event>
<event>
 7    1  0.5931885E-006  0.1433980E+03  0.7818608E-02  0.1400808E+00
          2   -1    0    0  502    0  0.00000000000E+00  0.00000000000E+00  0.17041003198E+03  0.17041003198E+03  0.00000000000E+00 0. -1.
          1   -1    0    0  501    0 -0.00000000000E+00 -0.00000000000E+00 -0.15786750608E+04  0.15786750608E+04  0.00000000000E+00 0. -1.
         25    2    1    2    0    0  0.59055163698E+02 -0.11634427175E+03 -0.41468570950E+02  0.18538541154E+03  0.12499842602E+03 0.  0.
          2    1    1    2  501    0 -0.45454812668E+02  0.13674626229E+03 -0.14601174828E+04  0.14672112131E+04  0.00000000000E+00 0. -1.
          1    1    1    2  502    0 -0.13600351030E+02 -0.20401990536E+02  0.93321024997E+02  0.96488468080E+02  0.00000000000E+00 0. -1.
         22    1    3    3    0    0  0.79936560389E+02 -0.36010699832E+02 -0.51656170570E+02  0.10175944255E+03  0.00000000000E+00 0.  1.
         22    1    3    3    0    0 -0.20881396692E+02 -0.80333571917E+02  0.10187599620E+02  0.83625968998E+02  0.00000000000E+00 0.  1.
</event>
<event>
 7    1  0.5931885E-006  0.7636114E+02  0.7818608E-02  0.1375805E+00
          2   -1    0    0  502    0  0.00000000000E+00  0.00000000000E+00  0.12526618893E+04  0.12526618893E+04  0.00000000000E+00 0. -1.
          1   -1    0    0  501    0 -0.00000000000E+00 -0.00000000000E+00 -0.38507231177E+03  0.38507231177E+03  0.00000000000E+00 0. -1.
         25    2    1    2    0    0  0.10241640466E+03  0.74251464879E+02 -0.86770797634E+02  0.19787883062E+03  0.12499784119E+03 0.  0.
          2    1    1    2  501    0 -0.51826368736E+02 -0.49500972501E+02 -0.23677781821E+03  0.24738644662E+03  0.00000000000E+00 0. -1.
          1    1    1    2  502    0 -0.50590035925E+02 -0.24750492378E+02  0.11911381934E+04  0.11924689239E+04  0.00000000000E+00 0. -1.
         22    1    3    3    0    0  0.41882227074E+02  0.61970349173E+02  0.17380800497E+02  0.76788914221E+02  0.00000000000E+00 0. -1.
         22    1    3    3    0    0  0.60534177586E+02  0.12281115706E+02 -0.10415159813E+03  0.12108991639E+03  0.00000000000E+00 0. -1.
</event>
<event>
 7    1  0.5931885E-006  0.1527646E+03  0.7818608E-02  0.1278027E+00
          2   -1    0    0  502    0  0.00000000000E+00  0.00000000000E+00  0.64193853974E+03  0.64193853974E+03  0.00000000000E+00 0. -1.
          1   -1    0    0  501    0 -0.00000000000E+00 -0.00000000000E+00 -0.14057066292E+04  0.14057066292E+04  0.00000000000E+00 0. -1.
         25    2    1    2    0    0  0.11439284505E+03 -0.49623163428E+02  0.16804874733E+03  0.24374865956E+03  0.12499938484E+03 0.  0.
          2    1    1    2  501    0 -0.10152158688E+03  0.11526385519E+03 -0.13609455482E+04  0.13695857673E+04  0.00000000000E+00 0. -1.
          1    1    1    2  502    0 -0.12871258174E+02 -0.65640691758E+02  0.42912871142E+03  0.43431074205E+03  0.00000000000E+00 0. -1.
         22    1    3    3    0    0  0.13448852572E+03 -0.36345526314E+02  0.99791848879E+02  0.17136678189E+03  0.00000000000E+00 0.  1.
         22    1    3    3    0    0 -0.20095680664E+02 -0.13277637113E+02  0.68256898448E+02  0.72381877666E+02  0.00000000000E+00 0.  1.
</event>
<event>
 7    1  0.5931885E-006  0.2381241E+03  0.7818608E-02  0.1334156E+00
          2   -1    0    0  502    0  0.00000000000E+00  0.00000000000E+00  0.60053737833E+03  0.60053737833E+03  0.00000000000E+00 0. -1.
          1   -1    0    0  501    0 -0.00000000000E+00 -0.00000000000E+00 -0.16632117647E+04  0.16632117647E+04  0.00000000000E+00 0. -1.
         25    2    1    2    0    0  0.17555589038E+01  0.24711939434E+03 -0.13679746063E+03  0.30887310875E+03  0.12497189696E+03 0.  0.
          2    1    1    2  501    0 -0.24883319431E+02 -0.23591374449E+03 -0.14302798056E+04  0.14498188841E+04  0.00000000000E+00 0. -1.
          1    1    1    2  502    0  0.23127760527E+02 -0.11205649853E+02  0.50440287977E+03  0.50505715025E+03  0.00000000000E+00 0. -1.
         22    1    3    3    0    0 -0.55676170623E+02  0.17873152729E+03 -0.10050265104E+03  0.21247488720E+03  0.00000000000E+00 0. -1.
         22    1    3    3    0    0  0.57431729527E+02  0.68387867046E+02 -0.36294809593E+02  0.96398221555E+02  0.00000000000E+00 0. -1.
</event>
<event>
 7    1  0.5931885E-006  0.3208345E+02  0.7818608E-02  0.1623957E+00
          2   -1    0    0  502    0  0.00000000000E+00  0.00000000000E+00  0.58825614901E+03  0.58825614901E+03  0.00000000000E+00 0. -1.
          1   -1    0    0  501    0 -0.00000000000E+00 -0.00000000000E+00 -0.45808409880E+02  0.45808409880E+02  0.00000000000E+00 0. -1.
         25    2    1    2    0    0  0.52989277510E+02 -0.15733160574E+02  0.22761138318E+03  0.26549660378E+03  0.12500443588E+03 0.  0.
          2    1    1    2  501    0 -0.29859191652E+02  0.91047732306E+01 -0.17213215503E+02  0.35647763038E+02  0.00000000000E+00 0. -1.
          1    1    1    2  502    0 -0.23130085859E+02  0.66283873438E+01  0.33204957145E+03  0.33292019207E+03  0.00000000000E+00 0. -1.
         22    1    3    3    0    0  0.24592750874E+02  0.53468371813E+02  0.73231023199E+02  0.93949204034E+02  0.00000000000E+00 0. -1.
         22    1    3    3    0    0  0.28396526637E+02 -0.69201532388E+02  0.15438035999E+03  0.17154739974E+03  0.00000000000E+00 0. -1.
</event>
<event>
 7    1  0.5931885E-006  0.5717177E+02  0.7818608E-02  0.1556382E+00
          2   -1    0    0  502    0  0.00000000000E+00  0.00000000000E+00  0.44205997848E+04  0.44205997848E+04  0.00000000000E+00 0. -1.
          1   -1    0    0  501    0 -0.00000000000E+00 -0.00000000000E+00 -0.48001422109E+01  0.48001422109E+01  0.00000000000E+00 0. -1.
         25    2    1    2    0    0  0.81606020590E+01  0.63078398376E+02  0.28386417866E+04  0.28421040306E+04  0.12499059318E+03 0.  0.
          2    1    1    2  501    0 -0.18709875638E+02 -0.80935628151E+01  0.38021931638E+02  0.43142003789E+02  0.00000000000E+00 0. -1.
          1    1    1    2  502    0  0.10549273579E+02 -0.54984835560E+02  0.15391359243E+04  0.15401538926E+04  0.00000000000E+00 0. -1.
         22    1    3    3    0    0 -0.16540816777E+02  0.59503894205E+02  0.27272969161E+04  0.27279961108E+04  0.00000000000E+00 0. -1.
         22    1    3    3    0    0  0.24701418836E+02  0.35745041711E+01  0.11134487051E+03  0.11410791980E+03  0.00000000000E+00 0. -1.
</event>
<event>
 7    1  0.5931885E-006  0.4384933E+02  0.7818608E-02  0.1508713E+00
          2   -1    0    0  502    0  0.00000000000E+00  0.00000000000E+00  0.39048853157E+03  0.39048853157E+03  0.00000000000E+00 0. -1.
          1   -1    0    0  501    0 -0.00000000000E+00 -0.00000000000E+00 -0.18009277282E+04  0.18009277282E+04  0.00000000000E+00 0. -1.
         25    2    1    2    0    0 -0.10617200499E+02  0.71694533921E+00  0.15513204574E+03  0.19951308176E+03  0.12500511677E+03 0.  0.
          2    1    1    2  501    0  0.31787105737E+02 -0.30284145689E+02 -0.17769131971E+04  0.17774555014E+04  0.00000000000E+00 0. -1.
          1    1    1    2  502    0 -0.21169905238E+02  0.29567200349E+02  0.21134195465E+03  0.21444767665E+03  0.00000000000E+00 0. -1.
         22    1    3    3    0    0 -0.86888509733E+01 -0.34932365482E+02 -0.41901728458E+01  0.36239810125E+02  0.00000000000E+00 0. -1.
         22    1    3    3    0    0 -0.19283495261E+01  0.35649310821E+02  0.15932221859E+03  0.16327327163E+03  0.00000000000E+00 0. -1.
</event>
<event>
 7    1  0.5931885E-006  0.4651710E+02  0.7818608E-02  0.1518593E+00
          2   -1    0    0  502    0  0.00000000000E+00  0.00000000000E+00  0.31481447643E+03  0.31481447643E+03  0.00000000000E+00 0. -1.
          1   -1    0    0  501    0 -0.00000000000E+00 -0.00000000000E+00 -0.36144671536E+03  0.36144671536E+03  0.00000000000E+00 0. -1.
         25    2    1    2    0    0 -0.83800216550E+01  0.50529710348E+02 -0.10035883997E+03  0.16829173608E+03  0.12500694093E+03 0.  0.
          2    1    1    2  501    0  0.30608327228E+02 -0.95693471045E+01 -0.22403844106E+03  0.22632203864E+03  0.00000000000E+00 0. -1.
          1    1    1    2  502    0 -0.22228305573E+02 -0.40960363243E+02  0.27776504211E+03  0.28164741707E+03  0.00000000000E+00 0. -1.
         22    1    3    3    0    0 -0.58439925659E+02  0.39860740265E+02 -0.92591376894E+02  0.11652152849E+03  0.00000000000E+00 0.  1.
         22    1    3    3    0    0  0.50059904004E+02  0.10668970083E+02 -0.77674630752E+01  0.51770207593E+02  0.00000000000E+00 0.  1.
</event>
<event>
 7    1  0.5931885E-006  0.5608151E+02  0.7818608E-02  0.1463943E+00
          2   -1    0    0  502    0  0.00000000000E+00  0.00000000000E+00  0.33350327921E+03  0.33350327921E+03  0.00000000000E+00 0. -1.
          1   -1    0    0  501    0 -0.00000000000E+00 -0.00000000000E+00 -0.15153313072E+03  0.15153313072E+03  0.00000000000E+00 0. -1.
         25    2    1    2    0    0 -0.24032468088E+02 -0.23552330349E+00  0.77755951555E+02  0.14915836550E+03  0.12499846000E+03 0.  0.
          2    1    1    2  501    0  0.51149852678E+02  0.28130965641E+02 -0.10658243671E+03  0.12152149798E+03  0.00000000000E+00 0. -1.
          1    1    1    2  502    0 -0.27117384590E+02 -0.27895442337E+02  0.21079663364E+03  0.21435654645E+03  0.00000000000E+00 0. -1.
         22    1    3    3    0    0  0.26024486542E+01  0.53801709280E+02  0.41257031516E+01  0.54022385054E+02  0.00000000000E+00 0.  1.
         22    1    3    3    0    0 -0.26634916742E+02 -0.54037232584E+02  0.73630248403E+02  0.95135980444E+02  0.00000000000E+00 0.  1.
</event>
<event>
 7    1  0.5931885E-006  0.1363453E+03  0.7818608E-02  0.1299486E+00
          2   -1    0    0  502    0  0.00000000000E+00  0.00000000000E+00  0.34006605871E+04  0.34006605871E+04  0.00000000000E+00 0. -1.
          1   -1    0    0  501    0 -0.00000000000E+00 -0.00000000000E+00 -0.23861033199E+03  0.23861033199E+03  0.00000000000E+00 0. -1.
         25    2    1    2    0    0 -0.67537227452E+02 -0.12867235978E+03  0.15826924777E+03  0.24858296371E+03  0.12500592705E+03 0.  0.
          2    1    1    2  501    0 -0.40820821420E+02  0.45699937168E+02 -0.18710561232E+03  0.19688406202E+03  0.00000000000E+00 0. -1.
          1    1    1    2  502    0  0.10835804887E+03  0.82972422610E+02  0.31908866196E+04  0.31938038933E+04  0.00000000000E+00 0. -1.
         22    1    3    3    0    0  0.16264297222E+02  0.15542466822E+02  0.74116341290E+01  0.23686028783E+02  0.00000000000E+00 0. -1.
         22    1    3    3    0    0 -0.83801524674E+02 -0.14421482660E+03  0.15085761364E+03  0.22489693493E+03  0.00000000000E+00 0. -1.
</event>
<event>
 7    1  0.5931885E-006  0.9208067E+02  0.7818608E-02  0.1381773E+00
          2   -1    0    0  502    0  0.00000000000E+00  0.00000000000E+00  0.10531945637E+04  0.10531945637E+04  0.00000000000E+00 0. -1.
          1   -1    0    0  501    0 -0.00000000000E+00 -0.00000000000E+00 -0.68785380508E+03  0.68785380508E+03  0.00000000000E+00 0. -1.
         25    2    1    2    0    0  0.10164056748E+03 -0.37372974933E+02  0.25822383471E+03  0.30664564383E+03  0.12499783142E+03 0.  0.
          2    1    1    2  501    0 -0.36085099095E+02 -0.26011466880E+02 -0.66019478076E+03  0.66169167996E+03  0.00000000000E+00 0. -1.
          1    1    1    2  502    0 -0.65555468381E+02  0.63384441814E+02  0.76731170466E+03  0.77271104496E+03  0.00000000000E+00 0. -1.
         22    1    3    3    0    0  0.11439197371E+03  0.95507465284E+01  0.15853169216E+03  0.19572694712E+03  0.00000000000E+00 0.  1.
         22    1    3    3    0    0 -0.12751406229E+02 -0.46923721462E+02  0.99692142542E+02  0.11091869672E+03  0.00000000000E+00 0.  1.
</event>
<event>
 7    1  0.5931885E-006  0.6290070E+02  0.7818608E-02  0.1456361E+00
          2   -1    0    0  502    0  0.00000000000E+00  0.00000000000E+00  0.46334872841E+02  0.46334872841E+02  0.00000000000E+00 0. -1.
          1   -1    0    0  501    0 -0.00000000000E+00 -0.00000000000E+00 -0.13395738775E+04  0.13395738775E+04  0.00000000000E+00 0. -1.
         25    2    1    2    0    0 -0.97502205283E+02 -0.11694132209E+02 -0.95290217764E+03  0.96606963213E+03  0.12499816483E+03 0.  0.
          2    1    1    2  501    0  0.36649155958E+02 -0.15638746195E+00 -0.35438183470E+03  0.35627190438E+03  0.00000000000E+00 0. -1.
          1    1    1    2  502    0  0.60853049325E+02  0.11850519671E+02  0.14045007708E+02  0.63567213798E+02  0.00000000000E+00 0. -1.
         22    1    3    3    0    0 -0.66707269780E+02 -0.25956610826E+02 -0.90233621018E+03  0.90517083564E+03  0.00000000000E+00 0. -1.
         22    1    3    3    0    0 -0.30794935503E+02  0.14262478617E+02 -0.50565967453E+02  0.60898796485E+02  0.00000000000E+00 0. -1.
</event>
<event>
 7    1  0.5931885E-006  0.4419217E+02  0.7818608E-02  0.1595122E+00
          2   -1    0    0  502    0  0.00000000000E+00  0.00000000000E+00  0.16568042343E+04  0.16568042343E+04  0.00000000000E+00 0. -1.
          1   -1    0    0  501    0 -0.00000000000E+00 -0.00000000000E+00 -0.10337114218E+04  0.10337114218E+04  0.00000000000E+00 0. -1.
         25    2    1    2    0    0  0.25258354233E+02 -0.17736115175E+02  0.32662324792E+03  0.35110358800E+03  0.12505370520E+03 0.  0.
          2    1    1    2  501    0  0.18597847874E+02  0.91660409023E+01 -0.10209871924E+04  0.10211977004E+04  0.00000000000E+00 0. -1.
          1    1    1    2  502    0 -0.43856202107E+02  0.85700742729E+01  0.13174567570E+04  0.13182143677E+04  0.00000000000E+00 0. -1.
         22    1    3    3    0    0 -0.38002945667E+02 -0.45683164709E+02  0.16128167904E+03  0.17188064293E+03  0.00000000000E+00 0. -1.
         22    1    3    3    0    0  0.63261299900E+02  0.27947049534E+02  0.16534156887E+03  0.17922294507E+03  0.00000000000E+00 0. -1.
</event>
<event>
 7    1  0.5931885E-006  0.8818098E+02  0.7818608E-02  0.1490087E+00
          2   -1    0    0  502    0  0.00000000000E+00  0.00000000000E+00  0.12075379711E+04  0.12075379711E+04  0.00000000000E+00 0. -1.
          1   -1    0    0  501    0 -0.00000000000E+00 -0.00000000000E+00 -0.24770262893E+03  0.24770262893E+03  0.00000000000E+00 0. -1.
         25    2    1    2    0    0  0.10026610818E+03  0.27999256431E+02  0.35738175358E+03  0.39266243804E+03  0.12499928658E+03 0.  0.
          2    1    1    2  501    0 -0.80775482820E+02 -0.34524804554E+02 -0.22154407471E+03  0.23832418633E+03  0.00000000000E+00 0. -1.
          1    1    1    2  502    0 -0.19490625359E+02  0.65255481226E+01  0.82399766328E+03  0.82425397563E+03  0.00000000000E+00 0. -1.
         22    1    3    3    0    0  0.85118578340E+02  0.63269911620E+02  0.16257963678E+03  0.19411437966E+03  0.00000000000E+00 0. -1.
         22    1    3    3    0    0  0.15147529839E+02 -0.35270655189E+02  0.19480211680E+03  0.19854805838E+03  0.00000000000E+00 0. -1.
</event>
<event>
 7    1  0.5931885E-006  0.1509531E+03  0.7818608E-02  0.1365440E+00
          2   -1    0    0  502    0  0.00000000000E+00  0.00000000000E+00  0.88829128115E+03  0.88829128115E+03  0.00000000000E+00 0. -1.
          1   -1    0    0  501    0 -0.00000000000E+00 -0.00000000000E+00 -0.15051688525E+03  0.15051688525E+03  0.00000000000E+00 0. -1.
         25    2    1    2    0    0 -0.15721929811E+03 -0.41690781811E+02  0.28760279922E+03  0.35326484344E+03  0.12499860201E+03 0.  0.
          2    1    1    2  501    0  0.96562481976E+01  0.29499927059E+02 -0.10576558547E+03  0.11022634846E+03  0.00000000000E+00 0. -1.
          1    1    1    2  502    0  0.14756304992E+03  0.12190854752E+02  0.55593718216E+03  0.57531697450E+03  0.00000000000E+00 0. -1.
         22    1    3    3    0    0 -0.15829269703E+03 -0.48579229362E+02  0.29790335079E+03  0.34082682681E+03  0.00000000000E+00 0.  1.
         22    1    3    3    0    0  0.10733989194E+01  0.68884475508E+01 -0.10300551576E+02  0.12438016629E+02  0.00000000000E+00 0.  1.
</event>
<event>
 7    1  0.5931885E-006  0.1084580E+03  0.7818608E-02  0.1270513E+00
          2   -1    0    0  502    0  0.00000000000E+00  0.00000000000E+00  0.64548026830E+03  0.64548026830E+03  0.00000000000E+00 0. -1.
          1   -1    0    0  501    0 -0.00000000000E+00 -0.00000000000E+00 -0.13191603478E+04  0.13191603478E+04  0.00000000000E+00 0. -1.
         25    2    1    2    0    0 -0.64572700003E+02 -0.10674925159E+03  0.68541131003E+02  0.18944113400E+03  0.12500008125E+03 0.  0.
          2    1    1    2  501    0 -0.36610677347E+02  0.10265420752E+03 -0.12513551610E+04  0.12560923401E+04  0.00000000000E+00 0. -1.
          1    1    1    2  502    0  0.10118337735E+03  0.40950440636E+01  0.50913395052E+03  0.51910714193E+03  0.00000000000E+00 0. -1.
         22    1    3    3    0    0 -0.85463079711E+02 -0.39992331748E+02  0.73074869931E+02  0.11934513483E+03  0.00000000000E+00 0.  1.
         22    1    3    3    0    0  0.20890379708E+02 -0.66756919840E+02 -0.45337389280E+01  0.70095999170E+02  0.00000000000E+00 0.  1.
</event>
<event>
 7    1  0.5931885E-006  0.7992175E+02  0.7818608E-02  0.1387054E+00
          2   -1    0    0  502    0  0.00000000000E+00  0.00000000000E+00  0.19124248645E+04  0.19124248645E+04  0.00000000000E+00 0. -1.
          1   -1    0    0  501    0 -0.00000000000E+00 -0.00000000000E+00 -0.12719281435E+03  0.12719281435E+03  0.00000000000E+00 0. -1.
         25    2    1    2    0    0  0.85745460504E+02  0.57843232641E+02 -0.32435022800E+02  0.16545919800E+03  0.12500636760E+03 0.  0.
          2    1    1    2  501    0 -0.36644755631E+02 -0.57308706356E+02  0.13532748335E+02  0.69356046722E+02  0.00000000000E+00 0. -1.
          1    1    1    2  502    0 -0.49100704873E+02 -0.53452628546E+00  0.18041343246E+04  0.18048024341E+04  0.00000000000E+00 0. -1.
         22    1    3    3    0    0  0.67063062390E+01 -0.37071162860E+02  0.32257950754E+00  0.37674258011E+02  0.00000000000E+00 0.  1.
         22    1    3    3    0    0  0.79039154265E+02  0.94914395501E+02 -0.32757602307E+02  0.12778493999E+03  0.00000000000E+00 0.  1.
</event>
<event>
 7    1  0.5931885E-006  0.1098355E+03  0.7818608E-02  0.1405298E+00
          2   -1    0    0  502    0  0.00000000000E+00  0.00000000000E+00  0.28691067007E+03  0.28691067007E+03  0.00000000000E+00 0. -1.
          1   -1    0    0  501    0 -0.00000000000E+00 -0.00000000000E+00 -0.23575087131E+03  0.23575087131E+03  0.00000000000E+00 0. -1.
         25    2    1    2    0    0 -0.35444517659E+02  0.78486100045E+02  0.16582980916E+01  0.15180661464E+03  0.12500446617E+03 0.  0.
          2    1    1    2  501    0  0.41558026023E+02 -0.10877419997E+03 -0.13814949932E+03  0.18067700537E+03  0.00000000000E+00 0. -1.
          1    1    1    2  502    0 -0.61135083642E+01  0.30288099925E+02  0.18765099999E+03  0.19017792137E+03  0.00000000000E+00 0. -1.
         22    1    3    3    0    0  0.30692670898E+02  0.58754421199E+02  0.35217186876E+02  0.75062456053E+02  0.00000000000E+00 0.  1.
         22    1    3    3    0    0 -0.66137188557E+02  0.19731678845E+02 -0.33558888784E+02  0.76744158583E+02  0.00000000000E+00 0.  1.
</event>
<event>
 7    1  0.5931885E-006  0.1060030E+03  0.7818608E-02  0.1433858E+00
          2   -1    0    0  502    0  0.00000000000E+00  0.00000000000E+00  0.62316560800E+03  0.62316560800E+03  0.00000000000E+00 0. -1.
          1   -1    0    0  501    0 -0.00000000000E+00 -0.00000000000E+00 -0.52023420969E+03  0.52023420969E+03  0.00000000000E+00 0. -1.
         25    2    1    2    0    0 -0.78998781566E+02  0.46182543097E+02  0.11882579688E+03  0.19523846205E+03  0.12499940913E+03 0.  0.
          2    1    1    2  501    0  0.10126880669E+03 -0.33358105426E+02 -0.47576874931E+03  0.48756952040E+03  0.00000000000E+00 0. -1.
          1    1    1    2  502    0 -0.22270025125E+02 -0.12824437670E+02  0.45987435074E+03  0.46059183524E+03  0.00000000000E+00 0. -1.
         22    1    3    3    0    0 -0.63943406372E+02  0.85579776788E+02  0.10752968873E+03  0.15157602506E+03  0.00000000000E+00 0.  1.
         22    1    3    3    0    0 -0.15055375194E+02 -0.39397233691E+02  0.11296108143E+02  0.43662436990E+02  0.00000000000E+00 0.  1.
</event>
<event>
 7    1  0.5931885E-006  0.5738565E+02  0.7818608E-02  0.1552812E+00
          2   -1    0    0  502    0  0.00000000000E+00  0.00000000000E+00  0.13292055295E+02  0.13292055295E+02  0.00000000000E+00 0. -1.
          1   -1    0    0  501    0 -0.00000000000E+00 -0.00000000000E+00 -0.20531802535E+04  0.20531802535E+04  0.00000000000E+00 0. -1.
         25    2    1    2    0    0  0.44886963160E+02 -0.33684148944E+02 -0.89497129598E+03  0.90539964051E+03  0.12500170819E+03 0.  0.
          2    1    1    2  501    0  0.10801014385E+02  0.17749627155E+02 -0.10477159203E+04  0.10479219249E+04  0.00000000000E+00 0. -1.
          1    1    1    2  502    0 -0.55687977545E+02  0.15934521790E+02 -0.97200981949E+02  0.11315074334E+03  0.00000000000E+00 0. -1.
         22    1    3    3    0    0  0.72363091998E+02 -0.48059600117E+02 -0.81516459986E+03  0.81978013339E+03  0.00000000000E+00 0.  1.
         22    1    3    3    0    0 -0.27476128838E+02  0.14375451173E+02 -0.79806696127E+02  0.85619507118E+02  0.00000000000E+00 0.  1.
</event>
<event>
 7    1  0.5931885E-006  0.1352523E+03  0.7818608E-02  0.1225651E+00
          2   -1    0    0  502    0  0.00000000000E+00  0.00000000000E+00  0.34160515053E+04  0.34160515053E+04  0.00000000000E+00 0. -1.
          1   -1    0    0  501    0 -0.00000000000E+00 -0.00000000000E+00 -0.18589064250E+03  0.18589064250E+03  0.00000000000E+00 0. -1.
         25    2    1    2    0    0 -0.12267286561E+02 -0.10580551533E+03  0.35155399176E+02  0.16794218291E+03  0.12499352510E+03 0.  0.
          2    1    1    2  501    0  0.12441567314E+03  0.27015177927E+02 -0.83743323210E+02  0.15238774145E+03  0.00000000000E+00 0. -1.
          1    1    1    2  502    0 -0.11214838658E+03  0.78790337405E+02  0.32787487869E+04  0.32816122235E+04  0.00000000000E+00 0. -1.
         22    1    3    3    0    0  0.27237606825E+02 -0.11930309817E+03  0.23631298797E+02  0.12463368221E+03  0.00000000000E+00 0.  1.
         22    1    3    3    0    0 -0.39504893386E+02  0.13497582835E+02  0.11524100380E+02  0.43308500706E+02  0.00000000000E+00 0.  1.
</event>
<event>
 7    1  0.5931885E-006  0.7419356E+02  0.7818608E-02  0.1469353E+00
          2   -1    0    0  502    0  0.00000000000E+00  0.00000000000E+00  0.14757021827E+04  0.14757021827E+04  0.00000000000E+00 0. -1.
          1   -1    0    0  501    0 -0.00000000000E+00 -0.00000000000E+00 -0.68787775736E+02  0.68787775736E+02  0.00000000000E+00 0. -1.
         25    2    1    2    0    0  0.95564041207E+02 -0.25986399090E+02  0.17934810977E+03  0.23999693659E+03  0.12500002475E+03 0.  0.
          2    1    1    2  501    0 -0.28135572436E+02 -0.28904258878E+01 -0.32048509851E+02  0.42744262560E+02  0.00000000000E+00 0. -1.
          1    1    1    2  502    0 -0.67428468770E+02  0.28876824978E+02  0.12596148071E+04  0.12617487593E+04  0.00000000000E+00 0. -1.
         22    1    3    3    0    0 -0.21504349801E+01  0.14321062677E+02 -0.13680884363E+02  0.19921942771E+02  0.00000000000E+00 0.  1.
         22    1    3    3    0    0  0.97714476187E+02 -0.40307461768E+02  0.19302899413E+03  0.22007499382E+03  0.00000000000E+00 0.  1.
</event>
<event>
 7    1  0.5931885E-006  0.1931205E+03  0.7818608E-02  0.1250892E+00
          2   -1    0    0  502    0  0.00000000000E+00  0.00000000000E+00  0.27954062891E+04  0.27954062891E+04  0.00000000000E+00 0. -1.
          1   -1    0    0  501    0 -0.00000000000E+00 -0.00000000000E+00 -0.85154668789E+03  0.85154668789E+03  0.00000000000E+00 0. -1.
         25    2    1    2    0    0  0.23163065030E+03  0.95429325865E+02  0.35764382126E+02  0.28224403784E+03  0.12499236567E+03 0.  0.
          2    1    1    2  501    0 -0.16268026877E+03 -0.95961188166E+02 -0.71560096329E+03  0.74010685590E+03  0.00000000000E+00 0. -1.
          1    1    1    2  502    0 -0.68950381531E+02  0.53186230132E+00  0.26236961823E+04  0.26246020832E+04  0.00000000000E+00 0. -1.
         22    1    3    3    0    0  0.86330839719E+02  0.26411316764E+02 -0.46520120089E+02  0.10156127762E+03  0.00000000000E+00 0. -1.
         22    1    3    3    0    0  0.14529981058E+03  0.69018009101E+02  0.82284502215E+02  0.18068276022E+03  0.00000000000E+00 0. -1.
</event>
<event>
 7    1  0.5931885E-006  0.7883694E+02  0.7818608E-02  0.1348919E+00
          2   -1    0    0  502    0  0.00000000000E+00  0.00000000000E+00  0.24077089888E+04  0.24077089888E+04  0.00000000000E+00 0. -1.
          1   -1    0    0  501    0 -0.00000000000E+00 -0.00000000000E+00 -0.48634774275E+02  0.48634774275E+02  0.00000000000E+00 0. -1.
         25    2    1    2    0    0  0.25875452160E+02 -0.74420295657E+02  0.18891790541E+04  0.18949487153E+04  0.12500086250E+03 0.  0.
          2    1    1    2  501    0 -0.77454211716E+02  0.14700615015E+02 -0.59407864347E+01  0.79060457486E+02  0.00000000000E+00 0. -1.
          1    1    1    2  502    0  0.51578759556E+02  0.59719680642E+02  0.47583594685E+03  0.48233459031E+03  0.00000000000E+00 0. -1.
         22    1    3    3    0    0 -0.35748469262E+02  0.11703300127E+01  0.21699547901E+03  0.21992353362E+03  0.00000000000E+00 0.  1.
         22    1    3    3    0    0  0.61623921422E+02 -0.75590625669E+02  0.16721835751E+04  0.16750251817E+04  0.00000000000E+00 0.  1.
</event>
<event>
 7    1  0.5931885E-006  0.6597129E+02  0.7818608E-02  0.1386698E+00
          2   -1    0    0  502    0  0.00000000000E+00  0.00000000000E+00  0.15124652337E+04  0.15124652337E+04  0.00000000000E+00 0. -1.
          1   -1    0    0  501    0 -0.00000000000E+00 -0.00000000000E+00 -0.33728344113E+03  0.33728344113E+03  0.00000000000E+00 0. -1.
         25    2    1    2    0    0 -0.63273463521E+02 -0.10631429303E+03  0.76540413927E+03  0.78534945359E+03  0.12499603094E+03 0.  0.
          2    1    1    2  501    0  0.24455389941E+02  0.61012213248E+02 -0.32278586689E+03  0.32941049183E+03  0.00000000000E+00 0. -1.
          1    1    1    2  502    0  0.38818073580E+02  0.45302079779E+02  0.73256352014E+03  0.73498872938E+03  0.00000000000E+00 0. -1.
         22    1    3    3    0    0 -0.52021868530E+02 -0.75267015487E+02  0.73431947061E+03  0.73999762388E+03  0.00000000000E+00 0. -1.
         22    1    3    3    0    0 -0.11251594991E+02 -0.31047277541E+02  0.31084668664E+02  0.45351829715E+02  0.00000000000E+00 0. -1.
</event>
<event>
 7    1  0.5931885E-006  0.7334981E+02  0.7818608E-02  0.1400357E+00
          2   -1    0    0  502    0  0.00000000000E+00  0.00000000000E+00  0.10734942569E+04  0.10734942569E+04  0.00000000000E+00 0. -1.
          1   -1    0    0  501    0 -0.00000000000E+00 -0.00000000000E+00 -0.19253658865E+03  0.19253658865E+03  0.00000000000E+00 0. -1.
         25    2    1    2    0    0 -0.34650532763E+02  0.31342284517E+02  0.10639939608E+03  0.17067663106E+03  0.12500673055E+03 0.  0.
          2    1    1    2  501    0  0.22194128396E+02  0.42681553956E+02 -0.15524395569E+03  0.16252685982E+03  0.00000000000E+00 0. -1.
          1    1    1    2  502    0  0.12456404367E+02 -0.74023838473E+02  0.92980222783E+03  0.93282735463E+03  0.00000000000E+00 0. -1.
         22    1    3    3    0    0 -0.41834778752E+02  0.27325114106E+02  0.13339893425E+03  0.14245029390E+03  0.00000000000E+00 0. -1.
         22    1    3    3    0    0  0.71842459896E+01  0.40171704107E+01 -0.26999538162E+02  0.28226337161E+02  0.00000000000E+00 0. -1.
</event>
<event>
 7    1  0.5931885E-006  0.7637231E+02  0.7818608E-02  0.1423660E+00
          2   -1    0    0  502    0  0.00000000000E+00  0.00000000000E+00  0.33701195595E+03  0.33701195595E+03  0.00000000000E+00 0. -1.
          1   -1    0    0  501    0 -0.00000000000E+00 -0.00000000000E+00 -0.42502123644E+03  0.42502123644E+03  0.00000000000E+00 0. -1.
         25    2    1    2    0    0  0.48941772195E+02 -0.25551166148E+01 -0.32064982428E+02  0.13803909209E+03  0.12499920864E+03 0.  0.
          2    1    1    2  501    0 -0.74587203849E+02 -0.26215629362E+02 -0.33402569207E+03  0.34325453116E+03  0.00000000000E+00 0. -1.
          1    1    1    2  502    0  0.25645431654E+02  0.28770745977E+02  0.27808139401E+03  0.28073956914E+03  0.00000000000E+00 0. -1.
         22    1    3    3    0    0  0.28300574551E+02 -0.13179112635E+02 -0.79400510835E+02  0.85317364297E+02  0.00000000000E+00 0. -1.
         22    1    3    3    0    0  0.20641197644E+02  0.10623996020E+02  0.47335528406E+02  0.52721727790E+02  0.00000000000E+00 0. -1.
</event>
<event>
 7    1  0.5931885E-006  0.4031830E+02  0.7818608E-02  0.1513424E+00
          2   -1    0    0  502    0  0.00000000000E+00  0.00000000000E+00  0.48152670562E+03  0.48152670562E+03  0.00000000000E+00 0. -1.
          1   -1    0    0  501    0 -0.00000000000E+00 -0.00000000000E+00 -0.26917366509E+03  0.26917366509E+03  0.00000000000E+00 0. -1.
         25    2    1    2    0    0  0.84429066893E+01  0.58543485827E+02 -0.97411696050E+01  0.13862896024E+03  0.12499790328E+03 0.  0.
          2    1    1    2  501    0 -0.29607720881E+02 -0.24308511863E+02 -0.19212215084E+03  0.19590416465E+03  0.00000000000E+00 0. -1.
          1    1    1    2  502    0  0.21164814192E+02 -0.34234973963E+02  0.41421636097E+03  0.41616724583E+03  0.00000000000E+00 0. -1.
         22    1    3    3    0    0  0.58333092055E+02  0.65157572516E+02 -0.11876000993E+02  0.88257001334E+02  0.00000000000E+00 0.  1.
         22    1    3    3    0    0 -0.49890185365E+02 -0.66140866898E+01  0.21348313880E+01  0.50371958902E+02  0.00000000000E+00 0.  1.
</event>
<event>
 7    1  0.5931885E-006  0.1002361E+03  0.7818608E-02  0.1382665E+00
          2   -1    0    0  502    0  0.00000000000E+00  0.00000000000E+00  0.38507100481E+03  0.38507100481E+03  0.00000000000E+00 0. -1.
          1   -1    0    0  501    0 -0.00000000000E+00 -0.00000000000E+00 -0.13976806204E+04  0.13976806204E+04  0.00000000000E+00 0. -1.
         25    2    1    2    0    0  0.10745000102E+02 -0.60748615136E+02 -0.18943594972E+03  0.23519737238E+03  0.12500390258E+03 0.  0.
          2    1    1    2  501    0 -0.27504660777E+01 -0.40474843342E+02 -0.11778913944E+04  0.11785897993E+04  0.00000000000E+00 0. -1.
          1    1    1    2  502    0 -0.79945340243E+01  0.10122345848E+03  0.35471772847E+03  0.36896445359E+03  0.00000000000E+00 0. -1.
         22    1    3    3    0    0  0.53989455522E+02 -0.59472215452E+02 -0.16948542266E+03  0.18755562965E+03  0.00000000000E+00 0. -1.
         22    1    3    3    0    0 -0.43244455420E+02 -0.12763996840E+01 -0.19950527062E+02  0.47641742735E+02  0.00000000000E+00 0. -1.
</event>
<event>
 7    1  0.5931885E-006  0.1469733E+03  0.7818608E-02  0.1247230E+00
          2   -1    0    0  502    0  0.00000000000E+00  0.00000000000E+00  0.17890480657E+04  0.17890480657E+04  0.00000000000E+00 0. -1.
          1   -1    0    0  501    0 -0.00000000000E+00 -0.00000000000E+00 -0.74233126819E+03  0.74233126819E+03  0.00000000000E+00 0. -1.
         25    2    1    2    0    0  0.35025215341E+02  0.23449058927E+03 -0.20526485030E+03  0.33759597040E+03  0.12499911320E+03 0.  0.
          2    1    1    2  501    0  0.41813325975E+01 -0.93890295046E+02 -0.46308037842E+03  0.47252122484E+03  0.00000000000E+00 0. -1.
          1    1    1    2  502    0 -0.39206547939E+02 -0.14060029422E+03  0.17150620263E+04  0.17212621387E+04  0.00000000000E+00 0. -1.
         22    1    3    3    0    0 -0.15531275275E+02  0.10225728313E+02  0.11302170651E+02  0.21760631715E+02  0.00000000000E+00 0.  1.
         22    1    3    3    0    0  0.50556490616E+02  0.22426486095E+03 -0.21656702095E+03  0.31583533869E+03  0.00000000000E+00 0.  1.
</event>
<event>
 7    1  0.5931885E-006  0.6204091E+02  0.7818608E-02  0.1480625E+00
          2   -1    0    0  502    0  0.00000000000E+00  0.00000000000E+00  0.37925996499E+03  0.37925996499E+03  0.00000000000E+00 0. -1.
          1   -1    0    0  501    0 -0.00000000000E+00 -0.00000000000E+00 -0.10235259433E+04  0.10235259433E+04  0.00000000000E+00 0. -1.
         25    2    1    2    0    0  0.90495363566E+01  0.29704539892E+02  0.18573355191E+03  0.22602325651E+03  0.12500122550E+03 0.  0.
          2    1    1    2  501    0 -0.15001934129E+02 -0.60349670145E+02 -0.10010031235E+04  0.10029328961E+04  0.00000000000E+00 0. -1.
          1    1    1    2  502    0  0.59523977727E+01  0.30645130252E+02  0.17100359331E+03  0.17382975571E+03  0.00000000000E+00 0. -1.
         22    1    3    3    0    0 -0.16377770415E+02  0.66604025281E+02  0.16062580784E+03  0.17465674247E+03  0.00000000000E+00 0.  1.
         22    1    3    3    0    0  0.25427306772E+02 -0.36899485389E+02  0.25107744076E+02  0.51366514036E+02  0.00000000000E+00 0.  1.
</event>
<event>
 7    1  0.5931885E-006  0.6454202E+02  0.7818608E-02  0.1388714E+00
          2   -1    0    0  502    0  0.00000000000E+00  0.00000000000E+00  0.14704821371E+04  0.14704821371E+04  0.00000000000E+00 0. -1.
          1   -1    0    0  501    0 -0.00000000000E+00 -0.00000000000E+00 -0.46911807136E+03  0.46911807136E+03  0.00000000000E+00 0. -1.
         25    2    1    2    0    0 -0.37704190570E+01 -0.11497118707E+03  0.15308696649E+03  0.22867627699E+03  0.12499852173E+03 0.  0.
          2    1    1    2  501    0 -0.21171630728E+02  0.60404926876E+02 -0.42824029386E+03  0.43299739309E+03  0.00000000000E+00 0. -1.
          1    1    1    2  502    0  0.24942049785E+02  0.54566260194E+02  0.12765173931E+04  0.12779265384E+04  0.00000000000E+00 0. -1.
         22    1    3    3    0    0 -0.30292798814E+02  0.13851208516E+02  0.56159002602E+02  0.65294281607E+02  0.00000000000E+00 0.  1.
         22    1    3    3    0    0  0.26522379757E+02 -0.12882239559E+03  0.96927963890E+02  0.16338199539E+03  0.00000000000E+00 0.  1.
</event>
<event>
 7    1  0.5931885E-006  0.2746628E+02  0.7818608E-02  0.1654549E+00
          2   -1    0    0  502    0  0.00000000000E+00  0.00000000000E+00  0.13666321009E+04  0.13666321009E+04  0.00000000000E+00 0. -1.
          1   -1    0    0  501    0 -0.00000000000E+00 -0.00000000000E+00 -0.16873514497E+03  0.16873514497E+03  0.00000000000E+00 0. -1.
         25    2    1    2    0    0  0.34780413524E+02  0.56046161614E+01  0.39640626140E+03  0.41713770212E+03  0.12499939829E+03 0.  0.
          2    1    1    2  501    0 -0.17242979951E+02 -0.21384021350E+02 -0.15703199834E+03  0.15941657765E+03  0.00000000000E+00 0. -1.
          1    1    1    2  502    0 -0.17537433573E+02  0.15779405188E+02  0.95852269284E+03  0.95881296607E+03  0.00000000000E+00 0. -1.
         22    1    3    3    0    0  0.41510885166E+02  0.58757065677E+02  0.17229576486E+03  0.18671201607E+03  0.00000000000E+00 0. -1.
         22    1    3    3    0    0 -0.67304716414E+01 -0.53152449516E+02  0.22411049654E+03  0.23042568606E+03  0.00000000000E+00 0. -1.
</event>
<event>
 7    1  0.5931885E-006  0.1187783E+03  0.7818608E-02  0.1345348E+00
          2   -1    0    0  502    0  0.00000000000E+00  0.00000000000E+00  0.50362482829E+03  0.50362482829E+03  0.00000000000E+00 0. -1.
          1   -1    0    0  501    0 -0.00000000000E+00 -0.00000000000E+00 -0.14830219576E+04  0.14830219576E+04  0.00000000000E+00 0. -1.
         25    2    1    2    0    0 -0.29756898382E+02  0.87911251970E+02 -0.35231498052E+02  0.15962661135E+03  0.12500214146E+03 0.  0.
          2    1    1    2  501    0 -0.42202970069E+01 -0.12003551448E+03 -0.13817420256E+04  0.13869525446E+04  0.00000000000E+00 0. -1.
          1    1    1    2  502    0  0.33977195389E+02  0.32124262515E+02  0.43757639434E+03  0.44006762995E+03  0.00000000000E+00 0. -1.
         22    1    3    3    0    0 -0.40981170056E+02  0.97932009764E+02  0.14976847859E+02  0.10721212995E+03  0.00000000000E+00 0.  1.
         22    1    3    3    0    0  0.11224271674E+02 -0.10020757794E+02 -0.50208345911E+02  0.52414481401E+02  0.00000000000E+00 0.  1.
</event>
<event>
 7    1  0.5931885E-006  0.1229360E+03  0.7818608E-02  0.1378035E+00
          2   -1    0    0  502    0  0.00000000000E+00  0.00000000000E+00  0.11806708723E+03  0.11806708723E+03  0.00000000000E+00 0. -1.
          1   -1    0    0  501    0 -0.00000000000E+00 -0.00000000000E+00 -0.12023109900E+04  0.12023109900E+04  0.00000000000E+00 0. -1.
         25    2    1    2    0    0 -0.68104032508E+02  0.71119526922E+02 -0.14771220158E+03  0.21711612356E+03  0.12499748101E+03 0.  0.
          2    1    1    2  501    0 -0.32519546917E+02  0.11062439087E+02 -0.96878932422E+03  0.96939808810E+03  0.00000000000E+00 0. -1.
          1    1    1    2  502    0  0.10062357943E+03 -0.82181966009E+02  0.32257622989E+02  0.13386386560E+03  0.00000000000E+00 0. -1.
         22    1    3    3    0    0 -0.46867405020E+02  0.45248547211E+02 -0.16645896278E+03  0.17875282087E+03  0.00000000000E+00 0.  1.
         22    1    3    3    0    0 -0.21236627489E+02  0.25870979710E+02  0.18746761196E+02  0.38363302694E+02  0.00000000000E+00 0.  1.
</event>
<event>
 7    1  0.5931885E-006  0.1198896E+03  0.7818608E-02  0.1354460E+00
          2   -1    0    0  502    0  0.00000000000E+00  0.00000000000E+00  0.51638245475E+03  0.51638245475E+03  0.00000000000E+00 0. -1.
          1   -1    0    0  501    0 -0.00000000000E+00 -0.00000000000E+00 -0.96927820627E+02  0.96927820627E+02  0.00000000000E+00 0. -1.
         25    2    1    2    0    0  0.14008100312E+02  0.88289996839E+02  0.29736316464E+02  0.15652700769E+03  0.12500042081E+03 0.  0.
          2    1    1    2  501    0 -0.22879911070E+02  0.36242516707E+02 -0.46620760915E+01  0.43113168537E+02  0.00000000000E+00 0. -1.
          1    1    1    2  502    0  0.88718107572E+01 -0.12453251355E+03  0.39438039375E+03  0.41367009915E+03  0.00000000000E+00 0. -1.
         22    1    3    3    0    0 -0.53788635769E+02  0.54773782421E+02  0.25054109222E+02  0.80753284562E+02  0.00000000000E+00 0. -1.
         22    1    3    3    0    0  0.67796736081E+02  0.33516214417E+02  0.46822072417E+01  0.75773723129E+02  0.00000000000E+00 0. -1.
</event>
<event>
 7    1  0.5931885E-006  0.8867594E+02  0.7818608E-02  0.1330610E+00
          2   -1    0    0  502    0  0.00000000000E+00  0.00000000000E+00  0.85591784260E+02  0.85591784260E+02  0.00000000000E+00 0. -1.
          1   -1    0    0  501    0 -0.00000000000E+00 -0.00000000000E+00 -0.88160066753E+03  0.88160066753E+03  0.00000000000E+00 0. -1.
         25    2    1    2    0    0  0.10133304157E+02  0.11436882594E+03 -0.22125888994E+03  0.27886606233E+03  0.12501148805E+03 0.  0.
          2    1    1    2  501    0 -0.58347619687E+02 -0.40787105849E+02 -0.59401912553E+03  0.59826980053E+03  0.00000000000E+00 0. -1.
          1    1    1    2  502    0  0.48214315530E+02 -0.73581720086E+02  0.19269132208E+02  0.90056588926E+02  0.00000000000E+00 0. -1.
         22    1    3    3    0    0 -0.98834934886E+01  0.11939355812E+03 -0.22766043570E+03  0.25725819549E+03  0.00000000000E+00 0. -1.
         22    1    3    3    0    0  0.20016797646E+02 -0.50247321869E+01  0.64015457535E+01  0.21607866845E+02  0.00000000000E+00 0. -1.
</event>
<event>
 7    1  0.5931885E-006  0.1046557E+03  0.7818608E-02  0.1398248E+00
          2   -1    0    0  502    0  0.00000000000E+00  0.00000000000E+00  0.66096979293E+03  0.66096979293E+03  0.00000000000E+00 0. -1.
          1   -1    0    0  501    0 -0.00000000000E+00 -0.00000000000E+00 -0.13746079355E+04  0.13746079355E+04  0.00000000000E+00 0. -1.
         25    2    1    2    0    0 -0.32487252298E+02 -0.12954612231E+03  0.21396432294E+03  0.28149659635E+03  0.12498793101E+03 0.  0.
          2    1    1    2  501    0  0.40571464526E+02  0.96227890460E+02 -0.13380926750E+04  0.13421616361E+04  0.00000000000E+00 0. -1.
          1    1    1    2  502    0 -0.80842122277E+01  0.33318231849E+02  0.41049020948E+03  0.41191949595E+03  0.00000000000E+00 0. -1.
         22    1    3    3    0    0  0.25159476975E+02 -0.66115372861E+02  0.26813434155E+02  0.75651847706E+02  0.00000000000E+00 0.  1.
         22    1    3    3    0    0 -0.57646729273E+02 -0.63430749448E+02  0.18715088878E+03  0.20584474864E+03  0.00000000000E+00 0.  1.
</event>
<event>
 7    1  0.5931885E-006  0.1243118E+03  0.7818608E-02  0.1388751E+00
          2   -1    0    0  502    0  0.00000000000E+00  0.00000000000E+00  0.33741394965E+03  0.33741394965E+03  0.00000000000E+00 0. -1.
          1   -1    0    0  501    0 -0.00000000000E+00 -0.00000000000E+00 -0.64298929759E+03  0.64298929759E+03  0.00000000000E+00 0. -1.
         25    2    1    2    0    0  0.14598192463E+03  0.37642495725E+02 -0.14901005396E+02  0.19640219665E+03  0.12499641228E+03 0.  0.
          2    1    1    2  501    0 -0.11507862719E+03 -0.41478265205E+02 -0.52935123482E+03  0.54330126700E+03  0.00000000000E+00 0. -1.
          1    1    1    2  502    0 -0.30903297441E+02  0.38357694802E+01  0.23867689227E+03  0.24069978360E+03  0.00000000000E+00 0. -1.
         22    1    3    3    0    0  0.44986914723E+02 -0.45701847254E+02 -0.13062730772E+02  0.65445521420E+02  0.00000000000E+00 0.  1.
         22    1    3    3    0    0  0.10099500991E+03  0.83344342979E+02 -0.18382746239E+01  0.13095667523E+03  0.00000000000E+00 0.  1.
</event>
<event>
 7    1  0.5931885E-006  0.1001416E+03  0.7818608E-02  0.1456815E+00
          2   -1    0    0  502    0  0.00000000000E+00  0.00000000000E+00  0.74534707222E+02  0.74534707222E+02  0.00000000000E+00 0. -1.
          1   -1    0    0  501    0 -0.00000000000E+00 -0.00000000000E+00 -0.19078835819E+04  0.19078835819E+04  0.00000000000E+00 0. -1.
         25    2    1    2    0    0 -0.64017623176E+02  0.92523705652E+02 -0.61360941233E+03  0.63623877799E+03  0.12499751811E+03 0.  0.
          2    1    1    2  501    0 -0.62170976695E+01 -0.22085703729E+02 -0.12436611202E+04  0.12438727477E+04  0.00000000000E+00 0. -1.
          1    1    1    2  502    0  0.70234720846E+02 -0.70438001923E+02  0.23921657849E+02  0.10230676342E+03  0.00000000000E+00 0. -1.
         22    1    3    3    0    0 -0.94800521146E+02  0.63086806384E+02 -0.53342544581E+03  0.54544458031E+03  0.00000000000E+00 0. -1.
         22    1    3    3    0    0  0.30782897969E+02  0.29436899268E+02 -0.80183966518E+02  0.90794197680E+02  0.00000000000E+00 0. -1.
</event>
<event>
 7    1  0.5931885E-006  0.5455641E+02  0.7818608E-02  0.1514663E+00
          2   -1    0    0  502    0  0.00000000000E+00  0.00000000000E+00  0.19806524066E+04  0.19806524066E+04  0.00000000000E+00 0. -1.
          1   -1    0    0  501    0 -0.00000000000E+00 -0.00000000000E+00 -0.86344245007E+02  0.86344245007E+02  0.00000000000E+00 0. -1.
         25    2    1    2    0    0 -0.45225939062E+01 -0.26344203301E+02  0.10321558287E+04  0.10400406980E+04  0.12499811204E+03 0.  0.
          2    1    1    2  501    0  0.98458865802E+01  0.53910035872E+02 -0.73056247872E+02  0.91326057637E+02  0.00000000000E+00 0. -1.
          1    1    1    2  502    0 -0.53232926740E+01 -0.27565832571E+02  0.93520858085E+03  0.93562989598E+03  0.00000000000E+00 0. -1.
         22    1    3    3    0    0 -0.53670288392E+02  0.67643459709E+01  0.25745297461E+03  0.26307468592E+03  0.00000000000E+00 0.  1.
         22    1    3    3    0    0  0.49147694485E+02 -0.33108549272E+02  0.77470285405E+03  0.77696601212E+03  0.00000000000E+00 0.  1.
</event>
<event>
 7    1  0.5931885E-006  0.3660368E+02  0.7818608E-02  0.1545285E+00
          2   -1    0    0  502    0  0.00000000000E+00  0.00000000000E+00  0.85903111364E+03  0.85903111364E+03  0.00000000000E+00 0. -1.
          1   -1    0    0  501    0 -0.00000000000E+00 -0.00000000000E+00 -0.11397715522E+04  0.11397715522E+04  0.00000000000E+00 0. -1.
         25    2    1    2    0    0  0.17546453016E+02 -0.17469933729E+02  0.60093188305E+03  0.61429416741E+03  0.12500047777E+03 0.  0.
          2    1    1    2  501    0 -0.24196054938E+02 -0.24155601225E+02 -0.11310633995E+04  0.11315800262E+04  0.00000000000E+00 0. -1.
          1    1    1    2  502    0  0.66496019220E+01  0.41625534954E+02  0.24939107783E+03  0.25292847223E+03  0.00000000000E+00 0. -1.
         22    1    3    3    0    0 -0.24825486127E+02  0.42909667966E+02  0.32106591029E+03  0.32487053285E+03  0.00000000000E+00 0. -1.
         22    1    3    3    0    0  0.42371939144E+02 -0.60379601695E+02  0.27986597276E+03  0.28942363455E+03  0.00000000000E+00 0. -1.
</event>
<event>
 7    1  0.5931885E-006  0.9200859E+02  0.7818608E-02  0.1322095E+00
          2   -1    0    0  502    0  0.00000000000E+00  0.00000000000E+00  0.25966707496E+03  0.25966707496E+03  0.00000000000E+00 0. -1.
          1   -1    0    0  501    0 -0.00000000000E+00 -0.00000000000E+00 -0.43740527968E+03  0.43740527968E+03  0.00000000000E+00 0. -1.
         25    2    1    2    0    0  0.60877974231E+02 -0.19624972107E+01 -0.34671466836E+02  0.14332188889E+03  0.12501629526E+03 0.  0.
          2    1    1    2  501    0 -0.62927049691E+02  0.75913089070E+02 -0.33438876414E+03  0.34862365992E+03  0.00000000000E+00 0. -1.
          1    1    1    2  502    0  0.20490754609E+01 -0.73950591859E+02  0.19132202625E+03  0.20512680584E+03  0.00000000000E+00 0. -1.
         22    1    3    3    0    0  0.23403162366E+02 -0.53757991448E+02 -0.50588882995E+02  0.77439426237E+02  0.00000000000E+00 0.  1.
         22    1    3    3    0    0  0.37474811864E+02  0.51795494237E+02  0.15917416160E+02  0.65882462649E+02  0.00000000000E+00 0.  1.
</event>
<event>
 7    1  0.5931885E-006  0.8013287E+02  0.7818608E-02  0.1427156E+00
          2   -1    0    0  502    0  0.00000000000E+00  0.00000000000E+00  0.36280716093E+03  0.36280716093E+03  0.00000000000E+00 0. -1.
          1   -1    0    0  501    0 -0.00000000000E+00 -0.00000000000E+00 -0.87920692267E+03  0.87920692267E+03  0.00000000000E+00 0. -1.
         25    2    1    2    0    0 -0.64583971103E+02  0.89022910333E+02  0.14265703112E+03  0.21925140041E+03  0.12499592059E+03 0.  0.
          2    1    1    2  501    0  0.21214184619E+02 -0.28794886916E+02 -0.83293742450E+03  0.83370494797E+03  0.00000000000E+00 0. -1.
          1    1    1    2  502    0  0.43369786483E+02 -0.60228023417E+02  0.17388063164E+03  0.18905773521E+03  0.00000000000E+00 0. -1.
         22    1    3    3    0    0 -0.84503999971E+02  0.18454136051E+02  0.46118306120E+02  0.98022340861E+02  0.00000000000E+00 0. -1.
         22    1    3    3    0    0  0.19920028868E+02  0.70568774282E+02  0.96538725004E+02  0.12122905955E+03  0.00000000000E+00 0. -1.
</event>
<event>
 7    1  0.5931885E-006  0.2912556E+02  0.7818608E-02  0.1614598E+00
          2   -1    0    0  502    0  0.00000000000E+00  0.00000000000E+00  0.37953855471E+04  0.37953855471E+04  0.00000000000E+00 0. -1.
          1   -1    0    0  501    0 -0.00000000000E+00 -0.00000000000E+00 -0.98783859059E+02  0.98783859059E+02  0.00000000000E+00 0. -1.
         25    2    1    2    0    0 -0.34576101248E+02  0.21644553858E+02  0.30936109901E+04  0.30964040148E+04  0.12499948528E+03 0.  0.
          2    1    1    2  501    0  0.28561297245E+02  0.57032978950E+01 -0.94922716124E+02  0.99290469551E+02  0.00000000000E+00 0. -1.
          1    1    1    2  502    0  0.60148040030E+01 -0.27347851753E+02  0.69791341403E+03  0.69847492177E+03  0.00000000000E+00 0. -1.
         22    1    3    3    0    0  0.49179106940E+01 -0.36041701104E+02  0.21092253249E+04  0.21095389689E+04  0.00000000000E+00 0. -1.
         22    1    3    3    0    0 -0.39494011942E+02  0.57686254962E+02  0.98438566523E+03  0.98686504594E+03  0.00000000000E+00 0. -1.
</event>
<event>
 7    1  0.5931885E-006  0.2369432E+03  0.7818608E-02  0.1185700E+00
          2   -1    0    0  502    0  0.00000000000E+00  0.00000000000E+00  0.80866571211E+03  0.80866571211E+03  0.00000000000E+00 0. -1.
          1   -1    0    0  501    0 -0.00000000000E+00 -0.00000000000E+00 -0.17399254633E+04  0.17399254633E+04  0.00000000000E+00 0. -1.
         25    2    1    2    0    0  0.28664866218E+03  0.79665194221E+02 -0.26305377844E+03  0.41633732291E+03  0.12500190959E+03 0.  0.
          2    1    1    2  501    0 -0.18880666132E+03 -0.13354556563E+03 -0.13863341910E+04  0.14054909686E+04  0.00000000000E+00 0. -1.
          1    1    1    2  502    0 -0.97842000861E+02  0.53880371412E+02  0.71812821829E+03  0.72676288393E+03  0.00000000000E+00 0. -1.
         22    1    3    3    0    0  0.59297148269E+02  0.49653302317E+02 -0.15483418332E+02  0.78875461755E+02  0.00000000000E+00 0.  1.
         22    1    3    3    0    0  0.22735151391E+03  0.30011891904E+02 -0.24757036011E+03  0.33746186116E+03  0.00000000000E+00 0.  1.
</event>
<event>
 7    1  0.5931885E-006  0.1074865E+03  0.7818608E-02  0.1296500E+00
          2   -1    0    0  502    0  0.00000000000E+00  0.00000000000E+00  0.76560091785E+03  0.76560091785E+03  0.00000000000E+00 0. -1.
          1   -1    0    0  501    0 -0.00000000000E+00 -0.00000000000E+00 -0.67763437236E+03  0.67763437236E+03  0.00000000000E+00 0. -1.
         25    2    1    2    0    0 -0.54905023481E+02 -0.14433642870E+03 -0.78625500158E+02  0.21366713229E+03  0.12499643153E+03 0.  0.
          2    1    1    2  501    0 -0.14192147152E+02  0.10420711702E+03 -0.52395898323E+03  0.53440953995E+03  0.00000000000E+00 0. -1.
          1    1    1    2  502    0  0.69097170633E+02  0.40129311680E+02  0.69055102888E+03  0.69515861797E+03  0.00000000000E+00 0. -1.
         22    1    3    3    0    0 -0.94298187252E+01 -0.12759851322E+03 -0.98319868487E+02  0.16136015182E+03  0.00000000000E+00 0.  1.
         22    1    3    3    0    0 -0.45475204756E+02 -0.16737915477E+02  0.19694368329E+02  0.52306980470E+02  0.00000000000E+00 0.  1.
</event>
<event>
 7    1  0.5931885E-006  0.3176019E+02  0.7818608E-02  0.1598412E+00
          2   -1    0    0  502    0  0.00000000000E+00  0.00000000000E+00  0.67242500410E+03  0.67242500410E+03  0.00000000000E+00 0. -1.
          1   -1    0    0  501    0 -0.00000000000E+00 -0.00000000000E+00 -0.15157645360E+03  0.15157645360E+03  0.00000000000E+00 0. -1.
         25    2    1    2    0    0  0.17991112099E+02  0.94875778085E+01 -0.22627408571E+02  0.12861429023E+03  0.12496376189E+03 0.  0.
          2    1    1    2  501    0  0.87071101992E+01 -0.26908515817E+02 -0.72896591245E+02  0.78190760366E+02  0.00000000000E+00 0. -1.
          1    1    1    2  502    0 -0.26698222298E+02  0.17420938008E+02  0.61637255031E+03  0.61719640710E+03  0.00000000000E+00 0. -1.
         22    1    3    3    0    0 -0.28311898163E+02 -0.20186058430E+02  0.34734540035E+02  0.49148029502E+02  0.00000000000E+00 0.  1.
         22    1    3    3    0    0  0.46303010261E+02  0.29673636238E+02 -0.57361948606E+02  0.79466260732E+02  0.00000000000E+00 0.  1.
</event>
<event>
 7    1  0.5931885E-006  0.9314488E+02  0.7818608E-02  0.1315705E+00
          2   -1    0    0  502    0  0.00000000000E+00  0.00000000000E+00  0.11876315658E+04  0.11876315658E+04  0.00000000000E+00 0. -1.
          1   -1    0    0  501    0 -0.00000000000E+00 -0.00000000000E+00 -0.96829471569E+03  0.96829471569E+03  0.00000000000E+00 0. -1.
         25    2    1    2    0    0  0.14146851654E+03  0.22881021414E+01 -0.98139867092E+02  0.21278145030E+03  0.12500374193E+03 0.  0.
          2    1    1    2  501    0 -0.60709193698E+02 -0.47975137871E+02 -0.80908094179E+03  0.81277253301E+03  0.00000000000E+00 0. -1.
          1    1    1    2  502    0 -0.80759322844E+02  0.45687035730E+02  0.11265576590E+04  0.11303722982E+04  0.00000000000E+00 0. -1.
         22    1    3    3    0    0  0.60528103260E+02 -0.60175366668E+02 -0.56670379176E+02  0.10245124652E+03  0.00000000000E+00 0.  1.
         22    1    3    3    0    0  0.80940413282E+02  0.62463468809E+02 -0.41469487916E+02  0.11033020378E+03  0.00000000000E+00 0.  1.
</event>
<event>
 7    1  0.5931885E-006  0.9258965E+02  0.7818608E-02  0.1370134E+00
          2   -1    0    0  502    0  0.00000000000E+00  0.00000000000E+00  0.15772135095E+04  0.15772135095E+04  0.00000000000E+00 0. -1.
          1   -1    0    0  501    0 -0.00000000000E+00 -0.00000000000E+00 -0.39693505168E+03  0.39693505168E+03  0.00000000000E+00 0. -1.
         25    2    1    2    0    0 -0.97096795805E+02  0.83661897391E+02 -0.21875656519E+02  0.18036189606E+03  0.12499907348E+03 0.  0.
          2    1    1    2  501    0  0.81719334087E+02 -0.37483871305E+02 -0.28857875597E+03  0.30225947226E+03  0.00000000000E+00 0. -1.
          1    1    1    2  502    0  0.15377461718E+02 -0.46178026085E+02  0.14907328703E+04  0.14915271928E+04  0.00000000000E+00 0. -1.
         22    1    3    3    0    0 -0.11861249545E+03  0.41910367047E+02 -0.36812639058E+02  0.13107468611E+03  0.00000000000E+00 0.  1.
         22    1    3    3    0    0  0.21515699648E+02  0.41751530344E+02  0.14936982539E+02  0.49287209951E+02  0.00000000000E+00 0.  1.
</event>
<event>
 7    1  0.5931885E-006  0.1298898E+03  0.7818608E-02  0.1270722E+00
          2   -1    0    0  502    0  0.00000000000E+00  0.00000000000E+00  0.15790738446E+04  0.15790738446E+04  0.00000000000E+00 0. -1.
          1   -1    0    0  501    0 -0.00000000000E+00 -0.00000000000E+00 -0.94307514237E+02  0.94307514237E+02  0.00000000000E+00 0. -1.
         25    2    1    2    0    0 -0.19953865113E+03 -0.20683475392E+02  0.32276189189E+03  0.40005460185E+03  0.12499986462E+03 0.  0.
          2    1    1    2  501    0  0.11519259803E+03  0.23324721469E+02  0.96928653866E+01  0.11792933864E+03  0.00000000000E+00 0. -1.
          1    1    1    2  502    0  0.84346053096E+02 -0.26412460775E+01  0.11523115731E+04  0.11553974183E+04  0.00000000000E+00 0. -1.
         22    1    3    3    0    0 -0.61457500803E+02 -0.46335244601E+02  0.45916863376E+02  0.89623309688E+02  0.00000000000E+00 0.  1.
         22    1    3    3    0    0 -0.13808115033E+03  0.25651769209E+02  0.27684502851E+03  0.31043129216E+03  0.00000000000E+00 0.  1.
</event>
<event>
 7    1  0.5931885E-006  0.8280100E+02  0.7818608E-02  0.1335374E+00
          2   -1    0    0  502    0  0.00000000000E+00  0.00000000000E+00  0.84179543149E+03  0.84179543149E+03  0.00000000000E+00 0. -1.
          1   -1    0    0  501    0 -0.00000000000E+00 -0.00000000000E+00 -0.54069917959E+03  0.54069917959E+03  0.00000000000E+00 0. -1.
         25    2    1    2    0    0 -0.56315836956E+02 -0.14464023507E+03  0.30833983037E+03  0.36713736353E+03  0.12499648642E+03 0.  0.
          2    1    1    2  501    0  0.29885856496E+02  0.76457409051E+02 -0.50531839215E+03  0.51194294337E+03  0.00000000000E+00 0. -1.
          1    1    1    2  502    0  0.26429980459E+02  0.68182826023E+02  0.49807481368E+03  0.50341430418E+03  0.00000000000E+00 0. -1.
         22    1    3    3    0    0  0.91212896109E+01 -0.51999460871E+02  0.21152948196E+03  0.21801803502E+03  0.00000000000E+00 0. -1.
         22    1    3    3    0    0 -0.65437126566E+02 -0.92640774202E+02  0.96810348405E+02  0.14911932851E+03  0.00000000000E+00 0. -1.
</event>
<event>
 7    1  0.6680000E-006  0.7945919E+02  0.7818608E-02  0.1378380E+00
          2   -1    0    0  502    0  0.00000000000E+00  0.00000000000E+00  0.14204938194E+04  0.14204938194E+04  0.00000000000E+00 0. -1.
          1   -1    0    0  501    0 -0.00000000000E+00 -0.00000000000E+00 -0.25403661023E+04  0.25403661023E+04  0.00000000000E+00 0. -1.
         25    2    1    2    0    0 -0.28882940347E+02 -0.80995567539E+00 -0.12761285252E+03  0.18095539979E+03  0.12499974525E+03 0.  0.
          2    1    1    2  501    0 -0.46581288586E+02 -0.25270539998E+02 -0.23846438979E+04  0.23852326797E+04  0.00000000000E+00 0. -1.
          1    1    1    2  502    0  0.75464228933E+02  0.26080495673E+02  0.13923844675E+04  0.13946718422E+04  0.00000000000E+00 0. -1.
         22    1    3    3    0    0  0.38593821100E+02 -0.34627113370E+02 -0.63050608014E+02  0.81632708998E+02  0.00000000000E+00 0. -1.
         22    1    3    3    0    0 -0.67476761447E+02  0.33817157695E+02 -0.64562244508E+02  0.99322690790E+02  0.00000000000E+00 0. -1.
</event>
<event>
 7    1  0.5931885E-006  0.9940813E+02  0.7818608E-02  0.1356998E+00
          2   -1    0    0  502    0  0.00000000000E+00  0.00000000000E+00  0.14484856593E+03  0.14484856593E+03  0.00000000000E+00 0. -1.
          1   -1    0    0  501    0 -0.00000000000E+00 -0.00000000000E+00 -0.62225192169E+03  0.62225192169E+03  0.00000000000E+00 0. -1.
         25    2    1    2    0    0  0.76891276343E+02  0.97203753534E+01 -0.44274826877E+03  0.46654021250E+03  0.12500794497E+03 0.  0.
          2    1    1    2  501    0  0.16392088542E+02 -0.47864523461E+02 -0.14353888435E+03  0.15219436419E+03  0.00000000000E+00 0. -1.
          1    1    1    2  502    0 -0.93283364885E+02  0.38144148108E+02  0.10888379735E+03  0.14836591093E+03  0.00000000000E+00 0. -1.
         22    1    3    3    0    0  0.26485478310E+02  0.65936347350E+02 -0.19506947615E+03  0.20760824403E+03  0.00000000000E+00 0. -1.
         22    1    3    3    0    0  0.50405798032E+02 -0.56215971996E+02 -0.24767879262E+03  0.25893196848E+03  0.00000000000E+00 0. -1.
</event>
<event>
 7    1  0.5931885E-006  0.7986486E+02  0.7818608E-02  0.1331669E+00
          2   -1    0    0  502    0  0.00000000000E+00  0.00000000000E+00  0.70061172513E+03  0.70061172513E+03  0.00000000000E+00 0. -1.
          1   -1    0    0  501    0 -0.00000000000E+00 -0.00000000000E+00 -0.39740602490E+03  0.39740602490E+03  0.00000000000E+00 0. -1.
         25    2    1    2    0    0  0.20182616972E+02 -0.10516753942E+03  0.18293899967E+03  0.24608510867E+03  0.12499461482E+03 0.  0.
          2    1    1    2  501    0 -0.67189603846E+02  0.40228427117E+02 -0.35826918699E+03  0.36672820939E+03  0.00000000000E+00 0. -1.
          1    1    1    2  502    0  0.47006986874E+02  0.64939112298E+02  0.47853588756E+03  0.48520443197E+03  0.00000000000E+00 0. -1.
         22    1    3    3    0    0  0.59547708390E+02 -0.99404428253E+02  0.96003911888E+02  0.15047897205E+03  0.00000000000E+00 0. -1.
         22    1    3    3    0    0 -0.39365091417E+02 -0.57631111628E+01  0.86935087779E+02  0.95606136621E+02  0.00000000000E+00 0. -1.
</event>
<event>
 7    1  0.5931885E-006  0.1561413E+03  0.7818608E-02  0.1298203E+00
          2   -1    0    0  502    0  0.00000000000E+00  0.00000000000E+00  0.25454012849E+03  0.25454012849E+03  0.00000000000E+00 0. -1.
          1   -1    0    0  501    0 -0.00000000000E+00 -0.00000000000E+00 -0.20182428575E+04  0.20182428575E+04  0.00000000000E+00 0. -1.
         25    2    1    2    0    0  0.18733301428E+03 -0.41254535738E+02 -0.74046274594E+02  0.24063041398E+03  0.12499820155E+03 0.  0.
          2    1    1    2  501    0 -0.15492980393E+03 -0.21245656448E+01 -0.18533093784E+04  0.18597750966E+04  0.00000000000E+00 0. -1.
          1    1    1    2  502    0 -0.32403210349E+02  0.43379101383E+02  0.16365292401E+03  0.17237747537E+03  0.00000000000E+00 0. -1.
         22    1    3    3    0    0  0.17381433104E+03 -0.50789201883E+02 -0.17746210248E+02  0.18195024782E+03  0.00000000000E+00 0.  1.
         22    1    3    3    0    0  0.13518683240E+02  0.95346661443E+01 -0.56300064347E+02  0.58680166159E+02  0.00000000000E+00 0.  1.
</event>
<event>
 7    1  0.5931885E-006  0.1188449E+03  0.7818608E-02  0.1333091E+00
          2   -1    0    0  502    0  0.00000000000E+00  0.00000000000E+00  0.17132138127E+04  0.17132138127E+04  0.00000000000E+00 0. -1.
          1   -1    0    0  501    0 -0.00000000000E+00 -0.00000000000E+00 -0.55621772375E+03  0.55621772375E+03  0.00000000000E+00 0. -1.
         25    2    1    2    0    0 -0.99916539868E+02 -0.31889146274E+02 -0.15504640034E+03  0.22508805067E+03  0.12500004682E+03 0.  0.
          2    1    1    2  501    0  0.93536682214E+02  0.83470839175E+02 -0.35500270337E+03  0.37648826185E+03  0.00000000000E+00 0. -1.
          1    1    1    2  502    0  0.63798576546E+01 -0.51581692901E+02  0.16670451926E+04  0.16678552239E+04  0.00000000000E+00 0. -1.
         22    1    3    3    0    0 -0.94351760713E+02 -0.14383661750E+02 -0.17414850378E+03  0.19858712406E+03  0.00000000000E+00 0. -1.
         22    1    3    3    0    0 -0.55647791550E+01 -0.17505484524E+02  0.19102103435E+02  0.26500926608E+02  0.00000000000E+00 0. -1.
</event>
<event>
 7    1  0.5931885E-006  0.1088856E+03  0.7818608E-02  0.1358239E+00
          2   -1    0    0  502    0  0.00000000000E+00  0.00000000000E+00  0.85962490922E+02  0.85962490922E+02  0.00000000000E+00 0. -1.
          1   -1    0    0  501    0 -0.00000000000E+00 -0.00000000000E+00 -0.23813556507E+04  0.23813556507E+04  0.00000000000E+00 0. -1.
         25    2    1    2    0    0 -0.14963739930E+03  0.79653801111E+01 -0.31822791020E+03  0.37329133109E+03  0.12499046560E+03 0.  0.
          2    1    1    2  501    0  0.10519975449E+03 -0.18670776743E+02 -0.20250276651E+04  0.20278443309E+04  0.00000000000E+00 0. -1.
          1    1    1    2  502    0  0.44437644803E+02  0.10705396632E+02  0.47862415467E+02  0.66182479608E+02  0.00000000000E+00 0. -1.
         22    1    3    3    0    0 -0.50112271019E+02 -0.12392866562E+02 -0.23886601397E+03  0.24438043187E+03  0.00000000000E+00 0.  1.
         22    1    3    3    0    0 -0.99525128279E+02  0.20358246673E+02 -0.79361896226E+02  0.12891089923E+03  0.00000000000E+00 0.  1.
</event>
<event>
 7    1  0.5931885E-006  0.6177733E+02  0.7818608E-02  0.1444904E+00
          2   -1    0    0  502    0  0.00000000000E+00  0.00000000000E+00  0.12211076444E+04  0.12211076444E+04  0.00000000000E+00 0. -1.
          1   -1    0    0  501    0 -0.00000000000E+00 -0.00000000000E+00 -0.12598612211E+03  0.12598612211E+03  0.00000000000E+00 0. -1.
         25    2    1    2    0    0 -0.19754860376E+02 -0.91501013595E+01 -0.68385193213E+01  0.12706890038E+03  0.12500304489E+03 0.  0.
          2    1    1    2  501    0 -0.38527469848E+02 -0.12804250655E+02 -0.51110690315E+02  0.65273405244E+02  0.00000000000E+00 0. -1.
          1    1    1    2  502    0  0.58282330224E+02  0.21954352014E+02  0.11530707319E+04  0.11547514609E+04  0.00000000000E+00 0. -1.
         22    1    3    3    0    0 -0.45478173474E+02 -0.44693445920E+02 -0.37098929622E+02  0.73770583228E+02  0.00000000000E+00 0.  1.
         22    1    3    3    0    0  0.25723313098E+02  0.35543344560E+02  0.30260410300E+02  0.53298317148E+02  0.00000000000E+00 0.  1.
</event>
<event>
 7    1  0.5931885E-006  0.4777874E+03  0.7818608E-02  0.1194005E+00
          2   -1    0    0  502    0  0.00000000000E+00  0.00000000000E+00  0.19686289882E+04  0.19686289882E+04  0.00000000000E+00 0. -1.
          1   -1    0    0  501    0 -0.00000000000E+00 -0.00000000000E+00 -0.16619728852E+04  0.16619728852E+04  0.00000000000E+00 0. -1.
         25    2    1    2    0    0  0.46287585550E+03 -0.22257945240E+03  0.57012419212E+03  0.77747137737E+03  0.12499791180E+03 0.  0.
          2    1    1    2  501    0 -0.42650448769E+02  0.27106388678E+02 -0.15163924728E+04  0.15172343091E+04  0.00000000000E+00 0. -1.
          1    1    1    2  502    0 -0.42022540673E+03  0.19547306372E+03  0.12529243836E+04  0.13358961869E+04  0.00000000000E+00 0. -1.
         22    1    3    3    0    0  0.31108709746E+03 -0.18262727760E+03  0.46518601326E+03  0.58866453236E+03  0.00000000000E+00 0.  1.
         22    1    3    3    0    0  0.15178875804E+03 -0.39952174791E+02  0.10493817886E+03  0.18880684501E+03  0.00000000000E+00 0.  1.
</event>
<event>
 7    1  0.5931885E-006  0.8143413E+02  0.7818608E-02  0.1391935E+00
          2   -1    0    0  502    0  0.00000000000E+00  0.00000000000E+00  0.11650096499E+04  0.11650096499E+04  0.00000000000E+00 0. -1.
          1   -1    0    0  501    0 -0.00000000000E+00 -0.00000000000E+00 -0.24751290737E+04  0.24751290737E+04  0.00000000000E+00 0. -1.
         25    2    1    2    0    0 -0.16834238481E+02 -0.53293652701E+02  0.67569768234E+03  0.68943124261E+03  0.12499790140E+03 0.  0.
          2    1    1    2  501    0 -0.22103344698E+02  0.78412560389E+02 -0.24664755831E+04  0.24678206761E+04  0.00000000000E+00 0. -1.
          1    1    1    2  502    0  0.38937583179E+02 -0.25118907688E+02  0.48065847693E+03  0.48288680490E+03  0.00000000000E+00 0. -1.
         22    1    3    3    0    0 -0.62075117956E+02 -0.55638648489E+02  0.53937040850E+03  0.54577414472E+03  0.00000000000E+00 0. -1.
         22    1    3    3    0    0  0.45240879474E+02  0.23449957883E+01  0.13632727384E+03  0.14365709789E+03  0.00000000000E+00 0. -1.
</event>
<event>
 7    1  0.5931885E-006  0.6103550E+02  0.7818608E-02  0.1394280E+00
          2   -1    0    0  502    0  0.00000000000E+00  0.00000000000E+00  0.30650733831E+03  0.30650733831E+03  0.00000000000E+00 0. -1.
          1   -1    0    0  501    0 -0.00000000000E+00 -0.00000000000E+00 -0.17456342254E+04  0.17456342254E+04  0.00000000000E+00 0. -1.
         25    2    1    2    0    0 -0.40696388632E+02 -0.85796292034E+02 -0.53771358879E+03  0.56015832979E+03  0.12499700432E+03 0.  0.
          2    1    1    2  501    0 -0.14067173646E+02  0.59021126435E+02 -0.11927728493E+04  0.11943150542E+04  0.00000000000E+00 0. -1.
          1    1    1    2  502    0  0.54763562278E+02  0.26775165598E+02  0.29135955099E+03  0.29766817969E+03  0.00000000000E+00 0. -1.
         22    1    3    3    0    0  0.13650021362E+02  0.19483650131E+02 -0.21627848512E+03  0.21758290106E+03  0.00000000000E+00 0. -1.
         22    1    3    3    0    0 -0.54346409994E+02 -0.10527994216E+03 -0.32143510366E+03  0.34257542873E+03  0.00000000000E+00 0. -1.
</event>
<event>
 7    1  0.5931885E-006  0.2629466E+02  0.7818608E-02  0.1663065E+00
          2   -1    0    0  502    0  0.00000000000E+00  0.00000000000E+00  0.10067311439E+04  0.10067311439E+04  0.00000000000E+00 0. -1.
          1   -1    0    0  501    0 -0.00000000000E+00 -0.00000000000E+00 -0.83205730590E+03  0.83205730590E+03  0.00000000000E+00 0. -1.
         25    2    1    2    0    0 -0.49566033996E+00 -0.70140304992E+01  0.78430788993E+03  0.79424096043E+03  0.12502157704E+03 0.  0.
          2    1    1    2  501    0  0.25103323460E+01 -0.23363335425E+02 -0.82585729221E+03  0.82619151188E+03  0.00000000000E+00 0. -1.
          1    1    1    2  502    0 -0.20146720060E+01  0.30377365924E+02  0.21622324023E+03  0.21835597743E+03  0.00000000000E+00 0. -1.
         22    1    3    3    0    0 -0.40742008879E+02  0.14628324428E+02  0.66614257026E+03  0.66754761858E+03  0.00000000000E+00 0. -1.
         22    1    3    3    0    0  0.40246348539E+02 -0.21642354927E+02  0.11816531967E+03  0.12669334185E+03  0.00000000000E+00 0. -1.
</event>
<event>
 7    1  0.5931885E-006  0.9048411E+02  0.7818608E-02  0.1378723E+00
          2   -1    0    0  502    0  0.00000000000E+00  0.00000000000E+00  0.18135126379E+04  0.18135126379E+04  0.00000000000E+00 0. -1.
          1   -1    0    0  501    0 -0.00000000000E+00 -0.00000000000E+00 -0.13996305745E+03  0.13996305745E+03  0.00000000000E+00 0. -1.
         25    2    1    2    0    0 -0.68552646921E+02  0.39899989629E+02  0.24148581737E+02  0.14999884283E+03  0.12500009712E+03 0.  0.
          2    1    1    2  501    0  0.96986023784E+02 -0.32233575197E+01 -0.46035377315E+02  0.10740546917E+03  0.00000000000E+00 0. -1.
          1    1    1    2  502    0 -0.28433376863E+02 -0.36676632109E+02  0.16954363760E+04  0.16960713834E+04  0.00000000000E+00 0. -1.
         22    1    3    3    0    0 -0.76412512994E+02  0.77398298043E+02  0.10258988605E+02  0.10924566595E+03  0.00000000000E+00 0.  1.
         22    1    3    3    0    0  0.78598660727E+01 -0.37498308414E+02  0.13889593132E+02  0.40753176882E+02  0.00000000000E+00 0.  1.
</event>
<event>
 7    1  0.5931885E-006  0.1692438E+03  0.7818608E-02  0.1244793E+00
          2   -1    0    0  502    0  0.00000000000E+00  0.00000000000E+00  0.28205012309E+03  0.28205012309E+03  0.00000000000E+00 0. -1.
          1   -1    0    0  501    0 -0.00000000000E+00 -0.00000000000E+00 -0.56127227895E+03  0.56127227895E+03  0.00000000000E+00 0. -1.
         25    2    1    2    0    0  0.15309915951E+03  0.17372522996E+03  0.78451045337E+02  0.27458897605E+03  0.12499892434E+03 0.  0.
          2    1    1    2  501    0 -0.73867434191E+02 -0.14692662531E+03 -0.42860131135E+03  0.45906744075E+03  0.00000000000E+00 0. -1.
          1    1    1    2  502    0 -0.79231725322E+02 -0.26798604647E+02  0.70928110163E+02  0.10966598524E+03  0.00000000000E+00 0. -1.
         22    1    3    3    0    0  0.63060490314E+02  0.13647676199E+03  0.91932074590E+02  0.17622156037E+03  0.00000000000E+00 0.  1.
         22    1    3    3    0    0  0.90038669199E+02  0.37248467969E+02 -0.13481029253E+02  0.98367415677E+02  0.00000000000E+00 0.  1.
</event>
<event>
 7    1  0.5931885E-006  0.9111741E+02  0.7818608E-02  0.1365112E+00
          2   -1    0    0  502    0  0.00000000000E+00  0.00000000000E+00  0.23376930748E+04  0.23376930748E+04  0.00000000000E+00 0. -1.
          1   -1    0    0  501    0 -0.00000000000E+00 -0.00000000000E+00 -0.22786838551E+04  0.22786838551E+04  0.00000000000E+00 0. -1.
         25    2    1    2    0    0 -0.13898928765E+03 -0.28128757855E+02  0.45914243214E+03  0.49653445228E+03  0.12500176082E+03 0.  0.
          2    1    1    2  501    0  0.90354438057E+02  0.10995463700E+02 -0.22587136492E+04  0.22605468750E+04  0.00000000000E+00 0. -1.
          1    1    1    2  502    0  0.48634849594E+02  0.17133294155E+02  0.18585804368E+04  0.18592956027E+04  0.00000000000E+00 0. -1.
         22    1    3    3    0    0 -0.11781250206E+03  0.21144232764E+02  0.39597716269E+03  0.41367230702E+03  0.00000000000E+00 0.  1.
         22    1    3    3    0    0 -0.21176785594E+02 -0.49272990619E+02  0.63165269447E+02  0.82862145259E+02  0.00000000000E+00 0.  1.
</event>
<event>
 7    1  0.7665151E-006  0.1110262E+03  0.7818608E-02  0.1278467E+00
          2   -1    0    0  502    0  0.00000000000E+00  0.00000000000E+00  0.25954435678E+04  0.25954435678E+04  0.00000000000E+00 0. -1.
          1   -1    0    0  501    0 -0.00000000000E+00 -0.00000000000E+00 -0.75567167102E+03  0.75567167102E+03  0.00000000000E+00 0. -1.
         25    2    1    2    0    0  0.56451569661E+01 -0.22946159639E+02  0.15101323165E+02  0.12811055690E+03  0.12500348310E+03 0.  0.
          2    1    1    2  501    0  0.61384626375E+02 -0.68058861019E+02 -0.69489106342E+03  0.70090917453E+03  0.00000000000E+00 0. -1.
          1    1    1    2  502    0 -0.67029783341E+02  0.91005020658E+02  0.25195616371E+04  0.25220955074E+04  0.00000000000E+00 0. -1.
         22    1    3    3    0    0 -0.41765582424E+02  0.34585426920E+01  0.48726580094E+02  0.64269782949E+02  0.00000000000E+00 0. -1.
         22    1    3    3    0    0  0.47410739390E+02 -0.26404702332E+02 -0.33625256929E+02  0.63840773947E+02  0.00000000000E+00 0. -1.
</event>
<event>
 7    1  0.5931885E-006  0.4313840E+03  0.7818608E-02  0.1277952E+00
          2   -1    0    0  502    0  0.00000000000E+00  0.00000000000E+00  0.11424742720E+04  0.11424742720E+04  0.00000000000E+00 0. -1.
          1   -1    0    0  501    0 -0.00000000000E+00 -0.00000000000E+00 -0.78408265806E+03  0.78408265806E+03  0.00000000000E+00 0. -1.
         25    2    1    2    0    0 -0.87230541681E+01  0.42295570148E+03  0.34744844916E+02  0.44249282065E+03  0.12500029998E+03 0.  0.
          2    1    1    2  501    0  0.21262023535E+02  0.10480699277E+02 -0.52792119892E+03  0.52845313035E+03  0.00000000000E+00 0. -1.
          1    1    1    2  502    0 -0.12538969367E+02 -0.43343640076E+03  0.85156796795E+03  0.95561097906E+03  0.00000000000E+00 0. -1.
         22    1    3    3    0    0  0.23015715871E+02  0.35539420574E+03  0.64869019898E+02  0.36199827954E+03  0.00000000000E+00 0.  1.
         22    1    3    3    0    0 -0.31738770039E+02  0.67561495739E+02 -0.30124174982E+02  0.80494541109E+02  0.00000000000E+00 0.  1.
</event>
<event>
 7    1  0.5931885E-006  0.8115140E+02  0.7818608E-02  0.1361860E+00
          2   -1    0    0  502    0  0.00000000000E+00  0.00000000000E+00  0.38448108011E+03  0.38448108011E+03  0.00000000000E+00 0. -1.
          1   -1    0    0  501    0 -0.00000000000E+00 -0.00000000000E+00 -0.75874231352E+03  0.75874231352E+03  0.00000000000E+00 0. -1.
         25    2    1    2    0    0 -0.96843454019E+02 -0.42059490961E+02 -0.78758119579E+02  0.18159145239E+03  0.12499983526E+03 0.  0.
          2    1    1    2  501    0  0.17336421649E+02  0.56910145366E+02 -0.62221730351E+03  0.62505494875E+03  0.00000000000E+00 0. -1.
          1    1    1    2  502    0  0.79507032370E+02 -0.14850654404E+02  0.32671418969E+03  0.33657699249E+03  0.00000000000E+00 0. -1.
         22    1    3    3    0    0 -0.38294332691E+02  0.41359094184E+02 -0.66706418583E+01  0.56758506418E+02  0.00000000000E+00 0. -1.
         22    1    3    3    0    0 -0.58549121328E+02 -0.83418585145E+02 -0.72087477721E+02  0.12483294597E+03  0.00000000000E+00 0. -1.
</event>
<event>
 7    1  0.5931885E-006  0.9955812E+02  0.7818608E-02  0.1316015E+00
          2   -1    0    0  502    0  0.00000000000E+00  0.00000000000E+00  0.53728397611E+03  0.53728397611E+03  0.00000000000E+00 0. -1.
          1   -1    0    0  501    0 -0.00000000000E+00 -0.00000000000E+00 -0.14246096683E+03  0.14246096683E+03  0.00000000000E+00 0. -1.
         25    2    1    2    0    0  0.81808207622E+01 -0.12232915844E+03  0.27686897048E+03  0.32758716121E+03  0.12500229013E+03 0.  0.
          2    1    1    2  501    0 -0.63797083660E+02  0.76303025812E+02 -0.88694338792E+02  0.13326254299E+03  0.00000000000E+00 0. -1.
          1    1    1    2  502    0  0.55616262898E+02  0.46026132629E+02  0.20664837759E+03  0.21889523874E+03  0.00000000000E+00 0. -1.
         22    1    3    3    0    0  0.60402270035E+02 -0.35228039596E+02  0.14648651911E+03  0.16231989798E+03  0.00000000000E+00 0. -1.
         22    1    3    3    0    0 -0.52221449273E+02 -0.87101118845E+02  0.13038245138E+03  0.16526726323E+03  0.00000000000E+00 0. -1.
</event>
<event>
 7    1  0.5931885E-006  0.2054558E+03  0.7818608E-02  0.1270537E+00
          2   -1    0    0  502    0  0.00000000000E+00  0.00000000000E+00  0.42312298693E+03  0.42312298693E+03  0.00000000000E+00 0. -1.
          1   -1    0    0  501    0 -0.00000000000E+00 -0.00000000000E+00 -0.68827656184E+03  0.68827656184E+03  0.00000000000E+00 0. -1.
         25    2    1    2    0    0  0.16527832975E+03  0.85012192111E+02 -0.15809476766E+03  0.27415882240E+03  0.12500042099E+03 0.  0.
          2    1    1    2  501    0  0.38105599067E+02 -0.37474484463E+02 -0.44052936871E+03  0.44375950509E+03  0.00000000000E+00 0. -1.
          1    1    1    2  502    0 -0.20338392881E+03 -0.47537707648E+02  0.33347056145E+03  0.39348122128E+03  0.00000000000E+00 0. -1.
         22    1    3    3    0    0 -0.15326252499E+02  0.30665918515E+02 -0.34676983560E+02  0.48762544672E+02  0.00000000000E+00 0.  1.
         22    1    3    3    0    0  0.18060458225E+03  0.54346273596E+02 -0.12341778410E+03  0.22539627773E+03  0.00000000000E+00 0.  1.
</event>
<event>
 7    1  0.5931885E-006  0.1210923E+03  0.7818608E-02  0.1269566E+00
          2   -1    0    0  502    0  0.00000000000E+00  0.00000000000E+00  0.25078684106E+04  0.25078684106E+04  0.00000000000E+00 0. -1.
          1   -1    0    0  501    0 -0.00000000000E+00 -0.00000000000E+00 -0.15467755016E+04  0.15467755016E+04  0.00000000000E+00 0. -1.
         25    2    1    2    0    0  0.18697701527E+03 -0.26885592864E+02  0.24918101934E+02  0.22788024516E+03  0.12500101995E+03 0.  0.
          2    1    1    2  501    0 -0.84266531297E+02 -0.35745831663E+02 -0.14423234414E+04  0.14452250767E+04  0.00000000000E+00 0. -1.
          1    1    1    2  502    0 -0.10271048398E+03  0.62631424527E+02  0.23784982485E+04  0.23815385903E+04  0.00000000000E+00 0. -1.
         22    1    3    3    0    0  0.29695014535E+02 -0.52615823566E+02  0.31964796801E+02  0.68351788654E+02  0.00000000000E+00 0.  1.
         22    1    3    3    0    0  0.15728200074E+03  0.25730230702E+02 -0.70466948666E+01  0.15952845651E+03  0.00000000000E+00 0.  1.
</event>
<event>
 7    1  0.5931885E-006  0.1338238E+03  0.7818608E-02  0.1417915E+00
          2   -1    0    0  502    0  0.00000000000E+00  0.00000000000E+00  0.10782811146E+04  0.10782811146E+04  0.00000000000E+00 0. -1.
          1   -1    0    0  501    0 -0.00000000000E+00 -0.00000000000E+00 -0.18458201036E+03  0.18458201036E+03  0.00000000000E+00 0. -1.
         25    2    1    2    0    0 -0.11324827670E+03  0.95691834817E+02  0.73502348223E+03  0.76017534878E+03  0.12499976813E+03 0.  0.
          2    1    1    2  501    0  0.90382986133E+02 -0.98062384613E+02 -0.14565745113E+03  0.19748774273E+03  0.00000000000E+00 0. -1.
          1    1    1    2  502    0  0.22865290569E+02  0.23705497957E+01  0.30433307313E+03  0.30520003345E+03  0.00000000000E+00 0. -1.
         22    1    3    3    0    0 -0.94465823735E+02  0.52357146100E+02  0.67603748072E+03  0.68461064696E+03  0.00000000000E+00 0. -1.
         22    1    3    3    0    0 -0.18782452968E+02  0.43334688717E+02  0.58986001513E+02  0.75564701814E+02  0.00000000000E+00 0. -1.
</event>
<event>
 7    1  0.5931885E-006  0.1607120E+03  0.7818608E-02  0.1209785E+00
          2   -1    0    0  502    0  0.00000000000E+00  0.00000000000E+00  0.37587246292E+04  0.37587246292E+04  0.00000000000E+00 0. -1.
          1   -1    0    0  501    0 -0.00000000000E+00 -0.00000000000E+00 -0.15696768945E+03  0.15696768945E+03  0.00000000000E+00 0. -1.
         25    2    1    2    0    0 -0.35290002740E+02 -0.23395099400E+03  0.27454516283E+03  0.38337766863E+03  0.12499975392E+03 0.  0.
          2    1    1    2  501    0 -0.52180330569E+02  0.14236189737E+03 -0.44661027003E+02  0.15806424028E+03  0.00000000000E+00 0. -1.
          1    1    1    2  502    0  0.87470333309E+02  0.91589096632E+02  0.33718728039E+04  0.33742504097E+04  0.00000000000E+00 0. -1.
         22    1    3    3    0    0  0.40622696359E+01 -0.17544122130E+03  0.25616298371E+03  0.31050861243E+03  0.00000000000E+00 0. -1.
         22    1    3    3    0    0 -0.39352272376E+02 -0.58509772697E+02  0.18382179118E+02  0.72869056199E+02  0.00000000000E+00 0. -1.
</event>
<event>
 7    1  0.5931885E-006  0.1411143E+03  0.7818608E-02  0.1337006E+00
          2   -1    0    0  502    0  0.00000000000E+00  0.00000000000E+00  0.18686134874E+04  0.18686134874E+04  0.00000000000E+00 0. -1.
          1   -1    0    0  501    0 -0.00000000000E+00 -0.00000000000E+00 -0.15918060547E+03  0.15918060547E+03  0.00000000000E+00 0. -1.
         25    2    1    2    0    0 -0.60316387457E+02 -0.12308015562E+03  0.80397941176E+03  0.82510263535E+03  0.12499869208E+03 0.  0.
          2    1    1    2  501    0  0.21497722545E+02  0.13988966404E+03 -0.11438513929E+03  0.18197590574E+03  0.00000000000E+00 0. -1.
          1    1    1    2  502    0  0.38818664912E+02 -0.16809508418E+02  0.10198386094E+04  0.10207155518E+04  0.00000000000E+00 0. -1.
         22    1    3    3    0    0  0.26090425677E+02 -0.20232810992E+02  0.54810238350E+02  0.63986242120E+02  0.00000000000E+00 0. -1.
         22    1    3    3    0    0 -0.86406813134E+02 -0.10284734463E+03  0.74916917341E+03  0.76111639323E+03  0.00000000000E+00 0. -1.
</event>
<event>
 7    1  0.5931885E-006  0.1378875E+03  0.7818608E-02  0.1268274E+00
          2   -1    0    0  502    0  0.00000000000E+00  0.00000000000E+00  0.63140189044E+03  0.63140189044E+03  0.00000000000E+00 0. -1.
          1   -1    0    0  501    0 -0.00000000000E+00 -0.00000000000E+00 -0.10516853303E+04  0.10516853303E+04  0.00000000000E+00 0. -1.
         25    2    1    2    0    0  0.10562389141E+03  0.64820360115E+02  0.11586939967E+03  0.21073490809E+03  0.12500159272E+03 0.  0.
          2    1    1    2  501    0 -0.45352537373E+02  0.67592956571E+02 -0.99123972553E+03  0.99457621824E+03  0.00000000000E+00 0. -1.
          1    1    1    2  502    0 -0.60271354041E+02 -0.13241331669E+03  0.45508688601E+03  0.47777609439E+03  0.00000000000E+00 0. -1.
         22    1    3    3    0    0  0.40720113601E+02 -0.26049478464E+02 -0.19832556445E+01  0.48380122808E+02  0.00000000000E+00 0.  1.
         22    1    3    3    0    0  0.64903777813E+02  0.90869838579E+02  0.11785265532E+03  0.16235478528E+03  0.00000000000E+00 0.  1.
</event>
<event>
 7    1  0.5931885E-006  0.7398081E+02  0.7818608E-02  0.1403012E+00
          2   -1    0    0  502    0  0.00000000000E+00  0.00000000000E+00  0.29159064100E+03  0.29159064100E+03  0.00000000000E+00 0. -1.
          1   -1    0    0  501    0 -0.00000000000E+00 -0.00000000000E+00 -0.14510624842E+04  0.14510624842E+04  0.00000000000E+00 0. -1.
         25    2    1    2    0    0 -0.53796853360E+02 -0.42411036721E+01  0.13876437417E+03  0.19440495029E+03  0.12500257905E+03 0.  0.
          2    1    1    2  501    0 -0.20597627494E+02 -0.41919992978E+02 -0.14074771176E+04  0.14082518896E+04  0.00000000000E+00 0. -1.
          1    1    1    2  502    0  0.74394480854E+02  0.46161096650E+02  0.10924090020E+03  0.13999628532E+03  0.00000000000E+00 0. -1.
         22    1    3    3    0    0  0.37715480027E+02  0.13526103500E+02  0.24605368372E+02  0.47019539154E+02  0.00000000000E+00 0.  1.
         22    1    3    3    0    0 -0.91512333387E+02 -0.17767207172E+02  0.11415900579E+03  0.14738541114E+03  0.00000000000E+00 0.  1.
</event>
<event>
 7    1  0.5931885E-006  0.1528421E+03  0.7818608E-02  0.1219583E+00
          2   -1    0    0  502    0  0.00000000000E+00  0.00000000000E+00  0.61722975247E+03  0.61722975247E+03  0.00000000000E+00 0. -1.
          1   -1    0    0  501    0 -0.00000000000E+00 -0.00000000000E+00 -0.13590464380E+04  0.13590464380E+04  0.00000000000E+00 0. -1.
         25    2    1    2    0    0  0.33380028087E+02  0.64946148114E+02 -0.95091445914E+02  0.17320450385E+03  0.12500075456E+03 0.  0.
          2    1    1    2  501    0  0.11931712795E+03 -0.13154365002E+02 -0.12106302936E+04  0.12165670233E+04  0.00000000000E+00 0. -1.
          1    1    1    2  502    0 -0.15269715604E+03 -0.51791783112E+02  0.56390505396E+03  0.58650466336E+03  0.00000000000E+00 0. -1.
         22    1    3    3    0    0 -0.14566989033E+02 -0.20629657096E+02 -0.66341368758E+02  0.70985612134E+02  0.00000000000E+00 0. -1.
         22    1    3    3    0    0  0.47947017120E+02  0.85575805210E+02 -0.28750077156E+02  0.10221889172E+03  0.00000000000E+00 0. -1.
</event>
<event>
 7    1  0.5931885E-006  0.9553601E+02  0.7818608E-02  0.1293160E+00
          2   -1    0    0  502    0  0.00000000000E+00  0.00000000000E+00  0.15310245521E+03  0.15310245521E+03  0.00000000000E+00 0. -1.
          1   -1    0    0  501    0 -0.00000000000E+00 -0.00000000000E+00 -0.25418896373E+04  0.25418896373E+04  0.00000000000E+00 0. -1.
         25    2    1    2    0    0  0.12667280971E+03 -0.12064685808E+03 -0.11304632545E+04  0.11507272966E+04  0.12499790492E+03 0.  0.
          2    1    1    2  501    0 -0.39517123942E+02  0.83892934276E+02 -0.13839261716E+04  0.13870296594E+04  0.00000000000E+00 0. -1.
          1    1    1    2  502    0 -0.87155685763E+02  0.36753923808E+02  0.12560224400E+03  0.15723513657E+03  0.00000000000E+00 0. -1.
         22    1    3    3    0    0  0.35801000321E+02  0.42383099797E+01 -0.66780642690E+02  0.75890243995E+02  0.00000000000E+00 0. -1.
         22    1    3    3    0    0  0.90871809385E+02 -0.12488516806E+03 -0.10636826118E+04  0.10748370526E+04  0.00000000000E+00 0. -1.
</event>
<event>
 7    1  0.5931885E-006  0.1129560E+03  0.7818608E-02  0.1382886E+00
          2   -1    0    0  502    0  0.00000000000E+00  0.00000000000E+00  0.28428978211E+04  0.28428978211E+04  0.00000000000E+00 0. -1.
          1   -1    0    0  501    0 -0.00000000000E+00 -0.00000000000E+00 -0.75481030324E+03  0.75481030324E+03  0.00000000000E+00 0. -1.
         25    2    1    2    0    0  0.14265113471E+03 -0.96256588530E+01  0.46237941532E+03  0.49986190902E+03  0.12500081934E+03 0.  0.
          2    1    1    2  501    0 -0.31919782933E+02  0.16507126188E+02 -0.73432652090E+03  0.73520527546E+03  0.00000000000E+00 0. -1.
          1    1    1    2  502    0 -0.11073135178E+03 -0.68814673351E+01  0.23600346235E+04  0.23626409399E+04  0.00000000000E+00 0. -1.
         22    1    3    3    0    0  0.42419923494E+02  0.26949315599E+02  0.30876759056E+03  0.31283084967E+03  0.00000000000E+00 0. -1.
         22    1    3    3    0    0  0.10023121122E+03 -0.36574974452E+02  0.15361182475E+03  0.18703105935E+03  0.00000000000E+00 0. -1.
</event>
<event>
 7    1  0.5931885E-006  0.6544621E+02  0.7818608E-02  0.1413857E+00
          2   -1    0    0  502    0  0.00000000000E+00  0.00000000000E+00  0.23177291397E+04  0.23177291397E+04  0.00000000000E+00 0. -1.
          1   -1    0    0  501    0 -0.00000000000E+00 -0.00000000000E+00 -0.16526388225E+03  0.16526388225E+03  0.00000000000E+00 0. -1.
         25    2    1    2    0    0 -0.10326599062E+03 -0.11995412715E+02  0.35326420926E+03  0.38887990163E+03  0.12499688640E+03 0.  0.
          2    1    1    2  501    0  0.45538825950E+02 -0.16700018115E+02 -0.14291792567E+03  0.15092451342E+03  0.00000000000E+00 0. -1.
          1    1    1    2  502    0  0.57727164671E+02  0.28695430830E+02  0.19421189738E+04  0.19431886068E+04  0.00000000000E+00 0. -1.
         22    1    3    3    0    0 -0.89031467021E+02 -0.20239311360E+01  0.35953776974E+03  0.37040262726E+03  0.00000000000E+00 0. -1.
         22    1    3    3    0    0 -0.14234523600E+02 -0.99714815788E+01 -0.62735604817E+01  0.18477274369E+02  0.00000000000E+00 0. -1.
</event>
<event>
 7    1  0.5931885E-006  0.1517443E+03  0.7818608E-02  0.1320642E+00
          2   -1    0    0  502    0  0.00000000000E+00  0.00000000000E+00  0.15461637300E+04  0.15461637300E+04  0.00000000000E+00 0. -1.
          1   -1    0    0  501    0 -0.00000000000E+00 -0.00000000000E+00 -0.20774088271E+03  0.20774088271E+03  0.00000000000E+00 0. -1.
         25    2    1    2    0    0 -0.72664815373E+02  0.18134084117E+03  0.43682111443E+02  0.23599756721E+03  0.12498819464E+03 0.  0.
          2    1    1    2  501    0  0.17646289024E+02 -0.41874989109E+02 -0.10277481608E+03  0.11237245681E+03  0.00000000000E+00 0. -1.
          1    1    1    2  502    0  0.55018526349E+02 -0.13946585207E+03  0.13975155519E+04  0.14055345887E+04  0.00000000000E+00 0. -1.
         22    1    3    3    0    0 -0.60096959665E+02  0.51222911779E+02 -0.31707526887E+02  0.85092881684E+02  0.00000000000E+00 0.  1.
         22    1    3    3    0    0 -0.12567855708E+02  0.13011792940E+03  0.75389638329E+02  0.15090468553E+03  0.00000000000E+00 0.  1.
</event>
<event>
 7    1  0.5931885E-006  0.3687565E+02  0.7818608E-02  0.1555683E+00
          2   -1    0    0  502    0  0.00000000000E+00  0.00000000000E+00  0.11808832388E+03  0.11808832388E+03  0.00000000000E+00 0. -1.
          1   -1    0    0  501    0 -0.00000000000E+00 -0.00000000000E+00 -0.37584064458E+03  0.37584064458E+03  0.00000000000E+00 0. -1.
         25    2    1    2    0    0 -0.26227197629E+02 -0.55093304990E+02 -0.10462311897E+03  0.17404430780E+03  0.12498914314E+03 0.  0.
          2    1    1    2  501    0  0.79033956917E+00  0.36098428296E+02 -0.23203731273E+03  0.23482980148E+03  0.00000000000E+00 0. -1.
          1    1    1    2  502    0  0.25436858060E+02  0.18994876694E+02  0.78908111006E+02  0.85054859186E+02  0.00000000000E+00 0. -1.
         22    1    3    3    0    0 -0.57084023463E+02  0.12584193836E+02 -0.72221141235E+02  0.92913082558E+02  0.00000000000E+00 0. -1.
         22    1    3    3    0    0  0.30856825834E+02 -0.67677498825E+02 -0.32401977738E+02  0.81131225241E+02  0.00000000000E+00 0. -1.
</event>
<event>
 7    1  0.5931885E-006  0.8454486E+02  0.7818608E-02  0.1369778E+00
          2   -1    0    0  502    0  0.00000000000E+00  0.00000000000E+00  0.79641366590E+03  0.79641366590E+03  0.00000000000E+00 0. -1.
          1   -1    0    0  501    0 -0.00000000000E+00 -0.00000000000E+00 -0.10305938781E+04  0.10305938781E+04  0.00000000000E+00 0. -1.
         25    2    1    2    0    0  0.43356453435E+02  0.50537644880E+02 -0.16188368878E+03  0.21509715308E+03  0.12500648369E+03 0.  0.
          2    1    1    2  501    0  0.40205248603E+02 -0.35234182614E+02 -0.83890636006E+03  0.84060798866E+03  0.00000000000E+00 0. -1.
          1    1    1    2  502    0 -0.83561702037E+02 -0.15303462266E+02  0.76660983667E+03  0.77130240223E+03  0.00000000000E+00 0. -1.
         22    1    3    3    0    0  0.81328782497E+02  0.60969642400E+02 -0.10740988101E+03  0.14788019034E+03  0.00000000000E+00 0. -1.
         22    1    3    3    0    0 -0.37972329062E+02 -0.10431997520E+02 -0.54473807770E+02  0.67216962737E+02  0.00000000000E+00 0. -1.
</event>
<event>
 7    1  0.5931885E-006  0.6397396E+02  0.7818608E-02  0.1482670E+00
          2   -1    0    0  502    0  0.00000000000E+00  0.00000000000E+00  0.22446181306E+03  0.22446181306E+03  0.00000000000E+00 0. -1.
          1   -1    0    0  501    0 -0.00000000000E+00 -0.00000000000E+00 -0.36946279025E+03  0.36946279025E+03  0.00000000000E+00 0. -1.
         25    2    1    2    0    0  0.87705871370E+02 -0.15924955209E+02 -0.29814773619E+02  0.15639486759E+03  0.12499803924E+03 0.  0.
          2    1    1    2  501    0 -0.58544686160E+02  0.22260434823E+02 -0.27137831733E+03  0.27851247432E+03  0.00000000000E+00 0. -1.
          1    1    1    2  502    0 -0.29161185210E+02 -0.63354796142E+01  0.15619211375E+03  0.15901726140E+03  0.00000000000E+00 0. -1.
         22    1    3    3    0    0  0.41045742792E+02  0.54812567197E+02 -0.84040034840E+01  0.68991287846E+02  0.00000000000E+00 0.  1.
         22    1    3    3    0    0  0.46660128578E+02 -0.70737522406E+02 -0.21410770135E+02  0.87403579749E+02  0.00000000000E+00 0.  1.
</event>
<event>
 7    1  0.5931885E-006  0.1262915E+03  0.7818608E-02  0.1428808E+00
          2   -1    0    0  502    0  0.00000000000E+00  0.00000000000E+00  0.28020098874E+04  0.28020098874E+04  0.00000000000E+00 0. -1.
          1   -1    0    0  501    0 -0.00000000000E+00 -0.00000000000E+00 -0.98162032606E+03  0.98162032606E+03  0.00000000000E+00 0. -1.
         25    2    1    2    0    0 -0.44875856984E+02  0.12246689537E+03 -0.15148829360E+03  0.23576556152E+03  0.12499885559E+03 0.  0.
          2    1    1    2  501    0 -0.18200998645E+02 -0.13074773620E+02 -0.78638929493E+03  0.78670855419E+03  0.00000000000E+00 0. -1.
          1    1    1    2  502    0  0.63076855628E+02 -0.10939212175E+03  0.27582671499E+04  0.27611560977E+04  0.00000000000E+00 0. -1.
         22    1    3    3    0    0 -0.33829656652E+02 -0.14773725790E+02 -0.97883913364E+01  0.38190591091E+02  0.00000000000E+00 0. -1.
         22    1    3    3    0    0 -0.11046200332E+02  0.13724062116E+03 -0.14169990227E+03  0.19757497043E+03  0.00000000000E+00 0. -1.
</event>
<event>
 7    1  0.5931885E-006  0.1098308E+03  0.7818608E-02  0.1294936E+00
          2   -1    0    0  502    0  0.00000000000E+00  0.00000000000E+00  0.15670477827E+03  0.15670477827E+03  0.00000000000E+00 0. -1.
          1   -1    0    0  501    0 -0.00000000000E+00 -0.00000000000E+00 -0.44349754364E+03  0.44349754364E+03  0.00000000000E+00 0. -1.
         25    2    1    2    0    0 -0.13105224641E+03 -0.28437253861E+02 -0.18301273473E+03  0.25904276249E+03  0.12500449203E+03 0.  0.
          2    1    1    2  501    0  0.71280613205E+02  0.80615422050E+02 -0.19348783954E+03  0.22139854594E+03  0.00000000000E+00 0. -1.
          1    1    1    2  502    0  0.59771633205E+02 -0.52178168189E+02  0.89707808909E+02  0.11976101348E+03  0.00000000000E+00 0. -1.
         22    1    3    3    0    0 -0.15243451282E+03 -0.32769990228E+02 -0.13474595657E+03  0.20607432099E+03  0.00000000000E+00 0.  1.
         22    1    3    3    0    0  0.21382266408E+02  0.43327363673E+01 -0.48266778159E+02  0.52968441501E+02  0.00000000000E+00 0.  1.
</event>
<event>
 7    1  0.5931885E-006  0.8567766E+02  0.7818608E-02  0.1339420E+00
          2   -1    0    0  502    0  0.00000000000E+00  0.00000000000E+00  0.90063567832E+03  0.90063567832E+03  0.00000000000E+00 0. -1.
          1   -1    0    0  501    0 -0.00000000000E+00 -0.00000000000E+00 -0.60427670772E+02  0.60427670772E+02  0.00000000000E+00 0. -1.
         25    2    1    2    0    0  0.45487897949E+01 -0.49608941648E+02  0.43888485266E+03  0.45904997423E+03  0.12500090544E+03 0.  0.
          2    1    1    2  501    0 -0.27819400795E+02 -0.62298232715E+02 -0.15361999168E+02  0.69935540882E+02  0.00000000000E+00 0. -1.
          1    1    1    2  502    0  0.23270611000E+02  0.11190717436E+03  0.41668515406E+03  0.43207783399E+03  0.00000000000E+00 0. -1.
         22    1    3    3    0    0  0.25339327352E+02 -0.16693965576E+02  0.40860317638E+03  0.40972835604E+03  0.00000000000E+00 0.  1.
         22    1    3    3    0    0 -0.20790537557E+02 -0.32914976072E+02  0.30281676279E+02  0.49321618181E+02  0.00000000000E+00 0.  1.
</event>
<event>
 7    1  0.5931885E-006  0.8174687E+02  0.7818608E-02  0.1397606E+00
          2   -1    0    0  502    0  0.00000000000E+00  0.00000000000E+00  0.20842188504E+03  0.20842188504E+03  0.00000000000E+00 0. -1.
          1   -1    0    0  501    0 -0.00000000000E+00 -0.00000000000E+00 -0.10774933746E+04  0.10774933746E+04  0.00000000000E+00 0. -1.
         25    2    1    2    0    0 -0.15748696681E+02 -0.40459387898E+02 -0.29714342215E+02  0.13561744569E+03  0.12499666366E+03 0.  0.
          2    1    1    2  501    0 -0.12931984631E+02 -0.42179629137E+02 -0.98198863630E+03  0.98297916517E+03  0.00000000000E+00 0. -1.
          1    1    1    2  502    0  0.28680681312E+02  0.82639017034E+02  0.14263148891E+03  0.16731864882E+03  0.00000000000E+00 0. -1.
         22    1    3    3    0    0  0.59213735347E+01 -0.24066640366E+02  0.47600795864E+02  0.53666578146E+02  0.00000000000E+00 0. -1.
         22    1    3    3    0    0 -0.21670070216E+02 -0.16392747531E+02 -0.77315138079E+02  0.81950867543E+02  0.00000000000E+00 0. -1.
</event>
<event>
 7    1  0.5931885E-006  0.8073003E+02  0.7818608E-02  0.1446911E+00
          2   -1    0    0  502    0  0.00000000000E+00  0.00000000000E+00  0.88959744589E+03  0.88959744589E+03  0.00000000000E+00 0. -1.
          1   -1    0    0  501    0 -0.00000000000E+00 -0.00000000000E+00 -0.36770639123E+03  0.36770639123E+03  0.00000000000E+00 0. -1.
         25    2    1    2    0    0 -0.65179801258E+02 -0.85298197509E+01 -0.23161776911E+03  0.27127305443E+03  0.12498445814E+03 0.  0.
          2    1    1    2  501    0  0.93820215932E+02  0.19330836476E+02 -0.96207242446E+02  0.13576357264E+03  0.00000000000E+00 0. -1.
          1    1    1    2  502    0 -0.28640414675E+02 -0.10801016725E+02  0.84971606621E+03  0.85026721006E+03  0.00000000000E+00 0. -1.
         22    1    3    3    0    0 -0.62689969434E+02 -0.45485246756E+02 -0.66599602874E+02  0.10214914118E+03  0.00000000000E+00 0.  1.
         22    1    3    3    0    0 -0.24898318234E+01  0.36955427005E+02 -0.16501816623E+03  0.16912391325E+03  0.00000000000E+00 0.  1.
</event>
<event>
 7    1  0.5931885E-006  0.1448062E+03  0.7818608E-02  0.1263057E+00
          2   -1    0    0  502    0  0.00000000000E+00  0.00000000000E+00  0.31653385781E+04  0.31653385781E+04  0.00000000000E+00 0. -1.
          1   -1    0    0  501    0 -0.00000000000E+00 -0.00000000000E+00 -0.18360085019E+03  0.18360085019E+03  0.00000000000E+00 0. -1.
         25    2    1    2    0    0 -0.62812311478E+02 -0.35971078208E+02  0.32020389696E+03  0.35127598156E+03  0.12499989861E+03 0.  0.
          2    1    1    2  501    0  0.14214103323E+03  0.54868733956E+02 -0.13281502216E+03  0.20212491535E+03  0.00000000000E+00 0. -1.
          1    1    1    2  502    0 -0.79328721754E+02 -0.18897655748E+02  0.27943488531E+04  0.27955385313E+04  0.00000000000E+00 0. -1.
         22    1    3    3    0    0 -0.81925289960E+02 -0.12820212441E+02  0.30783278803E+03  0.31880579726E+03  0.00000000000E+00 0. -1.
         22    1    3    3    0    0  0.19112978482E+02 -0.23150865768E+02  0.12371108929E+02  0.32470184299E+02  0.00000000000E+00 0. -1.
</event>
<event>
 7    1  0.5931885E-006  0.9555013E+02  0.7818608E-02  0.1305934E+00
          2   -1    0    0  502    0  0.00000000000E+00  0.00000000000E+00  0.24214852710E+03  0.24214852710E+03  0.00000000000E+00 0. -1.
          1   -1    0    0  501    0 -0.00000000000E+00 -0.00000000000E+00 -0.30665813473E+03  0.30665813473E+03  0.00000000000E+00 0. -1.
         25    2    1    2    0    0  0.86627491132E+02 -0.12595331612E+03 -0.82660267191E+02  0.21407016155E+03  0.12499901692E+03 0.  0.
          2    1    1    2  501    0 -0.14990663060E+02  0.85207465858E+02 -0.13527617642E+03  0.16057607582E+03  0.00000000000E+00 0. -1.
          1    1    1    2  502    0 -0.71636828072E+02  0.40745850265E+02  0.15342683598E+03  0.17416042446E+03  0.00000000000E+00 0. -1.
         22    1    3    3    0    0  0.26879834146E+02 -0.84141691688E+02 -0.10555327215E+03  0.13763663403E+03  0.00000000000E+00 0.  1.
         22    1    3    3    0    0  0.59747656986E+02 -0.41811624435E+02  0.22893004964E+02  0.76433527522E+02  0.00000000000E+00 0.  1.
</event>
<event>
 7    1  0.5931885E-006  0.7124166E+02  0.7818608E-02  0.1490877E+00
          2   -1    0    0  502    0  0.00000000000E+00  0.00000000000E+00  0.40771102156E+03  0.40771102156E+03  0.00000000000E+00 0. -1.
          1   -1    0    0  501    0 -0.00000000000E+00 -0.00000000000E+00 -0.19176691670E+03  0.19176691670E+03  0.00000000000E+00 0. -1.
         25    2    1    2    0    0  0.45622399997E+02 -0.58491670556E+02 -0.71680257828E+02  0.16206364772E+03  0.12499555050E+03 0.  0.
          2    1    1    2  501    0 -0.23536931958E+02 -0.92834134804E+01 -0.69126583629E+02  0.73611503829E+02  0.00000000000E+00 0. -1.
          1    1    1    2  502    0 -0.22085468039E+02  0.67775084036E+02  0.35675094632E+03  0.36380278671E+03  0.00000000000E+00 0. -1.
         22    1    3    3    0    0  0.89085180803E+02 -0.45202292760E+02 -0.49799735821E+02  0.11162181864E+03  0.00000000000E+00 0. -1.
         22    1    3    3    0    0 -0.43462780806E+02 -0.13289377796E+02 -0.21880522007E+02  0.50441829079E+02  0.00000000000E+00 0. -1.
</event>
<event>
 7    1  0.5931885E-006  0.5565667E+02  0.7818608E-02  0.1426345E+00
          2   -1    0    0  502    0  0.00000000000E+00  0.00000000000E+00  0.16402312366E+04  0.16402312366E+04  0.00000000000E+00 0. -1.
          1   -1    0    0  501    0 -0.00000000000E+00 -0.00000000000E+00 -0.28524310474E+02  0.28524310474E+02  0.00000000000E+00 0. -1.
         25    2    1    2    0    0 -0.33156871219E+02 -0.45951220793E+01  0.11836514101E+04  0.11907038557E+04  0.12499807254E+03 0.  0.
          2    1    1    2  501    0 -0.40549976309E+02 -0.32254530707E+02  0.11045843742E+02  0.52977976498E+02  0.00000000000E+00 0. -1.
          1    1    1    2  502    0  0.73706847528E+02  0.36849652787E+02  0.41700967228E+03  0.42507371485E+03  0.00000000000E+00 0. -1.
         22    1    3    3    0    0 -0.60912844131E+02 -0.47256674754E+02  0.79623070502E+03  0.79995431339E+03  0.00000000000E+00 0.  1.
         22    1    3    3    0    0  0.27755972912E+02  0.42661552674E+02  0.38742070504E+03  0.39074954229E+03  0.00000000000E+00 0.  1.
</event>
<event>
 7    1  0.5931885E-006  0.8291572E+02  0.7818608E-02  0.1450149E+00
          2   -1    0    0  502    0  0.00000000000E+00  0.00000000000E+00  0.61369642479E+03  0.61369642479E+03  0.00000000000E+00 0. -1.
          1   -1    0    0  501    0 -0.00000000000E+00 -0.00000000000E+00 -0.26923263194E+03  0.26923263194E+03  0.00000000000E+00 0. -1.
         25    2    1    2    0    0  0.50955430327E+02 -0.62796380005E+02  0.34567949342E+02  0.15283963271E+03  0.12500067593E+03 0.  0.
          2    1    1    2  501    0 -0.24235842326E+02 -0.16104376618E+02 -0.20573014172E+03  0.20777780972E+03  0.00000000000E+00 0. -1.
          1    1    1    2  502    0 -0.26719588001E+02  0.78900756622E+02  0.51562598523E+03  0.52231161429E+03  0.00000000000E+00 0. -1.
         22    1    3    3    0    0  0.30827123186E+02 -0.46579388114E+02  0.81768147381E+02  0.99025152598E+02  0.00000000000E+00 0.  1.
         22    1    3    3    0    0  0.20128307141E+02 -0.16216991891E+02 -0.47200198039E+02  0.53814480108E+02  0.00000000000E+00 0.  1.
</event>
<event>
 7    1  0.5931885E-006  0.6741819E+02  0.7818608E-02  0.1410553E+00
          2   -1    0    0  502    0  0.00000000000E+00  0.00000000000E+00  0.93588611408E+03  0.93588611408E+03  0.00000000000E+00 0. -1.
          1   -1    0    0  501    0 -0.00000000000E+00 -0.00000000000E+00 -0.68870221818E+03  0.68870221818E+03  0.00000000000E+00 0. -1.
         25    2    1    2    0    0  0.47431459531E+02  0.13883838555E+02 -0.19690737495E+03  0.23841557754E+03  0.12500787566E+03 0.  0.
          2    1    1    2  501    0  0.11560396751E+02 -0.46907817136E+02 -0.46854838542E+03  0.47103245701E+03  0.00000000000E+00 0. -1.
          1    1    1    2  502    0 -0.58991856282E+02  0.33023978581E+02  0.91263965628E+03  0.91514029770E+03  0.00000000000E+00 0. -1.
         22    1    3    3    0    0  0.85762022454E+02  0.26523813802E+02 -0.10569574340E+03  0.13867309533E+03  0.00000000000E+00 0.  1.
         22    1    3    3    0    0 -0.38330562923E+02 -0.12639975247E+02 -0.91211631554E+02  0.99742482218E+02  0.00000000000E+00 0.  1.
</event>
<event>
 7    1  0.5931885E-006  0.1610062E+03  0.7818608E-02  0.1313512E+00
          2   -1    0    0  502    0  0.00000000000E+00  0.00000000000E+00  0.86795818507E+03  0.86795818507E+03  0.00000000000E+00 0. -1.
          1   -1    0    0  501    0 -0.00000000000E+00 -0.00000000000E+00 -0.10527643492E+03  0.10527643492E+03  0.00000000000E+00 0. -1.
         25    2    1    2    0    0 -0.85423444756E+02 -0.18189089962E+03  0.10261821528E+03  0.25794567383E+03  0.12499603300E+03 0.  0.
          2    1    1    2  501    0  0.26588767664E+02  0.37116704079E+02  0.10045168820E+02  0.46749520898E+02  0.00000000000E+00 0. -1.
          1    1    1    2  502    0  0.58834677092E+02  0.14477419554E+03  0.65001836605E+03  0.66853942526E+03  0.00000000000E+00 0. -1.
         22    1    3    3    0    0 -0.86924834957E+02 -0.17048210638E+03  0.41575708226E+02  0.19582802415E+03  0.00000000000E+00 0. -1.
         22    1    3    3    0    0  0.15013902014E+01 -0.11408793245E+02  0.61042507050E+02  0.62117649688E+02  0.00000000000E+00 0. -1.
</event>
<event>
 7    1  0.5931885E-006  0.7456123E+02  0.7818608E-02  0.1361529E+00
          2   -1    0    0  502    0  0.00000000000E+00  0.00000000000E+00  0.49168898873E+03  0.49168898873E+03  0.00000000000E+00 0. -1.
          1   -1    0    0  501    0 -0.00000000000E+00 -0.00000000000E+00 -0.14162199454E+03  0.14162199454E+03  0.00000000000E+00 0. -1.
         25    2    1    2    0    0 -0.67775000022E+02  0.94704571690E+02  0.16664731811E+03  0.23865945152E+03  0.12499839454E+03 0.  0.
          2    1    1    2  501    0  0.67644755845E+01 -0.72484843093E+02 -0.88781774742E+02  0.11481295282E+03  0.00000000000E+00 0. -1.
          1    1    1    2  502    0  0.61010524438E+02 -0.22219728597E+02  0.27220145082E+03  0.27983857894E+03  0.00000000000E+00 0. -1.
         22    1    3    3    0    0  0.30946706314E+02  0.34615114284E+02  0.85992135172E+02  0.97726926075E+02  0.00000000000E+00 0. -1.
         22    1    3    3    0    0 -0.98721706336E+02  0.60089457406E+02  0.80655182940E+02  0.14093252544E+03  0.00000000000E+00 0. -1.
</event>
<event>
 7    1  0.5931885E-006  0.7435568E+02  0.7818608E-02  0.1434306E+00
          2   -1    0    0  502    0  0.00000000000E+00  0.00000000000E+00  0.62475807301E+03  0.62475807301E+03  0.00000000000E+00 0. -1.
          1   -1    0    0  501    0 -0.00000000000E+00 -0.00000000000E+00 -0.66414858772E+02  0.66414858772E+02  0.00000000000E+00 0. -1.
         25    2    1    2    0    0 -0.11110034982E+02 -0.96973174914E+02  0.24563183774E+03  0.29238619716E+03  0.12500983581E+03 0.  0.
          2    1    1    2  501    0  0.29899591326E+02  0.65665747646E+02 -0.11031875494E+02  0.72990946372E+02  0.00000000000E+00 0. -1.
          1    1    1    2  502    0 -0.18789556344E+02  0.31307427268E+02  0.32374325200E+03  0.32579578825E+03  0.00000000000E+00 0. -1.
         22    1    3    3    0    0  0.46782151222E+02 -0.30039025213E+02  0.39911580063E+02  0.68438636250E+02  0.00000000000E+00 0. -1.
         22    1    3    3    0    0 -0.57892186203E+02 -0.66934149702E+02  0.20572025767E+03  0.22394756091E+03  0.00000000000E+00 0. -1.
</event>
<event>
 7    1  0.5931885E-006  0.2594155E+02  0.7818608E-02  0.1656732E+00
          2   -1    0    0  502    0  0.00000000000E+00  0.00000000000E+00  0.47206388247E+03  0.47206388247E+03  0.00000000000E+00 0. -1.
          1   -1    0    0  501    0 -0.00000000000E+00 -0.00000000000E+00 -0.15340755162E+03  0.15340755162E+03  0.00000000000E+00 0. -1.
         25    2    1    2    0    0  0.23856916087E+02 -0.40254449633E+02  0.27950378633E+02  0.13636864202E+03  0.12500243878E+03 0.  0.
          2    1    1    2  501    0 -0.19757471757E+02  0.14780066974E+02 -0.97228882577E+02  0.10031083529E+03  0.00000000000E+00 0. -1.
          1    1    1    2  502    0 -0.40994443301E+01  0.25474382659E+02  0.38793483479E+03  0.38879195678E+03  0.00000000000E+00 0. -1.
         22    1    3    3    0    0  0.39082790983E+02 -0.56840278169E+02  0.63848498843E+02  0.93994215662E+02  0.00000000000E+00 0.  1.
         22    1    3    3    0    0 -0.15225874896E+02  0.16585828536E+02 -0.35898120210E+02  0.42374426358E+02  0.00000000000E+00 0.  1.
</event>
<event>
 7    1  0.5931885E-006  0.6227014E+02  0.7818608E-02  0.1413662E+00
          2   -1    0    0  502    0  0.00000000000E+00  0.00000000000E+00  0.15319606701E+03  0.15319606701E+03  0.00000000000E+00 0. -1.
          1   -1    0    0  501    0 -0.00000000000E+00 -0.00000000000E+00 -0.50670885583E+03  0.50670885583E+03  0.00000000000E+00 0. -1.
         25    2    1    2    0    0 -0.29574024846E+02 -0.17002555348E+02 -0.39596539684E+02  0.13548387009E+03  0.12499713303E+03 0.  0.
          2    1    1    2  501    0  0.59689005720E+02 -0.24225187353E+02 -0.41031286631E+03  0.41533875977E+03  0.00000000000E+00 0. -1.
          1    1    1    2  502    0 -0.30114980874E+02  0.41227742702E+02  0.96396617167E+02  0.10908229298E+03  0.00000000000E+00 0. -1.
         22    1    3    3    0    0  0.23239877779E+02 -0.56885168285E+02 -0.74207224761E+01  0.61895730160E+02  0.00000000000E+00 0. -1.
         22    1    3    3    0    0 -0.52813902625E+02  0.39882612937E+02 -0.32175817208E+02  0.73588139929E+02  0.00000000000E+00 0. -1.
</event>
<event>
 7    1  0.5931885E-006  0.1751827E+03  0.7818608E-02  0.1276707E+00
          2   -1    0    0  502    0  0.00000000000E+00  0.00000000000E+00  0.12330450528E+04  0.12330450528E+04  0.00000000000E+00 0. -1.
          1   -1    0    0  501    0 -0.00000000000E+00 -0.00000000000E+00 -0.77709770505E+03  0.77709770505E+03  0.00000000000E+00 0. -1.
         25    2    1    2    0    0  0.91627722353E+02 -0.21387296544E+03  0.40249366356E+03  0.48141845172E+03  0.12500116638E+03 0.  0.
          2    1    1    2  501    0 -0.72727107194E+02  0.15790698266E+03 -0.72625906366E+03  0.74677712528E+03  0.00000000000E+00 0. -1.
          1    1    1    2  502    0 -0.18900615159E+02  0.55965982778E+02  0.77971274782E+03  0.78194718083E+03  0.00000000000E+00 0. -1.
         22    1    3    3    0    0  0.91904925775E+02 -0.59344952203E+02  0.17606697035E+03  0.20728703959E+03  0.00000000000E+00 0. -1.
         22    1    3    3    0    0 -0.27720342234E+00 -0.15452801324E+03  0.22642669321E+03  0.27413141213E+03  0.00000000000E+00 0. -1.
</event>
<event>
 7    1  0.5931885E-006  0.1276625E+03  0.7818608E-02  0.1400974E+00
          2   -1    0    0  502    0  0.00000000000E+00  0.00000000000E+00  0.14519313256E+04  0.14519313256E+04  0.00000000000E+00 0. -1.
          1   -1    0    0  501    0 -0.00000000000E+00 -0.00000000000E+00 -0.22913888689E+04  0.22913888689E+04  0.00000000000E+00 0. -1.
         25    2    1    2    0    0  0.10028208324E+03  0.51998519659E+02 -0.60760940469E+03  0.63053580589E+03  0.12500348627E+03 0.  0.
          2    1    1    2  501    0 -0.10472794165E+03 -0.79142716649E+02 -0.16696085242E+04  0.16747609189E+04  0.00000000000E+00 0. -1.
          1    1    1    2  502    0  0.44458584129E+01  0.27144196990E+02  0.14377603855E+04  0.14380234697E+04  0.00000000000E+00 0. -1.
         22    1    3    3    0    0  0.78787366348E+02  0.90580607940E+02 -0.37424185377E+03  0.39302577618E+03  0.00000000000E+00 0. -1.
         22    1    3    3    0    0  0.21494716889E+02 -0.38582088280E+02 -0.23336755092E+03  0.23751002971E+03  0.00000000000E+00 0. -1.
</event>
<event>
 7    1  0.5931885E-006  0.5191844E+02  0.7818608E-02  0.1441376E+00
          2   -1    0    0  502    0  0.00000000000E+00  0.00000000000E+00  0.21087090516E+04  0.21087090516E+04  0.00000000000E+00 0. -1.
          1   -1    0    0  501    0 -0.00000000000E+00 -0.00000000000E+00 -0.60637838799E+03  0.60637838799E+03  0.00000000000E+00 0. -1.
         25    2    1    2    0    0  0.36962240847E+02  0.30572084973E+02  0.11316501160E+04  0.11395426635E+04  0.12499854895E+03 0.  0.
          2    1    1    2  501    0 -0.46751792574E+02  0.22578629837E+02 -0.60056086766E+03  0.60280086297E+03  0.00000000000E+00 0. -1.
          1    1    1    2  502    0  0.97895517274E+01 -0.53150714810E+02  0.97124141523E+03  0.97274391310E+03  0.00000000000E+00 0. -1.
         22    1    3    3    0    0  0.22992133041E+02  0.79601631629E+02  0.71553081623E+03  0.72031202053E+03  0.00000000000E+00 0. -1.
         22    1    3    3    0    0  0.13970107806E+02 -0.49029546655E+02  0.41611929976E+03  0.41923064295E+03  0.00000000000E+00 0. -1.
</event>
<event>
 7    1  0.5931885E-006  0.8979963E+02  0.7818608E-02  0.1411305E+00
          2   -1    0    0  502    0  0.00000000000E+00  0.00000000000E+00  0.96135611745E+03  0.96135611745E+03  0.00000000000E+00 0. -1.
          1   -1    0    0  501    0 -0.00000000000E+00 -0.00000000000E+00 -0.10649115193E+03  0.10649115193E+03  0.00000000000E+00 0. -1.
         25    2    1    2    0    0 -0.12094281774E+02  0.11111004074E+03  0.11600296505E+03  0.20389635392E+03  0.12500128974E+03 0.  0.
          2    1    1    2  501    0 -0.21524278233E+02 -0.28929485393E+02 -0.54656983144E+02  0.65479733391E+02  0.00000000000E+00 0. -1.
          1    1    1    2  502    0  0.33618560007E+02 -0.82180555343E+02  0.79351898361E+03  0.79847118207E+03  0.00000000000E+00 0. -1.
         22    1    3    3    0    0 -0.95072815363E+01  0.71142871099E+02  0.13991445331E+03  0.15725059859E+03  0.00000000000E+00 0.  1.
         22    1    3    3    0    0 -0.25870002374E+01  0.39967169637E+02 -0.23911488264E+02  0.46645755327E+02  0.00000000000E+00 0.  1.
</event>
<event>
 7    1  0.5931885E-006  0.1712567E+03  0.7818608E-02  0.1387712E+00
          2   -1    0    0  502    0  0.00000000000E+00  0.00000000000E+00  0.81054919501E+03  0.81054919501E+03  0.00000000000E+00 0. -1.
          1   -1    0    0  501    0 -0.00000000000E+00 -0.00000000000E+00 -0.37962916514E+03  0.37962916514E+03  0.00000000000E+00 0. -1.
         25    2    1    2    0    0 -0.38806486843E+02  0.17388546328E+03 -0.13975061079E+03  0.25864507580E+03  0.12499977701E+03 0.  0.
          2    1    1    2  501    0  0.17306587493E+02 -0.16631364932E+03 -0.14146962309E+03  0.21902831364E+03  0.00000000000E+00 0. -1.
          1    1    1    2  502    0  0.21499899351E+02 -0.75718139673E+01  0.71214026375E+03  0.71250497072E+03  0.00000000000E+00 0. -1.
         22    1    3    3    0    0  0.10872001958E+02  0.24380932820E+02 -0.89326325046E+02  0.93229945071E+02  0.00000000000E+00 0.  1.
         22    1    3    3    0    0 -0.49678488801E+02  0.14950453046E+03 -0.50424285748E+02  0.16541513072E+03  0.00000000000E+00 0.  1.
</event>
<event>
 7    1  0.5931885E-006  0.8711603E+02  0.7818608E-02  0.1475902E+00
          2   -1    0    0  502    0  0.00000000000E+00  0.00000000000E+00  0.15258516317E+04  0.15258516317E+04  0.00000000000E+00 0. -1.
          1   -1    0    0  501    0 -0.00000000000E+00 -0.00000000000E+00 -0.32707544034E+03  0.32707544034E+03  0.00000000000E+00 0. -1.
         25    2    1    2    0    0  0.13128578144E+02  0.10785966671E+03  0.40061623076E+02  0.17040130570E+03  0.12500241628E+03 0.  0.
          2    1    1    2  501    0 -0.11057260311E+02 -0.84964900006E+02 -0.25480205859E+03  0.26882222063E+03  0.00000000000E+00 0. -1.
          1    1    1    2  502    0 -0.20713178332E+01 -0.22894766702E+02  0.14135166269E+04  0.14137035457E+04  0.00000000000E+00 0. -1.
         22    1    3    3    0    0 -0.21331840976E+02  0.89095981574E+02 -0.24516021789E+02  0.94837633334E+02  0.00000000000E+00 0. -1.
         22    1    3    3    0    0  0.34460419120E+02  0.18763685135E+02  0.64577644865E+02  0.75563672371E+02  0.00000000000E+00 0. -1.
</event>
<event>
 7    1  0.5931885E-006  0.6219465E+02  0.7818608E-02  0.1518710E+00
          2   -1    0    0  502    0  0.00000000000E+00  0.00000000000E+00  0.12165887907E+04  0.12165887907E+04  0.00000000000E+00 0. -1.
          1   -1    0    0  501    0 -0.00000000000E+00 -0.00000000000E+00 -0.23924442314E+04  0.23924442314E+04  0.00000000000E+00 0. -1.
         25    2    1    2    0    0 -0.49969488179E+02 -0.85128655826E+01 -0.74476213267E+03  0.75688146495E+03  0.12501799510E+03 0.  0.
          2    1    1    2  501    0  0.55083949094E+02  0.31927421442E+02 -0.16408863854E+04  0.16421211074E+04  0.00000000000E+00 0. -1.
          1    1    1    2  502    0 -0.51144609149E+01 -0.23414555859E+02  0.12097930774E+04  0.12100304497E+04  0.00000000000E+00 0. -1.
         22    1    3    3    0    0 -0.90422155656E+02 -0.15179454944E+02 -0.44667154968E+03  0.45598470959E+03  0.00000000000E+00 0. -1.
         22    1    3    3    0    0  0.40452667477E+02  0.66665893609E+01 -0.29809058299E+03  0.30089675536E+03  0.00000000000E+00 0. -1.
</event>
<event>
 7    1  0.5931885E-006  0.7632308E+02  0.7818608E-02  0.1388283E+00
          2   -1    0    0  502    0  0.00000000000E+00  0.00000000000E+00  0.34656764483E+03  0.34656764483E+03  0.00000000000E+00 0. -1.
          1   -1    0    0  501    0 -0.00000000000E+00 -0.00000000000E+00 -0.33056040874E+04  0.33056040874E+04  0.00000000000E+00 0. -1.
         25    2    1    2    0    0 -0.17208048590E+02  0.12445981987E+03 -0.43830400446E+03  0.47278416131E+03  0.12501239606E+03 0.  0.
          2    1    1    2  501    0  0.69323583234E+01 -0.74595662026E+02 -0.28475967315E+04  0.28485820535E+04  0.00000000000E+00 0. -1.
          1    1    1    2  502    0  0.10275690267E+02 -0.49864157841E+02  0.32686429339E+03  0.33080551740E+03  0.00000000000E+00 0. -1.
         22    1    3    3    0    0 -0.28330475099E+02 -0.46789883763E+01 -0.19504825887E+03  0.19715053143E+03  0.00000000000E+00 0.  1.
         22    1    3    3    0    0  0.11122426509E+02  0.12913880824E+03 -0.24325574558E+03  0.27563362989E+03  0.00000000000E+00 0.  1.
</event>
<event>
 7    1  0.5931885E-006  0.9488818E+02  0.7818608E-02  0.1380041E+00
          2   -1    0    0  502    0  0.00000000000E+00  0.00000000000E+00  0.12686614631E+03  0.12686614631E+03  0.00000000000E+00 0. -1.
          1   -1    0    0  501    0 -0.00000000000E+00 -0.00000000000E+00 -0.17412536915E+04  0.17412536915E+04  0.00000000000E+00 0. -1.
         25    2    1    2    0    0 -0.75079899872E+02  0.78837592578E+01 -0.10899214758E+04  0.10996614531E+04  0.12500937117E+03 0.  0.
          2    1    1    2  501    0  0.11639308048E+03  0.66041135817E+01 -0.63706697456E+03  0.64764596315E+03  0.00000000000E+00 0. -1.
          1    1    1    2  502    0 -0.41313180606E+02 -0.14487872840E+02  0.11260090521E+03  0.12081242157E+03  0.00000000000E+00 0. -1.
         22    1    3    3    0    0 -0.77177564464E+02 -0.41400396490E+02 -0.86342942728E+03  0.86785986494E+03  0.00000000000E+00 0.  1.
         22    1    3    3    0    0  0.20976645914E+01  0.49284155748E+02 -0.22649204857E+03  0.23180158815E+03  0.00000000000E+00 0.  1.
</event>
<event>
 7    1  0.5931885E-006  0.1967457E+03  0.7818608E-02  0.1294233E+00
          2   -1    0    0  502    0  0.00000000000E+00  0.00000000000E+00  0.13725505005E+03  0.13725505005E+03  0.00000000000E+00 0. -1.
          1   -1    0    0  501    0 -0.00000000000E+00 -0.00000000000E+00 -0.78417974071E+03  0.78417974071E+03  0.00000000000E+00 0. -1.
         25    2    1    2    0    0  0.15158278900E+03 -0.66207969595E+02 -0.11570620454E+03  0.23743130864E+03  0.12499945357E+03 0.  0.
          2    1    1    2  501    0 -0.17973361438E+03  0.10077821091E+03 -0.58142531131E+03  0.61685963766E+03  0.00000000000E+00 0. -1.
          1    1    1    2  502    0  0.28150825376E+02 -0.34570241317E+02  0.50206825193E+02  0.67143844469E+02  0.00000000000E+00 0. -1.
         22    1    3    3    0    0 -0.20991206829E+02 -0.36850536184E+01 -0.17523376748E+01  0.21384131304E+02  0.00000000000E+00 0. -1.
         22    1    3    3    0    0  0.17257399583E+03 -0.62522915977E+02 -0.11395386687E+03  0.21604717733E+03  0.00000000000E+00 0. -1.
</event>
<event>
 7    1  0.5931885E-006  0.4543343E+02  0.7818608E-02  0.1477249E+00
          2   -1    0    0  502    0  0.00000000000E+00  0.00000000000E+00  0.13557828998E+04  0.13557828998E+04  0.00000000000E+00 0. -1.
          1   -1    0    0  501    0 -0.00000000000E+00 -0.00000000000E+00 -0.60790244285E+03  0.60790244285E+03  0.00000000000E+00 0. -1.
         25    2    1    2    0    0 -0.26715240099E+02 -0.34720828650E+01 -0.17522215917E+03  0.21691873313E+03  0.12500068922E+03 0.  0.
          2    1    1    2  501    0  0.15795019178E+02 -0.40702118266E+02 -0.41028568131E+03  0.41260209082E+03  0.00000000000E+00 0. -1.
          1    1    1    2  502    0  0.10920220921E+02  0.44174201131E+02  0.13333882974E+04  0.13341645187E+04  0.00000000000E+00 0. -1.
         22    1    3    3    0    0  0.20250503473E+02 -0.54332664604E+02 -0.90896792963E+02  0.10781627106E+03  0.00000000000E+00 0.  1.
         22    1    3    3    0    0 -0.46965743572E+02  0.50860581739E+02 -0.84325366203E+02  0.10910246207E+03  0.00000000000E+00 0.  1.
</event>
<event>
 7    1  0.5931885E-006  0.2172249E+02  0.7818608E-02  0.1719202E+00
          2   -1    0    0  502    0  0.00000000000E+00  0.00000000000E+00  0.39017728305E+03  0.39017728305E+03  0.00000000000E+00 0. -1.
          1   -1    0    0  501    0 -0.00000000000E+00 -0.00000000000E+00 -0.75506869704E+02  0.75506869704E+02  0.00000000000E+00 0. -1.
         25    2    1    2    0    0 -0.55244457852E+01  0.41256731031E+02  0.10730903433E+03  0.16992264900E+03  0.12500336171E+03 0.  0.
          2    1    1    2  501    0  0.67946763219E+01 -0.20252394415E+02 -0.41148145348E+02  0.46362667864E+02  0.00000000000E+00 0. -1.
          1    1    1    2  502    0 -0.12702305366E+01 -0.21004336617E+02  0.24850952437E+03  0.24939883589E+03  0.00000000000E+00 0. -1.
         22    1    3    3    0    0 -0.40966205101E+02  0.11256733426E+02 -0.10096807882E+02  0.43667946336E+02  0.00000000000E+00 0.  1.
         22    1    3    3    0    0  0.35441759316E+02  0.29999997605E+02  0.11740584221E+03  0.12625470266E+03  0.00000000000E+00 0.  1.
</event>
<event>
 7    1  0.5931885E-006  0.7190923E+02  0.7818608E-02  0.1393088E+00
          2   -1    0    0  502    0  0.00000000000E+00  0.00000000000E+00  0.30970470860E+04  0.30970470860E+04  0.00000000000E+00 0. -1.
          1   -1    0    0  501    0 -0.00000000000E+00 -0.00000000000E+00 -0.93817184696E+03  0.93817184696E+03  0.00000000000E+00 0. -1.
         25    2    1    2    0    0  0.66720656663E+02  0.24235643588E+02  0.15491599613E+03  0.21133800147E+03  0.12500309021E+03 0.  0.
          2    1    1    2  501    0 -0.33184297181E+02 -0.63966162082E+02 -0.90830177206E+03  0.91115584649E+03  0.00000000000E+00 0. -1.
          1    1    1    2  502    0 -0.33536359482E+02  0.39730518494E+02  0.29122610150E+04  0.29127250850E+04  0.00000000000E+00 0. -1.
         22    1    3    3    0    0  0.10204049684E+03  0.49325759367E+01  0.97502238778E+02  0.14122067790E+03  0.00000000000E+00 0. -1.
         22    1    3    3    0    0 -0.35319840174E+02  0.19303067651E+02  0.57413757351E+02  0.70117323564E+02  0.00000000000E+00 0. -1.
</event>
<event>
 7    1  0.5931885E-006  0.7972398E+02  0.7818608E-02  0.1505828E+00
          2   -1    0    0  502    0  0.00000000000E+00  0.00000000000E+00  0.17662587872E+02  0.17662587872E+02  0.00000000000E+00 0. -1.
          1   -1    0    0  501    0 -0.00000000000E+00 -0.00000000000E+00 -0.27305173821E+04  0.27305173821E+04  0.00000000000E+00 0. -1.
         25    2    1    2    0    0 -0.45188637348E+02 -0.56251940837E+02 -0.46606097916E+03  0.48789782775E+03  0.12500064093E+03 0.  0.
          2    1    1    2  501    0  0.64062048949E+02  0.48515809022E+02 -0.22355444837E+04  0.22369883479E+04  0.00000000000E+00 0. -1.
          1    1    1    2  502    0 -0.18873411601E+02  0.77361318149E+01 -0.11249331412E+02  0.23293794413E+02  0.00000000000E+00 0. -1.
         22    1    3    3    0    0 -0.63549010247E+02 -0.67836712432E+02 -0.45326428802E+03  0.46269732120E+03  0.00000000000E+00 0. -1.
         22    1    3    3    0    0  0.18360372899E+02  0.11584771596E+02 -0.12796691143E+02  0.25200506545E+02  0.00000000000E+00 0. -1.
</event>
<event>
 7    1  0.5931885E-006  0.2796225E+03  0.7818608E-02  0.1317289E+00
          2   -1    0    0  502    0  0.00000000000E+00  0.00000000000E+00  0.42089405562E+04  0.42089405562E+04  0.00000000000E+00 0. -1.
          1   -1    0    0  501    0 -0.00000000000E+00 -0.00000000000E+00 -0.10166857275E+04  0.10166857275E+04  0.00000000000E+00 0. -1.
         25    2    1    2    0    0  0.67712203582E+02 -0.29045209088E+03  0.23969816576E+04  0.24186965163E+04  0.12499764578E+03 0.  0.
          2    1    1    2  501    0 -0.79488208995E+02  0.26793432717E+03 -0.98632229724E+03  0.10251530876E+04  0.00000000000E+00 0. -1.
          1    1    1    2  502    0  0.11776005413E+02  0.22517763707E+02  0.17815954683E+04  0.17817766797E+04  0.00000000000E+00 0. -1.
         22    1    3    3    0    0 -0.32450138441E+02 -0.13056027403E+03  0.95939000305E+03  0.96877663813E+03  0.00000000000E+00 0.  1.
         22    1    3    3    0    0  0.10016234202E+03 -0.15989181685E+03  0.14375916546E+04  0.14499198782E+04  0.00000000000E+00 0.  1.
</event>
<event>
 7    1  0.5931885E-006  0.3982798E+02  0.7818608E-02  0.1564628E+00
          2   -1    0    0  502    0  0.00000000000E+00  0.00000000000E+00  0.56819907805E+03  0.56819907805E+03  0.00000000000E+00 0. -1.
          1   -1    0    0  501    0 -0.00000000000E+00 -0.00000000000E+00 -0.14098153259E+03  0.14098153259E+03  0.00000000000E+00 0. -1.
         25    2    1    2    0    0  0.56847041862E+02  0.33900300686E+02  0.38945315647E+03  0.41434252569E+03  0.12500060382E+03 0.  0.
          2    1    1    2  501    0 -0.30396347260E+02 -0.25431549175E+02 -0.12427205684E+03  0.13043866655E+03  0.00000000000E+00 0. -1.
          1    1    1    2  502    0 -0.26450694601E+02 -0.84687515110E+01  0.16203644583E+03  0.16439941841E+03  0.00000000000E+00 0. -1.
         22    1    3    3    0    0  0.64542323347E+02  0.13084466599E+02  0.77928003112E+02  0.10202788069E+03  0.00000000000E+00 0. -1.
         22    1    3    3    0    0 -0.76952814858E+01  0.20815834087E+02  0.31152515336E+03  0.31231464500E+03  0.00000000000E+00 0. -1.
</event>
<event>
 7    1  0.5931885E-006  0.9638054E+02  0.7818608E-02  0.1308009E+00
          2   -1    0    0  502    0  0.00000000000E+00  0.00000000000E+00  0.16247650426E+04  0.16247650426E+04  0.00000000000E+00 0. -1.
          1   -1    0    0  501    0 -0.00000000000E+00 -0.00000000000E+00 -0.70731376267E+02  0.70731376267E+02  0.00000000000E+00 0. -1.
         25    2    1    2    0    0 -0.99274650407E+02 -0.28199478155E+02  0.59913310625E+03  0.62067385923E+03  0.12499957496E+03 0.  0.
          2    1    1    2  501    0  0.12096167115E+02  0.79254624394E+02 -0.29368465952E+02  0.85382196851E+02  0.00000000000E+00 0. -1.
          1    1    1    2  502    0  0.87178483292E+02 -0.51055146240E+02  0.98426902605E+03  0.98944036280E+03  0.00000000000E+00 0. -1.
         22    1    3    3    0    0 -0.78307504520E+02 -0.62726355847E+02  0.53882952715E+03  0.54809116059E+03  0.00000000000E+00 0. -1.
         22    1    3    3    0    0 -0.20967145886E+02  0.34526877692E+02  0.60303579097E+02  0.72582698639E+02  0.00000000000E+00 0. -1.
</event>
<event>
 7    1  0.5931885E-006  0.2121215E+03  0.7818608E-02  0.1356750E+00
          2   -1    0    0  502    0  0.00000000000E+00  0.00000000000E+00  0.15926001439E+03  0.15926001439E+03  0.00000000000E+00 0. -1.
          1   -1    0    0  501    0 -0.00000000000E+00 -0.00000000000E+00 -0.62276548572E+03  0.62276548572E+03  0.00000000000E+00 0. -1.
         25    2    1    2    0    0  0.85857853079E+02  0.17710297164E+03 -0.27831306107E+03  0.36307030962E+03  0.12499942508E+03 0.  0.
          2    1    1    2  501    0  0.20422296694E+02  0.12142880590E+02 -0.19999733227E+03  0.20140370569E+03  0.00000000000E+00 0. -1.
          1    1    1    2  502    0 -0.10628014977E+03 -0.18924585223E+03  0.14804922000E+02  0.21755148479E+03  0.00000000000E+00 0. -1.
         22    1    3    3    0    0  0.11232275735E+02  0.20864364985E+02 -0.13853048198E+03  0.14054244975E+03  0.00000000000E+00 0. -1.
         22    1    3    3    0    0  0.74625577344E+02  0.15623860665E+03 -0.13978257908E+03  0.22252785987E+03  0.00000000000E+00 0. -1.
</event>
<event>
 7    1  0.5931885E-006  0.4933298E+02  0.7818608E-02  0.1479079E+00
          2   -1    0    0  502    0  0.00000000000E+00  0.00000000000E+00  0.10290402915E+04  0.10290402915E+04  0.00000000000E+00 0. -1.
          1   -1    0    0  501    0 -0.00000000000E+00 -0.00000000000E+00 -0.28728435674E+03  0.28728435674E+03  0.00000000000E+00 0. -1.
         25    2    1    2    0    0 -0.29870663426E+02 -0.29607158001E+02  0.29298890258E+03  0.32130360318E+03  0.12499867216E+03 0.  0.
          2    1    1    2  501    0 -0.20631173355E+02  0.33907433166E+02 -0.27078888382E+03  0.27368225909E+03  0.00000000000E+00 0. -1.
          1    1    1    2  502    0  0.50501836781E+02 -0.43002751654E+01  0.71955591597E+03  0.72133878593E+03  0.00000000000E+00 0. -1.
         22    1    3    3    0    0  0.23201994645E+02  0.21818669811E+02  0.18055487414E+02  0.36611303358E+02  0.00000000000E+00 0. -1.
         22    1    3    3    0    0 -0.53072658071E+02 -0.51425827812E+02  0.27493341517E+03  0.28469229982E+03  0.00000000000E+00 0. -1.
</event>
<event>
 7    1  0.5931885E-006  0.6864662E+02  0.7818608E-02  0.1425137E+00
          2   -1    0    0  502    0  0.00000000000E+00  0.00000000000E+00  0.11292878041E+04  0.11292878041E+04  0.00000000000E+00 0. -1.
          1   -1    0    0  501    0 -0.00000000000E+00 -0.00000000000E+00 -0.16878342826E+04  0.16878342826E+04  0.00000000000E+00 0. -1.
         25    2    1    2    0    0 -0.10585093665E+03 -0.26936339044E+02  0.21599832220E+02  0.16740003227E+03  0.12500492350E+03 0.  0.
          2    1    1    2  501    0  0.42318112962E+02  0.25979768997E+01 -0.16135371245E+04  0.16140940568E+04  0.00000000000E+00 0. -1.
          1    1    1    2  502    0  0.63532823689E+02  0.24338362145E+02  0.10333908137E+04  0.10356279976E+04  0.00000000000E+00 0. -1.
         22    1    3    3    0    0 -0.59144920081E+02 -0.43611762947E+02  0.67532251606E+02  0.99803368910E+02  0.00000000000E+00 0. -1.
         22    1    3    3    0    0 -0.46706016570E+02  0.16675423903E+02 -0.45932419386E+02  0.67596663356E+02  0.00000000000E+00 0. -1.
</event>
<event>
 7    1  0.5931885E-006  0.5924127E+02  0.7818608E-02  0.1452521E+00
          2   -1    0    0  502    0  0.00000000000E+00  0.00000000000E+00  0.44169784859E+03  0.44169784859E+03  0.00000000000E+00 0. -1.
          1   -1    0    0  501    0 -0.00000000000E+00 -0.00000000000E+00 -0.31054848306E+03  0.31054848306E+03  0.00000000000E+00 0. -1.
         25    2    1    2    0    0  0.15156046075E+02  0.36214635278E+02  0.25894229201E+03  0.29020230133E+03  0.12500023828E+03 0.  0.
          2    1    1    2  501    0  0.39008684071E+02  0.89530215850E+01 -0.28602220126E+03  0.28880881849E+03  0.00000000000E+00 0. -1.
          1    1    1    2  502    0 -0.54164730146E+02 -0.45167656863E+02  0.15822927478E+03  0.17323521182E+03  0.00000000000E+00 0. -1.
         22    1    3    3    0    0 -0.49419920938E+02 -0.80498558479E+01  0.73752768109E+02  0.89143701788E+02  0.00000000000E+00 0. -1.
         22    1    3    3    0    0  0.64575967012E+02  0.44264491126E+02  0.18518952390E+03  0.20105859955E+03  0.00000000000E+00 0. -1.
</event>
<event>
 7    1  0.5931885E-006  0.8644654E+02  0.7818608E-02  0.1370217E+00
          2   -1    0    0  502    0  0.00000000000E+00  0.00000000000E+00  0.80572419636E+02  0.80572419636E+02  0.00000000000E+00 0. -1.
          1   -1    0    0  501    0 -0.00000000000E+00 -0.00000000000E+00 -0.22049733269E+04  0.22049733269E+04  0.00000000000E+00 0. -1.
         25    2    1    2    0    0  0.12750716134E+03  0.16832886285E+02 -0.20239836417E+03  0.27042835910E+03  0.12499990934E+03 0.  0.
          2    1    1    2  501    0 -0.47186716097E+02 -0.22072427576E+02 -0.19331554485E+04  0.19338572249E+04  0.00000000000E+00 0. -1.
          1    1    1    2  502    0 -0.80320445241E+02  0.52395412912E+01  0.11152905399E+02  0.81260162537E+02  0.00000000000E+00 0. -1.
         22    1    3    3    0    0  0.38122560698E+01 -0.66091699116E+01 -0.11938056040E+03  0.11962413061E+03  0.00000000000E+00 0.  1.
         22    1    3    3    0    0  0.12369490527E+03  0.23442056197E+02 -0.83017803766E+02  0.15080422849E+03  0.00000000000E+00 0.  1.
</event>
<event>
 7    1  0.5931885E-006  0.6928085E+02  0.7818608E-02  0.1364591E+00
          2   -1    0    0  502    0  0.00000000000E+00  0.00000000000E+00  0.35180396388E+04  0.35180396388E+04  0.00000000000E+00 0. -1.
          1   -1    0    0  501    0 -0.00000000000E+00 -0.00000000000E+00 -0.95556355921E+01  0.95556355921E+01  0.00000000000E+00 0. -1.
         25    2    1    2    0    0 -0.24052346686E+02  0.38302858381E+02  0.17957751403E+04  0.18006884428E+04  0.12499955749E+03 0.  0.
          2    1    1    2  501    0 -0.41278496060E+02 -0.61361864746E+02  0.21071378196E+03  0.22331477916E+03  0.00000000000E+00 0. -1.
          1    1    1    2  502    0  0.65330842746E+02  0.23059006366E+02  0.15019950810E+04  0.15035920525E+04  0.00000000000E+00 0. -1.
         22    1    3    3    0    0 -0.22611497127E+01 -0.31423871829E+02  0.14902921095E+03  0.15232294061E+03  0.00000000000E+00 0.  1.
         22    1    3    3    0    0 -0.21791196974E+02  0.69726730210E+02  0.16467459293E+04  0.16483655022E+04  0.00000000000E+00 0.  1.
</event>
<event>
 7    1  0.5931885E-006  0.3023267E+02  0.7818608E-02  0.1608094E+00
          2   -1    0    0  502    0  0.00000000000E+00  0.00000000000E+00  0.57157176513E+03  0.57157176513E+03  0.00000000000E+00 0. -1.
          1   -1    0    0  501    0 -0.00000000000E+00 -0.00000000000E+00 -0.91053846105E+02  0.91053846105E+02  0.00000000000E+00 0. -1.
         25    2    1    2    0    0 -0.50409830973E+01 -0.23030079678E+00  0.21885093460E+03  0.25207908051E+03  0.12499066648E+03 0.  0.
          2    1    1    2  501    0  0.18551829942E+02 -0.24336155347E+02 -0.70679507538E+02  0.77019553602E+02  0.00000000000E+00 0. -1.
          1    1    1    2  502    0 -0.13510846845E+02  0.24566456144E+02  0.33234649196E+03  0.33352697712E+03  0.00000000000E+00 0. -1.
         22    1    3    3    0    0 -0.55009050344E+02  0.32595409333E+02  0.13158403976E+03  0.14629701244E+03  0.00000000000E+00 0.  1.
         22    1    3    3    0    0  0.49968067247E+02 -0.32825710130E+02  0.87266894838E+02  0.10578206807E+03  0.00000000000E+00 0.  1.
</event>
<event>
 7    1  0.5931885E-006  0.4939655E+02  0.7818608E-02  0.1479641E+00
          2   -1    0    0  502    0  0.00000000000E+00  0.00000000000E+00  0.78327050164E+02  0.78327050164E+02  0.00000000000E+00 0. -1.
          1   -1    0    0  501    0 -0.00000000000E+00 -0.00000000000E+00 -0.91925327746E+03  0.91925327746E+03  0.00000000000E+00 0. -1.
         25    2    1    2    0    0  0.37006452338E+02  0.77181350506E+02 -0.37257838943E+03  0.40220309440E+03  0.12500493786E+03 0.  0.
          2    1    1    2  501    0 -0.72341524632E+01 -0.38814069529E+02 -0.52172326752E+03  0.52321509232E+03  0.00000000000E+00 0. -1.
          1    1    1    2  502    0 -0.29772299875E+02 -0.38367280977E+02  0.53375429658E+02  0.72162140909E+02  0.00000000000E+00 0. -1.
         22    1    3    3    0    0 -0.36315861215E+02  0.42182638907E+01 -0.17926114848E+03  0.18295134566E+03  0.00000000000E+00 0. -1.
         22    1    3    3    0    0  0.73322313553E+02  0.72963086615E+02 -0.19331724095E+03  0.21925174873E+03  0.00000000000E+00 0. -1.
</event>
<event>
 7    1  0.5931885E-006  0.1849033E+03  0.7818608E-02  0.1257036E+00
          2   -1    0    0  502    0  0.00000000000E+00  0.00000000000E+00  0.32406585087E+03  0.32406585087E+03  0.00000000000E+00 0. -1.
          1   -1    0    0  501    0 -0.00000000000E+00 -0.00000000000E+00 -0.15449552078E+04  0.15449552078E+04  0.00000000000E+00 0. -1.
         25    2    1    2    0    0  0.13118215993E+03 -0.25895029183E+02 -0.29138868412E+03  0.34411750015E+03  0.12502070650E+03 0.  0.
          2    1    1    2  501    0 -0.19498113922E+03  0.48713891175E+02 -0.12149819015E+04  0.12314916601E+04  0.00000000000E+00 0. -1.
          1    1    1    2  502    0  0.63798979286E+02 -0.22818861992E+02  0.28548122869E+03  0.29341189845E+03  0.00000000000E+00 0. -1.
         22    1    3    3    0    0  0.33736631427E+02  0.54906377717E+01  0.11324605184E+01  0.34199267098E+02  0.00000000000E+00 0.  1.
         22    1    3    3    0    0  0.97445528506E+02 -0.31385666955E+02 -0.29252114464E+03  0.30991823305E+03  0.00000000000E+00 0.  1.
</event>
<event>
 7    1  0.5931885E-006  0.1743064E+03  0.7818608E-02  0.1337661E+00
          2   -1    0    0  502    0  0.00000000000E+00  0.00000000000E+00  0.95762234495E+03  0.95762234495E+03  0.00000000000E+00 0. -1.
          1   -1    0    0  501    0 -0.00000000000E+00 -0.00000000000E+00 -0.14417983271E+04  0.14417983271E+04  0.00000000000E+00 0. -1.
         25    2    1    2    0    0 -0.43143664892E+02 -0.13919748130E+03  0.81149594458E+02  0.20844095172E+03  0.12500023622E+03 0.  0.
          2    1    1    2  501    0 -0.18518972463E+02 -0.28576183845E+02 -0.13681113297E+04  0.13685350419E+04  0.00000000000E+00 0. -1.
          1    1    1    2  502    0  0.61662637355E+02  0.16777366514E+03  0.80278575311E+03  0.82244467835E+03  0.00000000000E+00 0. -1.
         22    1    3    3    0    0 -0.85575022058E+02 -0.11388230821E+03  0.63648697987E+02  0.15602378434E+03  0.00000000000E+00 0.  1.
         22    1    3    3    0    0  0.42431357166E+02 -0.25315173088E+02  0.17500896471E+02  0.52417167385E+02  0.00000000000E+00 0.  1.
</event>
<event>
 7    1  0.5931885E-006  0.8393367E+02  0.7818608E-02  0.1467868E+00
          2   -1    0    0  502    0  0.00000000000E+00  0.00000000000E+00  0.55606150803E+03  0.55606150803E+03  0.00000000000E+00 0. -1.
          1   -1    0    0  501    0 -0.00000000000E+00 -0.00000000000E+00 -0.63283809321E+03  0.63283809321E+03  0.00000000000E+00 0. -1.
         25    2    1    2    0    0  0.84658798655E+01  0.86128806311E+02  0.25347205525E+03  0.29556411402E+03  0.12498087977E+03 0.  0.
          2    1    1    2  501    0  0.16512521401E+02 -0.82305285116E+02 -0.60833691817E+03  0.61410148129E+03  0.00000000000E+00 0. -1.
          1    1    1    2  502    0 -0.24978401267E+02 -0.38235211951E+01  0.27808827774E+03  0.27923400592E+03  0.00000000000E+00 0. -1.
         22    1    3    3    0    0  0.30964580002E+02  0.99495353067E+02  0.24775629275E+03  0.26877743784E+03  0.00000000000E+00 0. -1.
         22    1    3    3    0    0 -0.22498700136E+02 -0.13366546756E+02  0.57157625020E+01  0.26786676184E+02  0.00000000000E+00 0. -1.
</event>
<event>
 7    1  0.5931885E-006  0.7374257E+02  0.7818608E-02  0.1439839E+00
          2   -1    0    0  502    0  0.00000000000E+00  0.00000000000E+00  0.23304131776E+03  0.23304131776E+03  0.00000000000E+00 0. -1.
          1   -1    0    0  501    0 -0.00000000000E+00 -0.00000000000E+00 -0.65549256505E+03  0.65549256505E+03  0.00000000000E+00 0. -1.
         25    2    1    2    0    0  0.25528249687E+02 -0.34645516665E+02 -0.12788914751E+02  0.13281902588E+03  0.12500133574E+03 0.  0.
          2    1    1    2  501    0  0.28516858353E+02 -0.20838642196E+02 -0.57344967631E+03  0.57453632738E+03  0.00000000000E+00 0. -1.
          1    1    1    2  502    0 -0.54045108040E+02  0.55484158860E+02  0.16378734377E+03  0.18117852954E+03  0.00000000000E+00 0. -1.
         22    1    3    3    0    0  0.98579508441E+01 -0.75008475595E+02  0.20294540299E+02  0.78328276962E+02  0.00000000000E+00 0. -1.
         22    1    3    3    0    0  0.15670298843E+02  0.40362958930E+02 -0.33083455050E+02  0.54490748916E+02  0.00000000000E+00 0. -1.
</event>
<event>
 7    1  0.5931885E-006  0.9334307E+02  0.7818608E-02  0.1380674E+00
          2   -1    0    0  502    0  0.00000000000E+00  0.00000000000E+00  0.28916424349E+02  0.28916424349E+02  0.00000000000E+00 0. -1.
          1   -1    0    0  501    0 -0.00000000000E+00 -0.00000000000E+00 -0.15907832577E+04  0.15907832577E+04  0.00000000000E+00 0. -1.
         25    2    1    2    0    0 -0.64497547385E+02 -0.89134642672E+02 -0.97404183673E+03  0.98817339193E+03  0.12499693862E+03 0.  0.
          2    1    1    2  501    0  0.44262910172E+02 -0.10592802302E+01 -0.50642967792E+03  0.50836143241E+03  0.00000000000E+00 0. -1.
          1    1    1    2  502    0  0.20234637213E+02  0.90193922902E+02 -0.81395318748E+02  0.12316485775E+03  0.00000000000E+00 0. -1.
         22    1    3    3    0    0  0.27686044215E+02  0.10477804184E+02 -0.13332422046E+03  0.13657104080E+03  0.00000000000E+00 0.  1.
         22    1    3    3    0    0 -0.92183591600E+02 -0.99612446855E+02 -0.84071761627E+03  0.85160235112E+03  0.00000000000E+00 0.  1.
</event>
<event>
 7    1  0.5931885E-006  0.1707697E+03  0.7818608E-02  0.1367030E+00
          2   -1    0    0  502    0  0.00000000000E+00  0.00000000000E+00  0.15317104978E+04  0.15317104978E+04  0.00000000000E+00 0. -1.
          1   -1    0    0  501    0 -0.00000000000E+00 -0.00000000000E+00 -0.62563464730E+03  0.62563464730E+03  0.00000000000E+00 0. -1.
         25    2    1    2    0    0  0.13272659860E+03 -0.78020786152E+02 -0.24045952452E+02  0.19976463758E+03  0.12499643815E+03 0.  0.
          2    1    1    2  501    0  0.24988780306E+02  0.10427511823E+02 -0.50826971716E+03  0.50899044935E+03  0.00000000000E+00 0. -1.
          1    1    1    2  502    0 -0.15771537891E+03  0.67593274330E+02  0.14383915201E+04  0.14485900582E+04  0.00000000000E+00 0. -1.
         22    1    3    3    0    0  0.83879992921E+02 -0.37169457668E+02  0.48055326615E+02  0.10356995806E+03  0.00000000000E+00 0. -1.
         22    1    3    3    0    0  0.48846605681E+02 -0.40851328484E+02 -0.72101279068E+02  0.96194679524E+02  0.00000000000E+00 0. -1.
</event>
<event>
 7    1  0.5931885E-006  0.1200509E+03  0.7818608E-02  0.1255698E+00
          2   -1    0    0  502    0  0.00000000000E+00  0.00000000000E+00  0.20511584082E+04  0.20511584082E+04  0.00000000000E+00 0. -1.
          1   -1    0    0  501    0 -0.00000000000E+00 -0.00000000000E+00 -0.38416831772E+02  0.38416831772E+02  0.00000000000E+00 0. -1.
         25    2    1    2    0    0  0.18855341269E+03 -0.99527120084E+02  0.76268286246E+03  0.80172818311E+03  0.12499957535E+03 0.  0.
          2    1    1    2  501    0 -0.94334459725E+02  0.47788961947E+02  0.15566372282E+03  0.18818599783E+03  0.00000000000E+00 0. -1.
          1    1    1    2  502    0 -0.94218952965E+02  0.51738158136E+02  0.10943949911E+04  0.10996610590E+04  0.00000000000E+00 0. -1.
         22    1    3    3    0    0  0.95744226992E+02 -0.11851705541E+03  0.46174753632E+03  0.48623454908E+03  0.00000000000E+00 0.  1.
         22    1    3    3    0    0  0.92809185697E+02  0.18989935327E+02  0.30093532614E+03  0.31549363403E+03  0.00000000000E+00 0.  1.
</event>
<event>
 7    1  0.5931885E-006  0.1018535E+03  0.7818608E-02  0.1436111E+00
          2   -1    0    0  502    0  0.00000000000E+00  0.00000000000E+00  0.28444609924E+04  0.28444609924E+04  0.00000000000E+00 0. -1.
          1   -1    0    0  501    0 -0.00000000000E+00 -0.00000000000E+00 -0.19792537756E+02  0.19792537756E+02  0.00000000000E+00 0. -1.
         25    2    1    2    0    0  0.11134794934E+03  0.45483361990E+02  0.14844316361E+04  0.14945328103E+04  0.12499574776E+03 0.  0.
          2    1    1    2  501    0 -0.19885794051E+02 -0.17205651894E+02  0.22846991619E+00  0.26296985771E+02  0.00000000000E+00 0. -1.
          1    1    1    2  502    0 -0.91462155288E+02 -0.28277710096E+02  0.13400083486E+04  0.13434237340E+04  0.00000000000E+00 0. -1.
         22    1    3    3    0    0  0.62093466433E+02 -0.31685211599E+02  0.38215707097E+03  0.38846309748E+03  0.00000000000E+00 0.  1.
         22    1    3    3    0    0  0.49254482906E+02  0.77168573589E+02  0.11022745651E+04  0.11060697129E+04  0.00000000000E+00 0.  1.
</event>
<event>
 7    1  0.5931885E-006  0.1125669E+03  0.7818608E-02  0.1359385E+00
          2   -1    0    0  502    0  0.00000000000E+00  0.00000000000E+00  0.65726853414E+03  0.65726853414E+03  0.00000000000E+00 0. -1.
          1   -1    0    0  501    0 -0.00000000000E+00 -0.00000000000E+00 -0.81115564634E+03  0.81115564634E+03  0.00000000000E+00 0. -1.
         25    2    1    2    0    0  0.26297372009E+02 -0.12506973876E+03  0.26639377715E+02  0.18074245875E+03  0.12499675444E+03 0.  0.
          2    1    1    2  501    0 -0.58724201924E+02  0.95641651370E+02 -0.72893673245E+03  0.73752601126E+03  0.00000000000E+00 0. -1.
          1    1    1    2  502    0  0.32426829915E+02  0.29428087395E+02  0.54841024254E+03  0.55015571046E+03  0.00000000000E+00 0. -1.
         22    1    3    3    0    0  0.17961064028E+02 -0.32905873189E+01 -0.38335604674E+02  0.42462293527E+02  0.00000000000E+00 0.  1.
         22    1    3    3    0    0  0.83363079814E+01 -0.12177915145E+03  0.64974982389E+02  0.13828016522E+03  0.00000000000E+00 0.  1.
</event>
<event>
 7    1  0.5931885E-006  0.1273898E+03  0.7818608E-02  0.1324160E+00
          2   -1    0    0  502    0  0.00000000000E+00  0.00000000000E+00  0.29620712593E+03  0.29620712593E+03  0.00000000000E+00 0. -1.
          1   -1    0    0  501    0 -0.00000000000E+00 -0.00000000000E+00 -0.25505568828E+04  0.25505568828E+04  0.00000000000E+00 0. -1.
         25    2    1    2    0    0 -0.71807189079E+02  0.11353321073E+03 -0.15549430262E+04  0.15657326301E+04  0.12499916744E+03 0.  0.
          2    1    1    2  501    0  0.51025879075E+02  0.12182562029E+02 -0.97552264979E+03  0.97693218567E+03  0.00000000000E+00 0. -1.
          1    1    1    2  502    0  0.20781310004E+02 -0.12571577276E+03  0.27611591913E+03  0.30409919296E+03  0.00000000000E+00 0. -1.
         22    1    3    3    0    0 -0.93673537888E+02  0.10606325686E+03 -0.96324912864E+03  0.97358771048E+03  0.00000000000E+00 0.  1.
         22    1    3    3    0    0  0.21866348809E+02  0.74699538748E+01 -0.59169389754E+03  0.59214491960E+03  0.00000000000E+00 0.  1.
</event>
<event>
 7    1  0.5931885E-006  0.6095388E+02  0.7818608E-02  0.1486417E+00
          2   -1    0    0  502    0  0.00000000000E+00  0.00000000000E+00  0.31665120916E+04  0.31665120916E+04  0.00000000000E+00 0. -1.
          1   -1    0    0  501    0 -0.00000000000E+00 -0.00000000000E+00 -0.90781020357E+01  0.90781020357E+01  0.00000000000E+00 0. -1.
         25    2    1    2    0    0  0.46890231678E+02 -0.13404648906E+02  0.12090408766E+04  0.12164635528E+04  0.12500142145E+03 0.  0.
          2    1    1    2  501    0 -0.62381098828E+02 -0.12876746927E+02  0.18853571445E+03  0.19900484348E+03  0.00000000000E+00 0. -1.
          1    1    1    2  502    0  0.15490867150E+02  0.26281395833E+02  0.17598573985E+04  0.17601217974E+04  0.00000000000E+00 0. -1.
         22    1    3    3    0    0  0.67343658387E+02 -0.74068795037E+01  0.31658288971E+03  0.32375107142E+03  0.00000000000E+00 0.  1.
         22    1    3    3    0    0 -0.20453426709E+02 -0.59977694024E+01  0.89245798693E+03  0.89271248134E+03  0.00000000000E+00 0.  1.
</event>
<event>
 7    1  0.5931885E-006  0.1015264E+03  0.7818608E-02  0.1460356E+00
          2   -1    0    0  502    0  0.00000000000E+00  0.00000000000E+00  0.90605143219E+03  0.90605143219E+03  0.00000000000E+00 0. -1.
          1   -1    0    0  501    0 -0.00000000000E+00 -0.00000000000E+00 -0.52567953154E+03  0.52567953154E+03  0.00000000000E+00 0. -1.
         25    2    1    2    0    0  0.27035153860E+02  0.10809483795E+03  0.17014576969E+03  0.23872692165E+03  0.12500226654E+03 0.  0.
          2    1    1    2  501    0  0.14659344858E+02 -0.16478555498E+02 -0.48752812560E+03  0.48802675381E+03  0.00000000000E+00 0. -1.
          1    1    1    2  502    0 -0.41694498718E+02 -0.91616282449E+02  0.69775425656E+03  0.70497728828E+03  0.00000000000E+00 0. -1.
         22    1    3    3    0    0  0.66598781994E+02  0.69883771448E+02  0.54964910474E+02  0.11108681586E+03  0.00000000000E+00 0.  1.
         22    1    3    3    0    0 -0.39563628135E+02  0.38211066499E+02  0.11518085922E+03  0.12764010578E+03  0.00000000000E+00 0.  1.
</event>
<event>
 7    1  0.5931885E-006  0.3367980E+02  0.7818608E-02  0.1595272E+00
          2   -1    0    0  502    0  0.00000000000E+00  0.00000000000E+00  0.11190748020E+04  0.11190748020E+04  0.00000000000E+00 0. -1.
          1   -1    0    0  501    0 -0.00000000000E+00 -0.00000000000E+00 -0.11050997296E+03  0.11050997296E+03  0.00000000000E+00 0. -1.
         25    2    1    2    0    0 -0.38925854195E+02 -0.46134149469E+02  0.11775995797E+03  0.18201863076E+03  0.12497916774E+03 0.  0.
          2    1    1    2  501    0  0.15302181903E+02  0.22464396972E+02 -0.75726263584E+02  0.80456652296E+02  0.00000000000E+00 0. -1.
          1    1    1    2  502    0  0.23623672292E+02  0.23669752497E+02  0.96653113467E+03  0.96710949192E+03  0.00000000000E+00 0. -1.
         22    1    3    3    0    0 -0.62297531587E+02 -0.55229678550E+02  0.26492137582E+02  0.87367804071E+02  0.00000000000E+00 0. -1.
         22    1    3    3    0    0  0.23371677392E+02  0.90955290808E+01  0.91267820391E+02  0.94650826686E+02  0.00000000000E+00 0. -1.
</event>
<event>
 7    1  0.5931885E-006  0.1136835E+03  0.7818608E-02  0.1318912E+00
          2   -1    0    0  502    0  0.00000000000E+00  0.00000000000E+00  0.34831425650E+04  0.34831425650E+04  0.00000000000E+00 0. -1.
          1   -1    0    0  501    0 -0.00000000000E+00 -0.00000000000E+00 -0.62432109837E+03  0.62432109837E+03  0.00000000000E+00 0. -1.
         25    2    1    2    0    0 -0.12180478578E+03  0.24236307612E+02 -0.16969192830E+03  0.24463227701E+03  0.12500318387E+03 0.  0.
          2    1    1    2  501    0  0.10848143744E+03  0.35905632306E+02 -0.40905265939E+03  0.42471345028E+03  0.00000000000E+00 0. -1.
          1    1    1    2  502    0  0.13323348338E+02 -0.60141939918E+02  0.34375660543E+04  0.34381179361E+04  0.00000000000E+00 0. -1.
         22    1    3    3    0    0  0.13368787899E+02 -0.23205048687E+01 -0.77949070794E+02  0.79121216310E+02  0.00000000000E+00 0. -1.
         22    1    3    3    0    0 -0.13517357368E+03  0.26556812481E+02 -0.91742857509E+02  0.16551106070E+03  0.00000000000E+00 0. -1.
</event>
<event>
 7    1  0.5931885E-006  0.2764325E+03  0.7818608E-02  0.1162618E+00
          2   -1    0    0  502    0  0.00000000000E+00  0.00000000000E+00  0.26436698322E+04  0.26436698322E+04  0.00000000000E+00 0. -1.
          1   -1    0    0  501    0 -0.00000000000E+00 -0.00000000000E+00 -0.12115660850E+04  0.12115660850E+04  0.00000000000E+00 0. -1.
         25    2    1    2    0    0 -0.17739351301E+03 -0.12742721413E+03  0.63717607550E+02  0.25959545900E+03  0.12499486174E+03 0.  0.
          2    1    1    2  501    0 -0.10022917480E+03  0.73737085635E+02 -0.11020609702E+04  0.11090633108E+04  0.00000000000E+00 0. -1.
          1    1    1    2  502    0  0.27762268781E+03  0.53690128497E+02  0.24704471100E+04  0.24865771474E+04  0.00000000000E+00 0. -1.
         22    1    3    3    0    0 -0.10963461313E+03 -0.11225771635E+03  0.95008594708E+02  0.18343439248E+03  0.00000000000E+00 0.  1.
         22    1    3    3    0    0 -0.67758899882E+02 -0.15169497780E+02 -0.31290987158E+02  0.76161066519E+02  0.00000000000E+00 0.  1.
</event>
<event>
 7    1  0.5931885E-006  0.9622365E+02  0.7818608E-02  0.1416598E+00
          2   -1    0    0  502    0  0.00000000000E+00  0.00000000000E+00  0.13146878261E+04  0.13146878261E+04  0.00000000000E+00 0. -1.
          1   -1    0    0  501    0 -0.00000000000E+00 -0.00000000000E+00 -0.68480864927E+03  0.68480864927E+03  0.00000000000E+00 0. -1.
         25    2    1    2    0    0  0.95886243138E+02  0.66272948368E+02  0.52386736855E+03  0.55104335051E+03  0.12500191600E+03 0.  0.
          2    1    1    2  501    0 -0.32284575040E+02  0.90260099222E+00 -0.66807653585E+03  0.66885676062E+03  0.00000000000E+00 0. -1.
          1    1    1    2  502    0 -0.63601668098E+02 -0.67175549360E+02  0.77408834412E+03  0.77959636423E+03  0.00000000000E+00 0. -1.
         22    1    3    3    0    0  0.64435121807E+02  0.14724500156E+02  0.45361567459E+03  0.45840579846E+03  0.00000000000E+00 0. -1.
         22    1    3    3    0    0  0.31451121331E+02  0.51548448212E+02  0.70251693960E+02  0.92637552053E+02  0.00000000000E+00 0. -1.
</event>
<event>
 7    1  0.5931885E-006  0.1029715E+03  0.7818608E-02  0.1286918E+00
          2   -1    0    0  502    0  0.00000000000E+00  0.00000000000E+00  0.66786740282E+03  0.66786740282E+03  0.00000000000E+00 0. -1.
          1   -1    0    0  501    0 -0.00000000000E+00 -0.00000000000E+00 -0.40181995778E+03  0.40181995778E+03  0.00000000000E+00 0. -1.
         25    2    1    2    0    0  0.30361800688E+02  0.83998044418E+02  0.24273245242E+02  0.15553453821E+03  0.12499716691E+03 0.  0.
          2    1    1    2  501    0  0.72458353462E+02 -0.55409785968E+02 -0.32492835028E+03  0.33748909639E+03  0.00000000000E+00 0. -1.
          1    1    1    2  502    0 -0.10282015415E+03 -0.28588258450E+02  0.56670255007E+03  0.57666372600E+03  0.00000000000E+00 0. -1.
         22    1    3    3    0    0  0.16601583452E+02  0.11424240670E+03  0.34978388538E+02  0.12062515379E+03  0.00000000000E+00 0.  1.
         22    1    3    3    0    0  0.13760217236E+02 -0.30244362280E+02 -0.10705143296E+02  0.34909384428E+02  0.00000000000E+00 0.  1.
</event>
<event>
 7    1  0.5931885E-006  0.3442550E+02  0.7818608E-02  0.1577188E+00
          2   -1    0    0  502    0  0.00000000000E+00  0.00000000000E+00  0.17046112904E+04  0.17046112904E+04  0.00000000000E+00 0. -1.
          1   -1    0    0  501    0 -0.00000000000E+00 -0.00000000000E+00 -0.28550099212E+02  0.28550099212E+02  0.00000000000E+00 0. -1.
         25    2    1    2    0    0  0.16763347009E+02  0.85596639101E+00  0.39661901493E+03  0.41618858362E+03  0.12499820659E+03 0.  0.
          2    1    1    2  501    0 -0.18043784566E+02 -0.30535177834E+02 -0.16786063619E+01  0.35507646587E+02  0.00000000000E+00 0. -1.
          1    1    1    2  502    0  0.12804375569E+01  0.29679211443E+02  0.12811207827E+04  0.12814651594E+04  0.00000000000E+00 0. -1.
         22    1    3    3    0    0 -0.18142554710E+02 -0.34232610767E+02  0.33462726174E+03  0.33686262516E+03  0.00000000000E+00 0.  1.
         22    1    3    3    0    0  0.34905901719E+02  0.35088577158E+02  0.61991753194E+02  0.79325958461E+02  0.00000000000E+00 0.  1.
</event>
<event>
 7    1  0.5931885E-006  0.4309213E+02  0.7818608E-02  0.1585619E+00
          2   -1    0    0  502    0  0.00000000000E+00  0.00000000000E+00  0.61039204225E+03  0.61039204225E+03  0.00000000000E+00 0. -1.
          1   -1    0    0  501    0 -0.00000000000E+00 -0.00000000000E+00 -0.94931475625E+03  0.94931475625E+03  0.00000000000E+00 0. -1.
         25    2    1    2    0    0  0.42557616137E+02  0.97974271932E+01  0.10503667964E+03  0.16900717744E+03  0.12499432661E+03 0.  0.
          2    1    1    2  501    0 -0.41201038043E+02  0.12692164205E+02 -0.91655445331E+03  0.91756780810E+03  0.00000000000E+00 0. -1.
          1    1    1    2  502    0 -0.13565780948E+01 -0.22489591398E+02  0.47259505966E+03  0.47313181297E+03  0.00000000000E+00 0. -1.
         22    1    3    3    0    0  0.69643641711E+02  0.11502926010E+02  0.11381435904E+02  0.71498889648E+02  0.00000000000E+00 0. -1.
         22    1    3    3    0    0 -0.27086025574E+02 -0.17054988171E+01  0.93655243738E+02  0.97508287788E+02  0.00000000000E+00 0. -1.
</event>
<event>
 7    1  0.5931885E-006  0.4850202E+02  0.7818608E-02  0.1565807E+00
          2   -1    0    0  502    0  0.00000000000E+00  0.00000000000E+00  0.29244947690E+03  0.29244947690E+03  0.00000000000E+00 0. -1.
          1   -1    0    0  501    0 -0.00000000000E+00 -0.00000000000E+00 -0.59702700891E+03  0.59702700891E+03  0.00000000000E+00 0. -1.
         25    2    1    2    0    0 -0.13725607478E+02  0.69007622414E+02 -0.19999984290E+03  0.24612399926E+03  0.12500656622E+03 0.  0.
          2    1    1    2  501    0  0.84402353577E+01 -0.21005524383E+02 -0.37145343081E+03  0.37214260826E+03  0.00000000000E+00 0. -1.
          1    1    1    2  502    0  0.52853721204E+01 -0.48002098030E+02  0.26687574170E+03  0.27120987829E+03  0.00000000000E+00 0. -1.
         22    1    3    3    0    0  0.49885873456E+02  0.19542109836E+01 -0.56089780309E+02  0.75089831310E+02  0.00000000000E+00 0. -1.
         22    1    3    3    0    0 -0.63611480934E+02  0.67053411430E+02 -0.14391006259E+03  0.17103416795E+03  0.00000000000E+00 0. -1.
</event>
<event>
 7    1  0.5931885E-006  0.5981653E+02  0.7818608E-02  0.1476007E+00
          2   -1    0    0  502    0  0.00000000000E+00  0.00000000000E+00  0.15602935763E+04  0.15602935763E+04  0.00000000000E+00 0. -1.
          1   -1    0    0  501    0 -0.00000000000E+00 -0.00000000000E+00 -0.17778142304E+03  0.17778142304E+03  0.00000000000E+00 0. -1.
         25    2    1    2    0    0 -0.23315384563E+02  0.19095379504E+02  0.37065413612E+02  0.13381837758E+03  0.12500109046E+03 0.  0.
          2    1    1    2  501    0 -0.33439123875E+02  0.10286298056E+01 -0.12661678426E+03  0.13096199120E+03  0.00000000000E+00 0. -1.
          1    1    1    2  502    0  0.56754508438E+02 -0.20124009310E+02  0.14720635239E+04  0.14732946306E+04  0.00000000000E+00 0. -1.
         22    1    3    3    0    0 -0.20891631185E+02 -0.52295713723E+02  0.88026042863E+01  0.56998138299E+02  0.00000000000E+00 0. -1.
         22    1    3    3    0    0 -0.24237533773E+01  0.71391093227E+02  0.28262809326E+02  0.76820239284E+02  0.00000000000E+00 0. -1.
</event>
<event>
 7    1  0.5931885E-006  0.1314909E+03  0.7818608E-02  0.1331455E+00
          2   -1    0    0  502    0  0.00000000000E+00  0.00000000000E+00  0.13591233752E+04  0.13591233752E+04  0.00000000000E+00 0. -1.
          1   -1    0    0  501    0 -0.00000000000E+00 -0.00000000000E+00 -0.42171486313E+02  0.42171486313E+02  0.00000000000E+00 0. -1.
         25    2    1    2    0    0 -0.31834305029E+02  0.84512344143E+02  0.89046974813E+03  0.90372387837E+03  0.12499886683E+03 0.  0.
          2    1    1    2  501    0  0.47753184589E+02 -0.12942958341E+03  0.10709289804E+03  0.17464613512E+03  0.00000000000E+00 0. -1.
          1    1    1    2  502    0 -0.15918879559E+02  0.44917239271E+02  0.31938924274E+03  0.32292484805E+03  0.00000000000E+00 0. -1.
         22    1    3    3    0    0  0.62047752326E+00  0.68836583814E+02  0.83331708383E+03  0.83615562096E+03  0.00000000000E+00 0.  1.
         22    1    3    3    0    0 -0.32454782553E+02  0.15675760330E+02  0.57152664304E+02  0.67568257411E+02  0.00000000000E+00 0.  1.
</event>
<event>
 7    1  0.5931885E-006  0.3378572E+03  0.7818608E-02  0.1247318E+00
          2   -1    0    0  502    0  0.00000000000E+00  0.00000000000E+00  0.17303502843E+04  0.17303502843E+04  0.00000000000E+00 0. -1.
          1   -1    0    0  501    0 -0.00000000000E+00 -0.00000000000E+00 -0.15324711155E+03  0.15324711155E+03  0.00000000000E+00 0. -1.
         25    2    1    2    0    0 -0.32387103343E+03 -0.42808379686E+02  0.37096722059E+03  0.50986878241E+03  0.12499797140E+03 0.  0.
          2    1    1    2  501    0 -0.79857660993E+01 -0.40060020703E+02 -0.54162265711E+02  0.67838991339E+02  0.00000000000E+00 0. -1.
          1    1    1    2  502    0  0.33185679953E+03  0.82868400389E+02  0.12602982178E+04  0.13058896221E+04  0.00000000000E+00 0. -1.
         22    1    3    3    0    0 -0.23876909832E+03 -0.51259897783E+01  0.33198496105E+03  0.40896328985E+03  0.00000000000E+00 0. -1.
         22    1    3    3    0    0 -0.85101935110E+02 -0.37682389908E+02  0.38982259540E+02  0.10090549255E+03  0.00000000000E+00 0. -1.
</event>
<event>
 7    1  0.5931885E-006  0.5322360E+02  0.7818608E-02  0.1460364E+00
          2   -1    0    0  502    0  0.00000000000E+00  0.00000000000E+00  0.10580264754E+03  0.10580264754E+03  0.00000000000E+00 0. -1.
          1   -1    0    0  501    0 -0.00000000000E+00 -0.00000000000E+00 -0.15500705425E+03  0.15500705425E+03  0.00000000000E+00 0. -1.
         25    2    1    2    0    0 -0.12442657603E+02  0.33482893052E+02  0.12632249282E+02  0.13061910685E+03  0.12500341394E+03 0.  0.
          2    1    1    2  501    0  0.16875390095E+02  0.38536171072E+02 -0.27683144222E+02  0.50360418443E+02  0.00000000000E+00 0. -1.
          1    1    1    2  502    0 -0.44327324926E+01 -0.72019064124E+02 -0.34153511775E+02  0.79830176507E+02  0.00000000000E+00 0. -1.
         22    1    3    3    0    0 -0.36117669189E+02  0.37507773402E+02 -0.44595346224E+02  0.68557012756E+02  0.00000000000E+00 0.  1.
         22    1    3    3    0    0  0.23675011586E+02 -0.40248803491E+01  0.57227595506E+02  0.62062094090E+02  0.00000000000E+00 0.  1.
</event>
<event>
 7    1  0.5931885E-006  0.5982093E+02  0.7818608E-02  0.1404410E+00
          2   -1    0    0  502    0  0.00000000000E+00  0.00000000000E+00  0.70853322092E+03  0.70853322092E+03  0.00000000000E+00 0. -1.
          1   -1    0    0  501    0 -0.00000000000E+00 -0.00000000000E+00 -0.19610052157E+03  0.19610052157E+03  0.00000000000E+00 0. -1.
         25    2    1    2    0    0 -0.14360889877E+02 -0.76674389820E+02  0.16777593157E+03  0.22329603897E+03  0.12500864207E+03 0.  0.
          2    1    1    2  501    0 -0.36221567875E+02  0.44180077262E+02 -0.16166314266E+03  0.17146093695E+03  0.00000000000E+00 0. -1.
          1    1    1    2  502    0  0.50582457752E+02  0.32494312557E+02  0.50631991043E+03  0.50987676656E+03  0.00000000000E+00 0. -1.
         22    1    3    3    0    0  0.43397812173E+02 -0.77792286350E+02  0.92645317576E+02  0.12852301267E+03  0.00000000000E+00 0. -1.
         22    1    3    3    0    0 -0.57758702049E+02  0.11178965304E+01  0.75130613996E+02  0.94773026302E+02  0.00000000000E+00 0. -1.
</event>
<event>
 7    1  0.5931885E-006  0.1266602E+03  0.7818608E-02  0.1313823E+00
          2   -1    0    0  502    0  0.00000000000E+00  0.00000000000E+00  0.73034557394E+02  0.73034557394E+02  0.00000000000E+00 0. -1.
          1   -1    0    0  501    0 -0.00000000000E+00 -0.00000000000E+00 -0.88815517208E+03  0.88815517208E+03  0.00000000000E+00 0. -1.
         25    2    1    2    0    0 -0.74692211011E+01  0.10289568541E+03 -0.23848640160E+03  0.28834721025E+03  0.12500015429E+03 0.  0.
          2    1    1    2  501    0  0.50425743318E+02  0.28404531109E+02 -0.52052777485E+03  0.52373536959E+03  0.00000000000E+00 0. -1.
          1    1    1    2  502    0 -0.42956522217E+02 -0.13130021652E+03 -0.56106438245E+02  0.14910714963E+03  0.00000000000E+00 0. -1.
         22    1    3    3    0    0 -0.32274749795E+02  0.64141404972E+01 -0.34691515549E+01  0.33088301334E+02  0.00000000000E+00 0. -1.
         22    1    3    3    0    0  0.24805528694E+02  0.96481544915E+02 -0.23501725004E+03  0.25525890892E+03  0.00000000000E+00 0. -1.
</event>
<event>
 7    1  0.5931885E-006  0.7864321E+02  0.7818608E-02  0.1337766E+00
          2   -1    0    0  502    0  0.00000000000E+00  0.00000000000E+00  0.73607134730E+02  0.73607134730E+02  0.00000000000E+00 0. -1.
          1   -1    0    0  501    0 -0.00000000000E+00 -0.00000000000E+00 -0.12450516186E+04  0.12450516186E+04  0.00000000000E+00 0. -1.
         25    2    1    2    0    0  0.11935668727E+03  0.79333173083E+02 -0.56309214343E+03  0.59433854239E+03  0.12500307930E+03 0.  0.
          2    1    1    2  501    0 -0.45824386908E+02 -0.59883283056E+02 -0.63818021797E+03  0.64261953957E+03  0.00000000000E+00 0. -1.
          1    1    1    2  502    0 -0.73532300365E+02 -0.19449890027E+02  0.29827877552E+02  0.81700671346E+02  0.00000000000E+00 0. -1.
         22    1    3    3    0    0  0.11679021068E+03  0.10280948681E+03 -0.53726471687E+03  0.55934168438E+03  0.00000000000E+00 0.  1.
         22    1    3    3    0    0  0.25664765938E+01 -0.23476313727E+02 -0.25827426555E+02  0.34996858013E+02  0.00000000000E+00 0.  1.
</event>
<event>
 7    1  0.5931885E-006  0.3097341E+03  0.7818608E-02  0.1268555E+00
          2   -1    0    0  502    0  0.00000000000E+00  0.00000000000E+00  0.18339373237E+04  0.18339373237E+04  0.00000000000E+00 0. -1.
          1   -1    0    0  501    0 -0.00000000000E+00 -0.00000000000E+00 -0.22281838400E+03  0.22281838400E+03  0.00000000000E+00 0. -1.
         25    2    1    2    0    0 -0.14473716440E+02  0.27731227420E+03  0.11746710349E+04  0.12135030032E+04  0.12500365033E+03 0.  0.
          2    1    1    2  501    0  0.24537340660E+02 -0.31202083967E+03 -0.81999343851E+02  0.32354748935E+03  0.00000000000E+00 0. -1.
          1    1    1    2  502    0 -0.10063624220E+02  0.34708565468E+02  0.51844724862E+03  0.51970521514E+03  0.00000000000E+00 0. -1.
         22    1    3    3    0    0 -0.66858741530E+02  0.13425073215E+03  0.65558380948E+03  0.67252024627E+03  0.00000000000E+00 0.  1.
         22    1    3    3    0    0  0.52385025090E+02  0.14306154205E+03  0.51908722543E+03  0.54098275691E+03  0.00000000000E+00 0.  1.
</event>
<event>
 7    1  0.5931885E-006  0.6038372E+02  0.7818608E-02  0.1494229E+00
          2   -1    0    0  502    0  0.00000000000E+00  0.00000000000E+00  0.13557109284E+03  0.13557109284E+03  0.00000000000E+00 0. -1.
          1   -1    0    0  501    0 -0.00000000000E+00 -0.00000000000E+00 -0.10928347395E+03  0.10928347395E+03  0.00000000000E+00 0. -1.
         25    2    1    2    0    0  0.43263403104E+02 -0.12358492750E+02  0.10304868494E+01  0.13284727998E+03  0.12499153373E+03 0.  0.
          2    1    1    2  501    0 -0.72350107660E+02  0.14489009056E+02  0.34443803363E+02  0.81430000933E+02  0.00000000000E+00 0. -1.
          1    1    1    2  502    0  0.29086704556E+02 -0.21305163062E+01 -0.91866713217E+01  0.30577285877E+02  0.00000000000E+00 0. -1.
         22    1    3    3    0    0  0.36402882879E+02  0.54256883678E+02 -0.54633650945E+01  0.65565445675E+02  0.00000000000E+00 0.  1.
         22    1    3    3    0    0  0.68605202254E+01 -0.66615376428E+02  0.64938519439E+01  0.67281834305E+02  0.00000000000E+00 0.  1.
</event>
<event>
 7    1  0.5931885E-006  0.5717381E+02  0.7818608E-02  0.1448737E+00
          2   -1    0    0  502    0  0.00000000000E+00  0.00000000000E+00  0.24968317422E+03  0.24968317422E+03  0.00000000000E+00 0. -1.
          1   -1    0    0  501    0 -0.00000000000E+00 -0.00000000000E+00 -0.21609858746E+04  0.21609858746E+04  0.00000000000E+00 0. -1.
         25    2    1    2    0    0 -0.15609959308E+02 -0.39695006977E+01 -0.44824912956E+03  0.46563022723E+03  0.12499919437E+03 0.  0.
          2    1    1    2  501    0 -0.41643207829E+02  0.91735082211E+01 -0.17003465519E+04  0.17008811559E+04  0.00000000000E+00 0. -1.
          1    1    1    2  502    0  0.57253167137E+02 -0.52040075234E+01  0.23729298107E+03  0.24415766567E+03  0.00000000000E+00 0. -1.
         22    1    3    3    0    0 -0.19678634769E+02 -0.18621726384E+02 -0.12885124050E+02  0.30000729686E+02  0.00000000000E+00 0.  1.
         22    1    3    3    0    0  0.40686754609E+01  0.14652225686E+02 -0.43536400551E+03  0.43562949755E+03  0.00000000000E+00 0.  1.
</event>
<event>
 7    1  0.5931885E-006  0.1505807E+03  0.7818608E-02  0.1323273E+00
          2   -1    0    0  502    0  0.00000000000E+00  0.00000000000E+00  0.63313644470E+03  0.63313644470E+03  0.00000000000E+00 0. -1.
          1   -1    0    0  501    0 -0.00000000000E+00 -0.00000000000E+00 -0.17250392715E+03  0.17250392715E+03  0.00000000000E+00 0. -1.
         25    2    1    2    0    0  0.11797121837E+03 -0.16074918407E+02  0.15964463854E+03  0.23513148342E+03  0.12499917006E+03 0.  0.
          2    1    1    2  501    0  0.44729138652E+02 -0.48883369447E+00 -0.11507239435E+03  0.12346088751E+03  0.00000000000E+00 0. -1.
          1    1    1    2  502    0 -0.16270035702E+03  0.16563752101E+02  0.41606027336E+03  0.44704800092E+03  0.00000000000E+00 0. -1.
         22    1    3    3    0    0 -0.38752941060E+01 -0.38573305130E+02  0.76951818974E+02  0.86165539611E+02  0.00000000000E+00 0. -1.
         22    1    3    3    0    0  0.12184651248E+03  0.22498386723E+02  0.82692819565E+02  0.14896594381E+03  0.00000000000E+00 0. -1.
</event>
<event>
 7    1  0.5931885E-006  0.1027166E+03  0.7818608E-02  0.1283162E+00
          2   -1    0    0  502    0  0.00000000000E+00  0.00000000000E+00  0.48411801016E+03  0.48411801016E+03  0.00000000000E+00 0. -1.
          1   -1    0    0  501    0 -0.00000000000E+00 -0.00000000000E+00 -0.95389201465E+03  0.95389201465E+03  0.00000000000E+00 0. -1.
         25    2    1    2    0    0 -0.35954515019E+02  0.11844084312E+03 -0.59085682604E+03  0.61648861309E+03  0.12500184287E+03 0.  0.
          2    1    1    2  501    0  0.89647546317E+02 -0.30653337600E+02 -0.33800980738E+03  0.35103694898E+03  0.00000000000E+00 0. -1.
          1    1    1    2  502    0 -0.53693031298E+02 -0.87787505524E+02  0.45909262893E+03  0.47048446273E+03  0.00000000000E+00 0. -1.
         22    1    3    3    0    0 -0.54778408441E+02 -0.11357998349E+01 -0.17578026643E+03  0.18412133537E+03  0.00000000000E+00 0. -1.
         22    1    3    3    0    0  0.18823893422E+02  0.11957664296E+03 -0.41507655961E+03  0.43236727772E+03  0.00000000000E+00 0. -1.
</event>
<event>
 7    1  0.5931885E-006  0.1415627E+03  0.7818608E-02  0.1317473E+00
          2   -1    0    0  502    0  0.00000000000E+00  0.00000000000E+00  0.46699461647E+03  0.46699461647E+03  0.00000000000E+00 0. -1.
          1   -1    0    0  501    0 -0.00000000000E+00 -0.00000000000E+00 -0.32226594277E+03  0.32226594277E+03  0.00000000000E+00 0. -1.
         25    2    1    2    0    0  0.25047245907E+02  0.17508554601E+03  0.25221663376E+03  0.33244686669E+03  0.12500150350E+03 0.  0.
          2    1    1    2  501    0 -0.48696262430E+02 -0.13090640109E+03 -0.26062242026E+03  0.29568878532E+03  0.00000000000E+00 0. -1.
          1    1    1    2  502    0  0.23649016523E+02 -0.44179144921E+02  0.15313446020E+03  0.16112490723E+03  0.00000000000E+00 0. -1.
         22    1    3    3    0    0 -0.40382633839E+02  0.58707535532E+02  0.14370629991E+03  0.16040209624E+03  0.00000000000E+00 0. -1.
         22    1    3    3    0    0  0.65429879746E+02  0.11637801048E+03  0.10851033385E+03  0.17204477045E+03  0.00000000000E+00 0. -1.
</event>
<event>
 7    1  0.5931885E-006  0.1386344E+03  0.7818608E-02  0.1243767E+00
          2   -1    0    0  502    0  0.00000000000E+00  0.00000000000E+00  0.48067086587E+03  0.48067086587E+03  0.00000000000E+00 0. -1.
          1   -1    0    0  501    0 -0.00000000000E+00 -0.00000000000E+00 -0.28218294370E+03  0.28218294370E+03  0.00000000000E+00 0. -1.
         25    2    1    2    0    0 -0.44116123279E+02 -0.15763470051E+03  0.95553520687E+02  0.22704790730E+03  0.12500138301E+03 0.  0.
          2    1    1    2  501    0  0.98908177104E+02  0.29345200172E+02 -0.18727301270E+03  0.21381101364E+03  0.00000000000E+00 0. -1.
          1    1    1    2  502    0 -0.54792053826E+02  0.12828950033E+03  0.29020741418E+03  0.32199488863E+03  0.00000000000E+00 0. -1.
         22    1    3    3    0    0 -0.23483369153E+01  0.20687828619E+02  0.79062900524E+00  0.20835691336E+02  0.00000000000E+00 0. -1.
         22    1    3    3    0    0 -0.41767786363E+02 -0.17832252913E+03  0.94762891682E+02  0.20621221596E+03  0.00000000000E+00 0. -1.
</event>
<event>
 7    1  0.5931885E-006  0.7947056E+02  0.7818608E-02  0.1393568E+00
          2   -1    0    0  502    0  0.00000000000E+00  0.00000000000E+00  0.12183806332E+03  0.12183806332E+03  0.00000000000E+00 0. -1.
          1   -1    0    0  501    0 -0.00000000000E+00 -0.00000000000E+00 -0.58954981920E+03  0.58954981920E+03  0.00000000000E+00 0. -1.
         25    2    1    2    0    0  0.19452370622E+02 -0.62358969710E+02 -0.17494091309E+03  0.22471252589E+03  0.12499744155E+03 0.  0.
          2    1    1    2  501    0  0.45187067388E+02  0.12429514680E+02 -0.37077999895E+03  0.37373007842E+03  0.00000000000E+00 0. -1.
          1    1    1    2  502    0 -0.64639438010E+02  0.49929455030E+02  0.78009156163E+02  0.11294527822E+03  0.00000000000E+00 0. -1.
         22    1    3    3    0    0  0.57983011472E+02  0.69056930006E+01 -0.99033429933E+02  0.11496668413E+03  0.00000000000E+00 0. -1.
         22    1    3    3    0    0 -0.38530640850E+02 -0.69264662711E+02 -0.75907483155E+02  0.10974584176E+03  0.00000000000E+00 0. -1.
</event>
<event>
 7    1  0.5931885E-006  0.6571067E+02  0.7818608E-02  0.1486031E+00
          2   -1    0    0  502    0  0.00000000000E+00  0.00000000000E+00  0.11175965793E+04  0.11175965793E+04  0.00000000000E+00 0. -1.
          1   -1    0    0  501    0 -0.00000000000E+00 -0.00000000000E+00 -0.81084379565E+03  0.81084379565E+03  0.00000000000E+00 0. -1.
         25    2    1    2    0    0 -0.72448261430E+02 -0.47678714955E+02  0.10629529468E+02  0.15251559064E+03  0.12500403213E+03 0.  0.
          2    1    1    2  501    0  0.44079686007E+02  0.48292163852E+02 -0.73826132300E+03  0.74115108638E+03  0.00000000000E+00 0. -1.
          1    1    1    2  502    0  0.28368575423E+02 -0.61344889740E+00  0.10343845772E+04  0.10347736980E+04  0.00000000000E+00 0. -1.
         22    1    3    3    0    0 -0.84924701456E+02 -0.38143617642E+02  0.53141062568E+02  0.10719660916E+03  0.00000000000E+00 0. -1.
         22    1    3    3    0    0  0.12476440026E+02 -0.95350973125E+01 -0.42511533100E+02  0.45318981487E+02  0.00000000000E+00 0. -1.
</event>
<event>
 7    1  0.5931885E-006  0.2812927E+03  0.7818608E-02  0.1343212E+00
          2   -1    0    0  502    0  0.00000000000E+00  0.00000000000E+00  0.14557331568E+04  0.14557331568E+04  0.00000000000E+00 0. -1.
          1   -1    0    0  501    0 -0.00000000000E+00 -0.00000000000E+00 -0.93680552125E+03  0.93680552125E+03  0.00000000000E+00 0. -1.
         25    2    1    2    0    0 -0.49881660890E+02 -0.26203685593E+03  0.36623719350E+03  0.47000589506E+03  0.12499746209E+03 0.  0.
          2    1    1    2  501    0 -0.37197210907E+01 -0.19763886619E+02 -0.86497653547E+03  0.86521029493E+03  0.00000000000E+00 0. -1.
          1    1    1    2  502    0  0.53601381981E+02  0.28180074255E+03  0.10176669776E+04  0.10573224881E+04  0.00000000000E+00 0. -1.
         22    1    3    3    0    0  0.17801658166E+02 -0.71688798841E+02  0.34339273128E+02  0.81457771831E+02  0.00000000000E+00 0. -1.
         22    1    3    3    0    0 -0.67683319056E+02 -0.19034805709E+03  0.33189792037E+03  0.38854812322E+03  0.00000000000E+00 0. -1.
</event>
<event>
 7    1  0.5931885E-006  0.4679591E+02  0.7818608E-02  0.1466775E+00
          2   -1    0    0  502    0  0.00000000000E+00  0.00000000000E+00  0.58828674674E+03  0.58828674674E+03  0.00000000000E+00 0. -1.
          1   -1    0    0  501    0 -0.00000000000E+00 -0.00000000000E+00 -0.17487679898E+03  0.17487679898E+03  0.00000000000E+00 0. -1.
         25    2    1    2    0    0  0.16805340450E+02  0.13583566792E+00  0.48865956282E+02  0.13527694652E+03  0.12501812932E+03 0.  0.
          2    1    1    2  501    0 -0.18035720943E+01 -0.45645606941E+02 -0.12650755868E+03  0.13450255279E+03  0.00000000000E+00 0. -1.
          1    1    1    2  502    0 -0.15001768356E+02  0.45509771273E+02  0.49105155016E+03  0.49338404641E+03  0.00000000000E+00 0. -1.
         22    1    3    3    0    0  0.62336225715E+02  0.31027586641E+02  0.16934091418E+02  0.71660865341E+02  0.00000000000E+00 0.  1.
         22    1    3    3    0    0 -0.45530885265E+02 -0.30891750973E+02  0.31931864864E+02  0.63616081181E+02  0.00000000000E+00 0.  1.
</event>
<event>
 7    1  0.5931885E-006  0.8128996E+02  0.7818608E-02  0.1378431E+00
          2   -1    0    0  502    0  0.00000000000E+00  0.00000000000E+00  0.22143868071E+03  0.22143868071E+03  0.00000000000E+00 0. -1.
          1   -1    0    0  501    0 -0.00000000000E+00 -0.00000000000E+00 -0.12942110044E+04  0.12942110044E+04  0.00000000000E+00 0. -1.
         25    2    1    2    0    0  0.85151665721E+00  0.50835618620E+02 -0.27180979320E+03  0.30346435365E+03  0.12500026022E+03 0.  0.
          2    1    1    2  501    0 -0.48731796671E+02 -0.70548279857E+02 -0.10014527562E+04  0.10051166453E+04  0.00000000000E+00 0. -1.
          1    1    1    2  502    0  0.47880280013E+02  0.19712661237E+02  0.20049022565E+03  0.20706868621E+03  0.00000000000E+00 0. -1.
         22    1    3    3    0    0  0.32792968252E+02  0.60812326497E+02 -0.25829364561E+03  0.26737450361E+03  0.00000000000E+00 0.  1.
         22    1    3    3    0    0 -0.31941451595E+02 -0.99767078772E+01 -0.13516147596E+02  0.36089850040E+02  0.00000000000E+00 0.  1.
</event>
<event>
 7    1  0.5931885E-006  0.5673869E+02  0.7818608E-02  0.1461527E+00
          2   -1    0    0  502    0  0.00000000000E+00  0.00000000000E+00  0.33073641621E+03  0.33073641621E+03  0.00000000000E+00 0. -1.
          1   -1    0    0  501    0 -0.00000000000E+00 -0.00000000000E+00 -0.21000039423E+03  0.21000039423E+03  0.00000000000E+00 0. -1.
         25    2    1    2    0    0 -0.15058394269E+02 -0.22604936072E+02  0.54844163154E+02  0.13916872346E+03  0.12498925148E+03 0.  0.
          2    1    1    2  501    0  0.12363727313E+02 -0.37126668691E+02 -0.16164096912E+03  0.16631011448E+03  0.00000000000E+00 0. -1.
          1    1    1    2  502    0  0.26946669557E+01  0.59731604764E+02  0.22753282794E+03  0.23525797251E+03  0.00000000000E+00 0. -1.
         22    1    3    3    0    0  0.17655329207E+02 -0.65187867106E+02  0.81841993413E+01  0.68030506290E+02  0.00000000000E+00 0.  1.
         22    1    3    3    0    0 -0.32713723476E+02  0.42582931034E+02  0.46659963813E+02  0.71138217170E+02  0.00000000000E+00 0.  1.
</event>
<event>
 7    1  0.5931885E-006  0.1267181E+03  0.7818608E-02  0.1291964E+00
          2   -1    0    0  502    0  0.00000000000E+00  0.00000000000E+00  0.49310420393E+03  0.49310420393E+03  0.00000000000E+00 0. -1.
          1   -1    0    0  501    0 -0.00000000000E+00 -0.00000000000E+00 -0.76614566182E+03  0.76614566182E+03  0.00000000000E+00 0. -1.
         25    2    1    2    0    0  0.12870892980E+03 -0.13606114920E+03  0.15010221373E+03  0.27061802964E+03  0.12499927388E+03 0.  0.
          2    1    1    2  501    0 -0.10393871518E+03  0.69843921517E+02 -0.69578968470E+03  0.70696868051E+03  0.00000000000E+00 0. -1.
          1    1    1    2  502    0 -0.24770214622E+02  0.66217227679E+02  0.27264601308E+03  0.28166315560E+03  0.00000000000E+00 0. -1.
         22    1    3    3    0    0  0.72105625765E+02 -0.99537083265E+02  0.20574340216E+02  0.12462004529E+03  0.00000000000E+00 0. -1.
         22    1    3    3    0    0  0.56603304039E+02 -0.36524065931E+02  0.12952787351E+03  0.14599798436E+03  0.00000000000E+00 0. -1.
</event>
<event>
 7    1  0.5931885E-006  0.9541639E+02  0.7818608E-02  0.1398976E+00
          2   -1    0    0  502    0  0.00000000000E+00  0.00000000000E+00  0.14228733640E+04  0.14228733640E+04  0.00000000000E+00 0. -1.
          1   -1    0    0  501    0 -0.00000000000E+00 -0.00000000000E+00 -0.57469641773E+03  0.57469641773E+03  0.00000000000E+00 0. -1.
         25    2    1    2    0    0 -0.76829813812E+02  0.10230697178E+03  0.11128600557E+04  0.11271434173E+04  0.12500097087E+03 0.  0.
          2    1    1    2  501    0  0.43905214848E+02 -0.84590764483E+02 -0.56237607841E+03  0.57039470448E+03  0.00000000000E+00 0. -1.
          1    1    1    2  502    0  0.32924598964E+02 -0.17716207293E+02  0.29769296898E+03  0.30003165999E+03  0.00000000000E+00 0. -1.
         22    1    3    3    0    0 -0.20833251526E+02 -0.19454745784E+02  0.68136168372E+02  0.73858303143E+02  0.00000000000E+00 0. -1.
         22    1    3    3    0    0 -0.55996562286E+02  0.12176171756E+03  0.10447238874E+04  0.10532851141E+04  0.00000000000E+00 0. -1.
</event>
<event>
 7    1  0.5931885E-006  0.1917652E+03  0.7818608E-02  0.1348288E+00
          2   -1    0    0  502    0  0.00000000000E+00  0.00000000000E+00  0.21488000815E+04  0.21488000815E+04  0.00000000000E+00 0. -1.
          1   -1    0    0  501    0 -0.00000000000E+00 -0.00000000000E+00 -0.24390557753E+02  0.24390557753E+02  0.00000000000E+00 0. -1.
         25    2    1    2    0    0 -0.92690267745E+02  0.16798861723E+03  0.11325084789E+04  0.11554276795E+04  0.12500402618E+03 0.  0.
          2    1    1    2  501    0 -0.24073132486E+02 -0.14767163077E+02  0.62169036693E+02  0.68283042817E+02  0.00000000000E+00 0. -1.
          1    1    1    2  502    0  0.11676340023E+03 -0.15322145415E+03  0.92973200821E+03  0.94947991697E+03  0.00000000000E+00 0. -1.
         22    1    3    3    0    0 -0.13681963016E+02 -0.19156601367E+02  0.17743210257E+03  0.17898693391E+03  0.00000000000E+00 0.  1.
         22    1    3    3    0    0 -0.79008304729E+02  0.18714521860E+03  0.95507637631E+03  0.97644074559E+03  0.00000000000E+00 0.  1.
</event>
<event>
 7    1  0.5931885E-006  0.1500637E+03  0.7818608E-02  0.1317260E+00
          2   -1    0    0  502    0  0.00000000000E+00  0.00000000000E+00  0.66199031264E+03  0.66199031264E+03  0.00000000000E+00 0. -1.
          1   -1    0    0  501    0 -0.00000000000E+00 -0.00000000000E+00 -0.50758363840E+03  0.50758363840E+03  0.00000000000E+00 0. -1.
         25    2    1    2    0    0  0.10648497068E+03  0.16326858660E+03 -0.14437613722E+03  0.27289096257E+03  0.12501731123E+03 0.  0.
          2    1    1    2  501    0 -0.30808858428E+02 -0.35972290332E+02 -0.28781215298E+03  0.29168309316E+03  0.00000000000E+00 0. -1.
          1    1    1    2  502    0 -0.75676112249E+02 -0.12729629626E+03  0.58659496444E+03  0.60499989530E+03  0.00000000000E+00 0. -1.
         22    1    3    3    0    0  0.20675925548E+02  0.10176623919E+03 -0.12993594947E+03  0.16633463951E+03  0.00000000000E+00 0.  1.
         22    1    3    3    0    0  0.85809045129E+02  0.61502347403E+02 -0.14440187750E+02  0.10655632306E+03  0.00000000000E+00 0.  1.
</event>
<event>
 7    1  0.5931885E-006  0.3971778E+02  0.7818608E-02  0.1515224E+00
          2   -1    0    0  502    0  0.00000000000E+00  0.00000000000E+00  0.68684631482E+03  0.68684631482E+03  0.00000000000E+00 0. -1.
          1   -1    0    0  501    0 -0.00000000000E+00 -0.00000000000E+00 -0.20755923998E+03  0.20755923998E+03  0.00000000000E+00 0. -1.
         25    2    1    2    0    0 -0.73397612632E+02 -0.53519193896E+01  0.65784475836E+02  0.15927488175E+03  0.12500015246E+03 0.  0.
          2    1    1    2  501    0  0.37925991977E+02 -0.94043903311E+01 -0.15778571744E+03  0.16255201030E+03  0.00000000000E+00 0. -1.
          1    1    1    2  502    0  0.35471620655E+02  0.14756309721E+02  0.57128831644E+03  0.57257866276E+03  0.00000000000E+00 0. -1.
         22    1    3    3    0    0  0.19911286832E+02 -0.36852311294E+01 -0.22875674547E+02  0.30550560679E+02  0.00000000000E+00 0. -1.
         22    1    3    3    0    0 -0.93308899465E+02 -0.16666882603E+01  0.88660150383E+02  0.12872432107E+03  0.00000000000E+00 0. -1.
</event>
<event>
 7    1  0.5931885E-006  0.2394099E+03  0.7818608E-02  0.1314032E+00
          2   -1    0    0  502    0  0.00000000000E+00  0.00000000000E+00  0.17862167816E+04  0.17862167816E+04  0.00000000000E+00 0. -1.
          1   -1    0    0  501    0 -0.00000000000E+00 -0.00000000000E+00 -0.34473765176E+03  0.34473765176E+03  0.00000000000E+00 0. -1.
         25    2    1    2    0    0 -0.16539313719E+03 -0.13053468307E+03  0.69968613670E+03  0.74133684807E+03  0.12500175638E+03 0.  0.
          2    1    1    2  501    0  0.19059630525E+03  0.14782053294E+03 -0.27874933460E+03  0.36861776012E+03  0.00000000000E+00 0. -1.
          1    1    1    2  502    0 -0.25203168062E+02 -0.17285849874E+02  0.10205423278E+04  0.10209998252E+04  0.00000000000E+00 0. -1.
         22    1    3    3    0    0 -0.96332451019E+02 -0.14279900805E+03  0.54301418820E+03  0.56968053012E+03  0.00000000000E+00 0. -1.
         22    1    3    3    0    0 -0.69060686172E+02  0.12264324980E+02  0.15667194850E+03  0.17165631794E+03  0.00000000000E+00 0. -1.
</event>
<event>
 7    1  0.5931885E-006  0.1219663E+03  0.7818608E-02  0.1248089E+00
          2   -1    0    0  502    0  0.00000000000E+00  0.00000000000E+00  0.42223860573E+03  0.42223860573E+03  0.00000000000E+00 0. -1.
          1   -1    0    0  501    0 -0.00000000000E+00 -0.00000000000E+00 -0.82268843679E+03  0.82268843679E+03  0.00000000000E+00 0. -1.
         25    2    1    2    0    0 -0.26876606408E+02 -0.14818925508E+02  0.60890433395E+02  0.14237336328E+03  0.12498230742E+03 0.  0.
          2    1    1    2  501    0 -0.12161199710E+03  0.92897953261E+01 -0.75960001734E+03  0.76932955519E+03  0.00000000000E+00 0. -1.
          1    1    1    2  502    0  0.14848860351E+03  0.55291301823E+01  0.29825975289E+03  0.33322412405E+03  0.00000000000E+00 0. -1.
         22    1    3    3    0    0 -0.47300682258E+02 -0.90077884166E+01 -0.24750256050E+02  0.54139356929E+02  0.00000000000E+00 0. -1.
         22    1    3    3    0    0  0.20424075849E+02 -0.58111370919E+01  0.85640689445E+02  0.88234006354E+02  0.00000000000E+00 0. -1.
</event>
<event>
 7    1  0.5931885E-006  0.6818508E+02  0.7818608E-02  0.1526745E+00
          2   -1    0    0  502    0  0.00000000000E+00  0.00000000000E+00  0.15731385228E+04  0.15731385228E+04  0.00000000000E+00 0. -1.
          1   -1    0    0  501    0 -0.00000000000E+00 -0.00000000000E+00 -0.32764518812E+02  0.32764518812E+02  0.00000000000E+00 0. -1.
         25    2    1    2    0    0 -0.65059135816E+02 -0.18519901551E+02  0.11068108760E+04  0.11158994812E+04  0.12500263638E+03 0.  0.
          2    1    1    2  501    0  0.68291349333E+02 -0.19480971178E+01  0.13762134425E+02  0.69691461601E+02  0.00000000000E+00 0. -1.
          1    1    1    2  502    0 -0.32322135173E+01  0.20467998669E+02  0.41980099360E+03  0.42031209880E+03  0.00000000000E+00 0. -1.
         22    1    3    3    0    0 -0.54345010440E+02 -0.70354156804E+02  0.72833493442E+03  0.73374032480E+03  0.00000000000E+00 0. -1.
         22    1    3    3    0    0 -0.10714125376E+02  0.51834255253E+02  0.37847594154E+03  0.38215915640E+03  0.00000000000E+00 0. -1.
</event>
<event>
 7    1  0.5931885E-006  0.8644565E+02  0.7818608E-02  0.1395965E+00
          2   -1    0    0  502    0  0.00000000000E+00  0.00000000000E+00  0.14266358793E+04  0.14266358793E+04  0.00000000000E+00 0. -1.
          1   -1    0    0  501    0 -0.00000000000E+00 -0.00000000000E+00 -0.13962720282E+04  0.13962720282E+04  0.00000000000E+00 0. -1.
         25    2    1    2    0    0 -0.60156078679E+02  0.38518931441E+02  0.11904265921E+04  0.11991008492E+04  0.12499965431E+03 0.  0.
          2    1    1    2  501    0  0.40941337148E+02 -0.76166485950E+02 -0.13886525635E+04  0.13913423263E+04  0.00000000000E+00 0. -1.
          1    1    1    2  502    0  0.19214741531E+02  0.37647554509E+02  0.22858982249E+03  0.23246473195E+03  0.00000000000E+00 0. -1.
         22    1    3    3    0    0  0.31659004111E+02  0.40530609286E+02  0.37216958029E+03  0.37570629396E+03  0.00000000000E+00 0.  1.
         22    1    3    3    0    0 -0.91815082789E+02 -0.20116778451E+01  0.81825701182E+03  0.82339455528E+03  0.00000000000E+00 0.  1.
</event>
<event>
 7    1  0.5931885E-006  0.9919925E+02  0.7818608E-02  0.1381459E+00
          2   -1    0    0  502    0  0.00000000000E+00  0.00000000000E+00  0.11695714437E+04  0.11695714437E+04  0.00000000000E+00 0. -1.
          1   -1    0    0  501    0 -0.00000000000E+00 -0.00000000000E+00 -0.50624685241E+03  0.50624685241E+03  0.00000000000E+00 0. -1.
         25    2    1    2    0    0  0.13493084114E+03  0.20468422201E+01  0.22479877581E+03  0.29046724902E+03  0.12500484668E+03 0.  0.
          2    1    1    2  501    0 -0.39509037382E+02  0.12356543306E+02 -0.46994719296E+03  0.47176690470E+03  0.00000000000E+00 0. -1.
          1    1    1    2  502    0 -0.95421803760E+02 -0.14403385526E+02  0.90847300847E+03  0.91358414241E+03  0.00000000000E+00 0. -1.
         22    1    3    3    0    0  0.13127218395E+03 -0.35858012013E+02  0.20864832283E+03  0.24910300264E+03  0.00000000000E+00 0.  1.
         22    1    3    3    0    0  0.36586571939E+01  0.37904854233E+02  0.16150452972E+02  0.41364246374E+02  0.00000000000E+00 0.  1.
</event>
<event>
 7    1  0.5931885E-006  0.5983481E+02  0.7818608E-02  0.1408513E+00
          2   -1    0    0  502    0  0.00000000000E+00  0.00000000000E+00  0.22814169659E+04  0.22814169659E+04  0.00000000000E+00 0. -1.
          1   -1    0    0  501    0 -0.00000000000E+00 -0.00000000000E+00 -0.80636460349E+03  0.80636460349E+03  0.00000000000E+00 0. -1.
         25    2    1    2    0    0  0.47831809242E+02 -0.72875460771E+02  0.31195631141E+03  0.34718902326E+03  0.12499905155E+03 0.  0.
          2    1    1    2  501    0 -0.56931622853E+02  0.18320935860E+02 -0.78722193057E+03  0.78949049035E+03  0.00000000000E+00 0. -1.
          1    1    1    2  502    0  0.90998136113E+01  0.54554524911E+02  0.19503179816E+04  0.19511020558E+04  0.00000000000E+00 0. -1.
         22    1    3    3    0    0 -0.36122164938E+02 -0.29438201022E+02  0.48362712904E+02  0.67159291827E+02  0.00000000000E+00 0.  1.
         22    1    3    3    0    0  0.83953974180E+02 -0.43437259749E+02  0.26359359851E+03  0.28002973144E+03  0.00000000000E+00 0.  1.
</event>
<event>
 7    1  0.5931885E-006  0.1162599E+03  0.7818608E-02  0.1267950E+00
          2   -1    0    0  502    0  0.00000000000E+00  0.00000000000E+00  0.17287529896E+03  0.17287529896E+03  0.00000000000E+00 0. -1.
          1   -1    0    0  501    0 -0.00000000000E+00 -0.00000000000E+00 -0.12246199459E+04  0.12246199459E+04  0.00000000000E+00 0. -1.
         25    2    1    2    0    0 -0.11542821711E+03 -0.36359024164E+02 -0.51873160453E+03  0.54713170376E+03  0.12499988713E+03 0.  0.
          2    1    1    2  501    0  0.66320610074E+02 -0.70572443037E+02 -0.66587819397E+03  0.67288384008E+03  0.00000000000E+00 0. -1.
          1    1    1    2  502    0  0.49107607033E+02  0.10693146720E+03  0.13286515160E+03  0.17747970097E+03  0.00000000000E+00 0. -1.
         22    1    3    3    0    0 -0.52332453736E+02 -0.63431377046E+01 -0.43452735621E+03  0.43771331304E+03  0.00000000000E+00 0. -1.
         22    1    3    3    0    0 -0.63095763371E+02 -0.30015886460E+02 -0.84204248315E+02  0.10941839073E+03  0.00000000000E+00 0. -1.
</event>
<event>
 7    1  0.5931885E-006  0.8441656E+02  0.7818608E-02  0.1360698E+00
          2   -1    0    0  502    0  0.00000000000E+00  0.00000000000E+00  0.16388055414E+03  0.16388055414E+03  0.00000000000E+00 0. -1.
          1   -1    0    0  501    0 -0.00000000000E+00 -0.00000000000E+00 -0.68760935326E+03  0.68760935326E+03  0.00000000000E+00 0. -1.
         25    2    1    2    0    0 -0.67887093329E+01 -0.42589302210E+02 -0.12724793902E+03  0.18351390455E+03  0.12500151975E+03 0.  0.
          2    1    1    2  501    0 -0.32456317418E+02  0.84957190926E+02 -0.52197103933E+03  0.52983478814E+03  0.00000000000E+00 0. -1.
          1    1    1    2  502    0  0.39245026751E+02 -0.42367888716E+02  0.12549017923E+03  0.13814121471E+03  0.00000000000E+00 0. -1.
         22    1    3    3    0    0 -0.59946422769E+01 -0.41726582608E+02  0.12337678720E+02  0.43923362216E+02  0.00000000000E+00 0.  1.
         22    1    3    3    0    0 -0.79406705600E+00 -0.86271960238E+00 -0.13958561774E+03  0.13959054233E+03  0.00000000000E+00 0.  1.
</event>
<event>
 7    1  0.5931885E-006  0.1834102E+03  0.7818608E-02  0.1247483E+00
          2   -1    0    0  502    0  0.00000000000E+00  0.00000000000E+00  0.10203948619E+04  0.10203948619E+04  0.00000000000E+00 0. -1.
          1   -1    0    0  501    0 -0.00000000000E+00 -0.00000000000E+00 -0.19077795661E+04  0.19077795661E+04  0.00000000000E+00 0. -1.
         25    2    1    2    0    0  0.10717709615E+03  0.39797056882E+02  0.16392181179E+03  0.23572410051E+03  0.12499902201E+03 0.  0.
          2    1    1    2  501    0 -0.15962264933E+03 -0.93580851246E+02 -0.18655727381E+04  0.18747262218E+04  0.00000000000E+00 0. -1.
          1    1    1    2  502    0  0.52445553181E+02  0.53783794364E+02  0.81426622205E+03  0.81772410565E+03  0.00000000000E+00 0. -1.
         22    1    3    3    0    0  0.15883224081E+02  0.30446178637E+02  0.13530440580E+03  0.13959415758E+03  0.00000000000E+00 0. -1.
         22    1    3    3    0    0  0.91293872069E+02  0.93508782452E+01  0.28617405988E+02  0.96129942925E+02  0.00000000000E+00 0. -1.
</event>
<event>
 7    1  0.5931885E-006  0.6442322E+02  0.7818608E-02  0.1457714E+00
          2   -1    0    0  502    0  0.00000000000E+00  0.00000000000E+00  0.67816897492E+03  0.67816897492E+03  0.00000000000E+00 0. -1.
          1   -1    0    0  501    0 -0.00000000000E+00 -0.00000000000E+00 -0.18828190563E+04  0.18828190563E+04  0.00000000000E+00 0. -1.
         25    2    1    2    0    0 -0.57493089538E+02  0.45534788981E+02 -0.18680516979E+03  0.23643117286E+03  0.12499862273E+03 0.  0.
          2    1    1    2  501    0 -0.60493128407E+01 -0.34911890389E+02 -0.16694243050E+04  0.16698002708E+04  0.00000000000E+00 0. -1.
          1    1    1    2  502    0  0.63542402379E+02 -0.10622898591E+02  0.65157939347E+03  0.65475658750E+03  0.00000000000E+00 0. -1.
         22    1    3    3    0    0 -0.26390458961E+01  0.33005177498E+02  0.76637136856E+01  0.33985861948E+02  0.00000000000E+00 0. -1.
         22    1    3    3    0    0 -0.54854043642E+02  0.12529611483E+02 -0.19446888348E+03  0.20244531091E+03  0.00000000000E+00 0. -1.
</event>
<event>
 7    1  0.5931885E-006  0.1472658E+03  0.7818608E-02  0.1242775E+00
          2   -1    0    0  502    0  0.00000000000E+00  0.00000000000E+00  0.58425138001E+03  0.58425138001E+03  0.00000000000E+00 0. -1.
          1   -1    0    0  501    0 -0.00000000000E+00 -0.00000000000E+00 -0.27526242974E+03  0.27526242974E+03  0.00000000000E+00 0. -1.
         25    2    1    2    0    0  0.92233260664E+02  0.77675536719E+02  0.26204184765E+03  0.31437509191E+03  0.12500122047E+03 0.  0.
          2    1    1    2  501    0 -0.20037601729E+02  0.96032988762E+02 -0.20702200663E+03  0.22908939662E+03  0.00000000000E+00 0. -1.
          1    1    1    2  502    0 -0.72195658935E+02 -0.17370852548E+03  0.25396910924E+03  0.31604932122E+03  0.00000000000E+00 0. -1.
         22    1    3    3    0    0  0.11581062201E+03  0.31634869373E+02  0.20333287458E+03  0.23612946241E+03  0.00000000000E+00 0.  1.
         22    1    3    3    0    0 -0.23577361350E+02  0.46040667347E+02  0.58708973069E+02  0.78245629506E+02  0.00000000000E+00 0.  1.
</event>
<event>
 7    1  0.5931885E-006  0.8751515E+02  0.7818608E-02  0.1459148E+00
          2   -1    0    0  502    0  0.00000000000E+00  0.00000000000E+00  0.86560077208E+03  0.86560077208E+03  0.00000000000E+00 0. -1.
          1   -1    0    0  501    0 -0.00000000000E+00 -0.00000000000E+00 -0.11342173621E+04  0.11342173621E+04  0.00000000000E+00 0. -1.
         25    2    1    2    0    0 -0.35091248082E+02  0.56371739374E+02 -0.51223718658E+03  0.53143270092E+03  0.12499844639E+03 0.  0.
          2    1    1    2  501    0  0.39312956570E+01  0.25510947945E+02 -0.60986697512E+03  0.61041296750E+03  0.00000000000E+00 0. -1.
          1    1    1    2  502    0  0.31159952425E+02 -0.81882687319E+02  0.85348757164E+03  0.85797246579E+03  0.00000000000E+00 0. -1.
         22    1    3    3    0    0 -0.72907250405E+02  0.60324702895E+02 -0.26716205824E+03  0.28342565569E+03  0.00000000000E+00 0. -1.
         22    1    3    3    0    0  0.37816002323E+02 -0.39529635202E+01 -0.24507512834E+03  0.24800704523E+03  0.00000000000E+00 0. -1.
</event>
<event>
 7    1  0.5931885E-006  0.5008638E+02  0.7818608E-02  0.1491630E+00
          2   -1    0    0  502    0  0.00000000000E+00  0.00000000000E+00  0.15311593534E+02  0.15311593534E+02  0.00000000000E+00 0. -1.
          1   -1    0    0  501    0 -0.00000000000E+00 -0.00000000000E+00 -0.23706237809E+04  0.23706237809E+04  0.00000000000E+00 0. -1.
         25    2    1    2    0    0 -0.16260634381E+02  0.11504642878E+02 -0.53234882220E+03  0.54718982681E+03  0.12499869213E+03 0.  0.
          2    1    1    2  501    0 -0.29737252992E+02  0.19934193560E+02 -0.17299604282E+04  0.17303308237E+04  0.00000000000E+00 0. -1.
          1    1    1    2  502    0  0.45997887373E+02 -0.31438836438E+02 -0.93002936976E+02  0.10841472393E+03  0.00000000000E+00 0. -1.
         22    1    3    3    0    0 -0.40981126162E+02 -0.20723936932E+02 -0.74320126763E+02  0.87363696726E+02  0.00000000000E+00 0.  1.
         22    1    3    3    0    0  0.24720491781E+02  0.32228579810E+02 -0.45802869543E+03  0.45982613009E+03  0.00000000000E+00 0.  1.
</event>
<event>
 7    1  0.5931885E-006  0.3599641E+02  0.7818608E-02  0.1544162E+00
          2   -1    0    0  502    0  0.00000000000E+00  0.00000000000E+00  0.15253836211E+04  0.15253836211E+04  0.00000000000E+00 0. -1.
          1   -1    0    0  501    0 -0.00000000000E+00 -0.00000000000E+00 -0.13446953394E+04  0.13446953394E+04  0.00000000000E+00 0. -1.
         25    2    1    2    0    0 -0.62983864379E+02 -0.95090124182E+01  0.72487716058E+02  0.15790785218E+03  0.12499212900E+03 0.  0.
          2    1    1    2  501    0  0.33341838831E+02 -0.10711059832E+02 -0.13015214541E+04  0.13019925117E+04  0.00000000000E+00 0. -1.
          1    1    1    2  502    0  0.29642025548E+02  0.20220072250E+02  0.14097220198E+04  0.14101785965E+04  0.00000000000E+00 0. -1.
         22    1    3    3    0    0 -0.53003761453E+02 -0.62158911624E+02  0.22756578370E+02  0.84799710387E+02  0.00000000000E+00 0. -1.
         22    1    3    3    0    0 -0.99801029260E+01  0.52649899206E+02  0.49731137688E+02  0.73108141794E+02  0.00000000000E+00 0. -1.
</event>
<event>
 7    1  0.5931885E-006  0.4243292E+02  0.7818608E-02  0.1571600E+00
          2   -1    0    0  502    0  0.00000000000E+00  0.00000000000E+00  0.14313214241E+03  0.14313214241E+03  0.00000000000E+00 0. -1.
          1   -1    0    0  501    0 -0.00000000000E+00 -0.00000000000E+00 -0.31937569873E+03  0.31937569873E+03  0.00000000000E+00 0. -1.
         25    2    1    2    0    0  0.39171760490E+02  0.75408259908E-01  0.88900774240E+02  0.15833655064E+03  0.12503072863E+03 0.  0.
          2    1    1    2  501    0 -0.34817309786E+02  0.24494969651E+02 -0.27430573381E+03  0.27758941658E+03  0.00000000000E+00 0. -1.
          1    1    1    2  502    0 -0.43544507044E+01 -0.24570377910E+02  0.91614032495E+01  0.26581873920E+02  0.00000000000E+00 0. -1.
         22    1    3    3    0    0  0.43939975649E+02 -0.52375859795E+02  0.79471395749E+02  0.10483155485E+03  0.00000000000E+00 0. -1.
         22    1    3    3    0    0 -0.47682151592E+01  0.52451268055E+02  0.94293784906E+01  0.53504995795E+02  0.00000000000E+00 0. -1.
</event>
<event>
 7    1  0.5931885E-006  0.1166229E+03  0.7818608E-02  0.1372655E+00
          2   -1    0    0  502    0  0.00000000000E+00  0.00000000000E+00  0.11884226347E+04  0.11884226347E+04  0.00000000000E+00 0. -1.
          1   -1    0    0  501    0 -0.00000000000E+00 -0.00000000000E+00 -0.34135522823E+03  0.34135522823E+03  0.00000000000E+00 0. -1.
         25    2    1    2    0    0  0.66187890908E+02  0.93456121646E+02 -0.74187604325E+01  0.16969052157E+03  0.12499980612E+03 0.  0.
          2    1    1    2  501    0 -0.32946903453E+02  0.18620564185E+02 -0.24827720245E+03  0.25114496434E+03  0.00000000000E+00 0. -1.
          1    1    1    2  502    0 -0.33240987455E+02 -0.11207668583E+03  0.11027633694E+04  0.11089423770E+04  0.00000000000E+00 0. -1.
         22    1    3    3    0    0  0.43228074399E+02  0.43346830590E+02 -0.65475538690E+02  0.89636266684E+02  0.00000000000E+00 0. -1.
         22    1    3    3    0    0  0.22959816510E+02  0.50109291056E+02  0.58056778257E+02  0.80054254890E+02  0.00000000000E+00 0. -1.
</event>
<event>
 7    1  0.5931885E-006  0.9450428E+02  0.7818608E-02  0.1323239E+00
          2   -1    0    0  502    0  0.00000000000E+00  0.00000000000E+00  0.15213838423E+04  0.15213838423E+04  0.00000000000E+00 0. -1.
          1   -1    0    0  501    0 -0.00000000000E+00 -0.00000000000E+00 -0.28954024839E+03  0.28954024839E+03  0.00000000000E+00 0. -1.
         25    2    1    2    0    0 -0.77550451042E+01 -0.90770682071E+02  0.48492707594E+03  0.50899797391E+03  0.12500084407E+03 0.  0.
          2    1    1    2  501    0 -0.66834683622E+02  0.24824836254E+02 -0.27045501003E+03  0.27969458321E+03  0.00000000000E+00 0. -1.
          1    1    1    2  502    0  0.74589728727E+02  0.65945845817E+02  0.10173715280E+04  0.10222315335E+04  0.00000000000E+00 0. -1.
         22    1    3    3    0    0  0.39865838509E+02 -0.66109364208E+02  0.13953207848E+03  0.15946452283E+03  0.00000000000E+00 0.  1.
         22    1    3    3    0    0 -0.47620883613E+02 -0.24661317863E+02  0.34539499746E+03  0.34953345108E+03  0.00000000000E+00 0.  1.
</event>
<event>
 7    1  0.5931885E-006  0.8989887E+02  0.7818608E-02  0.1409740E+00
          2   -1    0    0  502    0  0.00000000000E+00  0.00000000000E+00  0.16272944837E+04  0.16272944837E+04  0.00000000000E+00 0. -1.
          1   -1    0    0  501    0 -0.00000000000E+00 -0.00000000000E+00 -0.37736914818E+02  0.37736914818E+02  0.00000000000E+00 0. -1.
         25    2    1    2    0    0 -0.87941491404E+02 -0.84272111425E+01  0.19315525396E+03  0.24645321775E+03  0.12500205042E+03 0.  0.
          2    1    1    2  501    0  0.88841004717E+01 -0.35361728783E+02  0.25016369828E+02  0.44217619374E+02  0.00000000000E+00 0. -1.
          1    1    1    2  502    0  0.79057390933E+02  0.43788939926E+02  0.13713859451E+04  0.13743605614E+04  0.00000000000E+00 0. -1.
         22    1    3    3    0    0 -0.28496714075E+02 -0.34183042832E+02  0.17296025623E+03  0.17859393429E+03  0.00000000000E+00 0. -1.
         22    1    3    3    0    0 -0.59444777329E+02  0.25755831689E+02  0.20194997727E+02  0.67859283454E+02  0.00000000000E+00 0. -1.
</event>
<event>
 7    1  0.5931885E-006  0.7142904E+02  0.7818608E-02  0.1372724E+00
          2   -1    0    0  502    0  0.00000000000E+00  0.00000000000E+00  0.93407184906E+02  0.93407184906E+02  0.00000000000E+00 0. -1.
          1   -1    0    0  501    0 -0.00000000000E+00 -0.00000000000E+00 -0.10773383831E+04  0.10773383831E+04  0.00000000000E+00 0. -1.
         25    2    1    2    0    0 -0.10376812991E+03 -0.53308217208E+01 -0.18069471605E+03  0.24304686961E+03  0.12499983189E+03 0.  0.
          2    1    1    2  501    0  0.48764795360E+02 -0.37888687668E+02 -0.84431938393E+03  0.84657473385E+03  0.00000000000E+00 0. -1.
          1    1    1    2  502    0  0.55003334546E+02  0.43219509388E+02  0.41082901794E+02  0.81123964541E+02  0.00000000000E+00 0. -1.
         22    1    3    3    0    0  0.10374538750E+02  0.17559192709E+02  0.75212848474E+01  0.21737663826E+02  0.00000000000E+00 0. -1.
         22    1    3    3    0    0 -0.11414266866E+03 -0.22890014429E+02 -0.18821600090E+03  0.22130920578E+03  0.00000000000E+00 0. -1.
</event>
<event>
 7    1  0.5931885E-006  0.8755689E+02  0.7818608E-02  0.1330653E+00
          2   -1    0    0  502    0  0.00000000000E+00  0.00000000000E+00  0.60219375384E+03  0.60219375384E+03  0.00000000000E+00 0. -1.
          1   -1    0    0  501    0 -0.00000000000E+00 -0.00000000000E+00 -0.36967308870E+03  0.36967308870E+03  0.00000000000E+00 0. -1.
         25    2    1    2    0    0  0.32695499403E+02  0.50741228153E+02 -0.14811931439E+03  0.20299909798E+03  0.12500253825E+03 0.  0.
          2    1    1    2  501    0  0.55735727106E+02 -0.45694649537E+02 -0.18384922900E+03  0.19747154549E+03  0.00000000000E+00 0. -1.
          1    1    1    2  502    0 -0.88431226509E+02 -0.50465786161E+01  0.56448920853E+03  0.57139619908E+03  0.00000000000E+00 0. -1.
         22    1    3    3    0    0  0.47739192378E+02  0.79100969791E+02 -0.14335015332E+03  0.17054401299E+03  0.00000000000E+00 0.  1.
         22    1    3    3    0    0 -0.15043692975E+02 -0.28359741638E+02 -0.47691610730E+01  0.32455084986E+02  0.00000000000E+00 0.  1.
</event>
<event>
 7    1  0.5931885E-006  0.5882089E+02  0.7818608E-02  0.1547749E+00
          2   -1    0    0  502    0  0.00000000000E+00  0.00000000000E+00  0.19011743141E+03  0.19011743141E+03  0.00000000000E+00 0. -1.
          1   -1    0    0  501    0 -0.00000000000E+00 -0.00000000000E+00 -0.24557446127E+03  0.24557446127E+03  0.00000000000E+00 0. -1.
         25    2    1    2    0    0 -0.40017004150E+02 -0.36618459868E+01 -0.50129493841E+02  0.14054343607E+03  0.12499888613E+03 0.  0.
          2    1    1    2  501    0 -0.19995200961E+02  0.62204963501E+01 -0.14321917314E+03  0.14474195726E+03  0.00000000000E+00 0. -1.
          1    1    1    2  502    0  0.60012205110E+02 -0.25586503633E+01  0.13789163712E+03  0.15040649934E+03  0.00000000000E+00 0. -1.
         22    1    3    3    0    0  0.12613727792E+00 -0.57817869594E+02 -0.44379968636E+02  0.72886923183E+02  0.00000000000E+00 0. -1.
         22    1    3    3    0    0 -0.40143141428E+02  0.54156023607E+02 -0.57495252050E+01  0.67656512892E+02  0.00000000000E+00 0. -1.
</event>
<event>
 7    1  0.5931885E-006  0.1697328E+03  0.7818608E-02  0.1248396E+00
          2   -1    0    0  502    0  0.00000000000E+00  0.00000000000E+00  0.25961707204E+04  0.25961707204E+04  0.00000000000E+00 0. -1.
          1   -1    0    0  501    0 -0.00000000000E+00 -0.00000000000E+00 -0.11835541701E+03  0.11835541701E+03  0.00000000000E+00 0. -1.
         25    2    1    2    0    0 -0.10418016086E+03  0.37700387266E+02  0.61950846270E+02  0.17815851822E+03  0.12501090010E+03 0.  0.
          2    1    1    2  501    0 -0.69002461175E+02 -0.41334612166E+02 -0.28903217548E+02  0.85470964636E+02  0.00000000000E+00 0. -1.
          1    1    1    2  502    0  0.17318262204E+03  0.36342249001E+01  0.24447676747E+04  0.24508966545E+04  0.00000000000E+00 0. -1.
         22    1    3    3    0    0 -0.10827543768E+03  0.24679123914E+02  0.92608532099E+02  0.14459934225E+03  0.00000000000E+00 0. -1.
         22    1    3    3    0    0  0.40952768160E+01  0.13021263351E+02 -0.30657685828E+02  0.33559175970E+02  0.00000000000E+00 0. -1.
</event>
<event>
 7    1  0.5931885E-006  0.6018949E+02  0.7818608E-02  0.1399562E+00
          2   -1    0    0  502    0  0.00000000000E+00  0.00000000000E+00  0.32098352402E+03  0.32098352402E+03  0.00000000000E+00 0. -1.
          1   -1    0    0  501    0 -0.00000000000E+00 -0.00000000000E+00 -0.61186838058E+03  0.61186838058E+03  0.00000000000E+00 0. -1.
         25    2    1    2    0    0  0.23962246559E+02  0.16506046741E+02  0.44755250734E+02  0.13591732028E+03  0.12499538649E+03 0.  0.
          2    1    1    2  501    0  0.31978183302E+02 -0.49576988982E+02 -0.56012989535E+03  0.56322817908E+03  0.00000000000E+00 0. -1.
          1    1    1    2  502    0 -0.55940429861E+02  0.33070942242E+02  0.22448978805E+03  0.23370640525E+03  0.00000000000E+00 0. -1.
         22    1    3    3    0    0  0.71304704139E+02  0.28720410808E+02  0.40373041128E+02  0.86828597128E+02  0.00000000000E+00 0. -1.
         22    1    3    3    0    0 -0.47342457580E+02 -0.12214364067E+02  0.43822096063E+01  0.49088723148E+02  0.00000000000E+00 0. -1.
</event>
<event>
 7    1  0.5931885E-006  0.9371377E+02  0.7818608E-02  0.1297465E+00
          2   -1    0    0  502    0  0.00000000000E+00  0.00000000000E+00  0.77485764453E+03  0.77485764453E+03  0.00000000000E+00 0. -1.
          1   -1    0    0  501    0 -0.00000000000E+00 -0.00000000000E+00 -0.36846326341E+03  0.36846326341E+03  0.00000000000E+00 0. -1.
         25    2    1    2    0    0  0.52225213493E+02  0.59068450159E+02  0.11924324104E+03  0.18989587247E+03  0.12499974848E+03 0.  0.
          2    1    1    2  501    0  0.40973266427E+02 -0.84282044218E+02 -0.32267254672E+03  0.33600572011E+03  0.00000000000E+00 0. -1.
          1    1    1    2  502    0 -0.93198479921E+02  0.25213594059E+02  0.60982368681E+03  0.61741931536E+03  0.00000000000E+00 0. -1.
         22    1    3    3    0    0 -0.24935666853E+02  0.47794568674E+02  0.93225574139E+02  0.10768990644E+03  0.00000000000E+00 0.  1.
         22    1    3    3    0    0  0.77160880346E+02  0.11273881485E+02  0.26017666899E+02  0.82205966027E+02  0.00000000000E+00 0.  1.
</event>
<event>
 7    1  0.5931885E-006  0.8985920E+02  0.7818608E-02  0.1305741E+00
          2   -1    0    0  502    0  0.00000000000E+00  0.00000000000E+00  0.16489552457E+03  0.16489552457E+03  0.00000000000E+00 0. -1.
          1   -1    0    0  501    0 -0.00000000000E+00 -0.00000000000E+00 -0.72759916211E+03  0.72759916211E+03  0.00000000000E+00 0. -1.
         25    2    1    2    0    0  0.55363374580E+02  0.22417317178E+02 -0.31436635969E+03  0.34353949996E+03  0.12500216227E+03 0.  0.
          2    1    1    2  501    0 -0.10010174838E+03  0.55513123305E+02 -0.37588808659E+03  0.39292991809E+03  0.00000000000E+00 0. -1.
          1    1    1    2  502    0  0.44738373801E+02 -0.77930440482E+02  0.12755080874E+03  0.15602526864E+03  0.00000000000E+00 0. -1.
         22    1    3    3    0    0  0.27536373255E+02 -0.32730439223E+02 -0.25256344663E+03  0.25615977060E+03  0.00000000000E+00 0.  1.
         22    1    3    3    0    0  0.27827001325E+02  0.55147756400E+02 -0.61802913062E+02  0.87379729352E+02  0.00000000000E+00 0.  1.
</event>
<event>
 7    1  0.5931885E-006  0.1300214E+03  0.7818608E-02  0.1303984E+00
          2   -1    0    0  502    0  0.00000000000E+00  0.00000000000E+00  0.84570403738E+03  0.84570403738E+03  0.00000000000E+00 0. -1.
          1   -1    0    0  501    0 -0.00000000000E+00 -0.00000000000E+00 -0.51859572225E+02  0.51859572225E+02  0.00000000000E+00 0. -1.
         25    2    1    2    0    0  0.29199126942E+02 -0.12510110771E+03  0.19580653544E+03  0.26545925470E+03  0.12500216167E+03 0.  0.
          2    1    1    2  501    0 -0.61504636243E+02 -0.42864488342E+01  0.10920763716E+03  0.12540933752E+03  0.00000000000E+00 0. -1.
          1    1    1    2  502    0  0.32305509301E+02  0.12938755654E+03  0.48883029255E+03  0.50669501738E+03  0.00000000000E+00 0. -1.
         22    1    3    3    0    0  0.68578296253E+02 -0.90014895281E+02  0.17575337304E+03  0.20903328018E+03  0.00000000000E+00 0. -1.
         22    1    3    3    0    0 -0.39379169311E+02 -0.35086212428E+02  0.20053162398E+02  0.56425974518E+02  0.00000000000E+00 0. -1.
</event>
<event>
 7    1  0.5931885E-006  0.5230924E+02  0.7818608E-02  0.1478357E+00
          2   -1    0    0  502    0  0.00000000000E+00  0.00000000000E+00  0.90364287313E+03  0.90364287313E+03  0.00000000000E+00 0. -1.
          1   -1    0    0  501    0 -0.00000000000E+00 -0.00000000000E+00 -0.43109049721E+02  0.43109049721E+02  0.00000000000E+00 0. -1.
         25    2    1    2    0    0 -0.15488612697E+02 -0.38618214439E+01  0.10711624177E+03  0.16538957162E+03  0.12500004144E+03 0.  0.
          2    1    1    2  501    0 -0.35269865365E+02 -0.13100190930E+02  0.14207180815E+02  0.40217190254E+02  0.00000000000E+00 0. -1.
          1    1    1    2  502    0  0.50758478062E+02  0.16962012374E+02  0.73921040083E+03  0.74114516099E+03  0.00000000000E+00 0. -1.
         22    1    3    3    0    0 -0.94901744261E+01 -0.54517564690E+02  0.10773726519E+02  0.56376426398E+02  0.00000000000E+00 0.  1.
         22    1    3    3    0    0 -0.59984382713E+01  0.50655743246E+02  0.96342515249E+02  0.10901314522E+03  0.00000000000E+00 0.  1.
</event>
<event>
 7    1  0.5931885E-006  0.3574549E+02  0.7818608E-02  0.1546215E+00
          2   -1    0    0  502    0  0.00000000000E+00  0.00000000000E+00  0.16964081927E+04  0.16964081927E+04  0.00000000000E+00 0. -1.
          1   -1    0    0  501    0 -0.00000000000E+00 -0.00000000000E+00 -0.17173322193E+03  0.17173322193E+03  0.00000000000E+00 0. -1.
         25    2    1    2    0    0 -0.67476795317E+02  0.19835969993E+02  0.35532745173E+03  0.38318376741E+03  0.12500247215E+03 0.  0.
          2    1    1    2  501    0  0.34375369371E+02 -0.90932399205E+01 -0.15557064366E+03  0.15958251221E+03  0.00000000000E+00 0. -1.
          1    1    1    2  502    0  0.33101425946E+02 -0.10742730072E+02  0.13249181627E+04  0.13253751350E+04  0.00000000000E+00 0. -1.
         22    1    3    3    0    0  0.36914794487E+02  0.65756011107E+01  0.77464063429E+02  0.86061731943E+02  0.00000000000E+00 0. -1.
         22    1    3    3    0    0 -0.10439158980E+03  0.13260368882E+02  0.27786338830E+03  0.29712203547E+03  0.00000000000E+00 0. -1.
</event>
<event>
 7    1  0.5931885E-006  0.4715221E+02  0.7818608E-02  0.1503100E+00
          2   -1    0    0  502    0  0.00000000000E+00  0.00000000000E+00  0.50939413924E+03  0.50939413924E+03  0.00000000000E+00 0. -1.
          1   -1    0    0  501    0 -0.00000000000E+00 -0.00000000000E+00 -0.21700262002E+03  0.21700262002E+03  0.00000000000E+00 0. -1.
         25    2    1    2    0    0 -0.30153839815E+02  0.45289633799E+02  0.25165043485E+03  0.28620515565E+03  0.12500017911E+03 0.  0.
          2    1    1    2  501    0 -0.15477974731E+02 -0.31543186490E+02 -0.19578461991E+03  0.19891243729E+03  0.00000000000E+00 0. -1.
          1    1    1    2  502    0  0.45631814546E+02 -0.13746447310E+02  0.23652570428E+03  0.24127916632E+03  0.00000000000E+00 0. -1.
         22    1    3    3    0    0  0.18123893098E+02 -0.68594228190E+01 -0.49045951268E+01  0.19989553167E+02  0.00000000000E+00 0. -1.
         22    1    3    3    0    0 -0.48277732913E+02  0.52149056618E+02  0.25655502998E+03  0.26621560249E+03  0.00000000000E+00 0. -1.
</event>
<event>
 7    1  0.5931885E-006  0.5808085E+02  0.7818608E-02  0.1533273E+00
          2   -1    0    0  502    0  0.00000000000E+00  0.00000000000E+00  0.35273523099E+03  0.35273523099E+03  0.00000000000E+00 0. -1.
          1   -1    0    0  501    0 -0.00000000000E+00 -0.00000000000E+00 -0.18786917966E+04  0.18786917966E+04  0.00000000000E+00 0. -1.
         25    2    1    2    0    0 -0.38649997741E+01  0.35492001962E+02 -0.22775982586E+03  0.26224919486E+03  0.12500192600E+03 0.  0.
          2    1    1    2  501    0  0.47264848260E+01  0.22816798102E+02 -0.16310693484E+04  0.16312357786E+04  0.00000000000E+00 0. -1.
          1    1    1    2  502    0 -0.86148505197E+00 -0.58308800064E+02  0.33287260870E+03  0.33794205413E+03  0.00000000000E+00 0. -1.
         22    1    3    3    0    0 -0.30026190738E+02 -0.30422637151E+02 -0.30172883617E+02  0.52321237440E+02  0.00000000000E+00 0. -1.
         22    1    3    3    0    0  0.26161190964E+02  0.65914639113E+02 -0.19758694225E+03  0.20992795742E+03  0.00000000000E+00 0. -1.
</event>
<event>
 7    1  0.5931885E-006  0.1444112E+03  0.7818608E-02  0.1422368E+00
          2   -1    0    0  502    0  0.00000000000E+00  0.00000000000E+00  0.16587814232E+04  0.16587814232E+04  0.00000000000E+00 0. -1.
          1   -1    0    0  501    0 -0.00000000000E+00 -0.00000000000E+00 -0.71069331785E+03  0.71069331785E+03  0.00000000000E+00 0. -1.
         25    2    1    2    0    0 -0.44334415352E+02  0.15403923838E+03 -0.20882554629E+03  0.29142143416E+03  0.12499886465E+03 0.  0.
          2    1    1    2  501    0  0.16296772804E+02 -0.12576676989E+02 -0.45712320698E+03  0.45758647704E+03  0.00000000000E+00 0. -1.
          1    1    1    2  502    0  0.28037642548E+02 -0.14146256139E+03  0.16140368586E+04  0.16204668299E+04  0.00000000000E+00 0. -1.
         22    1    3    3    0    0 -0.79214308030E+02  0.98385881931E+02 -0.88149622973E+02  0.15402936210E+03  0.00000000000E+00 0. -1.
         22    1    3    3    0    0  0.34879892677E+02  0.55653356444E+02 -0.12067592331E+03  0.13739207206E+03  0.00000000000E+00 0. -1.
</event>
<event>
 7    1  0.5931885E-006  0.4524954E+02  0.7818608E-02  0.1477115E+00
          2   -1    0    0  502    0  0.00000000000E+00  0.00000000000E+00  0.31783000372E+04  0.31783000372E+04  0.00000000000E+00 0. -1.
          1   -1    0    0  501    0 -0.00000000000E+00 -0.00000000000E+00 -0.10794706615E+02  0.10794706615E+02  0.00000000000E+00 0. -1.
         25    2    1    2    0    0  0.15463503355E+02  0.47845870306E+01  0.55593734153E+03  0.57004593147E+03  0.12499609622E+03 0.  0.
          2    1    1    2  501    0  0.12171404069E+02 -0.42156665928E+02  0.13312182840E+03  0.14016686041E+03  0.00000000000E+00 0. -1.
          1    1    1    2  502    0 -0.27634907424E+02  0.37372078897E+02  0.24784461607E+04  0.24788819520E+04  0.00000000000E+00 0. -1.
         22    1    3    3    0    0  0.46616882582E+02  0.22700814489E+02  0.99531217663E+02  0.11222710907E+03  0.00000000000E+00 0.  1.
         22    1    3    3    0    0 -0.31153379227E+02 -0.17916227458E+02  0.45640612386E+03  0.45781882240E+03  0.00000000000E+00 0.  1.
</event>
<event>
 7    1  0.5931885E-006  0.7831044E+02  0.7818608E-02  0.1337631E+00
          2   -1    0    0  502    0  0.00000000000E+00  0.00000000000E+00  0.11407810735E+04  0.11407810735E+04  0.00000000000E+00 0. -1.
          1   -1    0    0  501    0 -0.00000000000E+00 -0.00000000000E+00 -0.66915733466E+03  0.66915733466E+03  0.00000000000E+00 0. -1.
         25    2    1    2    0    0  0.72062117873E+02 -0.58212471325E+02 -0.26189457372E+02  0.15777392243E+03  0.12500032909E+03 0.  0.
          2    1    1    2  501    0 -0.73014986207E+02 -0.20412679169E+02 -0.57323853381E+03  0.57823030216E+03  0.00000000000E+00 0. -1.
          1    1    1    2  502    0  0.95286833405E+00  0.78625150494E+02  0.10710517301E+04  0.10739341836E+04  0.00000000000E+00 0. -1.
         22    1    3    3    0    0 -0.74020836634E+01 -0.22552495277E+02  0.41267956865E+02  0.47607248919E+02  0.00000000000E+00 0. -1.
         22    1    3    3    0    0  0.79464201536E+02 -0.35659976048E+02 -0.67457414238E+02  0.11016667351E+03  0.00000000000E+00 0. -1.
</event>
<event>
 7    1  0.5931885E-006  0.9371832E+02  0.7818608E-02  0.1361793E+00
          2   -1    0    0  502    0  0.00000000000E+00  0.00000000000E+00  0.16462457465E+04  0.16462457465E+04  0.00000000000E+00 0. -1.
          1   -1    0    0  501    0 -0.00000000000E+00 -0.00000000000E+00 -0.26007386791E+02  0.26007386791E+02  0.00000000000E+00 0. -1.
         25    2    1    2    0    0  0.95316011841E+02 -0.16934382651E+02  0.13857809945E+04  0.13947707123E+04  0.12499783966E+03 0.  0.
          2    1    1    2  501    0 -0.23498736031E+02 -0.45875667134E+02  0.64376712499E+02  0.82468955021E+02  0.00000000000E+00 0. -1.
          1    1    1    2  502    0 -0.71817275809E+02  0.62810049785E+02  0.17008065271E+03  0.19501346591E+03  0.00000000000E+00 0. -1.
         22    1    3    3    0    0  0.16712286651E+01  0.44940419405E+02  0.46664679984E+03  0.46880877776E+03  0.00000000000E+00 0.  1.
         22    1    3    3    0    0  0.93644783176E+02 -0.61874802056E+02  0.91913419464E+03  0.92596193458E+03  0.00000000000E+00 0.  1.
</event>
<event>
 7    1  0.5931885E-006  0.1664880E+03  0.7818608E-02  0.1382051E+00
          2   -1    0    0  502    0  0.00000000000E+00  0.00000000000E+00  0.11449156277E+04  0.11449156277E+04  0.00000000000E+00 0. -1.
          1   -1    0    0  501    0 -0.00000000000E+00 -0.00000000000E+00 -0.15855564890E+04  0.15855564890E+04  0.00000000000E+00 0. -1.
         25    2    1    2    0    0  0.15384027852E+03  0.11032264122E+03 -0.11026641405E+02  0.22712008523E+03  0.12499611927E+03 0.  0.
          2    1    1    2  501    0 -0.13115260314E+03 -0.10095167373E+03 -0.14616670063E+04  0.14710073702E+04  0.00000000000E+00 0. -1.
          1    1    1    2  502    0 -0.22687675386E+02 -0.93709674816E+01  0.10320527864E+04  0.10323446613E+04  0.00000000000E+00 0. -1.
         22    1    3    3    0    0  0.10049377054E+03  0.10306542053E+03  0.43614452233E+02  0.15041176573E+03  0.00000000000E+00 0. -1.
         22    1    3    3    0    0  0.53346507980E+02  0.72572206830E+01 -0.54641093638E+02  0.76708319495E+02  0.00000000000E+00 0. -1.
</event>
<event>
 7    1  0.5931885E-006  0.1138455E+03  0.7818608E-02  0.1411899E+00
          2   -1    0    0  502    0  0.00000000000E+00  0.00000000000E+00  0.76112924428E+03  0.76112924428E+03  0.00000000000E+00 0. -1.
          1   -1    0    0  501    0 -0.00000000000E+00 -0.00000000000E+00 -0.17591481567E+04  0.17591481567E+04  0.00000000000E+00 0. -1.
         25    2    1    2    0    0 -0.11856581029E+02  0.88396901767E+02 -0.37446948247E+03  0.40473235587E+03  0.12500518321E+03 0.  0.
          2    1    1    2  501    0 -0.18166415695E+02  0.21713980933E+02 -0.13650343773E+04  0.13653279338E+04  0.00000000000E+00 0. -1.
          1    1    1    2  502    0  0.30022996724E+02 -0.11011088270E+03  0.74148494740E+03  0.75021711127E+03  0.00000000000E+00 0. -1.
         22    1    3    3    0    0  0.21840157605E+02 -0.25308216822E+02 -0.10821323053E+03  0.11325900222E+03  0.00000000000E+00 0. -1.
         22    1    3    3    0    0 -0.33696738634E+02  0.11370511859E+03 -0.26625625194E+03  0.29147335365E+03  0.00000000000E+00 0. -1.
</event>
<event>
 7    1  0.5931885E-006  0.5974025E+02  0.7818608E-02  0.1499271E+00
          2   -1    0    0  502    0  0.00000000000E+00  0.00000000000E+00  0.26823401631E+03  0.26823401631E+03  0.00000000000E+00 0. -1.
          1   -1    0    0  501    0 -0.00000000000E+00 -0.00000000000E+00 -0.29479632520E+03  0.29479632520E+03  0.00000000000E+00 0. -1.
         25    2    1    2    0    0 -0.21985792974E+02 -0.67825105162E+02 -0.88302971638E+02  0.16882987533E+03  0.12498996768E+03 0.  0.
          2    1    1    2  501    0  0.38433845122E+02  0.44586423903E+02 -0.16008008542E+03  0.17056008735E+03  0.00000000000E+00 0. -1.
          1    1    1    2  502    0 -0.16448052148E+02  0.23238681259E+02  0.22182074817E+03  0.22364037883E+03  0.00000000000E+00 0. -1.
         22    1    3    3    0    0 -0.32726265895E+02 -0.90765513513E+02 -0.23577085065E+02  0.99324044737E+02  0.00000000000E+00 0.  1.
         22    1    3    3    0    0  0.10740472921E+02  0.22940408351E+02 -0.64725886572E+02  0.69505830593E+02  0.00000000000E+00 0.  1.
</event>
<event>
 7    1  0.5931885E-006  0.7039915E+02  0.7818608E-02  0.1374903E+00
          2   -1    0    0  502    0  0.00000000000E+00  0.00000000000E+00  0.77158457175E+02  0.77158457175E+02  0.00000000000E+00 0. -1.
          1   -1    0    0  501    0 -0.00000000000E+00 -0.00000000000E+00 -0.10309946725E+04  0.10309946725E+04  0.00000000000E+00 0. -1.
         25    2    1    2    0    0  0.35126990279E+02  0.30686155526E+02 -0.20883512773E+03  0.24781641032E+03  0.12500126825E+03 0.  0.
          2    1    1    2  501    0  0.37755937185E+02 -0.48602097458E+02 -0.77650504429E+03  0.77894015077E+03  0.00000000000E+00 0. -1.
          1    1    1    2  502    0 -0.72882927465E+02  0.17915941933E+02  0.31503956691E+02  0.81396568591E+02  0.00000000000E+00 0. -1.
         22    1    3    3    0    0 -0.43736466169E+01  0.40947249843E+02 -0.68457438711E+01  0.41745302294E+02  0.00000000000E+00 0. -1.
         22    1    3    3    0    0  0.39500636896E+02 -0.10261094317E+02 -0.20198938386E+03  0.20607110803E+03  0.00000000000E+00 0. -1.
</event>
<event>
 7    1  0.5931885E-006  0.1086981E+03  0.7818608E-02  0.1337817E+00
          2   -1    0    0  502    0  0.00000000000E+00  0.00000000000E+00  0.70800412529E+03  0.70800412529E+03  0.00000000000E+00 0. -1.
          1   -1    0    0  501    0 -0.00000000000E+00 -0.00000000000E+00 -0.13840548179E+04  0.13840548179E+04  0.00000000000E+00 0. -1.
         25    2    1    2    0    0  0.16995399679E+02 -0.63475036791E+02 -0.72303251264E+02  0.15865194613E+03  0.12499902385E+03 0.  0.
          2    1    1    2  501    0 -0.28471560168E+02 -0.46508367795E+02 -0.12633868028E+04  0.12645631149E+04  0.00000000000E+00 0. -1.
          1    1    1    2  502    0  0.11476160489E+02  0.10998340459E+03  0.65963936146E+03  0.66884388218E+03  0.00000000000E+00 0. -1.
         22    1    3    3    0    0  0.19010368989E+01  0.29458555100E+02 -0.55712396361E+02  0.63049912912E+02  0.00000000000E+00 0.  1.
         22    1    3    3    0    0  0.15094362780E+02 -0.92933591891E+02 -0.16590854903E+02  0.95602033221E+02  0.00000000000E+00 0.  1.
</event>
<event>
 7    1  0.5931885E-006  0.8051456E+02  0.7818608E-02  0.1388928E+00
          2   -1    0    0  502    0  0.00000000000E+00  0.00000000000E+00  0.83125859426E+03  0.83125859426E+03  0.00000000000E+00 0. -1.
          1   -1    0    0  501    0 -0.00000000000E+00 -0.00000000000E+00 -0.52854603928E+03  0.52854603928E+03  0.00000000000E+00 0. -1.
         25    2    1    2    0    0 -0.11689307805E+02  0.11539763428E+03  0.41305969621E+02  0.17543640506E+03  0.12497397801E+03 0.  0.
          2    1    1    2  501    0 -0.21315061734E+02 -0.43020715003E+02 -0.45803395261E+03  0.46054339157E+03  0.00000000000E+00 0. -1.
          1    1    1    2  502    0  0.33004369540E+02 -0.72376919279E+02  0.71944053797E+03  0.72382483691E+03  0.00000000000E+00 0. -1.
         22    1    3    3    0    0  0.31415593081E+02 -0.48871378687E+01  0.35319120329E+02  0.47521193861E+02  0.00000000000E+00 0. -1.
         22    1    3    3    0    0 -0.43104900886E+02  0.12028477215E+03  0.59868492916E+01  0.12791521120E+03  0.00000000000E+00 0. -1.
</event>
<event>
 7    1  0.5931885E-006  0.1481453E+03  0.7818608E-02  0.1348512E+00
          2   -1    0    0  502    0  0.00000000000E+00  0.00000000000E+00  0.13472050524E+04  0.13472050524E+04  0.00000000000E+00 0. -1.
          1   -1    0    0  501    0 -0.00000000000E+00 -0.00000000000E+00 -0.12651826000E+04  0.12651826000E+04  0.00000000000E+00 0. -1.
         25    2    1    2    0    0  0.26695688040E+02 -0.13021001786E+03  0.36677651602E+03  0.40965561879E+03  0.12500161915E+03 0.  0.
          2    1    1    2  501    0  0.35104193274E+02 -0.99497608568E+01 -0.12373555542E+04  0.12378934000E+04  0.00000000000E+00 0. -1.
          1    1    1    2  502    0 -0.61799881314E+02  0.14015977872E+03  0.95260149068E+03  0.96483863363E+03  0.00000000000E+00 0. -1.
         22    1    3    3    0    0  0.77104424839E+02 -0.77305001731E+02  0.22912397881E+03  0.25380889127E+03  0.00000000000E+00 0.  1.
         22    1    3    3    0    0 -0.50408736799E+02 -0.52905016127E+02  0.13765253720E+03  0.15584672751E+03  0.00000000000E+00 0.  1.
</event>
<event>
 7    1  0.5931885E-006  0.7682644E+02  0.7818608E-02  0.1438378E+00
          2   -1    0    0  502    0  0.00000000000E+00  0.00000000000E+00  0.12161690476E+03  0.12161690476E+03  0.00000000000E+00 0. -1.
          1   -1    0    0  501    0 -0.00000000000E+00 -0.00000000000E+00 -0.21008243672E+04  0.21008243672E+04  0.00000000000E+00 0. -1.
         25    2    1    2    0    0  0.39207506973E+02  0.10334044451E+03 -0.75885496640E+03  0.77698688264E+03  0.12502511623E+03 0.  0.
          2    1    1    2  501    0 -0.12592896010E+02 -0.31877068671E+02 -0.13197382102E+04  0.13201831964E+04  0.00000000000E+00 0. -1.
          1    1    1    2  502    0 -0.26614610963E+02 -0.71463375842E+02  0.99385714154E+02  0.12527119294E+03  0.00000000000E+00 0. -1.
         22    1    3    3    0    0  0.50965464120E+02  0.10782835901E+03 -0.75419427818E+03  0.76356626614E+03  0.00000000000E+00 0. -1.
         22    1    3    3    0    0 -0.11757957147E+02 -0.44879144924E+01 -0.46606882238E+01  0.13420616509E+02  0.00000000000E+00 0. -1.
</event>
<event>
 7    1  0.5931885E-006  0.3156403E+02  0.7818608E-02  0.1582079E+00
          2   -1    0    0  502    0  0.00000000000E+00  0.00000000000E+00  0.25783656541E+04  0.25783656541E+04  0.00000000000E+00 0. -1.
          1   -1    0    0  501    0 -0.00000000000E+00 -0.00000000000E+00 -0.10607439068E+02  0.10607439068E+02  0.00000000000E+00 0. -1.
         25    2    1    2    0    0  0.31890825786E+02  0.81615366858E+01  0.19340987943E+04  0.19384154884E+04  0.12503129274E+03 0.  0.
          2    1    1    2  501    0 -0.20743476076E+02  0.23790672620E+02  0.23229891164E+02  0.39190760990E+02  0.00000000000E+00 0. -1.
          1    1    1    2  502    0 -0.11147349709E+02 -0.31952209306E+02  0.61042952963E+03  0.61136684383E+03  0.00000000000E+00 0. -1.
         22    1    3    3    0    0 -0.18678694912E+02 -0.20602019041E+02  0.11243690121E+03  0.11582484011E+03  0.00000000000E+00 0. -1.
         22    1    3    3    0    0  0.50569520698E+02  0.28763555727E+02  0.18216618931E+04  0.18225906483E+04  0.00000000000E+00 0. -1.
</event>
<event>
 7    1  0.5931885E-006  0.6362070E+02  0.7818608E-02  0.1538436E+00
          2   -1    0    0  502    0  0.00000000000E+00  0.00000000000E+00  0.49204422826E+03  0.49204422826E+03  0.00000000000E+00 0. -1.
          1   -1    0    0  501    0 -0.00000000000E+00 -0.00000000000E+00 -0.62293965901E+02  0.62293965901E+02  0.00000000000E+00 0. -1.
         25    2    1    2    0    0 -0.40531760241E+02  0.43107341497E+02  0.37485977868E+03  0.39955673560E+03  0.12499865927E+03 0.  0.
          2    1    1    2  501    0 -0.18946365199E+02 -0.79980179708E+01 -0.35498445999E+02  0.41025269214E+02  0.00000000000E+00 0. -1.
          1    1    1    2  502    0  0.59478125440E+02 -0.35109323527E+02  0.90388929683E+02  0.11375618934E+03  0.00000000000E+00 0. -1.
         22    1    3    3    0    0  0.25486289666E+02 -0.34290596333E+01  0.13044123247E+02  0.28835023187E+02  0.00000000000E+00 0.  1.
         22    1    3    3    0    0 -0.66018049908E+02  0.46536401131E+02  0.36181565543E+03  0.37072171242E+03  0.00000000000E+00 0.  1.
</event>
<event>
 7    1  0.5931885E-006  0.1157783E+03  0.7818608E-02  0.1404406E+00
          2   -1    0    0  502    0  0.00000000000E+00  0.00000000000E+00  0.14372979395E+04  0.14372979395E+04  0.00000000000E+00 0. -1.
          1   -1    0    0  501    0 -0.00000000000E+00 -0.00000000000E+00 -0.47950547310E+03  0.47950547310E+03  0.00000000000E+00 0. -1.
         25    2    1    2    0    0  0.88131243862E+02 -0.46618061148E+02  0.38747514499E+03  0.41916704847E+03  0.12499466695E+03 0.  0.
          2    1    1    2  501    0 -0.87670716009E+02  0.76133819938E+02 -0.45617439176E+03  0.47072028709E+03  0.00000000000E+00 0. -1.
          1    1    1    2  502    0 -0.46052785340E+00 -0.29515758790E+02  0.10264917132E+04  0.10269160770E+04  0.00000000000E+00 0. -1.
         22    1    3    3    0    0  0.65421356576E+02 -0.82584833953E+02  0.33738494421E+03  0.35345269737E+03  0.00000000000E+00 0. -1.
         22    1    3    3    0    0  0.22709887286E+02  0.35966772806E+02  0.50090200777E+02  0.65714351100E+02  0.00000000000E+00 0. -1.
</event>
<event>
 7    1  0.5931885E-006  0.9557297E+02  0.7818608E-02  0.1417076E+00
          2   -1    0    0  502    0  0.00000000000E+00  0.00000000000E+00  0.15395616701E+04  0.15395616701E+04  0.00000000000E+00 0. -1.
          1   -1    0    0  501    0 -0.00000000000E+00 -0.00000000000E+00 -0.18550963193E+03  0.18550963193E+03  0.00000000000E+00 0. -1.
         25    2    1    2    0    0 -0.80798801710E+02 -0.83137766545E+02  0.26434833953E+03  0.31455639230E+03  0.12500137897E+03 0.  0.
          2    1    1    2  501    0  0.48447829015E+02  0.81406910052E+02 -0.14618794424E+03  0.17419871464E+03  0.00000000000E+00 0. -1.
          1    1    1    2  502    0  0.32350972695E+02  0.17308564927E+01  0.12358916429E+04  0.12363161951E+04  0.00000000000E+00 0. -1.
         22    1    3    3    0    0  0.30208399060E+02 -0.27329884267E+02  0.10408030922E+03  0.11176842450E+03  0.00000000000E+00 0.  1.
         22    1    3    3    0    0 -0.11100720077E+03 -0.55807882277E+02  0.16026803031E+03  0.20278796780E+03  0.00000000000E+00 0.  1.
</event>
<event>
 7    1  0.5931885E-006  0.1081173E+03  0.7818608E-02  0.1293418E+00
          2   -1    0    0  502    0  0.00000000000E+00  0.00000000000E+00  0.17473265167E+04  0.17473265167E+04  0.00000000000E+00 0. -1.
          1   -1    0    0  501    0 -0.00000000000E+00 -0.00000000000E+00 -0.19516807600E+04  0.19516807600E+04  0.00000000000E+00 0. -1.
         25    2    1    2    0    0 -0.62856735899E+02  0.34028910072E+02 -0.98133934692E+01  0.14432835362E+03  0.12500173999E+03 0.  0.
          2    1    1    2  501    0  0.25237777440E+02 -0.10660437234E+03 -0.18720132013E+04  0.18752159512E+04  0.00000000000E+00 0. -1.
          1    1    1    2  502    0  0.37618958459E+02  0.72575462267E+02  0.16774723515E+04  0.16794629718E+04  0.00000000000E+00 0. -1.
         22    1    3    3    0    0 -0.42765311291E+02  0.79900114374E+02  0.84627920066E+01  0.91019332976E+02  0.00000000000E+00 0. -1.
         22    1    3    3    0    0 -0.20091424608E+02 -0.45871204302E+02 -0.18276185476E+02  0.53309020648E+02  0.00000000000E+00 0. -1.
</event>
<event>
 7    1  0.5931885E-006  0.7715426E+02  0.7818608E-02  0.1407039E+00
          2   -1    0    0  502    0  0.00000000000E+00  0.00000000000E+00  0.42305374698E+03  0.42305374698E+03  0.00000000000E+00 0. -1.
          1   -1    0    0  501    0 -0.00000000000E+00 -0.00000000000E+00 -0.34558582259E+03  0.34558582259E+03  0.00000000000E+00 0. -1.
         25    2    1    2    0    0 -0.97454337819E+02  0.24855685359E+02 -0.85070214133E+02  0.18159497338E+03  0.12499855987E+03 0.  0.
          2    1    1    2  501    0  0.21801231931E+02 -0.37515697609E+02 -0.20604522007E+03  0.21056437019E+03  0.00000000000E+00 0. -1.
          1    1    1    2  502    0  0.75653105888E+02  0.12660012250E+02  0.36858335859E+03  0.37648022600E+03  0.00000000000E+00 0. -1.
         22    1    3    3    0    0 -0.11175332987E+03  0.39157678186E+02 -0.28894047494E+02  0.12188927959E+03  0.00000000000E+00 0.  1.
         22    1    3    3    0    0  0.14298992054E+02 -0.14301992828E+02 -0.56176166639E+02  0.59705693789E+02  0.00000000000E+00 0.  1.
</event>
<event>
 7    1  0.5931885E-006  0.1695979E+03  0.7818608E-02  0.1264624E+00
          2   -1    0    0  502    0  0.00000000000E+00  0.00000000000E+00  0.22386710138E+04  0.22386710138E+04  0.00000000000E+00 0. -1.
          1   -1    0    0  501    0 -0.00000000000E+00 -0.00000000000E+00 -0.24865455826E+04  0.24865455826E+04  0.00000000000E+00 0. -1.
         25    2    1    2    0    0  0.20732465787E+03 -0.11454048184E+03  0.81905704120E+02  0.28006469458E+03  0.12499861216E+03 0.  0.
          2    1    1    2  501    0 -0.14527805406E+03  0.85349494048E+02 -0.23839204449E+04  0.23898675563E+04  0.00000000000E+00 0. -1.
          1    1    1    2  502    0 -0.62046603809E+02  0.29190987790E+02  0.20541401719E+04  0.20552843455E+04  0.00000000000E+00 0. -1.
         22    1    3    3    0    0  0.63770272556E+02 -0.10197017408E+03  0.59663431990E+02  0.13425456856E+03  0.00000000000E+00 0. -1.
         22    1    3    3    0    0  0.14355438531E+03 -0.12570307763E+02  0.22242272130E+02  0.14581012602E+03  0.00000000000E+00 0. -1.
</event>
<event>
 7    1  0.5931885E-006  0.2903697E+02  0.7818608E-02  0.1650704E+00
          2   -1    0    0  502    0  0.00000000000E+00  0.00000000000E+00  0.19499399330E+03  0.19499399330E+03  0.00000000000E+00 0. -1.
          1   -1    0    0  501    0 -0.00000000000E+00 -0.00000000000E+00 -0.54832519388E+03  0.54832519388E+03  0.00000000000E+00 0. -1.
         25    2    1    2    0    0  0.26093801006E+01  0.35067158631E+02  0.29667358330E+02  0.13319851536E+03  0.12500071146E+03 0.  0.
          2    1    1    2  501    0  0.17770827432E+02 -0.14289521098E+02 -0.49442772870E+03  0.49495330248E+03  0.00000000000E+00 0. -1.
          1    1    1    2  502    0 -0.20380207533E+02 -0.20777637534E+02  0.11142916979E+03  0.11516736934E+03  0.00000000000E+00 0. -1.
         22    1    3    3    0    0  0.55032722578E+02  0.48476881388E+02  0.43786995946E+01  0.73469596389E+02  0.00000000000E+00 0. -1.
         22    1    3    3    0    0 -0.52423342478E+02 -0.13409722756E+02  0.25288658735E+02  0.59728918972E+02  0.00000000000E+00 0. -1.
</event>
<event>
 7    1  0.5931885E-006  0.7472834E+02  0.7818608E-02  0.1365081E+00
          2   -1    0    0  502    0  0.00000000000E+00  0.00000000000E+00  0.29197822937E+03  0.29197822937E+03  0.00000000000E+00 0. -1.
          1   -1    0    0  501    0 -0.00000000000E+00 -0.00000000000E+00 -0.55811433946E+03  0.55811433946E+03  0.00000000000E+00 0. -1.
         25    2    1    2    0    0  0.77662068710E+01 -0.93291075493E+02 -0.74889412336E+02  0.17319294657E+03  0.12499533562E+03 0.  0.
          2    1    1    2  501    0 -0.54621355243E+02  0.51342214966E+02 -0.42667809262E+03  0.43321323873E+03  0.00000000000E+00 0. -1.
          1    1    1    2  502    0  0.46855148372E+02  0.41948860527E+02  0.23543139487E+03  0.24368638353E+03  0.00000000000E+00 0. -1.
         22    1    3    3    0    0  0.32407204170E+02 -0.68787627396E+02 -0.10332655275E+03  0.12829006613E+03  0.00000000000E+00 0. -1.
         22    1    3    3    0    0 -0.24640997299E+02 -0.24503448097E+02  0.28437140418E+02  0.44902880438E+02  0.00000000000E+00 0. -1.
</event>
<event>
 7    1  0.5931885E-006  0.1274812E+03  0.7818608E-02  0.1235412E+00
          2   -1    0    0  502    0  0.00000000000E+00  0.00000000000E+00  0.98107961499E+03  0.98107961499E+03  0.00000000000E+00 0. -1.
          1   -1    0    0  501    0 -0.00000000000E+00 -0.00000000000E+00 -0.81669570951E+03  0.81669570951E+03  0.00000000000E+00 0. -1.
         25    2    1    2    0    0  0.18419390074E+02 -0.14715638188E+03 -0.78042809522E+02  0.20907178649E+03  0.12500422844E+03 0.  0.
          2    1    1    2  501    0  0.91649907905E+02  0.80734061801E+02 -0.66301993801E+03  0.67417589140E+03  0.00000000000E+00 0. -1.
          1    1    1    2  502    0 -0.11006929798E+03  0.66422320083E+02  0.90544665301E+03  0.91452764660E+03  0.00000000000E+00 0. -1.
         22    1    3    3    0    0  0.53422010145E+02 -0.53285063562E+02  0.94726048512E+01  0.76045640305E+02  0.00000000000E+00 0.  1.
         22    1    3    3    0    0 -0.35002620072E+02 -0.93871318322E+02 -0.87515414373E+02  0.13302614618E+03  0.00000000000E+00 0.  1.
</event>
<event>
 7    1  0.5931885E-006  0.7502317E+02  0.7818608E-02  0.1421131E+00
          2   -1    0    0  502    0  0.00000000000E+00  0.00000000000E+00  0.37900526764E+03  0.37900526764E+03  0.00000000000E+00 0. -1.
          1   -1    0    0  501    0 -0.00000000000E+00 -0.00000000000E+00 -0.57072481025E+03  0.57072481025E+03  0.00000000000E+00 0. -1.
         25    2    1    2    0    0 -0.76661708685E+01 -0.40494120445E+02 -0.82868979999E+01  0.13188017322E+03  0.12500065378E+03 0.  0.
          2    1    1    2  501    0  0.37834068072E+02  0.66763834214E+02 -0.49642014832E+03  0.50231642410E+03  0.00000000000E+00 0. -1.
          1    1    1    2  502    0 -0.30167897203E+02 -0.26269713769E+02  0.31298750370E+03  0.31553348056E+03  0.00000000000E+00 0. -1.
         22    1    3    3    0    0 -0.10973434217E+01 -0.59380847444E+02 -0.55075574511E+02  0.80997580911E+02  0.00000000000E+00 0.  1.
         22    1    3    3    0    0 -0.65688274468E+01  0.18886726999E+02  0.46788676511E+02  0.50882592312E+02  0.00000000000E+00 0.  1.
</event>
<event>
 7    1  0.5931885E-006  0.5928508E+02  0.7818608E-02  0.1507332E+00
          2   -1    0    0  502    0  0.00000000000E+00  0.00000000000E+00  0.89617396749E+02  0.89617396749E+02  0.00000000000E+00 0. -1.
          1   -1    0    0  501    0 -0.00000000000E+00 -0.00000000000E+00 -0.23418900665E+03  0.23418900665E+03  0.00000000000E+00 0. -1.
         25    2    1    2    0    0  0.39074521307E+02 -0.62678809646E+02 -0.79749463506E+02  0.16565554759E+03  0.12500532838E+03 0.  0.
          2    1    1    2  501    0  0.57717763814E+01  0.26529511705E+02 -0.90938646574E+02  0.94905035876E+02  0.00000000000E+00 0. -1.
          1    1    1    2  502    0 -0.44846297689E+02  0.36149297941E+02  0.26116500177E+02  0.63245819937E+02  0.00000000000E+00 0. -1.
         22    1    3    3    0    0  0.39384826997E+02 -0.99340385526E+02 -0.47967341975E+02  0.11713472026E+03  0.00000000000E+00 0.  1.
         22    1    3    3    0    0 -0.31030568914E+00  0.36661575880E+02 -0.31782121531E+02  0.48520827328E+02  0.00000000000E+00 0.  1.
</event>
<event>
 7    1  0.5931885E-006  0.9254438E+02  0.7818608E-02  0.1406905E+00
          2   -1    0    0  502    0  0.00000000000E+00  0.00000000000E+00  0.50983075705E+03  0.50983075705E+03  0.00000000000E+00 0. -1.
          1   -1    0    0  501    0 -0.00000000000E+00 -0.00000000000E+00 -0.24112825822E+04  0.24112825822E+04  0.00000000000E+00 0. -1.
         25    2    1    2    0    0  0.40478418944E+02 -0.66295725047E+02  0.23683413317E+03  0.27883272377E+03  0.12499462249E+03 0.  0.
          2    1    1    2  501    0 -0.16966867247E+02 -0.31991805515E+02 -0.23800077255E+04  0.23802832024E+04  0.00000000000E+00 0. -1.
          1    1    1    2  502    0 -0.23511551697E+02  0.98287530562E+02  0.24172176718E+03  0.26199741307E+03  0.00000000000E+00 0. -1.
         22    1    3    3    0    0  0.15157734087E+02 -0.88863719715E+02  0.22585618829E+03  0.24318210332E+03  0.00000000000E+00 0.  1.
         22    1    3    3    0    0  0.25320684857E+02  0.22567994668E+02  0.10977944881E+02  0.35650620455E+02  0.00000000000E+00 0.  1.
</event>
<event>
 7    1  0.5931885E-006  0.1148620E+03  0.7818608E-02  0.1429311E+00
          2   -1    0    0  502    0  0.00000000000E+00  0.00000000000E+00  0.12172082104E+04  0.12172082104E+04  0.00000000000E+00 0. -1.
          1   -1    0    0  501    0 -0.00000000000E+00 -0.00000000000E+00 -0.95013703447E+03  0.95013703447E+03  0.00000000000E+00 0. -1.
         25    2    1    2    0    0 -0.46025888981E+02 -0.88162548775E+02 -0.48530614506E+02  0.16695229806E+03  0.12500732706E+03 0.  0.
          2    1    1    2  501    0  0.70217234533E+02  0.92323365505E+02 -0.83827162962E+03  0.84625846458E+03  0.00000000000E+00 0. -1.
          1    1    1    2  502    0 -0.24191345553E+02 -0.41608167301E+01  0.11538734200E+04  0.11541344822E+04  0.00000000000E+00 0. -1.
         22    1    3    3    0    0 -0.63163450087E+02 -0.36154990061E+01  0.80635928250E+01  0.63778638973E+02  0.00000000000E+00 0. -1.
         22    1    3    3    0    0  0.17137561107E+02 -0.84547049769E+02 -0.56594207331E+02  0.10317365908E+03  0.00000000000E+00 0. -1.
</event>
<event>
 7    1  0.5931885E-006  0.1260353E+03  0.7818608E-02  0.1303330E+00
          2   -1    0    0  502    0  0.00000000000E+00  0.00000000000E+00  0.42716785636E+03  0.42716785636E+03  0.00000000000E+00 0. -1.
          1   -1    0    0  501    0 -0.00000000000E+00 -0.00000000000E+00 -0.16296529305E+04  0.16296529305E+04  0.00000000000E+00 0. -1.
         25    2    1    2    0    0  0.48792807262E+02  0.82078617516E+02 -0.54327634452E+02  0.16641537360E+03  0.12499978884E+03 0.  0.
          2    1    1    2  501    0  0.62394373902E+02 -0.14185075001E+02 -0.15071487199E+04  0.15085063931E+04  0.00000000000E+00 0. -1.
          1    1    1    2  502    0 -0.11118718116E+03 -0.67893542515E+02  0.35899128017E+03  0.38189902017E+03  0.00000000000E+00 0. -1.
         22    1    3    3    0    0  0.20592116009E+02  0.50685482653E+02 -0.93828263832E+02  0.10861305855E+03  0.00000000000E+00 0.  1.
         22    1    3    3    0    0  0.28200691253E+02  0.31393134863E+02  0.39500629380E+02  0.57802315049E+02  0.00000000000E+00 0.  1.
</event>
<event>
 7    1  0.5931885E-006  0.5177225E+02  0.7818608E-02  0.1470059E+00
          2   -1    0    0  502    0  0.00000000000E+00  0.00000000000E+00  0.41329137154E+02  0.41329137154E+02  0.00000000000E+00 0. -1.
          1   -1    0    0  501    0 -0.00000000000E+00 -0.00000000000E+00 -0.35390988120E+03  0.35390988120E+03  0.00000000000E+00 0. -1.
         25    2    1    2    0    0 -0.42811163116E+01 -0.13378816992E+02 -0.19644967326E+03  0.23326977357E+03  0.12499996975E+03 0.  0.
          2    1    1    2  501    0  0.53534025067E+02  0.29332402337E+02 -0.59611454615E+02  0.85321786128E+02  0.00000000000E+00 0. -1.
          1    1    1    2  502    0 -0.49252908756E+02 -0.15953585346E+02 -0.56519616168E+02  0.76647458653E+02  0.00000000000E+00 0. -1.
         22    1    3    3    0    0 -0.62690594695E+02 -0.13781617867E+02 -0.12868778816E+03  0.14380747712E+03  0.00000000000E+00 0. -1.
         22    1    3    3    0    0  0.58409478383E+02  0.40280087553E+00 -0.67761885097E+02  0.89462296446E+02  0.00000000000E+00 0. -1.
</event>
<event>
 7    1  0.5931885E-006  0.1070277E+03  0.7818608E-02  0.1385750E+00
          2   -1    0    0  502    0  0.00000000000E+00  0.00000000000E+00  0.12992542363E+04  0.12992542363E+04  0.00000000000E+00 0. -1.
          1   -1    0    0  501    0 -0.00000000000E+00 -0.00000000000E+00 -0.11901154151E+03  0.11901154151E+03  0.00000000000E+00 0. -1.
         25    2    1    2    0    0  0.99935802618E+02 -0.94190368675E+02  0.46161922532E+03  0.49757163773E+03  0.12500494105E+03 0.  0.
          2    1    1    2  501    0 -0.86988191997E+02  0.59470218455E+02 -0.73008894769E+02  0.12819497317E+03  0.00000000000E+00 0. -1.
          1    1    1    2  502    0 -0.12947610621E+02  0.34720150221E+02  0.79163236424E+03  0.79249916692E+03  0.00000000000E+00 0. -1.
         22    1    3    3    0    0  0.10395415479E+03 -0.27039181948E+02  0.36016415522E+03  0.37584012873E+03  0.00000000000E+00 0. -1.
         22    1    3    3    0    0 -0.40183521770E+01 -0.67151186727E+02  0.10145507010E+03  0.12173150900E+03  0.00000000000E+00 0. -1.
</event>
<event>
 7    1  0.5931885E-006  0.7614023E+02  0.7818608E-02  0.1441209E+00
          2   -1    0    0  502    0  0.00000000000E+00  0.00000000000E+00  0.56689198760E+03  0.56689198760E+03  0.00000000000E+00 0. -1.
          1   -1    0    0  501    0 -0.00000000000E+00 -0.00000000000E+00 -0.44647760684E+03  0.44647760684E+03  0.00000000000E+00 0. -1.
         25    2    1    2    0    0  0.94913609710E+01 -0.60342833822E+02  0.54664582150E+02  0.14948108433E+03  0.12500013802E+03 0.  0.
          2    1    1    2  501    0  0.21576839533E+02  0.73804258256E+02 -0.39473799912E+03  0.40215757669E+03  0.00000000000E+00 0. -1.
          1    1    1    2  502    0 -0.31068200504E+02 -0.13461424434E+02  0.46048779773E+03  0.46173093343E+03  0.00000000000E+00 0. -1.
         22    1    3    3    0    0  0.26143701132E+02 -0.37550979517E+02  0.91956352256E+02  0.10271095312E+03  0.00000000000E+00 0. -1.
         22    1    3    3    0    0 -0.16652340161E+02 -0.22791854306E+02 -0.37291770105E+02  0.46770131207E+02  0.00000000000E+00 0. -1.
</event>
<event>
 7    1  0.5931885E-006  0.3515799E+02  0.7818608E-02  0.1604463E+00
          2   -1    0    0  502    0  0.00000000000E+00  0.00000000000E+00  0.51462472517E+03  0.51462472517E+03  0.00000000000E+00 0. -1.
          1   -1    0    0  501    0 -0.00000000000E+00 -0.00000000000E+00 -0.17501413192E+03  0.17501413192E+03  0.00000000000E+00 0. -1.
         25    2    1    2    0    0 -0.23873807298E+02 -0.12654422893E+02  0.21060672939E+03  0.24639358767E+03  0.12499804993E+03 0.  0.
          2    1    1    2  501    0  0.33891301698E+02 -0.98542130257E+01 -0.15459776038E+03  0.15857551311E+03  0.00000000000E+00 0. -1.
          1    1    1    2  502    0 -0.10017494400E+02  0.22508635918E+02  0.28360162424E+03  0.28466975631E+03  0.00000000000E+00 0. -1.
         22    1    3    3    0    0  0.13734298242E+02 -0.30657389629E+02  0.19912575030E+01  0.33652215284E+02  0.00000000000E+00 0. -1.
         22    1    3    3    0    0 -0.37608105540E+02  0.18002966736E+02  0.20861547189E+03  0.21274137238E+03  0.00000000000E+00 0. -1.
</event>
<event>
 7    1  0.5931885E-006  0.8824665E+02  0.7818608E-02  0.1391518E+00
          2   -1    0    0  502    0  0.00000000000E+00  0.00000000000E+00  0.13077272831E+04  0.13077272831E+04  0.00000000000E+00 0. -1.
          1   -1    0    0  501    0 -0.00000000000E+00 -0.00000000000E+00 -0.25685732910E+02  0.25685732910E+02  0.00000000000E+00 0. -1.
         25    2    1    2    0    0 -0.29227698445E+02  0.11333756994E+03  0.54161293517E+03  0.56803980208E+03  0.12499992834E+03 0.  0.
          2    1    1    2  501    0  0.39074352786E+02 -0.71580066563E+02  0.13015283182E+03  0.15359124521E+03  0.00000000000E+00 0. -1.
          1    1    1    2  502    0 -0.98466543417E+01 -0.41757503378E+02  0.61027578324E+03  0.61178196876E+03  0.00000000000E+00 0. -1.
         22    1    3    3    0    0 -0.17568312023E+02  0.27008932139E+02  0.17361002615E+02  0.36599623146E+02  0.00000000000E+00 0. -1.
         22    1    3    3    0    0 -0.11659386421E+02  0.86328637801E+02  0.52425193255E+03  0.53144017893E+03  0.00000000000E+00 0. -1.
</event>
<event>
 7    1  0.5931885E-006  0.1113795E+03  0.7818608E-02  0.1315091E+00
          2   -1    0    0  502    0  0.00000000000E+00  0.00000000000E+00  0.15984462359E+04  0.15984462359E+04  0.00000000000E+00 0. -1.
          1   -1    0    0  501    0 -0.00000000000E+00 -0.00000000000E+00 -0.10398573240E+04  0.10398573240E+04  0.00000000000E+00 0. -1.
         25    2    1    2    0    0  0.75821616990E+02  0.91619919703E+02  0.81190649250E+02  0.19068412219E+03  0.12500154255E+03 0.  0.
          2    1    1    2  501    0 -0.13642860377E+02 -0.11079315827E+03 -0.98122056488E+03  0.98755002329E+03  0.00000000000E+00 0. -1.
          1    1    1    2  502    0 -0.62178756614E+02  0.19173238564E+02  0.14586188276E+04  0.14600694144E+04  0.00000000000E+00 0. -1.
         22    1    3    3    0    0  0.40412172713E+01  0.82005709456E+02  0.29315458133E+00  0.82105747424E+02  0.00000000000E+00 0.  1.
         22    1    3    3    0    0  0.71780399719E+02  0.96142102463E+01  0.80897494668E+02  0.10857837476E+03  0.00000000000E+00 0.  1.
</event>
<event>
 7    1  0.5931885E-006  0.1620457E+03  0.7818608E-02  0.1345009E+00
          2   -1    0    0  502    0  0.00000000000E+00  0.00000000000E+00  0.16377369473E+04  0.16377369473E+04  0.00000000000E+00 0. -1.
          1   -1    0    0  501    0 -0.00000000000E+00 -0.00000000000E+00 -0.34814388679E+03  0.34814388679E+03  0.00000000000E+00 0. -1.
         25    2    1    2    0    0 -0.17425409156E+03  0.87752313112E+02  0.57325124199E+03  0.61830892562E+03  0.12499593664E+03 0.  0.
          2    1    1    2  501    0  0.14527755008E+03 -0.69260388001E+02 -0.30542093602E+03  0.34523110530E+03  0.00000000000E+00 0. -1.
          1    1    1    2  502    0  0.28976541479E+02 -0.18491925111E+02  0.10217627546E+04  0.10223408032E+04  0.00000000000E+00 0. -1.
         22    1    3    3    0    0 -0.58004959384E+02 -0.75459299518E+00  0.32594887020E+03  0.33107070349E+03  0.00000000000E+00 0. -1.
         22    1    3    3    0    0 -0.11624913217E+03  0.88506906107E+02  0.24730237179E+03  0.28723822213E+03  0.00000000000E+00 0. -1.
</event>
<event>
 7    1  0.5931885E-006  0.6447570E+02  0.7818608E-02  0.1399574E+00
          2   -1    0    0  502    0  0.00000000000E+00  0.00000000000E+00  0.77922025826E+03  0.77922025826E+03  0.00000000000E+00 0. -1.
          1   -1    0    0  501    0 -0.00000000000E+00 -0.00000000000E+00 -0.37949967838E+03  0.37949967838E+03  0.00000000000E+00 0. -1.
         25    2    1    2    0    0 -0.60932138253E+02 -0.92303726714E+02 -0.14796416050E+02  0.16755921167E+03  0.12499780818E+03 0.  0.
          2    1    1    2  501    0  0.97020052630E+01  0.54207282904E+02 -0.28422377602E+03  0.28950943556E+03  0.00000000000E+00 0. -1.
          1    1    1    2  502    0  0.51230132990E+02  0.38096443809E+02  0.69874077194E+03  0.70165128941E+03  0.00000000000E+00 0. -1.
         22    1    3    3    0    0 -0.75948089193E+02 -0.42469167926E+02 -0.53990336625E+02  0.10240458449E+03  0.00000000000E+00 0. -1.
         22    1    3    3    0    0  0.15015950940E+02 -0.49834558788E+02  0.39193920576E+02  0.65154627175E+02  0.00000000000E+00 0. -1.
</event>
<event>
 7    1  0.5931885E-006  0.4238546E+02  0.7818608E-02  0.1501544E+00
          2   -1    0    0  502    0  0.00000000000E+00  0.00000000000E+00  0.11796929286E+04  0.11796929286E+04  0.00000000000E+00 0. -1.
          1   -1    0    0  501    0 -0.00000000000E+00 -0.00000000000E+00 -0.79755908598E+02  0.79755908598E+02  0.00000000000E+00 0. -1.
         25    2    1    2    0    0 -0.42417368358E+02 -0.17833097577E+02  0.66786655854E+03  0.68101976353E+03  0.12499970314E+03 0.  0.
          2    1    1    2  501    0  0.10553753457E+02  0.41188486820E+02 -0.66154488289E+02  0.78640253556E+02  0.00000000000E+00 0. -1.
          1    1    1    2  502    0  0.31863614901E+02 -0.23355389243E+02  0.49822494976E+03  0.49978882013E+03  0.00000000000E+00 0. -1.
         22    1    3    3    0    0  0.39917254423E+01 -0.59492755860E+02  0.46433950204E+03  0.46815221352E+03  0.00000000000E+00 0.  1.
         22    1    3    3    0    0 -0.46409093800E+02  0.41659658284E+02  0.20352705651E+03  0.21286755001E+03  0.00000000000E+00 0.  1.
</event>
<event>
 7    1  0.5931885E-006  0.4652572E+02  0.7818608E-02  0.1519969E+00
          2   -1    0    0  502    0  0.00000000000E+00  0.00000000000E+00  0.25408988280E+03  0.25408988280E+03  0.00000000000E+00 0. -1.
          1   -1    0    0  501    0 -0.00000000000E+00 -0.00000000000E+00 -0.61053028951E+03  0.61053028951E+03  0.00000000000E+00 0. -1.
         25    2    1    2    0    0 -0.15095926163E+02 -0.71848876345E+02 -0.28384048332E+03  0.31871936839E+03  0.12500587103E+03 0.  0.
          2    1    1    2  501    0  0.18747474430E+02  0.25648195911E+02 -0.30615148322E+03  0.30779543276E+03  0.00000000000E+00 0. -1.
          1    1    1    2  502    0 -0.36515482667E+01  0.46200680434E+02  0.23355155983E+03  0.23810537116E+03  0.00000000000E+00 0. -1.
         22    1    3    3    0    0  0.13803057411E+02 -0.10108838404E+03 -0.17787109930E+03  0.20505490422E+03  0.00000000000E+00 0.  1.
         22    1    3    3    0    0 -0.28898983574E+02  0.29239507695E+02 -0.10596938403E+03  0.11366446416E+03  0.00000000000E+00 0.  1.
</event>
<event>
 7    1  0.5931885E-006  0.1094918E+03  0.7818608E-02  0.1306503E+00
          2   -1    0    0  502    0  0.00000000000E+00  0.00000000000E+00  0.14591021768E+04  0.14591021768E+04  0.00000000000E+00 0. -1.
          1   -1    0    0  501    0 -0.00000000000E+00 -0.00000000000E+00 -0.26085586303E+03  0.26085586303E+03  0.00000000000E+00 0. -1.
         25    2    1    2    0    0  0.15326452127E+03 -0.24393915859E+02  0.25015869067E+03  0.31983181250E+03  0.12501176408E+03 0.  0.
          2    1    1    2  501    0 -0.63186720844E+02 -0.33562890249E+02 -0.21784007863E+03  0.22928874623E+03  0.00000000000E+00 0. -1.
          1    1    1    2  502    0 -0.90077800427E+02  0.57956806108E+02  0.11659277017E+04  0.11708374811E+04  0.00000000000E+00 0. -1.
         22    1    3    3    0    0  0.12522993351E+03 -0.69697366318E+02  0.20417867748E+03  0.24945779494E+03  0.00000000000E+00 0. -1.
         22    1    3    3    0    0  0.28034587765E+02  0.45303450459E+02  0.45980013184E+02  0.70374017557E+02  0.00000000000E+00 0. -1.
</event>
<event>
 7    1  0.5931885E-006  0.3657557E+02  0.7818608E-02  0.1600833E+00
          2   -1    0    0  502    0  0.00000000000E+00  0.00000000000E+00  0.51414265477E+02  0.51414265477E+02  0.00000000000E+00 0. -1.
          1   -1    0    0  501    0 -0.00000000000E+00 -0.00000000000E+00 -0.86633863438E+03  0.86633863438E+03  0.00000000000E+00 0. -1.
         25    2    1    2    0    0  0.38379261330E+02  0.45870654238E+01 -0.84027509076E+02  0.15550559389E+03  0.12500943397E+03 0.  0.
          2    1    1    2  501    0 -0.60372270558E+01 -0.23438259111E+02 -0.72372741472E+03  0.72413201208E+03  0.00000000000E+00 0. -1.
          1    1    1    2  502    0 -0.32342034274E+02  0.18851193688E+02 -0.71694451044E+01  0.38115293880E+02  0.00000000000E+00 0. -1.
         22    1    3    3    0    0  0.36386509822E+02 -0.54823607034E+02 -0.66453102341E+02  0.93518023911E+02  0.00000000000E+00 0. -1.
         22    1    3    3    0    0  0.19927515072E+01  0.59410672458E+02 -0.17574406734E+02  0.61987569984E+02  0.00000000000E+00 0. -1.
</event>
<event>
 7    1  0.5931885E-006  0.9779973E+02  0.7818608E-02  0.1289738E+00
          2   -1    0    0  502    0  0.00000000000E+00  0.00000000000E+00  0.16531141367E+04  0.16531141367E+04  0.00000000000E+00 0. -1.
          1   -1    0    0  501    0 -0.00000000000E+00 -0.00000000000E+00 -0.34333764003E+03  0.34333764003E+03  0.00000000000E+00 0. -1.
         25    2    1    2    0    0 -0.58588855187E+02 -0.46923045745E+02  0.27785421837E+03  0.31378688191E+03  0.12499925766E+03 0.  0.
          2    1    1    2  501    0  0.84358496108E+02 -0.49481632571E+02 -0.31613608793E+03  0.33091813779E+03  0.00000000000E+00 0. -1.
          1    1    1    2  502    0 -0.25769640921E+02  0.96404678316E+02  0.13480583662E+04  0.13517467570E+04  0.00000000000E+00 0. -1.
         22    1    3    3    0    0 -0.63910682791E+02 -0.78336454413E+01  0.47333668753E+02  0.79915064746E+02  0.00000000000E+00 0.  1.
         22    1    3    3    0    0  0.53218276038E+01 -0.39089400304E+02  0.23052054962E+03  0.23387181716E+03  0.00000000000E+00 0.  1.
</event>
<event>
 7    1  0.5931885E-006  0.3468108E+02  0.7818608E-02  0.1623157E+00
          2   -1    0    0  502    0  0.00000000000E+00  0.00000000000E+00  0.32482922204E+03  0.32482922204E+03  0.00000000000E+00 0. -1.
          1   -1    0    0  501    0 -0.00000000000E+00 -0.00000000000E+00 -0.13564093920E+03  0.13564093920E+03  0.00000000000E+00 0. -1.
         25    2    1    2    0    0 -0.26401279052E+02 -0.29929288788E+02 -0.26268728910E+02  0.13382072639E+03  0.12500060332E+03 0.  0.
          2    1    1    2  501    0 -0.71793778629E+01  0.21179388185E+02 -0.52180948250E+02  0.56771130961E+02  0.00000000000E+00 0. -1.
          1    1    1    2  502    0  0.33580656915E+02  0.87499006027E+01  0.26763796000E+03  0.26987830389E+03  0.00000000000E+00 0. -1.
         22    1    3    3    0    0  0.32237790801E+01 -0.18765110387E+01 -0.72251091460E+02  0.72347316899E+02  0.00000000000E+00 0. -1.
         22    1    3    3    0    0 -0.29625058132E+02 -0.28052777749E+02  0.45982362550E+02  0.61473409491E+02  0.00000000000E+00 0. -1.
</event>
<event>
 7    1  0.5931885E-006  0.5892952E+02  0.7818608E-02  0.1431578E+00
          2   -1    0    0  502    0  0.00000000000E+00  0.00000000000E+00  0.47514095014E+03  0.47514095014E+03  0.00000000000E+00 0. -1.
          1   -1    0    0  501    0 -0.00000000000E+00 -0.00000000000E+00 -0.85450293588E+03  0.85450293588E+03  0.00000000000E+00 0. -1.
         25    2    1    2    0    0  0.64518697537E+02  0.61517968664E+02  0.36290601067E+03  0.39404652631E+03  0.12499907807E+03 0.  0.
          2    1    1    2  501    0 -0.19982554719E+02 -0.42573450350E+02 -0.83216888302E+03  0.83349676126E+03  0.00000000000E+00 0. -1.
          1    1    1    2  502    0 -0.44536142818E+02 -0.18944518313E+02  0.89900886613E+02  0.10210059846E+03  0.00000000000E+00 0. -1.
         22    1    3    3    0    0  0.79570453697E+02  0.89182130625E+02  0.31289705607E+03  0.33494697673E+03  0.00000000000E+00 0.  1.
         22    1    3    3    0    0 -0.15051756160E+02 -0.27664161961E+02  0.50008954596E+02  0.59099549578E+02  0.00000000000E+00 0.  1.
</event>
<event>
 7    1  0.5931885E-006  0.2392330E+03  0.7818608E-02  0.1342445E+00
          2   -1    0    0  502    0  0.00000000000E+00  0.00000000000E+00  0.12478999448E+04  0.12478999448E+04  0.00000000000E+00 0. -1.
          1   -1    0    0  501    0 -0.00000000000E+00 -0.00000000000E+00 -0.17295306198E+03  0.17295306198E+03  0.00000000000E+00 0. -1.
         25    2    1    2    0    0  0.12193713475E+03  0.19171400327E+03  0.93089415657E+02  0.27552385061E+03  0.12499931628E+03 0.  0.
          2    1    1    2  501    0  0.23799945702E+02  0.40390353298E+00 -0.65959250350E+02  0.70122915372E+02  0.00000000000E+00 0. -1.
          1    1    1    2  502    0 -0.14573708046E+03 -0.19211790680E+03  0.10478167175E+04  0.10752062408E+04  0.00000000000E+00 0. -1.
         22    1    3    3    0    0  0.12293426361E+03  0.78580120640E+02  0.58773605534E+02  0.15729591615E+03  0.00000000000E+00 0. -1.
         22    1    3    3    0    0 -0.99712885476E+00  0.11313388263E+03  0.34315810123E+02  0.11822793447E+03  0.00000000000E+00 0. -1.
</event>
<event>
 7    1  0.5931885E-006  0.5353040E+02  0.7818608E-02  0.1523022E+00
          2   -1    0    0  502    0  0.00000000000E+00  0.00000000000E+00  0.15101769367E+04  0.15101769367E+04  0.00000000000E+00 0. -1.
          1   -1    0    0  501    0 -0.00000000000E+00 -0.00000000000E+00 -0.50657237701E+03  0.50657237701E+03  0.00000000000E+00 0. -1.
         25    2    1    2    0    0  0.29587105922E+02 -0.67644940969E+02  0.64061411683E+03  0.65685889296E+03  0.12500369479E+03 0.  0.
          2    1    1    2  501    0 -0.21437516734E+02  0.16505350344E+02 -0.49730369450E+03  0.49803911320E+03  0.00000000000E+00 0. -1.
          1    1    1    2  502    0 -0.81495891876E+01  0.51139590625E+02  0.86029413733E+03  0.86185130751E+03  0.00000000000E+00 0. -1.
         22    1    3    3    0    0 -0.10867084406E+02 -0.93237367686E+02  0.35196354227E+03  0.36426588550E+03  0.00000000000E+00 0. -1.
         22    1    3    3    0    0  0.40454190328E+02  0.25592426717E+02  0.28865057456E+03  0.29259300746E+03  0.00000000000E+00 0. -1.
</event>
<event>
 7    1  0.7605102E-006  0.5274020E+02  0.7818608E-02  0.1432188E+00
          2   -1    0    0  502    0  0.00000000000E+00  0.00000000000E+00  0.34324656994E+04  0.34324656994E+04  0.00000000000E+00 0. -1.
          1   -1    0    0  501    0 -0.00000000000E+00 -0.00000000000E+00 -0.64155788487E+03  0.64155788487E+03  0.00000000000E+00 0. -1.
         25    2    1    2    0    0  0.16700109973E+02 -0.17296159267E+01 -0.38221115892E+03  0.40248238534E+03  0.12499926104E+03 0.  0.
          2    1    1    2  501    0 -0.12263559008E+02 -0.50849475054E+02 -0.24626059255E+03  0.25175453012E+03  0.00000000000E+00 0. -1.
          1    1    1    2  502    0 -0.44365509654E+01  0.52579090981E+02  0.34193795660E+04  0.34197866688E+04  0.00000000000E+00 0. -1.
         22    1    3    3    0    0  0.39227105581E+01 -0.51695986448E+02 -0.76256319682E+02  0.92211110851E+02  0.00000000000E+00 0.  1.
         22    1    3    3    0    0  0.12777399415E+02  0.49966370521E+02 -0.30595483924E+03  0.31027127449E+03  0.00000000000E+00 0.  1.
</event>
<event>
 7    1  0.5931885E-006  0.4711458E+02  0.7818608E-02  0.1552435E+00
          2   -1    0    0  502    0  0.00000000000E+00  0.00000000000E+00  0.78640220145E+03  0.78640220145E+03  0.00000000000E+00 0. -1.
          1   -1    0    0  501    0 -0.00000000000E+00 -0.00000000000E+00 -0.25476755056E+02  0.25476755056E+02  0.00000000000E+00 0. -1.
         25    2    1    2    0    0  0.79251670838E+01  0.29979633907E+02  0.39260696290E+03  0.41319067630E+03  0.12499888376E+03 0.  0.
          2    1    1    2  501    0 -0.32332167567E+02 -0.36897142183E+02  0.26173542372E+02  0.55604158848E+02  0.00000000000E+00 0. -1.
          1    1    1    2  502    0  0.24407000484E+02  0.69175082757E+01  0.34214494113E+03  0.34308412137E+03  0.00000000000E+00 0. -1.
         22    1    3    3    0    0 -0.25349725449E+02 -0.34475925831E+02  0.66243116241E+02  0.78862846079E+02  0.00000000000E+00 0.  1.
         22    1    3    3    0    0  0.33274892533E+02  0.64455559739E+02  0.32636384666E+03  0.33432783022E+03  0.00000000000E+00 0.  1.
</event>
<event>
 7    1  0.5931885E-006  0.4039061E+03  0.7818608E-02  0.1106548E+00
          2   -1    0    0  502    0  0.00000000000E+00  0.00000000000E+00  0.74264460781E+03  0.74264460781E+03  0.00000000000E+00 0. -1.
          1   -1    0    0  501    0 -0.00000000000E+00 -0.00000000000E+00 -0.10365648510E+04  0.10365648510E+04  0.00000000000E+00 0. -1.
         25    2    1    2    0    0 -0.36687158735E+03  0.35695833473E+03 -0.31322077647E+03  0.61298568527E+03  0.12502072307E+03 0.  0.
          2    1    1    2  501    0  0.20902759849E+03 -0.29757052624E+03 -0.50111846269E+03  0.61916110074E+03  0.00000000000E+00 0. -1.
          1    1    1    2  502    0  0.15784398887E+03 -0.59387808492E+02  0.52041899597E+03  0.54706267281E+03  0.00000000000E+00 0. -1.
         22    1    3    3    0    0 -0.22551830486E+03  0.14305307986E+03 -0.19484929031E+03  0.33058877086E+03  0.00000000000E+00 0. -1.
         22    1    3    3    0    0 -0.14135328249E+03  0.21390525487E+03 -0.11837148616E+03  0.28239691441E+03  0.00000000000E+00 0. -1.
</event>
<event>
 7    1  0.5931885E-006  0.1103558E+03  0.7818608E-02  0.1344050E+00
          2   -1    0    0  502    0  0.00000000000E+00  0.00000000000E+00  0.13805423950E+04  0.13805423950E+04  0.00000000000E+00 0. -1.
          1   -1    0    0  501    0 -0.00000000000E+00 -0.00000000000E+00 -0.10592166876E+04  0.10592166876E+04  0.00000000000E+00 0. -1.
         25    2    1    2    0    0 -0.47862983684E+02 -0.14545999889E+03  0.33034764815E+03  0.38497403617E+03  0.12500385355E+03 0.  0.
          2    1    1    2  501    0  0.55317152741E+02  0.95115752221E+02 -0.10283336543E+04  0.10342036058E+04  0.00000000000E+00 0. -1.
          1    1    1    2  502    0 -0.74541690575E+01  0.50344246668E+02  0.10193117135E+04  0.10205814407E+04  0.00000000000E+00 0. -1.
         22    1    3    3    0    0 -0.44310224308E+02 -0.56225767769E+02  0.26450382954E+03  0.27402008828E+03  0.00000000000E+00 0. -1.
         22    1    3    3    0    0 -0.35527593756E+01 -0.89234231121E+02  0.65843818601E+02  0.11095394788E+03  0.00000000000E+00 0. -1.
</event>
<event>
 7    1  0.5931885E-006  0.6254103E+02  0.7818608E-02  0.1460773E+00
          2   -1    0    0  502    0  0.00000000000E+00  0.00000000000E+00  0.11348892329E+04  0.11348892329E+04  0.00000000000E+00 0. -1.
          1   -1    0    0  501    0 -0.00000000000E+00 -0.00000000000E+00 -0.87625456367E+03  0.87625456367E+03  0.00000000000E+00 0. -1.
         25    2    1    2    0    0  0.74177971274E+02  0.62032037747E+02 -0.54553157326E+02  0.16718386529E+03  0.12499621078E+03 0.  0.
          2    1    1    2  501    0 -0.43350298927E+02 -0.44036859651E+02 -0.76384264687E+03  0.76633809941E+03  0.00000000000E+00 0. -1.
          1    1    1    2  502    0 -0.30827672347E+02 -0.17995178096E+02  0.10770304734E+04  0.10776218319E+04  0.00000000000E+00 0. -1.
         22    1    3    3    0    0  0.28639150602E+02  0.32197941824E+02  0.39535194123E+02  0.58480252900E+02  0.00000000000E+00 0.  1.
         22    1    3    3    0    0  0.45538820672E+02  0.29834095923E+02 -0.94088351448E+02  0.10870361239E+03  0.00000000000E+00 0.  1.
</event>
<event>
 7    1  0.5931885E-006  0.4128460E+02  0.7818608E-02  0.1514276E+00
          2   -1    0    0  502    0  0.00000000000E+00  0.00000000000E+00  0.13172996527E+04  0.13172996527E+04  0.00000000000E+00 0. -1.
          1   -1    0    0  501    0 -0.00000000000E+00 -0.00000000000E+00 -0.46993646661E+03  0.46993646661E+03  0.00000000000E+00 0. -1.
         25    2    1    2    0    0  0.46324808546E+02  0.17735187539E+02  0.39987850065E+03  0.42188719109E+03  0.12500184782E+03 0.  0.
          2    1    1    2  501    0 -0.15356323893E+02 -0.38340774919E+02 -0.45762009283E+03  0.45948012043E+03  0.00000000000E+00 0. -1.
          1    1    1    2  502    0 -0.30968484653E+02  0.20605587380E+02  0.90510477828E+03  0.90586880779E+03  0.00000000000E+00 0. -1.
         22    1    3    3    0    0  0.32222322130E+02  0.68994535921E+02  0.17570978065E+03  0.19150052493E+03  0.00000000000E+00 0.  1.
         22    1    3    3    0    0  0.14102486416E+02 -0.51259348382E+02  0.22416872000E+03  0.23038666616E+03  0.00000000000E+00 0.  1.
</event>
<event>
 7    1  0.5931885E-006  0.9865368E+02  0.7818608E-02  0.1456747E+00
          2   -1    0    0  502    0  0.00000000000E+00  0.00000000000E+00  0.28238383184E+04  0.28238383184E+04  0.00000000000E+00 0. -1.
          1   -1    0    0  501    0 -0.00000000000E+00 -0.00000000000E+00 -0.86045330614E+02  0.86045330614E+02  0.00000000000E+00 0. -1.
         25    2    1    2    0    0 -0.91377720572E+02  0.82862235765E+01  0.10977199482E+04  0.11086174588E+04  0.12500014340E+03 0.  0.
          2    1    1    2  501    0  0.97902721422E+02  0.14083263287E+02 -0.50139546406E+02  0.11089299022E+03  0.00000000000E+00 0. -1.
          1    1    1    2  502    0 -0.65250008498E+01 -0.22369486863E+02  0.16902125859E+04  0.16903732000E+04  0.00000000000E+00 0. -1.
         22    1    3    3    0    0 -0.11168601374E+02 -0.43319295186E+01  0.51579703762E+01  0.13042543020E+02  0.00000000000E+00 0. -1.
         22    1    3    3    0    0 -0.80209119197E+02  0.12618153095E+02  0.10925619779E+04  0.10955749158E+04  0.00000000000E+00 0. -1.
</event>
<event>
 7    1  0.5931885E-006  0.1467267E+03  0.7818608E-02  0.1354882E+00
          2   -1    0    0  502    0  0.00000000000E+00  0.00000000000E+00  0.19513672221E+04  0.19513672221E+04  0.00000000000E+00 0. -1.
          1   -1    0    0  501    0 -0.00000000000E+00 -0.00000000000E+00 -0.31724201696E+03  0.31724201696E+03  0.00000000000E+00 0. -1.
         25    2    1    2    0    0 -0.40359673540E+02  0.17212596729E+03  0.98932896575E+03  0.10127458264E+04  0.12500421829E+03 0.  0.
          2    1    1    2  501    0  0.48065588583E+02 -0.13809120125E+03 -0.28769495796E+03  0.32271949043E+03  0.00000000000E+00 0. -1.
          1    1    1    2  502    0 -0.77059150432E+01 -0.34034766045E+02  0.93249119737E+03  0.93314392223E+03  0.00000000000E+00 0. -1.
         22    1    3    3    0    0 -0.32873248699E+02  0.11870575437E+03  0.34805729520E+03  0.36920940853E+03  0.00000000000E+00 0.  1.
         22    1    3    3    0    0 -0.74864248414E+01  0.53420212919E+02  0.64127167055E+03  0.64353641789E+03  0.00000000000E+00 0.  1.
</event>
<event>
 7    1  0.5931885E-006  0.5857015E+02  0.7818608E-02  0.1415399E+00
          2   -1    0    0  502    0  0.00000000000E+00  0.00000000000E+00  0.14662408290E+04  0.14662408290E+04  0.00000000000E+00 0. -1.
          1   -1    0    0  501    0 -0.00000000000E+00 -0.00000000000E+00 -0.10333852056E+03  0.10333852056E+03  0.00000000000E+00 0. -1.
         25    2    1    2    0    0  0.99909199080E+01 -0.58614418221E+02  0.37569471444E+03  0.40038287166E+03  0.12499782780E+03 0.  0.
          2    1    1    2  501    0 -0.51381340352E+02  0.15101609017E+02 -0.82198475332E+02  0.98105504831E+02  0.00000000000E+00 0. -1.
          1    1    1    2  502    0  0.41390420444E+02  0.43512809204E+02  0.10694060694E+04  0.10710909731E+04  0.00000000000E+00 0. -1.
         22    1    3    3    0    0 -0.14273606996E+01  0.38217419326E+02  0.14436091870E+03  0.14934082947E+03  0.00000000000E+00 0.  1.
         22    1    3    3    0    0  0.11418280608E+02 -0.96831837547E+02  0.23133379574E+03  0.25104204219E+03  0.00000000000E+00 0.  1.
</event>
<event>
 7    1  0.5931885E-006  0.1346830E+03  0.7818608E-02  0.1382160E+00
          2   -1    0    0  502    0  0.00000000000E+00  0.00000000000E+00  0.96110018755E+03  0.96110018755E+03  0.00000000000E+00 0. -1.
          1   -1    0    0  501    0 -0.00000000000E+00 -0.00000000000E+00 -0.30910509961E+03  0.30910509961E+03  0.00000000000E+00 0. -1.
         25    2    1    2    0    0  0.41928165223E+02  0.10187348695E+03  0.99358530315E+02  0.19399229373E+03  0.12499885639E+03 0.  0.
          2    1    1    2  501    0 -0.65086485186E+02 -0.12143840237E+03 -0.24335093805E+03  0.27964837774E+03  0.00000000000E+00 0. -1.
          1    1    1    2  502    0  0.23158319963E+02  0.19564915417E+02  0.79598749567E+03  0.79656461568E+03  0.00000000000E+00 0. -1.
         22    1    3    3    0    0  0.22318886496E+02  0.10491944427E+03  0.12294938670E+03  0.16316486807E+03  0.00000000000E+00 0. -1.
         22    1    3    3    0    0  0.19609278726E+02 -0.30459573225E+01 -0.23590856388E+02  0.30827425668E+02  0.00000000000E+00 0. -1.
</event>
<event>
 7    1  0.9066043E-006  0.8243709E+02  0.7818608E-02  0.1329218E+00
          2   -1    0    0  502    0  0.00000000000E+00  0.00000000000E+00  0.10837616002E+04  0.10837616002E+04  0.00000000000E+00 0. -1.
          1   -1    0    0  501    0 -0.00000000000E+00 -0.00000000000E+00 -0.12088254588E+04  0.12088254588E+04  0.00000000000E+00 0. -1.
         25    2    1    2    0    0 -0.57210174951E+02  0.17615571352E+02 -0.54064675488E+03  0.55812856326E+03  0.12500106839E+03 0.  0.
          2    1    1    2  501    0  0.34247510524E+00 -0.77520307139E+02 -0.65556404299E+03  0.66013160034E+03  0.00000000000E+00 0. -1.
          1    1    1    2  502    0  0.56867699846E+02  0.59904735788E+02  0.10711469392E+04  0.10743268954E+04  0.00000000000E+00 0. -1.
         22    1    3    3    0    0  0.32732269422E+02 -0.22796638534E+02 -0.16559919038E+03  0.17033549262E+03  0.00000000000E+00 0. -1.
         22    1    3    3    0    0 -0.89942444373E+02  0.40412209885E+02 -0.37504756449E+03  0.38779307064E+03  0.00000000000E+00 0. -1.
</event>
<event>
 7    1  0.5931885E-006  0.1091764E+03  0.7818608E-02  0.1308017E+00
          2   -1    0    0  502    0  0.00000000000E+00  0.00000000000E+00  0.14114145647E+04  0.14114145647E+04  0.00000000000E+00 0. -1.
          1   -1    0    0  501    0 -0.00000000000E+00 -0.00000000000E+00 -0.41211069587E+02  0.41211069587E+02  0.00000000000E+00 0. -1.
         25    2    1    2    0    0 -0.18014281063E+02  0.16791414077E+03  0.47239426278E+03  0.51701078467E+03  0.12499655583E+03 0.  0.
          2    1    1    2  501    0 -0.86024784242E+01 -0.70245770863E+02  0.63180786678E+02  0.94869820092E+02  0.00000000000E+00 0. -1.
          1    1    1    2  502    0  0.26616759487E+02 -0.97668369907E+02  0.83462844561E+03  0.84074502947E+03  0.00000000000E+00 0. -1.
         22    1    3    3    0    0  0.92295701574E+00  0.18147705902E+03  0.37143136146E+03  0.41339573181E+03  0.00000000000E+00 0. -1.
         22    1    3    3    0    0 -0.18937238078E+02 -0.13562918253E+02  0.10096290132E+03  0.10361505287E+03  0.00000000000E+00 0. -1.
</event>
<event>
 7    1  0.5931885E-006  0.3390706E+02  0.7818608E-02  0.1613487E+00
          2   -1    0    0  502    0  0.00000000000E+00  0.00000000000E+00  0.90989757381E+03  0.90989757381E+03  0.00000000000E+00 0. -1.
          1   -1    0    0  501    0 -0.00000000000E+00 -0.00000000000E+00 -0.72843627107E+02  0.72843627107E+02  0.00000000000E+00 0. -1.
         25    2    1    2    0    0 -0.13368379284E+02 -0.26314224393E+01  0.20762752625E+03  0.24273482330E+03  0.12500146735E+03 0.  0.
          2    1    1    2  501    0 -0.11348050199E+02 -0.21387001689E+02 -0.52183075098E+02  0.57526128075E+02  0.00000000000E+00 0. -1.
          1    1    1    2  502    0  0.24716429483E+02  0.24018424128E+02  0.68160949555E+03  0.68248024954E+03  0.00000000000E+00 0. -1.
         22    1    3    3    0    0  0.47599309282E+02  0.50359109376E+00  0.33479535047E+02  0.58196452770E+02  0.00000000000E+00 0.  1.
         22    1    3    3    0    0 -0.60967688566E+02 -0.31350135330E+01  0.17414799120E+03  0.18453837053E+03  0.00000000000E+00 0.  1.
</event>
<event>
 7    1  0.5931885E-006  0.3269068E+02  0.7818608E-02  0.1591050E+00
          2   -1    0    0  502    0  0.00000000000E+00  0.00000000000E+00  0.10978765994E+04  0.10978765994E+04  0.00000000000E+00 0. -1.
          1   -1    0    0  501    0 -0.00000000000E+00 -0.00000000000E+00 -0.23627997428E+03  0.23627997428E+03  0.00000000000E+00 0. -1.
         25    2    1    2    0    0 -0.10948838539E+02 -0.11258276695E+02  0.45808962502E+03  0.47509723627E+03  0.12499861399E+03 0.  0.
          2    1    1    2  501    0  0.18664128844E+02 -0.21842117378E+02 -0.22641025452E+03  0.22822583366E+03  0.00000000000E+00 0. -1.
          1    1    1    2  502    0 -0.77152903050E+01  0.33100394073E+02  0.62991725457E+03  0.63083350371E+03  0.00000000000E+00 0. -1.
         22    1    3    3    0    0  0.43729421476E+02 -0.28339417766E+01  0.35853803347E+03  0.36120605612E+03  0.00000000000E+00 0. -1.
         22    1    3    3    0    0 -0.54678260015E+02 -0.84243349183E+01  0.99551591547E+02  0.11389118015E+03  0.00000000000E+00 0. -1.
</event>
<event>
 7    1  0.9553136E-006  0.8072291E+02  0.7818608E-02  0.1392909E+00
          2   -1    0    0  502    0  0.00000000000E+00  0.00000000000E+00  0.27122845015E+04  0.27122845015E+04  0.00000000000E+00 0. -1.
          1   -1    0    0  501    0 -0.00000000000E+00 -0.00000000000E+00 -0.58953526196E+03  0.58953526196E+03  0.00000000000E+00 0. -1.
         25    2    1    2    0    0  0.26089358375E+02 -0.34897448819E+02 -0.13203564854E+03  0.18696888291E+03  0.12500185654E+03 0.  0.
          2    1    1    2  501    0 -0.12121503020E+02 -0.44770111921E+02 -0.42817111268E+03  0.43067597506E+03  0.00000000000E+00 0. -1.
          1    1    1    2  502    0 -0.13967855356E+02  0.79667560740E+02  0.26829560007E+04  0.26841749054E+04  0.00000000000E+00 0. -1.
         22    1    3    3    0    0 -0.16607106865E+02  0.41575166578E+02 -0.42977008202E+02  0.62058953491E+02  0.00000000000E+00 0.  1.
         22    1    3    3    0    0  0.42696465240E+02 -0.76472615398E+02 -0.89058640337E+02  0.12490992942E+03  0.00000000000E+00 0.  1.
</event>
<event>
 7    1  0.5931885E-006  0.6424759E+02  0.7818608E-02  0.1408214E+00
          2   -1    0    0  502    0  0.00000000000E+00  0.00000000000E+00  0.39726661486E+03  0.39726661486E+03  0.00000000000E+00 0. -1.
          1   -1    0    0  501    0 -0.00000000000E+00 -0.00000000000E+00 -0.69349325934E+03  0.69349325934E+03  0.00000000000E+00 0. -1.
         25    2    1    2    0    0 -0.32922844471E+02 -0.20125948295E+02  0.31588970581E+03  0.34190828044E+03  0.12500399398E+03 0.  0.
          2    1    1    2  501    0 -0.58846173746E+02  0.25785281148E+02 -0.64724505896E+03  0.65042595216E+03  0.00000000000E+00 0. -1.
          1    1    1    2  502    0  0.91769018217E+02 -0.56593328528E+01  0.35128708666E+02  0.98425641605E+02  0.00000000000E+00 0. -1.
         22    1    3    3    0    0 -0.38138144281E+02 -0.26185262302E+02  0.32586058315E+03  0.32912809917E+03  0.00000000000E+00 0. -1.
         22    1    3    3    0    0  0.52152998095E+01  0.60593140077E+01 -0.99708773401E+01  0.12780181269E+02  0.00000000000E+00 0. -1.
</event>
<event>
 7    1  0.5931885E-006  0.8200251E+02  0.7818608E-02  0.1422459E+00
          2   -1    0    0  502    0  0.00000000000E+00  0.00000000000E+00  0.50937627531E+02  0.50937627531E+02  0.00000000000E+00 0. -1.
          1   -1    0    0  501    0 -0.00000000000E+00 -0.00000000000E+00 -0.14879939275E+04  0.14879939275E+04  0.00000000000E+00 0. -1.
         25    2    1    2    0    0 -0.10042727553E+03 -0.27181216481E+02 -0.25247016541E+03  0.30031825167E+03  0.12500164663E+03 0.  0.
          2    1    1    2  501    0  0.22321275760E+02  0.28533324978E+02 -0.11542400360E+04  0.11548084044E+04  0.00000000000E+00 0. -1.
          1    1    1    2  502    0  0.78105999770E+02 -0.13521084970E+01 -0.30346098473E+02  0.83804898962E+02  0.00000000000E+00 0. -1.
         22    1    3    3    0    0 -0.75974521626E+02 -0.75966233034E+02 -0.15467012642E+03  0.18832377573E+03  0.00000000000E+00 0. -1.
         22    1    3    3    0    0 -0.24452753905E+02  0.48785016553E+02 -0.97800038995E+02  0.11199447594E+03  0.00000000000E+00 0. -1.
</event>
<event>
 7    1  0.5931885E-006  0.6664301E+02  0.7818608E-02  0.1414456E+00
          2   -1    0    0  502    0  0.00000000000E+00  0.00000000000E+00  0.20049603282E+03  0.20049603282E+03  0.00000000000E+00 0. -1.
          1   -1    0    0  501    0 -0.00000000000E+00 -0.00000000000E+00 -0.31109262357E+03  0.31109262357E+03  0.00000000000E+00 0. -1.
         25    2    1    2    0    0 -0.13132342319E+01 -0.26624202835E+02 -0.12938234343E+03  0.18186248410E+03  0.12499439816E+03 0.  0.
          2    1    1    2  501    0 -0.35898897624E+02 -0.30971191064E+02 -0.14479223246E+03  0.15235726470E+03  0.00000000000E+00 0. -1.
          1    1    1    2  502    0  0.37212131856E+02  0.57595393899E+02  0.16357798514E+03  0.17736890759E+03  0.00000000000E+00 0. -1.
         22    1    3    3    0    0  0.40609228143E+02  0.32872144652E+02 -0.73127051049E+02  0.89873538372E+02  0.00000000000E+00 0.  1.
         22    1    3    3    0    0 -0.41922462375E+02 -0.59496347487E+02 -0.56255292379E+02  0.91988945730E+02  0.00000000000E+00 0.  1.
</event>
<event>
 7    1  0.5931885E-006  0.5472180E+02  0.7818608E-02  0.1439465E+00
          2   -1    0    0  502    0  0.00000000000E+00  0.00000000000E+00  0.69496844299E+03  0.69496844299E+03  0.00000000000E+00 0. -1.
          1   -1    0    0  501    0 -0.00000000000E+00 -0.00000000000E+00 -0.11263515514E+04  0.11263515514E+04  0.00000000000E+00 0. -1.
         25    2    1    2    0    0  0.95908901038E+02  0.20214492130E+02 -0.48837785733E+03  0.51356090709E+03  0.12499892306E+03 0.  0.
          2    1    1    2  501    0 -0.48292243460E+02 -0.16936990964E+02 -0.62349790791E+03  0.62559463202E+03  0.00000000000E+00 0. -1.
          1    1    1    2  502    0 -0.47616657578E+02 -0.32775011662E+01  0.68049265681E+03  0.68216445530E+03  0.00000000000E+00 0. -1.
         22    1    3    3    0    0 -0.29455171804E+02 -0.20832758203E+01 -0.63830054739E+02  0.70329389817E+02  0.00000000000E+00 0.  1.
         22    1    3    3    0    0  0.12536407284E+03  0.22297767951E+02 -0.42454780259E+03  0.44323151727E+03  0.00000000000E+00 0.  1.
</event>
<event>
 7    1  0.5931885E-006  0.1128972E+03  0.7818608E-02  0.1386477E+00
          2   -1    0    0  502    0  0.00000000000E+00  0.00000000000E+00  0.54762837350E+03  0.54762837350E+03  0.00000000000E+00 0. -1.
          1   -1    0    0  501    0 -0.00000000000E+00 -0.00000000000E+00 -0.13917347402E+03  0.13917347402E+03  0.00000000000E+00 0. -1.
         25    2    1    2    0    0  0.11366540568E+03 -0.65118857957E+02  0.12164309693E+03  0.21813565209E+03  0.12500331825E+03 0.  0.
          2    1    1    2  501    0 -0.33305203342E+02 -0.10507782182E+02 -0.79105582762E+02  0.86471632806E+02  0.00000000000E+00 0. -1.
          1    1    1    2  502    0 -0.80360202336E+02  0.75626640139E+02  0.36591738532E+03  0.38219456262E+03  0.00000000000E+00 0. -1.
         22    1    3    3    0    0  0.12157228834E+03 -0.88337877400E+02  0.81138424842E+02  0.17078303740E+03  0.00000000000E+00 0. -1.
         22    1    3    3    0    0 -0.79068826650E+01  0.23219019443E+02  0.40504672088E+02  0.47352614694E+02  0.00000000000E+00 0. -1.
</event>
<event>
 7    1  0.5931885E-006  0.2012919E+03  0.7818608E-02  0.1205726E+00
          2   -1    0    0  502    0  0.00000000000E+00  0.00000000000E+00  0.28269532550E+04  0.28269532550E+04  0.00000000000E+00 0. -1.
          1   -1    0    0  501    0 -0.00000000000E+00 -0.00000000000E+00 -0.57023614581E+02  0.57023614581E+02  0.00000000000E+00 0. -1.
         25    2    1    2    0    0 -0.23368420337E+03  0.86332369723E+02  0.66034285032E+03  0.71675555303E+03  0.12499703140E+03 0.  0.
          2    1    1    2  501    0  0.13567588202E+03 -0.12567881097E+03  0.28604747521E+03  0.34062628578E+03  0.00000000000E+00 0. -1.
          1    1    1    2  502    0  0.98008321350E+02  0.39346441250E+02  0.18235393149E+04  0.18265950308E+04  0.00000000000E+00 0. -1.
         22    1    3    3    0    0 -0.17318888907E+02 -0.81243855892E+01  0.18527572995E+03  0.18626069274E+03  0.00000000000E+00 0. -1.
         22    1    3    3    0    0 -0.21636531447E+03  0.94456755312E+02  0.47506712038E+03  0.53049486029E+03  0.00000000000E+00 0. -1.
</event>
<event>
 7    1  0.5931885E-006  0.1227324E+03  0.7818608E-02  0.1393406E+00
          2   -1    0    0  502    0  0.00000000000E+00  0.00000000000E+00  0.15858158921E+03  0.15858158921E+03  0.00000000000E+00 0. -1.
          1   -1    0    0  501    0 -0.00000000000E+00 -0.00000000000E+00 -0.11528191114E+04  0.11528191114E+04  0.00000000000E+00 0. -1.
         25    2    1    2    0    0 -0.11855762531E+03  0.40068313548E+02 -0.37217508374E+03  0.41206902715E+03  0.12500083961E+03 0.  0.
          2    1    1    2  501    0  0.10339110082E+03 -0.66397657380E+02 -0.75399688781E+03  0.76394350279E+03  0.00000000000E+00 0. -1.
          1    1    1    2  502    0  0.15166524491E+02  0.26329343832E+02  0.13193444939E+03  0.13538817063E+03  0.00000000000E+00 0. -1.
         22    1    3    3    0    0 -0.60206694062E+02  0.52544560663E+01 -0.38751065070E+02  0.71792063367E+02  0.00000000000E+00 0. -1.
         22    1    3    3    0    0 -0.58350931245E+02  0.34813857481E+02 -0.33342401867E+03  0.34027696378E+03  0.00000000000E+00 0. -1.
</event>
<event>
 7    1  0.5931885E-006  0.2259514E+02  0.7818608E-02  0.1703960E+00
          2   -1    0    0  502    0  0.00000000000E+00  0.00000000000E+00  0.12527472760E+03  0.12527472760E+03  0.00000000000E+00 0. -1.
          1   -1    0    0  501    0 -0.00000000000E+00 -0.00000000000E+00 -0.75228044300E+02  0.75228044300E+02  0.00000000000E+00 0. -1.
         25    2    1    2    0    0 -0.27904383105E+02 -0.43482737613E+01  0.70806816188E+02  0.14641160366E+03  0.12500076154E+03 0.  0.
          2    1    1    2  501    0  0.15686426992E+02 -0.15297370692E+02 -0.21832787097E+02  0.30931280838E+02  0.00000000000E+00 0. -1.
          1    1    1    2  502    0  0.12217956113E+02  0.19645644453E+02  0.10726542067E+01  0.23159887405E+02  0.00000000000E+00 0. -1.
         22    1    3    3    0    0  0.33598391405E+02  0.59826313085E-01  0.77421247097E+02  0.84397304378E+02  0.00000000000E+00 0.  1.
         22    1    3    3    0    0 -0.61502774510E+02 -0.44081000744E+01 -0.66144309088E+01  0.62014299278E+02  0.00000000000E+00 0.  1.
</event>
<event>
 7    1  0.5931885E-006  0.2460999E+03  0.7818608E-02  0.1200297E+00
          2   -1    0    0  502    0  0.00000000000E+00  0.00000000000E+00  0.10124526388E+04  0.10124526388E+04  0.00000000000E+00 0. -1.
          1   -1    0    0  501    0 -0.00000000000E+00 -0.00000000000E+00 -0.29579658850E+04  0.29579658850E+04  0.00000000000E+00 0. -1.
         25    2    1    2    0    0 -0.28285989041E+03  0.25101481982E+02 -0.77019415759E+03  0.83033497948E+03  0.12496933930E+03 0.  0.
          2    1    1    2  501    0  0.23424207577E+03  0.52532350832E+02 -0.21488676056E+04  0.21622351825E+04  0.00000000000E+00 0. -1.
          1    1    1    2  502    0  0.48617814639E+02 -0.77633832814E+02  0.97354851697E+03  0.97784836186E+03  0.00000000000E+00 0. -1.
         22    1    3    3    0    0 -0.22970768246E+03  0.64407417244E+02 -0.53014963347E+03  0.58135408199E+03  0.00000000000E+00 0. -1.
         22    1    3    3    0    0 -0.53152207953E+02 -0.39305935262E+02 -0.24004452412E+03  0.24898089750E+03  0.00000000000E+00 0. -1.
</event>
<event>
 7    1  0.5931885E-006  0.5328120E+02  0.7818608E-02  0.1448370E+00
          2   -1    0    0  502    0  0.00000000000E+00  0.00000000000E+00  0.11183798426E+04  0.11183798426E+04  0.00000000000E+00 0. -1.
          1   -1    0    0  501    0 -0.00000000000E+00 -0.00000000000E+00 -0.22304752673E+03  0.22304752673E+03  0.00000000000E+00 0. -1.
         25    2    1    2    0    0  0.15414013373E+01 -0.84791899492E+02  0.14041735433E+03  0.20623765725E+03  0.12499958294E+03 0.  0.
          2    1    1    2  501    0  0.24317536037E+02  0.46892327248E+02 -0.18589880971E+03  0.19325785977E+03  0.00000000000E+00 0. -1.
          1    1    1    2  502    0 -0.25858937374E+02  0.37899572244E+02  0.94081377125E+03  0.94193185231E+03  0.00000000000E+00 0. -1.
         22    1    3    3    0    0 -0.54781156167E+01 -0.96932894791E+02  0.15695398418E+03  0.18455500262E+03  0.00000000000E+00 0. -1.
         22    1    3    3    0    0  0.70195169539E+01  0.12140995299E+02 -0.16536629850E+02  0.21682654632E+02  0.00000000000E+00 0. -1.
</event>
<event>
 7    1  0.5931885E-006  0.4524604E+02  0.7818608E-02  0.1553666E+00
          2   -1    0    0  502    0  0.00000000000E+00  0.00000000000E+00  0.86904178011E+02  0.86904178011E+02  0.00000000000E+00 0. -1.
          1   -1    0    0  501    0 -0.00000000000E+00 -0.00000000000E+00 -0.31635907634E+03  0.31635907634E+03  0.00000000000E+00 0. -1.
         25    2    1    2    0    0  0.37419614211E+01  0.69578554092E+02 -0.12249819028E+03  0.18837724506E+03  0.12500000949E+03 0.  0.
          2    1    1    2  501    0 -0.48131238572E+01 -0.25763004346E+02 -0.15070072280E+03  0.15296276151E+03  0.00000000000E+00 0. -1.
          1    1    1    2  502    0  0.10711624360E+01 -0.43815549746E+02  0.43744014754E+02  0.61923247778E+02  0.00000000000E+00 0. -1.
         22    1    3    3    0    0  0.20708458674E+02 -0.12491967874E+02 -0.98179404708E+02  0.10111421775E+03  0.00000000000E+00 0. -1.
         22    1    3    3    0    0 -0.16966497253E+02  0.82070521966E+02 -0.24318785569E+02  0.87263027316E+02  0.00000000000E+00 0. -1.
</event>
<event>
 7    1  0.5931885E-006  0.1631749E+03  0.7818608E-02  0.1217345E+00
          2   -1    0    0  502    0  0.00000000000E+00  0.00000000000E+00  0.11960850712E+04  0.11960850712E+04  0.00000000000E+00 0. -1.
          1   -1    0    0  501    0 -0.00000000000E+00 -0.00000000000E+00 -0.42691853728E+03  0.42691853728E+03  0.00000000000E+00 0. -1.
         25    2    1    2    0    0  0.25776296251E+03  0.11098368414E+02  0.49552623184E+03  0.57248159979E+03  0.12499606806E+03 0.  0.
          2    1    1    2  501    0 -0.11497259851E+03  0.58054762278E+01 -0.37182352629E+03  0.38923660756E+03  0.00000000000E+00 0. -1.
          1    1    1    2  502    0 -0.14279036401E+03 -0.16903844642E+02  0.64546382840E+03  0.66128540116E+03  0.00000000000E+00 0. -1.
         22    1    3    3    0    0  0.96975057081E+02  0.63731877247E+02  0.23042211171E+03  0.25799275850E+03  0.00000000000E+00 0.  1.
         22    1    3    3    0    0  0.16078790543E+03 -0.52633508832E+02  0.26510412013E+03  0.31448884129E+03  0.00000000000E+00 0.  1.
</event>
<event>
 7    1  0.5931885E-006  0.6542350E+02  0.7818608E-02  0.1395046E+00
          2   -1    0    0  502    0  0.00000000000E+00  0.00000000000E+00  0.41951602396E+02  0.41951602396E+02  0.00000000000E+00 0. -1.
          1   -1    0    0  501    0 -0.00000000000E+00 -0.00000000000E+00 -0.10149035594E+04  0.10149035594E+04  0.00000000000E+00 0. -1.
         25    2    1    2    0    0 -0.29053211141E+01  0.35024353625E+02 -0.22951475402E+03  0.26370770818E+03  0.12501834586E+03 0.  0.
          2    1    1    2  501    0  0.51872594958E+02  0.21781051080E+02 -0.70794245573E+03  0.71017441584E+03  0.00000000000E+00 0. -1.
          1    1    1    2  502    0 -0.48967273844E+02 -0.56805404704E+02 -0.35494747213E+02  0.82973037736E+02  0.00000000000E+00 0. -1.
         22    1    3    3    0    0  0.29963472198E+02  0.16029188975E+01 -0.21129577033E+03  0.21341574819E+03  0.00000000000E+00 0.  1.
         22    1    3    3    0    0 -0.32868793312E+02  0.33421434727E+02 -0.18218983694E+02  0.50291959992E+02  0.00000000000E+00 0.  1.
</event>
<event>
 7    1  0.5931885E-006  0.5471167E+02  0.7818608E-02  0.1430722E+00
          2   -1    0    0  502    0  0.00000000000E+00  0.00000000000E+00  0.81149874500E+03  0.81149874500E+03  0.00000000000E+00 0. -1.
          1   -1    0    0  501    0 -0.00000000000E+00 -0.00000000000E+00 -0.62940400245E+03  0.62940400245E+03  0.00000000000E+00 0. -1.
         25    2    1    2    0    0  0.90613086655E+02  0.12419510251E+02  0.37789337072E+03  0.40840346287E+03  0.12500005256E+03 0.  0.
          2    1    1    2  501    0 -0.48065571542E+02  0.17004197334E+02 -0.61148480768E+03  0.61360664267E+03  0.00000000000E+00 0. -1.
          1    1    1    2  502    0 -0.42547515113E+02 -0.29423707585E+02  0.41568617952E+03  0.41889264192E+03  0.00000000000E+00 0. -1.
         22    1    3    3    0    0  0.97210224684E+01  0.15838812024E+01 -0.87899085589E+01  0.13201115482E+02  0.00000000000E+00 0. -1.
         22    1    3    3    0    0  0.80892064187E+02  0.10835629049E+02  0.38668327928E+03  0.39520234739E+03  0.00000000000E+00 0. -1.
</event>
<event>
 7    1  0.5931885E-006  0.1167306E+03  0.7818608E-02  0.1419244E+00
          2   -1    0    0  502    0  0.00000000000E+00  0.00000000000E+00  0.32835315884E+03  0.32835315884E+03  0.00000000000E+00 0. -1.
          1   -1    0    0  501    0 -0.00000000000E+00 -0.00000000000E+00 -0.14878477707E+04  0.14878477707E+04  0.00000000000E+00 0. -1.
         25    2    1    2    0    0  0.84996490387E+02 -0.39184740285E+02 -0.13584663450E+03  0.20697650291E+03  0.12500046961E+03 0.  0.
          2    1    1    2  501    0 -0.10362933586E+03  0.57440361956E+02 -0.13131826712E+04  0.13185170315E+04  0.00000000000E+00 0. -1.
          1    1    1    2  502    0  0.18632845469E+02 -0.18255621672E+02  0.28953469384E+03  0.29070739514E+03  0.00000000000E+00 0. -1.
         22    1    3    3    0    0  0.80774930649E+02 -0.75580728648E+02 -0.12859081143E+03  0.16962497678E+03  0.00000000000E+00 0.  1.
         22    1    3    3    0    0  0.42215597377E+01  0.36395988363E+02 -0.72558230728E+01  0.37351526127E+02  0.00000000000E+00 0.  1.
</event>
<event>
 7    1  0.5931885E-006  0.9057952E+02  0.7818608E-02  0.1454150E+00
          2   -1    0    0  502    0  0.00000000000E+00  0.00000000000E+00  0.66139664449E+03  0.66139664449E+03  0.00000000000E+00 0. -1.
          1   -1    0    0  501    0 -0.00000000000E+00 -0.00000000000E+00 -0.11816159779E+04  0.11816159779E+04  0.00000000000E+00 0. -1.
         25    2    1    2    0    0 -0.58390619946E+02 -0.28209849311E+02 -0.72866523354E+03  0.74214726039E+03  0.12499709372E+03 0.  0.
          2    1    1    2  501    0 -0.23828719412E+02 -0.10059802965E+02 -0.44268962600E+03  0.44344459910E+03  0.00000000000E+00 0. -1.
          1    1    1    2  502    0  0.82219339358E+02  0.38269652277E+02  0.65113552615E+03  0.65742076288E+03  0.00000000000E+00 0. -1.
         22    1    3    3    0    0  0.98179732657E+01 -0.63269981378E+02 -0.31777418737E+03  0.32416032654E+03  0.00000000000E+00 0.  1.
         22    1    3    3    0    0 -0.68208593211E+02  0.35060132067E+02 -0.41089104617E+03  0.41798693385E+03  0.00000000000E+00 0.  1.
</event>
<event>
 7    1  0.5931885E-006  0.9961761E+02  0.7818608E-02  0.1335809E+00
          2   -1    0    0  502    0  0.00000000000E+00  0.00000000000E+00  0.34272904338E+03  0.34272904338E+03  0.00000000000E+00 0. -1.
          1   -1    0    0  501    0 -0.00000000000E+00 -0.00000000000E+00 -0.27761667144E+03  0.27761667144E+03  0.00000000000E+00 0. -1.
         25    2    1    2    0    0 -0.93235142209E+02 -0.52785181552E+02  0.10671993233E+02  0.16497751393E+03  0.12499848611E+03 0.  0.
          2    1    1    2  501    0  0.45462392987E+02  0.89990223950E+02 -0.18375490654E+03  0.20959707837E+03  0.00000000000E+00 0. -1.
          1    1    1    2  502    0  0.47772749222E+02 -0.37205042397E+02  0.23819528525E+03  0.24577112252E+03  0.00000000000E+00 0. -1.
         22    1    3    3    0    0 -0.41873773281E+01 -0.65961778756E+01 -0.48089371241E+02  0.48719927317E+02  0.00000000000E+00 0.  1.
         22    1    3    3    0    0 -0.89047764881E+02 -0.46189003677E+02  0.58761364474E+02  0.11625758662E+03  0.00000000000E+00 0.  1.
</event>
<event>
 7    1  0.5931885E-006  0.7104800E+02  0.7818608E-02  0.1496375E+00
          2   -1    0    0  502    0  0.00000000000E+00  0.00000000000E+00  0.15674173031E+03  0.15674173031E+03  0.00000000000E+00 0. -1.
          1   -1    0    0  501    0 -0.00000000000E+00 -0.00000000000E+00 -0.26302104425E+03  0.26302104425E+03  0.00000000000E+00 0. -1.
         25    2    1    2    0    0 -0.51880863231E+02  0.41215388351E+02 -0.58366160547E+02  0.15301469992E+03  0.12496622539E+03 0.  0.
          2    1    1    2  501    0  0.38327605672E+02 -0.61531299477E+02 -0.14742460660E+03  0.16428365958E+03  0.00000000000E+00 0. -1.
          1    1    1    2  502    0  0.13553257559E+02  0.20315911126E+02  0.99511453213E+02  0.10246441507E+03  0.00000000000E+00 0. -1.
         22    1    3    3    0    0 -0.64983298931E+02  0.43927260727E+02  0.13779655313E+02  0.79638635571E+02  0.00000000000E+00 0. -1.
         22    1    3    3    0    0  0.13102435701E+02 -0.27118723762E+01 -0.72145815861E+02  0.73376064348E+02  0.00000000000E+00 0. -1.
</event>
<event>
 7    1  0.5931885E-006  0.3157707E+03  0.7818608E-02  0.1179803E+00
          2   -1    0    0  502    0  0.00000000000E+00  0.00000000000E+00  0.37961561878E+03  0.37961561878E+03  0.00000000000E+00 0. -1.
          1   -1    0    0  501    0 -0.00000000000E+00 -0.00000000000E+00 -0.90326956003E+03  0.90326956003E+03  0.00000000000E+00 0. -1.
         25    2    1    2    0    0 -0.12722710847E+03 -0.24116007955E+03 -0.29536073623E+02  0.30138002298E+03  0.12495046022E+03 0.  0.
          2    1    1    2  501    0  0.82486128648E+02  0.31870778074E+03 -0.69089427838E+03  0.76531922413E+03  0.00000000000E+00 0. -1.
          1    1    1    2  502    0  0.44740979824E+02 -0.77547701187E+02  0.19677641076E+03  0.21618593170E+03  0.00000000000E+00 0. -1.
         22    1    3    3    0    0 -0.43157523227E+02 -0.41174127466E+02  0.42000570660E+02  0.72951549123E+02  0.00000000000E+00 0.  1.
         22    1    3    3    0    0 -0.84069585245E+02 -0.19998595209E+03 -0.71536644283E+02  0.22842847386E+03  0.00000000000E+00 0.  1.
</event>
<event>
 7    1  0.5931885E-006  0.4330836E+02  0.7818608E-02  0.1520186E+00
          2   -1    0    0  502    0  0.00000000000E+00  0.00000000000E+00  0.40977193697E+03  0.40977193697E+03  0.00000000000E+00 0. -1.
          1   -1    0    0  501    0 -0.00000000000E+00 -0.00000000000E+00 -0.14279357697E+03  0.14279357697E+03  0.00000000000E+00 0. -1.
         25    2    1    2    0    0 -0.65816471745E+02 -0.68133202276E+01  0.82830628274E+02  0.16391358848E+03  0.12501408810E+03 0.  0.
          2    1    1    2  501    0  0.29937949557E+02 -0.16283886574E+02 -0.97761621192E+02  0.10353154284E+03  0.00000000000E+00 0. -1.
          1    1    1    2  502    0  0.35878522188E+02  0.23097206801E+02  0.28190935292E+03  0.28512038261E+03  0.00000000000E+00 0. -1.
         22    1    3    3    0    0  0.18596061185E+02 -0.42337791554E+02  0.11027377219E+02  0.47538459521E+02  0.00000000000E+00 0. -1.
         22    1    3    3    0    0 -0.84412532930E+02  0.35524471327E+02  0.71803251055E+02  0.11637512896E+03  0.00000000000E+00 0. -1.
</event>
<event>
 7    1  0.5931885E-006  0.5030228E+02  0.7818608E-02  0.1473484E+00
          2   -1    0    0  502    0  0.00000000000E+00  0.00000000000E+00  0.15041112342E+04  0.15041112342E+04  0.00000000000E+00 0. -1.
          1   -1    0    0  501    0 -0.00000000000E+00 -0.00000000000E+00 -0.30341280947E+04  0.30341280947E+04  0.00000000000E+00 0. -1.
         25    2    1    2    0    0 -0.33128451916E+02  0.62161914411E+02 -0.44041842219E+02  0.15012246948E+03  0.12504188917E+03 0.  0.
          2    1    1    2  501    0 -0.11412159885E+02 -0.38862249253E+02 -0.29364709132E+04  0.29367502339E+04  0.00000000000E+00 0. -1.
          1    1    1    2  502    0  0.44540611802E+02 -0.23299665158E+02  0.14504958950E+04  0.14513666256E+04  0.00000000000E+00 0. -1.
         22    1    3    3    0    0 -0.26092745528E+02  0.84529713021E+02 -0.71692590082E+02  0.11386804304E+03  0.00000000000E+00 0. -1.
         22    1    3    3    0    0 -0.70357063877E+01 -0.22367798610E+02  0.27650747863E+02  0.36254426439E+02  0.00000000000E+00 0. -1.
</event>
<event>
 7    1  0.5931885E-006  0.4161077E+02  0.7818608E-02  0.1515417E+00
          2   -1    0    0  502    0  0.00000000000E+00  0.00000000000E+00  0.33899540353E+04  0.33899540353E+04  0.00000000000E+00 0. -1.
          1   -1    0    0  501    0 -0.00000000000E+00 -0.00000000000E+00 -0.18289458854E+02  0.18289458854E+02  0.00000000000E+00 0. -1.
         25    2    1    2    0    0 -0.39150182052E+02 -0.56045549525E+01  0.10087789682E+04  0.10172609015E+04  0.12498234785E+03 0.  0.
          2    1    1    2  501    0  0.90795444629E+01  0.35479720339E+02  0.10339472520E+02  0.38054610430E+02  0.00000000000E+00 0. -1.
          1    1    1    2  502    0  0.30070637589E+02 -0.29875165387E+02  0.23525461357E+04  0.23529279822E+04  0.00000000000E+00 0. -1.
         22    1    3    3    0    0 -0.29263987426E+01 -0.61729825415E+02  0.58413916388E+03  0.58739909596E+03  0.00000000000E+00 0. -1.
         22    1    3    3    0    0 -0.36223783309E+02  0.56125270462E+02  0.42463980435E+03  0.42986180559E+03  0.00000000000E+00 0. -1.
</event>
<event>
 7    1  0.5931885E-006  0.9653572E+02  0.7818608E-02  0.1464405E+00
          2   -1    0    0  502    0  0.00000000000E+00  0.00000000000E+00  0.16288904877E+04  0.16288904877E+04  0.00000000000E+00 0. -1.
          1   -1    0    0  501    0 -0.00000000000E+00 -0.00000000000E+00 -0.41381349322E+02  0.41381349322E+02  0.00000000000E+00 0. -1.
         25    2    1    2    0    0  0.60677738954E+02  0.93841466016E+02  0.69511481076E+03  0.71505202134E+03  0.12500713716E+03 0.  0.
          2    1    1    2  501    0 -0.39362827025E+02 -0.86556157526E+02  0.41035567757E+02  0.10356311302E+03  0.00000000000E+00 0. -1.
          1    1    1    2  502    0 -0.21314911929E+02 -0.72853084898E+01  0.85135875982E+03  0.85165670261E+03  0.00000000000E+00 0. -1.
         22    1    3    3    0    0  0.32655783841E+02  0.70259529972E+02  0.15110014206E+03  0.16980593246E+03  0.00000000000E+00 0.  1.
         22    1    3    3    0    0  0.28021955112E+02  0.23581936044E+02  0.54401466870E+03  0.54524608888E+03  0.00000000000E+00 0.  1.
</event>
<event>
 7    1  0.5931885E-006  0.6815093E+02  0.7818608E-02  0.1397790E+00
          2   -1    0    0  502    0  0.00000000000E+00  0.00000000000E+00  0.97100339048E+02  0.97100339048E+02  0.00000000000E+00 0. -1.
          1   -1    0    0  501    0 -0.00000000000E+00 -0.00000000000E+00 -0.36182041720E+04  0.36182041720E+04  0.00000000000E+00 0. -1.
         25    2    1    2    0    0  0.40318918550E+02 -0.96461308379E+02 -0.92808236398E+02  0.18754214756E+03  0.12501315596E+03 0.  0.
          2    1    1    2  501    0  0.41034401595E+01  0.67845271782E+02 -0.34635648557E+04  0.34642317083E+04  0.00000000000E+00 0. -1.
          1    1    1    2  502    0 -0.44422358710E+02  0.28616036597E+02  0.35269259166E+02  0.63530655167E+02  0.00000000000E+00 0. -1.
         22    1    3    3    0    0  0.58710101732E+02 -0.31781981866E+02  0.70737419979E+01  0.67134255359E+02  0.00000000000E+00 0. -1.
         22    1    3    3    0    0 -0.18391183182E+02 -0.64679326513E+02 -0.99881978396E+02  0.12040789221E+03  0.00000000000E+00 0. -1.
</event>
<event>
 7    1  0.5931885E-006  0.4702803E+02  0.7818608E-02  0.1499942E+00
          2   -1    0    0  502    0  0.00000000000E+00  0.00000000000E+00  0.43610593349E+03  0.43610593349E+03  0.00000000000E+00 0. -1.
          1   -1    0    0  501    0 -0.00000000000E+00 -0.00000000000E+00 -0.53263332680E+03  0.53263332680E+03  0.00000000000E+00 0. -1.
         25    2    1    2    0    0  0.12801158030E+02 -0.72141101801E+02 -0.11975569681E+03  0.18797818017E+03  0.12500464426E+03 0.  0.
          2    1    1    2  501    0  0.10747758572E+02  0.44911615680E+02 -0.37654698506E+03  0.37936815825E+03  0.00000000000E+00 0. -1.
          1    1    1    2  502    0 -0.23548916601E+02  0.27229486121E+02  0.39977528856E+03  0.40139292187E+03  0.00000000000E+00 0. -1.
         22    1    3    3    0    0 -0.42348505024E+02 -0.53917568146E+02 -0.18116093195E+02  0.70913277072E+02  0.00000000000E+00 0. -1.
         22    1    3    3    0    0  0.55149663054E+02 -0.18223533656E+02 -0.10163960362E+03  0.11706490310E+03  0.00000000000E+00 0. -1.
</event>
<event>
 7    1  0.5931885E-006  0.4645572E+02  0.7818608E-02  0.1531040E+00
          2   -1    0    0  502    0  0.00000000000E+00  0.00000000000E+00  0.92738125431E+03  0.92738125431E+03  0.00000000000E+00 0. -1.
          1   -1    0    0  501    0 -0.00000000000E+00 -0.00000000000E+00 -0.55976477845E+02  0.55976477845E+02  0.00000000000E+00 0. -1.
         25    2    1    2    0    0  0.44173125474E+02 -0.42601639682E+02  0.48443629350E+03  0.50405236122E+03  0.12499638262E+03 0.  0.
          2    1    1    2  501    0 -0.74069855569E+00  0.29553889285E+02 -0.40109014260E+02  0.49826840469E+02  0.00000000000E+00 0. -1.
          1    1    1    2  502    0 -0.43432426918E+02  0.13047750397E+02  0.42707749722E+03  0.42947853047E+03  0.00000000000E+00 0. -1.
         22    1    3    3    0    0 -0.24186092584E+02 -0.59841404289E+02  0.17076033241E+03  0.18255150470E+03  0.00000000000E+00 0.  1.
         22    1    3    3    0    0  0.68359218058E+02  0.17239764607E+02  0.31367596109E+03  0.32150085652E+03  0.00000000000E+00 0.  1.
</event>
<event>
 7    1  0.5931885E-006  0.1358988E+03  0.7818608E-02  0.1330644E+00
          2   -1    0    0  502    0  0.00000000000E+00  0.00000000000E+00  0.92751124805E+03  0.92751124805E+03  0.00000000000E+00 0. -1.
          1   -1    0    0  501    0 -0.00000000000E+00 -0.00000000000E+00 -0.27065827130E+03  0.27065827130E+03  0.00000000000E+00 0. -1.
         25    2    1    2    0    0 -0.31784004670E+02 -0.13490753589E+03 -0.96365343838E+02  0.21005143820E+03  0.12500024401E+03 0.  0.
          2    1    1    2  501    0 -0.14628489924E+02  0.13646703438E+03 -0.76481349097E+02  0.15711982991E+03  0.00000000000E+00 0. -1.
          1    1    1    2  502    0  0.46412494594E+02 -0.15594984878E+01  0.82969966969E+03  0.83099825124E+03  0.00000000000E+00 0. -1.
         22    1    3    3    0    0  0.21157186562E+02 -0.12902977307E+03 -0.83867081733E+02  0.15533832843E+03  0.00000000000E+00 0. -1.
         22    1    3    3    0    0 -0.52941191232E+02 -0.58777628223E+01 -0.12498262105E+02  0.54713109768E+02  0.00000000000E+00 0. -1.
</event>
<event>
 7    1  0.5931885E-006  0.4939397E+02  0.7818608E-02  0.1521054E+00
          2   -1    0    0  502    0  0.00000000000E+00  0.00000000000E+00  0.11472600593E+03  0.11472600593E+03  0.00000000000E+00 0. -1.
          1   -1    0    0  501    0 -0.00000000000E+00 -0.00000000000E+00 -0.18444204827E+04  0.18444204827E+04  0.00000000000E+00 0. -1.
         25    2    1    2    0    0  0.38102703220E+02  0.58061339934E+02 -0.61503165265E+02  0.15566173251E+03  0.12500000177E+03 0.  0.
          2    1    1    2  501    0 -0.27554761147E+02 -0.11105130194E+02 -0.17271343873E+04  0.17273898751E+04  0.00000000000E+00 0. -1.
          1    1    1    2  502    0 -0.10547942073E+02 -0.46956209741E+02  0.58943075870E+02  0.76094880960E+02  0.00000000000E+00 0. -1.
         22    1    3    3    0    0  0.33874004115E+02 -0.65437973130E+01  0.28528766094E+02  0.44767844854E+02  0.00000000000E+00 0.  1.
         22    1    3    3    0    0  0.42286991049E+01  0.64605137247E+02 -0.90031931359E+02  0.11089388765E+03  0.00000000000E+00 0.  1.
</event>
<event>
 7    1  0.5931885E-006  0.9745459E+02  0.7818608E-02  0.1339238E+00
          2   -1    0    0  502    0  0.00000000000E+00  0.00000000000E+00  0.25670218326E+04  0.25670218326E+04  0.00000000000E+00 0. -1.
          1   -1    0    0  501    0 -0.00000000000E+00 -0.00000000000E+00 -0.26676238422E+04  0.26676238422E+04  0.00000000000E+00 0. -1.
         25    2    1    2    0    0  0.92485817988E+02  0.10622426569E+03 -0.19151223276E+03  0.26858710144E+03  0.12499949846E+03 0.  0.
          2    1    1    2  501    0 -0.58128127817E+02 -0.15177633905E+02 -0.24362674027E+04  0.24370080216E+04  0.00000000000E+00 0. -1.
          1    1    1    2  502    0 -0.34357690171E+02 -0.91046631785E+02  0.25271776259E+04  0.25290505517E+04  0.00000000000E+00 0. -1.
         22    1    3    3    0    0 -0.10548974156E+02  0.16854077662E+02 -0.10545681408E+03  0.10731486582E+03  0.00000000000E+00 0.  1.
         22    1    3    3    0    0  0.10303479214E+03  0.89370188028E+02 -0.86055418681E+02  0.16127223563E+03  0.00000000000E+00 0.  1.
</event>
<event>
 7    1  0.5931885E-006  0.3983025E+02  0.7818608E-02  0.1581390E+00
          2   -1    0    0  502    0  0.00000000000E+00  0.00000000000E+00  0.12140797968E+04  0.12140797968E+04  0.00000000000E+00 0. -1.
          1   -1    0    0  501    0 -0.00000000000E+00 -0.00000000000E+00 -0.19710331330E+02  0.19710331330E+02  0.00000000000E+00 0. -1.
         25    2    1    2    0    0  0.30345924959E+02  0.56508036609E+02  0.95611629995E+03  0.96638354027E+03  0.12499893807E+03 0.  0.
          2    1    1    2  501    0 -0.18031240060E+02 -0.34731278403E+02  0.13696452259E+02  0.41460585163E+02  0.00000000000E+00 0. -1.
          1    1    1    2  502    0 -0.12314684899E+02 -0.21776758206E+02  0.22455671322E+03  0.22594600265E+03  0.00000000000E+00 0. -1.
         22    1    3    3    0    0  0.40832115777E+02 -0.12858252813E+02  0.68504375782E+03  0.68638003065E+03  0.00000000000E+00 0.  1.
         22    1    3    3    0    0 -0.10486190818E+02  0.69366289421E+02  0.27107254213E+03  0.28000350962E+03  0.00000000000E+00 0.  1.
</event>
<event>
 7    1  0.5931885E-006  0.7331913E+02  0.7818608E-02  0.1389690E+00
          2   -1    0    0  502    0  0.00000000000E+00  0.00000000000E+00  0.31789914447E+03  0.31789914447E+03  0.00000000000E+00 0. -1.
          1   -1    0    0  501    0 -0.00000000000E+00 -0.00000000000E+00 -0.66801267921E+03  0.66801267921E+03  0.00000000000E+00 0. -1.
         25    2    1    2    0    0  0.58841640976E+00  0.50836290912E+02  0.58032064182E+02  0.14688863028E+03  0.12499549801E+03 0.  0.
          2    1    1    2  501    0  0.51765834926E+02 -0.53050775330E+02 -0.61815088494E+03  0.62257899336E+03  0.00000000000E+00 0. -1.
          1    1    1    2  502    0 -0.52354251336E+02  0.22144844178E+01  0.21000528602E+03  0.21644420003E+03  0.00000000000E+00 0. -1.
         22    1    3    3    0    0  0.22979123564E+02  0.31935538950E+02  0.93170074662E+02  0.10113645031E+03  0.00000000000E+00 0. -1.
         22    1    3    3    0    0 -0.22390707155E+02  0.18900751962E+02 -0.35138010480E+02  0.45752179971E+02  0.00000000000E+00 0. -1.
</event>
<event>
 7    1  0.5931885E-006  0.1395923E+03  0.7818608E-02  0.1299008E+00
          2   -1    0    0  502    0  0.00000000000E+00  0.00000000000E+00  0.19968707409E+04  0.19968707409E+04  0.00000000000E+00 0. -1.
          1   -1    0    0  501    0 -0.00000000000E+00 -0.00000000000E+00 -0.57963938918E+03  0.57963938918E+03  0.00000000000E+00 0. -1.
         25    2    1    2    0    0  0.24525330369E+02  0.13001848794E+03  0.20191115461E+02  0.18314289915E+03  0.12500936498E+03 0.  0.
          2    1    1    2  501    0  0.57802641290E+02 -0.16516074966E+02 -0.49374439503E+03  0.49739064496E+03  0.00000000000E+00 0. -1.
          1    1    1    2  502    0 -0.82327971660E+02 -0.11350241297E+03  0.18907846313E+04  0.18959765860E+04  0.00000000000E+00 0. -1.
         22    1    3    3    0    0  0.58150833590E+02  0.10294808788E+03  0.52355635286E+02  0.12930947681E+03  0.00000000000E+00 0.  1.
         22    1    3    3    0    0 -0.33625503221E+02  0.27070400056E+02 -0.32164519825E+02  0.53833422347E+02  0.00000000000E+00 0.  1.
</event>
<event>
 7    1  0.5931885E-006  0.8332334E+02  0.7818608E-02  0.1462272E+00
          2   -1    0    0  502    0  0.00000000000E+00  0.00000000000E+00  0.15778948052E+04  0.15778948052E+04  0.00000000000E+00 0. -1.
          1   -1    0    0  501    0 -0.00000000000E+00 -0.00000000000E+00 -0.34768653936E+03  0.34768653936E+03  0.00000000000E+00 0. -1.
         25    2    1    2    0    0 -0.64189513620E+02  0.64786182847E+01  0.60949204251E+03  0.62551436361E+03  0.12500161216E+03 0.  0.
          2    1    1    2  501    0  0.82532699349E+02  0.12650724480E+02 -0.33435763487E+03  0.34462547104E+03  0.00000000000E+00 0. -1.
          1    1    1    2  502    0 -0.18343185729E+02 -0.19129342765E+02  0.95507385817E+03  0.95544150986E+03  0.00000000000E+00 0. -1.
         22    1    3    3    0    0  0.19330875605E+02 -0.39439474167E+02  0.23604508262E+03  0.24009672198E+03  0.00000000000E+00 0.  1.
         22    1    3    3    0    0 -0.83520389225E+02  0.45918092452E+02  0.37344695989E+03  0.38541764163E+03  0.00000000000E+00 0.  1.
</event>
<event>
 7    1  0.5931885E-006  0.8905769E+02  0.7818608E-02  0.1326853E+00
          2   -1    0    0  502    0  0.00000000000E+00  0.00000000000E+00  0.82457975488E+03  0.82457975488E+03  0.00000000000E+00 0. -1.
          1   -1    0    0  501    0 -0.00000000000E+00 -0.00000000000E+00 -0.16260549595E+03  0.16260549595E+03  0.00000000000E+00 0. -1.
         25    2    1    2    0    0  0.34472060107E+01  0.14418474940E+03  0.33309614790E+03  0.38389860526E+03  0.12499588067E+03 0.  0.
          2    1    1    2  501    0 -0.30443090787E+02 -0.66647500057E+02 -0.12345586792E+03  0.14356191126E+03  0.00000000000E+00 0. -1.
          1    1    1    2  502    0  0.26995884776E+02 -0.77537249346E+02  0.45233397895E+03  0.45972473431E+03  0.00000000000E+00 0. -1.
         22    1    3    3    0    0  0.12762268003E+02  0.55920660527E+02  0.26738084885E+03  0.27346391735E+03  0.00000000000E+00 0.  1.
         22    1    3    3    0    0 -0.93150619925E+01  0.88264088875E+02  0.65715299048E+02  0.11043468791E+03  0.00000000000E+00 0.  1.
</event>
<event>
 7    1  0.5931885E-006  0.4176500E+03  0.7818608E-02  0.1087194E+00
          2   -1    0    0  502    0  0.00000000000E+00  0.00000000000E+00  0.33698759940E+03  0.33698759940E+03  0.00000000000E+00 0. -1.
          1   -1    0    0  501    0 -0.00000000000E+00 -0.00000000000E+00 -0.15936169430E+04  0.15936169430E+04  0.00000000000E+00 0. -1.
         25    2    1    2    0    0 -0.19427353734E+03 -0.18613715696E+03  0.43840227029E+02  0.29989354236E+03  0.12499969092E+03 0.  0.
          2    1    1    2  501    0  0.22050008198E+03  0.39445370169E+03 -0.13425590144E+04  0.14165728771E+04  0.00000000000E+00 0. -1.
          1    1    1    2  502    0 -0.26226544640E+02 -0.20831654473E+03  0.42089443722E+02  0.21413812300E+03  0.00000000000E+00 0. -1.
         22    1    3    3    0    0 -0.31017499561E+02 -0.11319599688E+03  0.25843963382E+02  0.12018040369E+03  0.00000000000E+00 0. -1.
         22    1    3    3    0    0 -0.16325603777E+03 -0.72941160086E+02  0.17996263647E+02  0.17971313867E+03  0.00000000000E+00 0. -1.
</event>
<event>
 7    1  0.5931885E-006  0.7515728E+02  0.7818608E-02  0.1503389E+00
          2   -1    0    0  502    0  0.00000000000E+00  0.00000000000E+00  0.62793653790E+03  0.62793653790E+03  0.00000000000E+00 0. -1.
          1   -1    0    0  501    0 -0.00000000000E+00 -0.00000000000E+00 -0.97349689068E+03  0.97349689068E+03  0.00000000000E+00 0. -1.
         25    2    1    2    0    0 -0.30567421184E+02  0.44392493502E+02 -0.16448915039E+02  0.13711621446E+03  0.12500091498E+03 0.  0.
          2    1    1    2  501    0  0.45620340764E+02 -0.60436798502E+02 -0.89490159651E+03  0.89809948755E+03  0.00000000000E+00 0. -1.
          1    1    1    2  502    0 -0.15052919579E+02  0.16044305000E+02  0.56579015877E+03  0.56621772656E+03  0.00000000000E+00 0. -1.
         22    1    3    3    0    0  0.11161543867E+01  0.81453216929E+02 -0.29506368235E+02  0.86640049140E+02  0.00000000000E+00 0. -1.
         22    1    3    3    0    0 -0.31683575571E+02 -0.37060723427E+02  0.13057453196E+02  0.50476165324E+02  0.00000000000E+00 0. -1.
</event>
<event>
 7    1  0.5931885E-006  0.4920949E+02  0.7818608E-02  0.1524231E+00
          2   -1    0    0  502    0  0.00000000000E+00  0.00000000000E+00  0.13124999704E+04  0.13124999704E+04  0.00000000000E+00 0. -1.
          1   -1    0    0  501    0 -0.00000000000E+00 -0.00000000000E+00 -0.29416852400E+03  0.29416852400E+03  0.00000000000E+00 0. -1.
         25    2    1    2    0    0 -0.44320202999E+02  0.23218346510E+02 -0.69675686212E+02  0.15160614207E+03  0.12500539610E+03 0.  0.
          2    1    1    2  501    0  0.49491316836E+02  0.55153139946E+01 -0.17997850355E+03  0.18674065136E+03  0.00000000000E+00 0. -1.
          1    1    1    2  502    0 -0.51711138369E+01 -0.28733660505E+02  0.12679856361E+04  0.12683217009E+04  0.00000000000E+00 0. -1.
         22    1    3    3    0    0  0.12072192158E+02 -0.41938999831E+02 -0.43325287776E+02  0.61495512773E+02  0.00000000000E+00 0.  1.
         22    1    3    3    0    0 -0.56392395157E+02  0.65157346341E+02 -0.26350398436E+02  0.90110629292E+02  0.00000000000E+00 0.  1.
</event>
<event>
 7    1  0.5931885E-006  0.1644996E+03  0.7818608E-02  0.1267768E+00
          2   -1    0    0  502    0  0.00000000000E+00  0.00000000000E+00  0.12139333024E+04  0.12139333024E+04  0.00000000000E+00 0. -1.
          1   -1    0    0  501    0 -0.00000000000E+00 -0.00000000000E+00 -0.25818402440E+03  0.25818402440E+03  0.00000000000E+00 0. -1.
         25    2    1    2    0    0 -0.17374420463E+03 -0.13733795555E+03  0.24268244562E+03  0.35152698872E+03  0.12501076636E+03 0.  0.
          2    1    1    2  501    0  0.38239480842E+02  0.56912301252E+02 -0.19097913507E+03  0.20291450900E+03  0.00000000000E+00 0. -1.
          1    1    1    2  502    0  0.13550472379E+03  0.80425654300E+02  0.90404596740E+03  0.91767582904E+03  0.00000000000E+00 0. -1.
         22    1    3    3    0    0 -0.44360471956E+02 -0.10175286717E+03  0.64209322612E+02  0.12823546529E+03  0.00000000000E+00 0.  1.
         22    1    3    3    0    0 -0.12938373267E+03 -0.35585088385E+02  0.17847312301E+03  0.22329152342E+03  0.00000000000E+00 0.  1.
</event>
<event>
 7    1  0.5931885E-006  0.8441108E+02  0.7818608E-02  0.1394079E+00
          2   -1    0    0  502    0  0.00000000000E+00  0.00000000000E+00  0.17740018478E+04  0.17740018478E+04  0.00000000000E+00 0. -1.
          1   -1    0    0  501    0 -0.00000000000E+00 -0.00000000000E+00 -0.18071813478E+02  0.18071813478E+02  0.00000000000E+00 0. -1.
         25    2    1    2    0    0  0.17670982380E+02 -0.18888835878E+01  0.32145263434E+03  0.34535928562E+03  0.12500163414E+03 0.  0.
          2    1    1    2  501    0 -0.68159968204E+02 -0.65757934558E+02  0.53809243710E+03  0.54636375986E+03  0.00000000000E+00 0. -1.
          1    1    1    2  502    0  0.50488985824E+02  0.67646818146E+02  0.89638496283E+03  0.90035061575E+03  0.00000000000E+00 0. -1.
         22    1    3    3    0    0 -0.14878040436E+02 -0.45392122003E+02  0.52523296245E+02  0.70996461007E+02  0.00000000000E+00 0.  1.
         22    1    3    3    0    0  0.32549022816E+02  0.43503238415E+02  0.26892933810E+03  0.27436282461E+03  0.00000000000E+00 0.  1.
</event>
<event>
 7    1  0.5931885E-006  0.1950010E+03  0.7818608E-02  0.1270206E+00
          2   -1    0    0  502    0  0.00000000000E+00  0.00000000000E+00  0.53630208977E+03  0.53630208977E+03  0.00000000000E+00 0. -1.
          1   -1    0    0  501    0 -0.00000000000E+00 -0.00000000000E+00 -0.23400000763E+03  0.23400000763E+03  0.00000000000E+00 0. -1.
         25    2    1    2    0    0 -0.10169698623E+03  0.10986191882E+03 -0.34982022053E+01  0.19506252903E+03  0.12500093839E+03 0.  0.
          2    1    1    2  501    0 -0.37808157844E+02  0.41973338486E+02 -0.10294797859E+03  0.11742871983E+03  0.00000000000E+00 0. -1.
          1    1    1    2  502    0  0.13950514408E+03 -0.15183525730E+03  0.40874826294E+03  0.45781084854E+03  0.00000000000E+00 0. -1.
         22    1    3    3    0    0  0.10757604059E+02 -0.20318317145E+02  0.36164017978E+00  0.22993278155E+02  0.00000000000E+00 0. -1.
         22    1    3    3    0    0 -0.11245459029E+03  0.13018023596E+03 -0.38598423851E+01  0.17206925087E+03  0.00000000000E+00 0. -1.
</event>
<event>
 7    1  0.5931885E-006  0.6745158E+02  0.7818608E-02  0.1422333E+00
          2   -1    0    0  502    0  0.00000000000E+00  0.00000000000E+00  0.79379930939E+03  0.79379930939E+03  0.00000000000E+00 0. -1.
          1   -1    0    0  501    0 -0.00000000000E+00 -0.00000000000E+00 -0.12608213334E+04  0.12608213334E+04  0.00000000000E+00 0. -1.
         25    2    1    2    0    0 -0.26749504505E+02  0.93769067055E+02  0.89312933371E+02  0.18195985556E+03  0.12499766014E+03 0.  0.
          2    1    1    2  501    0  0.34380727227E+02 -0.27593376782E+02 -0.12124106949E+04  0.12132119031E+04  0.00000000000E+00 0. -1.
          1    1    1    2  502    0 -0.76312227213E+01 -0.66175690273E+02  0.65607573744E+03  0.65944888415E+03  0.00000000000E+00 0. -1.
         22    1    3    3    0    0  0.36217757565E+02  0.80649528523E+02  0.75303791095E+02  0.11613239586E+03  0.00000000000E+00 0.  1.
         22    1    3    3    0    0 -0.62967262070E+02  0.13119538532E+02  0.14009142276E+02  0.65827459705E+02  0.00000000000E+00 0.  1.
</event>
<event>
 7    1  0.5931885E-006  0.9105802E+02  0.7818608E-02  0.1365329E+00
          2   -1    0    0  502    0  0.00000000000E+00  0.00000000000E+00  0.11513233248E+04  0.11513233248E+04  0.00000000000E+00 0. -1.
          1   -1    0    0  501    0 -0.00000000000E+00 -0.00000000000E+00 -0.23008723096E+03  0.23008723096E+03  0.00000000000E+00 0. -1.
         25    2    1    2    0    0 -0.10731723342E+03 -0.42352801252E+02  0.10964917537E+03  0.20237390929E+03  0.12498603578E+03 0.  0.
          2    1    1    2  501    0  0.17082187019E+02  0.48589639664E+02 -0.17801168357E+03  0.18531301542E+03  0.00000000000E+00 0. -1.
          1    1    1    2  502    0  0.90235046401E+02 -0.62368384125E+01  0.98959860207E+03  0.99372363109E+03  0.00000000000E+00 0. -1.
         22    1    3    3    0    0 -0.53262592820E+02 -0.96558665856E+01 -0.20356301373E+02  0.57831812690E+02  0.00000000000E+00 0.  1.
         22    1    3    3    0    0 -0.54054640599E+02 -0.32696934666E+02  0.13000547674E+03  0.14454209660E+03  0.00000000000E+00 0.  1.
</event>
<event>
 7    1  0.5931885E-006  0.1149698E+03  0.7818608E-02  0.1351871E+00
          2   -1    0    0  502    0  0.00000000000E+00  0.00000000000E+00  0.73853395832E+03  0.73853395832E+03  0.00000000000E+00 0. -1.
          1   -1    0    0  501    0 -0.00000000000E+00 -0.00000000000E+00 -0.37926789795E+03  0.37926789795E+03  0.00000000000E+00 0. -1.
         25    2    1    2    0    0  0.61836259674E+02  0.83798903615E+02 -0.18170869799E+02  0.16371132814E+03  0.12500095678E+03 0.  0.
          2    1    1    2  501    0 -0.28051046617E+02 -0.11455528400E+03 -0.27543420278E+03  0.29962272005E+03  0.00000000000E+00 0. -1.
          1    1    1    2  502    0 -0.33785213057E+02  0.30756380385E+02  0.65287113296E+03  0.65446780807E+03  0.00000000000E+00 0. -1.
         22    1    3    3    0    0  0.89211176077E+02  0.97306980003E+02 -0.11900885784E+02  0.13254777771E+03  0.00000000000E+00 0. -1.
         22    1    3    3    0    0 -0.27374916403E+02 -0.13508076388E+02 -0.62699840148E+01  0.31163550429E+02  0.00000000000E+00 0. -1.
</event>
<event>
 7    1  0.5931885E-006  0.6916117E+02  0.7818608E-02  0.1366539E+00
          2   -1    0    0  502    0  0.00000000000E+00  0.00000000000E+00  0.63109863250E+02  0.63109863250E+02  0.00000000000E+00 0. -1.
          1   -1    0    0  501    0 -0.00000000000E+00 -0.00000000000E+00 -0.11014658378E+04  0.11014658378E+04  0.00000000000E+00 0. -1.
         25    2    1    2    0    0  0.25002001884E+02 -0.36956040788E+02 -0.25777805049E+03  0.28993933444E+03  0.12499778113E+03 0.  0.
          2    1    1    2  501    0  0.48898739732E+02  0.45994910976E+02 -0.79581522652E+03  0.79864165515E+03  0.00000000000E+00 0. -1.
          1    1    1    2  502    0 -0.73900741616E+02 -0.90388701879E+01  0.15237302452E+02  0.75994711472E+02  0.00000000000E+00 0. -1.
         22    1    3    3    0    0  0.44051840525E+02 -0.15397347207E+01 -0.24320270273E+03  0.24716490457E+03  0.00000000000E+00 0. -1.
         22    1    3    3    0    0 -0.19049838641E+02 -0.35416306068E+02 -0.14575347760E+02  0.42774429862E+02  0.00000000000E+00 0. -1.
</event>
<event>
 7    1  0.5931885E-006  0.1722806E+03  0.7818608E-02  0.1310785E+00
          2   -1    0    0  502    0  0.00000000000E+00  0.00000000000E+00  0.26924606030E+04  0.26924606030E+04  0.00000000000E+00 0. -1.
          1   -1    0    0  501    0 -0.00000000000E+00 -0.00000000000E+00 -0.13065717178E+04  0.13065717178E+04  0.00000000000E+00 0. -1.
         25    2    1    2    0    0 -0.16303611149E+03 -0.69357738528E+02  0.88174125739E+02  0.23407516365E+03  0.12500094497E+03 0.  0.
          2    1    1    2  501    0  0.26043362256E+02 -0.35135101185E+02 -0.12303003717E+04  0.12310774698E+04  0.00000000000E+00 0. -1.
          1    1    1    2  502    0  0.13699274923E+03  0.10449283971E+03  0.25280151312E+04  0.25338796874E+04  0.00000000000E+00 0. -1.
         22    1    3    3    0    0 -0.48785060343E+02  0.36009060549E+02  0.33789508721E+02  0.69414447011E+02  0.00000000000E+00 0. -1.
         22    1    3    3    0    0 -0.11425105114E+03 -0.10536679908E+03  0.54384617018E+02  0.16466071664E+03  0.00000000000E+00 0. -1.
</event>
<event>
 7    1  0.5931885E-006  0.1456356E+03  0.7818608E-02  0.1283667E+00
          2   -1    0    0  502    0  0.00000000000E+00  0.00000000000E+00  0.26614381226E+03  0.26614381226E+03  0.00000000000E+00 0. -1.
          1   -1    0    0  501    0 -0.00000000000E+00 -0.00000000000E+00 -0.11155071117E+04  0.11155071117E+04  0.00000000000E+00 0. -1.
         25    2    1    2    0    0 -0.17634965532E+03  0.71495106524E+02 -0.45230495411E+03  0.50637502560E+03  0.12500057541E+03 0.  0.
          2    1    1    2  501    0  0.63913665918E+02  0.18379359727E+02 -0.61254000547E+03  0.61613960744E+03  0.00000000000E+00 0. -1.
          1    1    1    2  502    0  0.11243598940E+03 -0.89874466251E+02  0.21548166016E+03  0.25913629090E+03  0.00000000000E+00 0. -1.
         22    1    3    3    0    0 -0.56016948564E+02  0.27824542796E+02 -0.39023558437E+02  0.73722057902E+02  0.00000000000E+00 0. -1.
         22    1    3    3    0    0 -0.12033270676E+03  0.43670563728E+02 -0.41328139567E+03  0.43265296770E+03  0.00000000000E+00 0. -1.
</event>
<event>
 7    1  0.6905284E-006  0.8804089E+02  0.7818608E-02  0.1417658E+00
          2   -1    0    0  502    0  0.00000000000E+00  0.00000000000E+00  0.10203220183E+04  0.10203220183E+04  0.00000000000E+00 0. -1.
          1   -1    0    0  501    0 -0.00000000000E+00 -0.00000000000E+00 -0.18054403507E+04  0.18054403507E+04  0.00000000000E+00 0. -1.
         25    2    1    2    0    0 -0.85643902347E+02 -0.78664578338E+02 -0.67157208637E+03  0.69293311663E+03  0.12499697211E+03 0.  0.
          2    1    1    2  501    0  0.53503591961E+02  0.64780209133E+02 -0.11213121110E+04  0.11244554060E+04  0.00000000000E+00 0. -1.
          1    1    1    2  502    0  0.32140310386E+02  0.13884369206E+02  0.10077658650E+04  0.10083738463E+04  0.00000000000E+00 0. -1.
         22    1    3    3    0    0  0.66213953389E+01 -0.55001389855E+02 -0.42512270367E+03  0.42871704998E+03  0.00000000000E+00 0. -1.
         22    1    3    3    0    0 -0.92265297686E+02 -0.23663188484E+02 -0.24644938270E+03  0.26421606665E+03  0.00000000000E+00 0. -1.
</event>
<event>
 7    1  0.5931885E-006  0.1697422E+03  0.7818608E-02  0.1366971E+00
          2   -1    0    0  502    0  0.00000000000E+00  0.00000000000E+00  0.21801665764E+04  0.21801665764E+04  0.00000000000E+00 0. -1.
          1   -1    0    0  501    0 -0.00000000000E+00 -0.00000000000E+00 -0.15723509731E+04  0.15723509731E+04  0.00000000000E+00 0. -1.
         25    2    1    2    0    0  0.49878892530E+02  0.14355647176E+03  0.11872471422E+04  0.12034438575E+04  0.12499990877E+03 0.  0.
          2    1    1    2  501    0 -0.34744906166E+02 -0.16622299504E+03 -0.15594538088E+04  0.15686725198E+04  0.00000000000E+00 0. -1.
          1    1    1    2  502    0 -0.15133986364E+02  0.22666523286E+02  0.98002226993E+03  0.98040117217E+03  0.00000000000E+00 0. -1.
         22    1    3    3    0    0  0.48479958280E+01  0.14143168600E+03  0.10360183826E+04  0.10456388067E+04  0.00000000000E+00 0.  1.
         22    1    3    3    0    0  0.45030896702E+02  0.21247857606E+01  0.15122875951E+03  0.15780505085E+03  0.00000000000E+00 0.  1.
</event>
<event>
 7    1  0.5931885E-006  0.9147413E+02  0.7818608E-02  0.1461117E+00
          2   -1    0    0  502    0  0.00000000000E+00  0.00000000000E+00  0.42670879877E+03  0.42670879877E+03  0.00000000000E+00 0. -1.
          1   -1    0    0  501    0 -0.00000000000E+00 -0.00000000000E+00 -0.15587065214E+03  0.15587065214E+03  0.00000000000E+00 0. -1.
         25    2    1    2    0    0  0.69366251344E+02  0.21724786797E+02  0.56012657381E+02  0.15506682486E+03  0.12499863679E+03 0.  0.
          2    1    1    2  501    0 -0.93520714835E+02 -0.18690368517E+02 -0.84367073420E+02  0.12733128860E+03  0.00000000000E+00 0. -1.
          1    1    1    2  502    0  0.24154463492E+02 -0.30344182807E+01  0.29919256266E+03  0.30018133745E+03  0.00000000000E+00 0. -1.
         22    1    3    3    0    0  0.75114487249E+02  0.48408865713E+02  0.79080591167E+02  0.11932872401E+03  0.00000000000E+00 0.  1.
         22    1    3    3    0    0 -0.57482359050E+01 -0.26684078915E+02 -0.23067933786E+02  0.35738100856E+02  0.00000000000E+00 0.  1.
</event>
<event>
 7    1  0.5931885E-006  0.3885332E+02  0.7818608E-02  0.1588355E+00
          2   -1    0    0  502    0  0.00000000000E+00  0.00000000000E+00  0.24904341425E+04  0.24904341425E+04  0.00000000000E+00 0. -1.
          1   -1    0    0  501    0 -0.00000000000E+00 -0.00000000000E+00 -0.17923495745E+04  0.17923495745E+04  0.00000000000E+00 0. -1.
         25    2    1    2    0    0 -0.30306474976E+01 -0.54816928561E+02  0.72226053412E+02  0.15445141920E+03  0.12499823047E+03 0.  0.
          2    1    1    2  501    0  0.16333623204E+02  0.18359661856E+02 -0.17509922754E+04  0.17511647019E+04  0.00000000000E+00 0. -1.
          1    1    1    2  502    0 -0.13302975706E+02  0.36457266705E+02  0.23768507900E+04  0.23771675960E+04  0.00000000000E+00 0. -1.
         22    1    3    3    0    0 -0.41974569685E+02 -0.73122584869E+02  0.19764634741E+02  0.86599178430E+02  0.00000000000E+00 0.  1.
         22    1    3    3    0    0  0.38943922187E+02  0.18305656309E+02  0.52461418671E+02  0.67852240768E+02  0.00000000000E+00 0.  1.
</event>
<event>
 7    1  0.5931885E-006  0.1226374E+03  0.7818608E-02  0.1299173E+00
          2   -1    0    0  502    0  0.00000000000E+00  0.00000000000E+00  0.12006178834E+04  0.12006178834E+04  0.00000000000E+00 0. -1.
          1   -1    0    0  501    0 -0.00000000000E+00 -0.00000000000E+00 -0.19749552708E+04  0.19749552708E+04  0.00000000000E+00 0. -1.
         25    2    1    2    0    0 -0.16004920242E+03  0.62820225313E+02 -0.17029588953E+03  0.27237827700E+03  0.12500843126E+03 0.  0.
          2    1    1    2  501    0  0.38160499238E+02 -0.56672567897E+02 -0.17497104343E+04  0.17510438622E+04  0.00000000000E+00 0. -1.
          1    1    1    2  502    0  0.12188870318E+03 -0.61476574166E+01  0.11456689363E+04  0.11521510150E+04  0.00000000000E+00 0. -1.
         22    1    3    3    0    0 -0.13062376841E+03  0.95334843078E+02 -0.10193134107E+03  0.19115778684E+03  0.00000000000E+00 0. -1.
         22    1    3    3    0    0 -0.29425434009E+02 -0.32514617764E+02 -0.68364548464E+02  0.81220490159E+02  0.00000000000E+00 0. -1.
</event>
<event>
 7    1  0.5931885E-006  0.3668558E+03  0.7818608E-02  0.1205485E+00
          2   -1    0    0  502    0  0.00000000000E+00  0.00000000000E+00  0.32223953907E+03  0.32223953907E+03  0.00000000000E+00 0. -1.
          1   -1    0    0  501    0 -0.00000000000E+00 -0.00000000000E+00 -0.14212971204E+04  0.14212971204E+04  0.00000000000E+00 0. -1.
         25    2    1    2    0    0 -0.17757708295E+03 -0.30434773704E+03 -0.11075499878E+03  0.38993898613E+03  0.12499831087E+03 0.  0.
          2    1    1    2  501    0  0.23332267565E+03  0.28797934349E+03 -0.11359733660E+04  0.11949088089E+04  0.00000000000E+00 0. -1.
          1    1    1    2  502    0 -0.55745592699E+02  0.16368393553E+02  0.14767078347E+03  0.15868886446E+03  0.00000000000E+00 0. -1.
         22    1    3    3    0    0 -0.35605333400E+01 -0.14791966593E+01 -0.31531795188E+02  0.31766641752E+02  0.00000000000E+00 0. -1.
         22    1    3    3    0    0 -0.17401654961E+03 -0.30286854038E+03 -0.79223203592E+02  0.35817234438E+03  0.00000000000E+00 0. -1.
</event>
<event>
 7    1  0.5931885E-006  0.1074998E+03  0.7818608E-02  0.1405552E+00
          2   -1    0    0  502    0  0.00000000000E+00  0.00000000000E+00  0.10350370384E+04  0.10350370384E+04  0.00000000000E+00 0. -1.
          1   -1    0    0  501    0 -0.00000000000E+00 -0.00000000000E+00 -0.19291201703E+03  0.19291201703E+03  0.00000000000E+00 0. -1.
         25    2    1    2    0    0 -0.13214644928E+03 -0.71384760290E+01  0.23742101178E+02  0.18358244897E+03  0.12500074521E+03 0.  0.
          2    1    1    2  501    0  0.27820240353E+02 -0.14790422827E+02 -0.10767633313E+03  0.11219142167E+03  0.00000000000E+00 0. -1.
          1    1    1    2  502    0  0.10432620893E+03  0.21928898856E+02  0.92605925331E+03  0.93217518478E+03  0.00000000000E+00 0. -1.
         22    1    3    3    0    0 -0.12985835109E+03 -0.49723410865E+02  0.13376614022E+02  0.13969446209E+03  0.00000000000E+00 0. -1.
         22    1    3    3    0    0 -0.22880981912E+01  0.42584934836E+02  0.10365487156E+02  0.43887986879E+02  0.00000000000E+00 0. -1.
</event>
<event>
 7    1  0.5931885E-006  0.7895381E+02  0.7818608E-02  0.1433604E+00
          2   -1    0    0  502    0  0.00000000000E+00  0.00000000000E+00  0.25521077728E+04  0.25521077728E+04  0.00000000000E+00 0. -1.
          1   -1    0    0  501    0 -0.00000000000E+00 -0.00000000000E+00 -0.29570859035E+03  0.29570859035E+03  0.00000000000E+00 0. -1.
         25    2    1    2    0    0  0.71130495576E+02  0.72700205660E+02  0.60717614079E+03  0.62819915643E+03  0.12500578744E+03 0.  0.
          2    1    1    2  501    0 -0.36689613355E+02 -0.69726465488E+02 -0.27959747851E+03  0.29048693208E+03  0.00000000000E+00 0. -1.
          1    1    1    2  502    0 -0.34440882221E+02 -0.29737401721E+01  0.19288205201E+04  0.19291302746E+04  0.00000000000E+00 0. -1.
         22    1    3    3    0    0 -0.18727275861E+02 -0.21004364951E+02  0.67585226252E+02  0.73209678430E+02  0.00000000000E+00 0. -1.
         22    1    3    3    0    0  0.89857771437E+02  0.93704570611E+02  0.53959091454E+03  0.55498947800E+03  0.00000000000E+00 0. -1.
</event>
<event>
 7    1  0.5931885E-006  0.9693275E+02  0.7818608E-02  0.1352817E+00
          2   -1    0    0  502    0  0.00000000000E+00  0.00000000000E+00  0.41689787260E+03  0.41689787260E+03  0.00000000000E+00 0. -1.
          1   -1    0    0  501    0 -0.00000000000E+00 -0.00000000000E+00 -0.69120540194E+03  0.69120540194E+03  0.00000000000E+00 0. -1.
         25    2    1    2    0    0  0.75338245255E+01  0.14307241374E+03 -0.67483231702E+02  0.20175464671E+03  0.12499790727E+03 0.  0.
          2    1    1    2  501    0 -0.21502951206E+02 -0.49267093368E+02 -0.54882002236E+03  0.55144631683E+03  0.00000000000E+00 0. -1.
          1    1    1    2  502    0  0.13969126680E+02 -0.93805320373E+02  0.34199572472E+03  0.35490231100E+03  0.00000000000E+00 0. -1.
         22    1    3    3    0    0 -0.52127374279E+02  0.96425644954E+02 -0.61738817655E+02  0.12580480817E+03  0.00000000000E+00 0.  1.
         22    1    3    3    0    0  0.59661198805E+02  0.46646768787E+02 -0.57444140468E+01  0.75949838537E+02  0.00000000000E+00 0.  1.
</event>
<event>
 7    1  0.5931885E-006  0.1039659E+03  0.7818608E-02  0.1318948E+00
          2   -1    0    0  502    0  0.00000000000E+00  0.00000000000E+00  0.15913661355E+04  0.15913661355E+04  0.00000000000E+00 0. -1.
          1   -1    0    0  501    0 -0.00000000000E+00 -0.00000000000E+00 -0.57265771276E+03  0.57265771276E+03  0.00000000000E+00 0. -1.
         25    2    1    2    0    0  0.98999831946E+02 -0.11477184633E+03  0.36923765877E+03  0.41824405401E+03  0.12497238346E+03 0.  0.
          2    1    1    2  501    0 -0.33832681109E+02  0.97819743059E+02 -0.54230956070E+03  0.55209873399E+03  0.00000000000E+00 0. -1.
          1    1    1    2  502    0 -0.65167150838E+02  0.16952103271E+02  0.11917803247E+04  0.11936810602E+04  0.00000000000E+00 0. -1.
         22    1    3    3    0    0  0.36594504700E+02 -0.11913826341E+03  0.30039633941E+03  0.32522460595E+03  0.00000000000E+00 0.  1.
         22    1    3    3    0    0  0.62405327247E+02  0.43664170845E+01  0.68841319357E+02  0.93019448062E+02  0.00000000000E+00 0.  1.
</event>
<event>
 7    1  0.5931885E-006  0.1019908E+03  0.7818608E-02  0.1315257E+00
          2   -1    0    0  502    0  0.00000000000E+00  0.00000000000E+00  0.52047289630E+03  0.52047289630E+03  0.00000000000E+00 0. -1.
          1   -1    0    0  501    0 -0.00000000000E+00 -0.00000000000E+00 -0.10566314510E+03  0.10566314510E+03  0.00000000000E+00 0. -1.
         25    2    1    2    0    0 -0.91083227173E+02 -0.12461869959E+03  0.27583276785E+03  0.33990438869E+03  0.12500121229E+03 0.  0.
          2    1    1    2  501    0  0.27651029884E+02  0.92830938608E+02 -0.31276188912E+02  0.10178586645E+03  0.00000000000E+00 0. -1.
          1    1    1    2  502    0  0.63432197289E+02  0.31787760980E+02  0.17025317226E+03  0.18444578625E+03  0.00000000000E+00 0. -1.
         22    1    3    3    0    0 -0.12128662827E+03 -0.10887874252E+03  0.21047026044E+03  0.26620059598E+03  0.00000000000E+00 0.  1.
         22    1    3    3    0    0  0.30203401093E+02 -0.15739957070E+02  0.65362507409E+02  0.73703792718E+02  0.00000000000E+00 0.  1.
</event>
<event>
 7    1  0.5931885E-006  0.4406398E+02  0.7818608E-02  0.1493263E+00
          2   -1    0    0  502    0  0.00000000000E+00  0.00000000000E+00  0.16290435114E+04  0.16290435114E+04  0.00000000000E+00 0. -1.
          1   -1    0    0  501    0 -0.00000000000E+00 -0.00000000000E+00 -0.81833464443E+03  0.81833464443E+03  0.00000000000E+00 0. -1.
         25    2    1    2    0    0 -0.36103928415E+02 -0.68555171715E+02  0.58391872520E+03  0.60215619715E+03  0.12501081118E+03 0.  0.
          2    1    1    2  501    0  0.43720439281E+01  0.43818361737E+02 -0.80822566545E+03  0.80942441888E+03  0.00000000000E+00 0. -1.
          1    1    1    2  502    0  0.31731884487E+02  0.24736809978E+02  0.10350158072E+04  0.10357975398E+04  0.00000000000E+00 0. -1.
         22    1    3    3    0    0  0.40465952625E+02 -0.34064763922E+02  0.34221573495E+03  0.34627952684E+03  0.00000000000E+00 0.  1.
         22    1    3    3    0    0 -0.76569881040E+02 -0.34490407793E+02  0.24170299025E+03  0.25587667030E+03  0.00000000000E+00 0.  1.
</event>
<event>
 7    1  0.5931885E-006  0.6972554E+02  0.7818608E-02  0.1388997E+00
          2   -1    0    0  502    0  0.00000000000E+00  0.00000000000E+00  0.23549473897E+04  0.23549473897E+04  0.00000000000E+00 0. -1.
          1   -1    0    0  501    0 -0.00000000000E+00 -0.00000000000E+00 -0.88993531244E+03  0.88993531244E+03  0.00000000000E+00 0. -1.
         25    2    1    2    0    0 -0.51625530447E+02  0.78432309871E+02  0.19827169920E+03  0.25249533642E+03  0.12500162233E+03 0.  0.
          2    1    1    2  501    0  0.54687724741E+02 -0.89169107828E+01 -0.86136467413E+03  0.86314504017E+03  0.00000000000E+00 0. -1.
          1    1    1    2  502    0 -0.30621942933E+01 -0.69515399088E+02  0.21281050522E+04  0.21292423256E+04  0.00000000000E+00 0. -1.
         22    1    3    3    0    0  0.28736876995E+02 -0.11768138773E+02  0.68423469932E+02  0.75140324908E+02  0.00000000000E+00 0. -1.
         22    1    3    3    0    0 -0.80362407443E+02  0.90200448644E+02  0.12984822927E+03  0.17735501152E+03  0.00000000000E+00 0. -1.
</event>
<event>
 7    1  0.5931885E-006  0.6506112E+02  0.7818608E-02  0.1383968E+00
          2   -1    0    0  502    0  0.00000000000E+00  0.00000000000E+00  0.12622552355E+03  0.12622552355E+03  0.00000000000E+00 0. -1.
          1   -1    0    0  501    0 -0.00000000000E+00 -0.00000000000E+00 -0.31532571885E+03  0.31532571885E+03  0.00000000000E+00 0. -1.
         25    2    1    2    0    0  0.38413915615E+02  0.65711765081E+02 -0.10653617337E+03  0.18102228324E+03  0.12500178322E+03 0.  0.
          2    1    1    2  501    0 -0.66592296308E+02 -0.10660524011E+02 -0.15275500612E+03  0.16697985685E+03  0.00000000000E+00 0. -1.
          1    1    1    2  502    0  0.28178380693E+02 -0.55051241070E+02  0.70190984186E+02  0.93549102309E+02  0.00000000000E+00 0. -1.
         22    1    3    3    0    0  0.25481547862E+02  0.83468363254E+02 -0.12491484117E+03  0.15238108311E+03  0.00000000000E+00 0. -1.
         22    1    3    3    0    0  0.12932367753E+02 -0.17756598174E+02  0.18378667798E+02  0.28641200122E+02  0.00000000000E+00 0. -1.
</event>
<event>
 7    1  0.5931885E-006  0.6899406E+02  0.7818608E-02  0.1440744E+00
          2   -1    0    0  502    0  0.00000000000E+00  0.00000000000E+00  0.85415869593E+03  0.85415869593E+03  0.00000000000E+00 0. -1.
          1   -1    0    0  501    0 -0.00000000000E+00 -0.00000000000E+00 -0.49514597119E+03  0.49514597119E+03  0.00000000000E+00 0. -1.
         25    2    1    2    0    0  0.41835726665E+02 -0.59117036219E+01  0.87386514875E+02  0.15826099830E+03  0.12499985735E+03 0.  0.
          2    1    1    2  501    0  0.16466989671E+02 -0.33686585879E+02 -0.45724152055E+03  0.45877636810E+03  0.00000000000E+00 0. -1.
          1    1    1    2  502    0 -0.58302716336E+02  0.39598289501E+02  0.72886773041E+03  0.73226730071E+03  0.00000000000E+00 0. -1.
         22    1    3    3    0    0  0.49155123962E+02 -0.53339817352E+02  0.19474105489E+02  0.75103948707E+02  0.00000000000E+00 0.  1.
         22    1    3    3    0    0 -0.73193972972E+01  0.47428113730E+02  0.67912409385E+02  0.83157049595E+02  0.00000000000E+00 0.  1.
</event>
<event>
 7    1  0.5931885E-006  0.1118898E+03  0.7818608E-02  0.1390032E+00
          2   -1    0    0  502    0  0.00000000000E+00  0.00000000000E+00  0.91570519015E+03  0.91570519015E+03  0.00000000000E+00 0. -1.
          1   -1    0    0  501    0 -0.00000000000E+00 -0.00000000000E+00 -0.11088804882E+03  0.11088804882E+03  0.00000000000E+00 0. -1.
         25    2    1    2    0    0 -0.47404795216E+02 -0.68286733569E+02  0.43828347962E+03  0.46327955047E+03  0.12500096313E+03 0.  0.
          2    1    1    2  501    0  0.50263666243E+02  0.10241036587E+03 -0.64412795899E+02  0.13100888312E+03  0.00000000000E+00 0. -1.
          1    1    1    2  502    0 -0.28588710272E+01 -0.34123632301E+02  0.43094645761E+03  0.43230480538E+03  0.00000000000E+00 0. -1.
         22    1    3    3    0    0 -0.48957871164E+02 -0.92279825844E+02  0.21852649469E+03  0.24221120595E+03  0.00000000000E+00 0.  1.
         22    1    3    3    0    0  0.15530759480E+01  0.23993092275E+02  0.21975698493E+03  0.22106834452E+03  0.00000000000E+00 0.  1.
</event>
<event>
 7    1  0.5931885E-006  0.8532269E+02  0.7818608E-02  0.1402875E+00
          2   -1    0    0  502    0  0.00000000000E+00  0.00000000000E+00  0.13498199905E+04  0.13498199905E+04  0.00000000000E+00 0. -1.
          1   -1    0    0  501    0 -0.00000000000E+00 -0.00000000000E+00 -0.14606753436E+04  0.14606753436E+04  0.00000000000E+00 0. -1.
         25    2    1    2    0    0  0.74628964650E+02  0.77815513277E+02 -0.28899806452E+02  0.16758451957E+03  0.12499854366E+03 0.  0.
          2    1    1    2  501    0 -0.40541813332E+02  0.15123403386E+00 -0.13607172488E+04  0.13613210836E+04  0.00000000000E+00 0. -1.
          1    1    1    2  502    0 -0.34087151317E+02 -0.77966747311E+02  0.12787617021E+04  0.12815897309E+04  0.00000000000E+00 0. -1.
         22    1    3    3    0    0 -0.27610923371E+02  0.30155132267E+02 -0.36112834974E+02  0.54551186433E+02  0.00000000000E+00 0. -1.
         22    1    3    3    0    0  0.10223988802E+03  0.47660381010E+02  0.72130285213E+01  0.11303333314E+03  0.00000000000E+00 0. -1.
</event>
<event>
 7    1  0.5931885E-006  0.5409128E+02  0.7818608E-02  0.1471416E+00
          2   -1    0    0  502    0  0.00000000000E+00  0.00000000000E+00  0.22907112336E+03  0.22907112336E+03  0.00000000000E+00 0. -1.
          1   -1    0    0  501    0 -0.00000000000E+00 -0.00000000000E+00 -0.45613551527E+03  0.45613551527E+03  0.00000000000E+00 0. -1.
         25    2    1    2    0    0 -0.85068179803E+02 -0.27196269292E+02  0.11545753863E+02  0.15405566230E+03  0.12499444138E+03 0.  0.
          2    1    1    2  501    0  0.34245405229E+02  0.16985383838E+02 -0.37929660529E+03  0.38121800302E+03  0.00000000000E+00 0. -1.
          1    1    1    2  502    0  0.50822774574E+02  0.10210885454E+02  0.14068645951E+03  0.14993297332E+03  0.00000000000E+00 0. -1.
         22    1    3    3    0    0  0.33203581172E+01 -0.38580180372E+02 -0.36151832579E+02  0.52975561294E+02  0.00000000000E+00 0. -1.
         22    1    3    3    0    0 -0.88388537920E+02  0.11383911081E+02  0.47697586442E+02  0.10108010101E+03  0.00000000000E+00 0. -1.
</event>
<event>
 7    1  0.5931885E-006  0.1116121E+03  0.7818608E-02  0.1357605E+00
          2   -1    0    0  502    0  0.00000000000E+00  0.00000000000E+00  0.71731564801E+03  0.71731564801E+03  0.00000000000E+00 0. -1.
          1   -1    0    0  501    0 -0.00000000000E+00 -0.00000000000E+00 -0.10840522224E+04  0.10840522224E+04  0.00000000000E+00 0. -1.
         25    2    1    2    0    0 -0.72696823200E+02  0.75130052681E+00  0.75621845302E+02  0.16318510786E+03  0.12500129353E+03 0.  0.
          2    1    1    2  501    0  0.11006226859E+03  0.24020818770E+02 -0.10363735893E+04  0.10424782584E+04  0.00000000000E+00 0. -1.
          1    1    1    2  502    0 -0.37365445395E+02 -0.24772119297E+02  0.59401516965E+03  0.59570450408E+03  0.00000000000E+00 0. -1.
         22    1    3    3    0    0 -0.38420401195E+02  0.36180559042E+02 -0.19326783619E+02  0.56202176521E+02  0.00000000000E+00 0. -1.
         22    1    3    3    0    0 -0.34276422005E+02 -0.35429258516E+02  0.94948628921E+02  0.10698293134E+03  0.00000000000E+00 0. -1.
</event>
<event>
 7    1  0.5931885E-006  0.1082378E+03  0.7818608E-02  0.1288513E+00
          2   -1    0    0  502    0  0.00000000000E+00  0.00000000000E+00  0.19676251507E+04  0.19676251507E+04  0.00000000000E+00 0. -1.
          1   -1    0    0  501    0 -0.00000000000E+00 -0.00000000000E+00 -0.41809616693E+03  0.41809616693E+03  0.00000000000E+00 0. -1.
         25    2    1    2    0    0  0.15960470129E+03 -0.10494243172E+03  0.65464756604E+03  0.69330717141E+03  0.12499929423E+03 0.  0.
          2    1    1    2  501    0 -0.81786549547E+02  0.69553165501E+02 -0.39009381046E+03  0.40459839777E+03  0.00000000000E+00 0. -1.
          1    1    1    2  502    0 -0.77818151743E+02  0.35389266218E+02  0.12849752282E+04  0.12878157484E+04  0.00000000000E+00 0. -1.
         22    1    3    3    0    0  0.12817728191E+03 -0.12446607486E+03  0.43011607007E+03  0.46574784285E+03  0.00000000000E+00 0.  1.
         22    1    3    3    0    0  0.31427419377E+02  0.19523643146E+02  0.22453149597E+03  0.22755932856E+03  0.00000000000E+00 0.  1.
</event>
<event>
 7    1  0.5931885E-006  0.5206890E+02  0.7818608E-02  0.1545465E+00
          2   -1    0    0  502    0  0.00000000000E+00  0.00000000000E+00  0.24039026723E+04  0.24039026723E+04  0.00000000000E+00 0. -1.
          1   -1    0    0  501    0 -0.00000000000E+00 -0.00000000000E+00 -0.18524572153E+02  0.18524572153E+02  0.00000000000E+00 0. -1.
         25    2    1    2    0    0 -0.40406805873E+01  0.38753987365E+02  0.14337830874E+04  0.14397488332E+04  0.12499825012E+03 0.  0.
          2    1    1    2  501    0 -0.17352520162E+02 -0.49647362810E+02  0.29559099236E+02  0.60330016887E+02  0.00000000000E+00 0. -1.
          1    1    1    2  502    0  0.21393200750E+02  0.10893375445E+02  0.92203591354E+03  0.92234839433E+03  0.00000000000E+00 0. -1.
         22    1    3    3    0    0  0.20799284743E+02 -0.41734463109E+02  0.48922703908E+03  0.49144427092E+03  0.00000000000E+00 0. -1.
         22    1    3    3    0    0 -0.24839965330E+02  0.80488450473E+02  0.94455604830E+03  0.94830456232E+03  0.00000000000E+00 0. -1.
</event>
<event>
 7    1  0.5931885E-006  0.1252969E+03  0.7818608E-02  0.1359779E+00
          2   -1    0    0  502    0  0.00000000000E+00  0.00000000000E+00  0.16359844686E+03  0.16359844686E+03  0.00000000000E+00 0. -1.
          1   -1    0    0  501    0 -0.00000000000E+00 -0.00000000000E+00 -0.47391082909E+03  0.47391082909E+03  0.00000000000E+00 0. -1.
         25    2    1    2    0    0 -0.89823671711E+02  0.78189586658E+02 -0.14331995892E+03  0.22438089629E+03  0.12499709009E+03 0.  0.
          2    1    1    2  501    0 -0.27263954057E+02 -0.28180419072E+02 -0.25522784792E+03  0.25822221741E+03  0.00000000000E+00 0. -1.
          1    1    1    2  502    0  0.11708762577E+03 -0.50009167585E+02  0.88235424610E+02  0.15490616226E+03  0.00000000000E+00 0. -1.
         22    1    3    3    0    0 -0.99373633291E+02  0.25384053959E+02 -0.13582239375E+03  0.17019750830E+03  0.00000000000E+00 0.  1.
         22    1    3    3    0    0  0.95499615801E+01  0.52805532699E+02 -0.74975651725E+01  0.54183387983E+02  0.00000000000E+00 0.  1.
</event>
<event>
 7    1  0.5931885E-006  0.1301041E+03  0.7818608E-02  0.1292336E+00
          2   -1    0    0  502    0  0.00000000000E+00  0.00000000000E+00  0.21940400702E+04  0.21940400702E+04  0.00000000000E+00 0. -1.
          1   -1    0    0  501    0 -0.00000000000E+00 -0.00000000000E+00 -0.16954754767E+04  0.16954754767E+04  0.00000000000E+00 0. -1.
         25    2    1    2    0    0  0.61254775156E+02  0.67696318282E+02  0.10634176697E+04  0.10746240836E+04  0.12499936688E+03 0.  0.
          2    1    1    2  501    0 -0.27303899237E+02 -0.12732938990E+03 -0.16863131870E+04  0.16913339235E+04  0.00000000000E+00 0. -1.
          1    1    1    2  502    0 -0.33950875919E+02  0.59633071614E+02  0.11214601107E+04  0.11235575397E+04  0.00000000000E+00 0. -1.
         22    1    3    3    0    0  0.35913898238E+02  0.74702690916E+02  0.10233452879E+04  0.10266965853E+04  0.00000000000E+00 0.  1.
         22    1    3    3    0    0  0.25340876918E+02 -0.70063726342E+01  0.40072381854E+02  0.47927498244E+02  0.00000000000E+00 0.  1.
</event>
<event>
 7    1  0.5931885E-006  0.1613697E+03  0.7818608E-02  0.1297039E+00
          2   -1    0    0  502    0  0.00000000000E+00  0.00000000000E+00  0.11857099164E+04  0.11857099164E+04  0.00000000000E+00 0. -1.
          1   -1    0    0  501    0 -0.00000000000E+00 -0.00000000000E+00 -0.11818466947E+03  0.11818466947E+03  0.00000000000E+00 0. -1.
         25    2    1    2    0    0  0.20477422137E+03 -0.11584969826E+02  0.71491420140E+03  0.75418528683E+03  0.12500575286E+03 0.  0.
          2    1    1    2  501    0 -0.15491222914E+03  0.29428655189E+02 -0.32480555010E+02  0.16099326364E+03  0.00000000000E+00 0. -1.
          1    1    1    2  502    0 -0.49861992226E+02 -0.17843685363E+02  0.38509160050E+03  0.38871603536E+03  0.00000000000E+00 0. -1.
         22    1    3    3    0    0  0.18264180876E+03 -0.53917459829E+02  0.60698994745E+03  0.63616186547E+03  0.00000000000E+00 0. -1.
         22    1    3    3    0    0  0.22132412608E+02  0.42332490003E+02  0.10792425395E+03  0.11802342136E+03  0.00000000000E+00 0. -1.
</event>
<event>
 7    1  0.5931885E-006  0.1615944E+03  0.7818608E-02  0.1306121E+00
          2   -1    0    0  502    0  0.00000000000E+00  0.00000000000E+00  0.85746766759E+03  0.85746766759E+03  0.00000000000E+00 0. -1.
          1   -1    0    0  501    0 -0.00000000000E+00 -0.00000000000E+00 -0.29537814259E+03  0.29537814259E+03  0.00000000000E+00 0. -1.
         25    2    1    2    0    0 -0.18129030230E+03  0.94293924029E+02  0.16992735549E+03  0.29369565656E+03  0.12499725886E+03 0.  0.
          2    1    1    2  501    0  0.14291808047E+03 -0.64391163287E+02 -0.20608611559E+03  0.25892718412E+03  0.00000000000E+00 0. -1.
          1    1    1    2  502    0  0.38372221823E+02 -0.29902760742E+02  0.59824828509E+03  0.60022296951E+03  0.00000000000E+00 0. -1.
         22    1    3    3    0    0 -0.28485488094E+02  0.21749913943E+02  0.10762582963E+03  0.11343633012E+03  0.00000000000E+00 0. -1.
         22    1    3    3    0    0 -0.15280481420E+03  0.72544010086E+02  0.62301525865E+02  0.18025932644E+03  0.00000000000E+00 0. -1.
</event>
<event>
 7    1  0.5931885E-006  0.1094304E+03  0.7818608E-02  0.1432094E+00
          2   -1    0    0  502    0  0.00000000000E+00  0.00000000000E+00  0.13634832435E+04  0.13634832435E+04  0.00000000000E+00 0. -1.
          1   -1    0    0  501    0 -0.00000000000E+00 -0.00000000000E+00 -0.71966828039E+02  0.71966828039E+02  0.00000000000E+00 0. -1.
         25    2    1    2    0    0 -0.41797368155E+01  0.90287877870E+02  0.10791084142E+04  0.10900773953E+04  0.12499754834E+03 0.  0.
          2    1    1    2  501    0  0.22093111421E+02 -0.10805119765E+03 -0.19584856801E+02  0.11201220247E+03  0.00000000000E+00 0. -1.
          1    1    1    2  502    0 -0.17913374605E+02  0.17763319780E+02  0.23199285812E+03  0.23336047381E+03  0.00000000000E+00 0. -1.
         22    1    3    3    0    0  0.10647907728E+02  0.11348592835E+03  0.99658813662E+03  0.10030854141E+04  0.00000000000E+00 0. -1.
         22    1    3    3    0    0 -0.14827644543E+02 -0.23198050478E+02  0.82520277558E+02  0.86991981222E+02  0.00000000000E+00 0. -1.
</event>
<event>
 7    1  0.5931885E-006  0.1850512E+03  0.7818608E-02  0.1247598E+00
          2   -1    0    0  502    0  0.00000000000E+00  0.00000000000E+00  0.22520668728E+04  0.22520668728E+04  0.00000000000E+00 0. -1.
          1   -1    0    0  501    0 -0.00000000000E+00 -0.00000000000E+00 -0.21671193329E+03  0.21671193329E+03  0.00000000000E+00 0. -1.
         25    2    1    2    0    0 -0.15651210980E+03 -0.12557343967E+03  0.72661481062E+03  0.76410661037E+03  0.12500039896E+03 0.  0.
          2    1    1    2  501    0  0.66037027684E+02 -0.34203684225E+02 -0.18515653198E+03  0.19953376250E+03  0.00000000000E+00 0. -1.
          1    1    1    2  502    0  0.90475082121E+02  0.15977712390E+03  0.14938966609E+04  0.15051384332E+04  0.00000000000E+00 0. -1.
         22    1    3    3    0    0 -0.16771823629E+03 -0.13568509775E+03  0.62069007593E+03  0.65711188004E+03  0.00000000000E+00 0. -1.
         22    1    3    3    0    0  0.11206126482E+02  0.10111658079E+02  0.10592473469E+03  0.10699473033E+03  0.00000000000E+00 0. -1.
</event>
<event>
 7    1  0.5931885E-006  0.5009250E+02  0.7818608E-02  0.1446103E+00
          2   -1    0    0  502    0  0.00000000000E+00  0.00000000000E+00  0.17008138754E+03  0.17008138754E+03  0.00000000000E+00 0. -1.
          1   -1    0    0  501    0 -0.00000000000E+00 -0.00000000000E+00 -0.84798521163E+03  0.84798521163E+03  0.00000000000E+00 0. -1.
         25    2    1    2    0    0  0.41693423350E+02  0.42705223086E+02 -0.74430262452E+02  0.15724837097E+03  0.12500043430E+03 0.  0.
          2    1    1    2  501    0 -0.49991679770E+02  0.62227762339E+01 -0.72645585762E+03  0.72820052462E+03  0.00000000000E+00 0. -1.
          1    1    1    2  502    0  0.82982564201E+01 -0.48927999320E+02  0.12298229598E+03  0.13261770358E+03  0.00000000000E+00 0. -1.
         22    1    3    3    0    0  0.48358321703E+02 -0.12763365476E+02  0.14634764907E+02  0.52111487410E+02  0.00000000000E+00 0. -1.
         22    1    3    3    0    0 -0.66648983532E+01  0.55468588562E+02 -0.89065027359E+02  0.10513688356E+03  0.00000000000E+00 0. -1.
</event>
<event>
 7    1  0.5931885E-006  0.1580798E+03  0.7818608E-02  0.1364268E+00
          2   -1    0    0  502    0  0.00000000000E+00  0.00000000000E+00  0.10529930832E+03  0.10529930832E+03  0.00000000000E+00 0. -1.
          1   -1    0    0  501    0 -0.00000000000E+00 -0.00000000000E+00 -0.11653852567E+04  0.11653852567E+04  0.00000000000E+00 0. -1.
         25    2    1    2    0    0 -0.95606946792E+02 -0.10209580254E+03 -0.20128438642E+03  0.27514476762E+03  0.12499999105E+03 0.  0.
          2    1    1    2  501    0 -0.57691115004E+01 -0.29370715015E+02 -0.82571970755E+03  0.82626203894E+03  0.00000000000E+00 0. -1.
          1    1    1    2  502    0  0.10137605829E+03  0.13146651755E+03 -0.33081854455E+02  0.16927775851E+03  0.00000000000E+00 0. -1.
         22    1    3    3    0    0 -0.43085616389E+01 -0.25511403554E+02 -0.13763469256E+03  0.14004536411E+03  0.00000000000E+00 0.  1.
         22    1    3    3    0    0 -0.91298385153E+02 -0.76584398983E+02 -0.63649693862E+02  0.13509940351E+03  0.00000000000E+00 0.  1.
</event>
<event>
 7    1  0.5931885E-006  0.5903933E+02  0.7818608E-02  0.1463075E+00
          2   -1    0    0  502    0  0.00000000000E+00  0.00000000000E+00  0.15305477061E+03  0.15305477061E+03  0.00000000000E+00 0. -1.
          1   -1    0    0  501    0 -0.00000000000E+00 -0.00000000000E+00 -0.50551797431E+03  0.50551797431E+03  0.00000000000E+00 0. -1.
         25    2    1    2    0    0 -0.32820698686E+02 -0.20104153018E+02  0.35908862414E+02  0.13563068448E+03  0.12499944377E+03 0.  0.
          2    1    1    2  501    0 -0.25011854793E+01 -0.37103012101E+02 -0.43787454397E+03  0.43945080008E+03  0.00000000000E+00 0. -1.
          1    1    1    2  502    0  0.35321884165E+02  0.57207165120E+02  0.49502477858E+02  0.83491260357E+02  0.00000000000E+00 0. -1.
         22    1    3    3    0    0 -0.12969912287E+01 -0.11213917322E+02  0.79951283532E+02  0.80744299281E+02  0.00000000000E+00 0. -1.
         22    1    3    3    0    0 -0.31523707457E+02 -0.88902356961E+01 -0.44042421118E+02  0.54886385201E+02  0.00000000000E+00 0. -1.
</event>
<event>
 7    1  0.5931885E-006  0.1864056E+03  0.7818608E-02  0.1258842E+00
          2   -1    0    0  502    0  0.00000000000E+00  0.00000000000E+00  0.63237702537E+02  0.63237702537E+02  0.00000000000E+00 0. -1.
          1   -1    0    0  501    0 -0.00000000000E+00 -0.00000000000E+00 -0.12365182299E+04  0.12365182299E+04  0.00000000000E+00 0. -1.
         25    2    1    2    0    0  0.97223039421E+02 -0.20448687130E+03 -0.68817676789E+03  0.73517671958E+03  0.12502137902E+03 0.  0.
          2    1    1    2  501    0 -0.56799909061E+02  0.33659697962E+02 -0.30881766084E+03  0.31579669502E+03  0.00000000000E+00 0. -1.
          1    1    1    2  502    0 -0.40423130360E+02  0.17082717334E+03 -0.17628609867E+03  0.24878251788E+03  0.00000000000E+00 0. -1.
         22    1    3    3    0    0  0.37434059482E+02 -0.17676566491E+03 -0.39027031762E+03  0.43006782013E+03  0.00000000000E+00 0. -1.
         22    1    3    3    0    0  0.59788979940E+02 -0.27721206397E+02 -0.29790645027E+03  0.30510889944E+03  0.00000000000E+00 0. -1.
</event>
<event>
 7    1  0.5931885E-006  0.3364820E+02  0.7818608E-02  0.1594813E+00
          2   -1    0    0  502    0  0.00000000000E+00  0.00000000000E+00  0.92424878511E+03  0.92424878511E+03  0.00000000000E+00 0. -1.
          1   -1    0    0  501    0 -0.00000000000E+00 -0.00000000000E+00 -0.86665315246E+02  0.86665315246E+02  0.00000000000E+00 0. -1.
         25    2    1    2    0    0  0.21397689019E+02 -0.18789188999E+02  0.94350410912E+02  0.15917845608E+03  0.12499954448E+03 0.  0.
          2    1    1    2  501    0 -0.33862109090E+02 -0.54791858849E+01 -0.48570487297E+02  0.59462224531E+02  0.00000000000E+00 0. -1.
          1    1    1    2  502    0  0.12464420071E+02  0.24268374884E+02  0.79180354625E+03  0.79227341975E+03  0.00000000000E+00 0. -1.
         22    1    3    3    0    0  0.40469000611E+02  0.17774861063E+02 -0.11420891406E+02  0.45652190055E+02  0.00000000000E+00 0.  1.
         22    1    3    3    0    0 -0.19071311592E+02 -0.36564050062E+02  0.10577130232E+03  0.11352626602E+03  0.00000000000E+00 0.  1.
</event>
<event>
 7    1  0.5931885E-006  0.1509374E+03  0.7818608E-02  0.1214261E+00
          2   -1    0    0  502    0  0.00000000000E+00  0.00000000000E+00  0.38038933475E+03  0.38038933475E+03  0.00000000000E+00 0. -1.
          1   -1    0    0  501    0 -0.00000000000E+00 -0.00000000000E+00 -0.25097896394E+04  0.25097896394E+04  0.00000000000E+00 0. -1.
         25    2    1    2    0    0  0.14537517356E+03  0.15189327148E+03 -0.18546199828E+04  0.18706806417E+04  0.12500110165E+03 0.  0.
          2    1    1    2  501    0  0.36020219750E+01 -0.12852765815E+03 -0.62505473959E+03  0.63814242999E+03  0.00000000000E+00 0. -1.
          1    1    1    2  502    0 -0.14897719553E+03 -0.23365613329E+02  0.35027441773E+03  0.38135590253E+03  0.00000000000E+00 0. -1.
         22    1    3    3    0    0  0.15113118218E+03  0.14560143644E+03 -0.18480199680E+04  0.18598973667E+04  0.00000000000E+00 0. -1.
         22    1    3    3    0    0 -0.57560086164E+01  0.62918350432E+01 -0.66000148207E+01  0.10783274968E+02  0.00000000000E+00 0. -1.
</event>
<event>
 7    1  0.5931885E-006  0.6520173E+02  0.7818608E-02  0.1464378E+00
          2   -1    0    0  502    0  0.00000000000E+00  0.00000000000E+00  0.17773038558E+04  0.17773038558E+04  0.00000000000E+00 0. -1.
          1   -1    0    0  501    0 -0.00000000000E+00 -0.00000000000E+00 -0.52292460898E+02  0.52292460898E+02  0.00000000000E+00 0. -1.
         25    2    1    2    0    0  0.92780101255E+02  0.34393903599E+01  0.68749785280E+03  0.70490989810E+03  0.12499876094E+03 0.  0.
          2    1    1    2  501    0 -0.62142590290E+02 -0.16631713473E+02 -0.19442905339E+02  0.67203734934E+02  0.00000000000E+00 0. -1.
          1    1    1    2  502    0 -0.30637510964E+02  0.13192323113E+02  0.10569564474E+04  0.10574826837E+04  0.00000000000E+00 0. -1.
         22    1    3    3    0    0 -0.14964617110E+02 -0.35339102973E+02  0.12047286083E+03  0.12643774025E+03  0.00000000000E+00 0.  1.
         22    1    3    3    0    0  0.10774471836E+03  0.38778493333E+02  0.56702499197E+03  0.57847215785E+03  0.00000000000E+00 0.  1.
</event>
<event>
 7    1  0.5931885E-006  0.8459399E+02  0.7818608E-02  0.1435992E+00
          2   -1    0    0  502    0  0.00000000000E+00  0.00000000000E+00  0.28845164208E+03  0.28845164208E+03  0.00000000000E+00 0. -1.
          1   -1    0    0  501    0 -0.00000000000E+00 -0.00000000000E+00 -0.51955057581E+03  0.51955057581E+03  0.00000000000E+00 0. -1.
         25    2    1    2    0    0 -0.85552791152E+02 -0.54338495933E+02 -0.69909589657E+02  0.17544745632E+03  0.12499002756E+03 0.  0.
          2    1    1    2  501    0  0.49729053603E+01  0.31296853565E+02 -0.38875615951E+03  0.39004560553E+03  0.00000000000E+00 0. -1.
          1    1    1    2  502    0  0.80579885792E+02  0.23041642368E+02  0.22756681544E+03  0.24250915605E+03  0.00000000000E+00 0. -1.
         22    1    3    3    0    0  0.30643814802E+02 -0.28372550589E+02 -0.20792439947E+02  0.46651587020E+02  0.00000000000E+00 0.  1.
         22    1    3    3    0    0 -0.11619660595E+03 -0.25965945344E+02 -0.49117149709E+02  0.12879586930E+03  0.00000000000E+00 0.  1.
</event>
<event>
 7    1  0.5931885E-006  0.3890319E+02  0.7818608E-02  0.1618193E+00
          2   -1    0    0  502    0  0.00000000000E+00  0.00000000000E+00  0.56449738313E+03  0.56449738313E+03  0.00000000000E+00 0. -1.
          1   -1    0    0  501    0 -0.00000000000E+00 -0.00000000000E+00 -0.66658862878E+03  0.66658862878E+03  0.00000000000E+00 0. -1.
         25    2    1    2    0    0 -0.36081573898E+02 -0.83414517696E+01  0.49838872408E+03  0.51515921528E+03  0.12500494792E+03 0.  0.
          2    1    1    2  501    0  0.36961227544E+02 -0.12164152695E+02 -0.65578382047E+03  0.65693722542E+03  0.00000000000E+00 0. -1.
          1    1    1    2  502    0 -0.87965364504E+00  0.20505604465E+02  0.55303850742E+02  0.58989571213E+02  0.00000000000E+00 0. -1.
         22    1    3    3    0    0 -0.27060515922E+02  0.21331335850E+02  0.29830828789E+02  0.45576043678E+02  0.00000000000E+00 0. -1.
         22    1    3    3    0    0 -0.90210579764E+01 -0.29672787620E+02  0.46855789529E+03  0.46958317160E+03  0.00000000000E+00 0. -1.
</event>
