<event>
 7    1  0.7457412E-006  0.1171992E+03  0.7818608E-02  0.1306967E+00
          2   -1    0    0  502    0  0.00000000000E+00  0.00000000000E+00  0.16401943304E+04  0.16401943304E+04  0.00000000000E+00 0. -1.
          1   -1    0    0  501    0 -0.00000000000E+00 -0.00000000000E+00 -0.43761709021E+02  0.43761709021E+02  0.00000000000E+00 0. -1.
         25    2    1    2    0    0  0.53402880711E+02  0.93738755283E+02  0.33242913169E+03  0.37117832643E+03  0.12500160200E+03 0.  0.
          2    1    1    2  501    0  0.54276155150E+02 -0.38526379501E+02  0.30262317080E+02  0.73116282526E+02  0.00000000000E+00 0. -1.
          1    1    1    2  502    0 -0.10767903586E+03 -0.55212375781E+02  0.12337411727E+04  0.12396614305E+04  0.00000000000E+00 0. -1.
         22    1    3    3    0    0  0.45807821903E+02  0.70012656957E+02  0.74438136704E+02  0.11198734249E+03  0.00000000000E+00 0.  1.
         22    1    3    3    0    0  0.75950588074E+01  0.23726098326E+02  0.25799099499E+03  0.25919098394E+03  0.00000000000E+00 0.  1.
</event>
<event>
 7    1  0.7457412E-006  0.2815259E+02  0.7818608E-02  0.1656717E+00
          2   -1    0    0  502    0  0.00000000000E+00  0.00000000000E+00  0.17973213777E+04  0.17973213777E+04  0.00000000000E+00 0. -1.
          1   -1    0    0  501    0 -0.00000000000E+00 -0.00000000000E+00 -0.26403249217E+03  0.26403249217E+03  0.00000000000E+00 0. -1.
         25    2    1    2    0    0  0.68979865250E+01  0.49539108065E+02  0.10936518317E+03  0.17345796965E+03  0.12500087400E+03 0.  0.
          2    1    1    2  501    0  0.45176175001E+00 -0.28021564670E+02 -0.23106131661E+03  0.23275468676E+03  0.00000000000E+00 0. -1.
          1    1    1    2  502    0 -0.73497482750E+01 -0.21517543395E+02  0.16549850189E+04  0.16551412134E+04  0.00000000000E+00 0. -1.
         22    1    3    3    0    0 -0.55135573858E+02  0.15060966554E+02  0.75843523631E+02  0.94968438414E+02  0.00000000000E+00 0. -1.
         22    1    3    3    0    0  0.62033560383E+02  0.34478141512E+02  0.33521659534E+02  0.78489531237E+02  0.00000000000E+00 0. -1.
</event>
<event>
 7    1  0.7457412E-006  0.1041263E+03  0.7818608E-02  0.1377765E+00
          2   -1    0    0  502    0  0.00000000000E+00  0.00000000000E+00  0.56470425972E+03  0.56470425972E+03  0.00000000000E+00 0. -1.
          1   -1    0    0  501    0 -0.00000000000E+00 -0.00000000000E+00 -0.15963148629E+03  0.15963148629E+03  0.00000000000E+00 0. -1.
         25    2    1    2    0    0 -0.29129931838E+02 -0.66639710202E+02  0.31988693599E+03  0.35105967481E+03  0.12500335818E+03 0.  0.
          2    1    1    2  501    0  0.66445112763E+02  0.82749788307E+02 -0.12225486248E+03  0.16189111117E+03  0.00000000000E+00 0. -1.
          1    1    1    2  502    0 -0.37315180925E+02 -0.16110078106E+02  0.20744069993E+03  0.21138496004E+03  0.00000000000E+00 0. -1.
         22    1    3    3    0    0  0.13082883644E+02 -0.87815307355E+02  0.26031345137E+03  0.27503778470E+03  0.00000000000E+00 0.  1.
         22    1    3    3    0    0 -0.42212815482E+02  0.21175597154E+02  0.59573484622E+02  0.76021890109E+02  0.00000000000E+00 0.  1.
</event>
<event>
 7    1  0.7457412E-006  0.1468970E+03  0.7818608E-02  0.1350950E+00
          2   -1    0    0  502    0  0.00000000000E+00  0.00000000000E+00  0.44224486751E+03  0.44224486751E+03  0.00000000000E+00 0. -1.
          1   -1    0    0  501    0 -0.00000000000E+00 -0.00000000000E+00 -0.16251342960E+04  0.16251342960E+04  0.00000000000E+00 0. -1.
         25    2    1    2    0    0 -0.76143697260E+02  0.12461321293E+03  0.10105755628E+03  0.21717291417E+03  0.12500051799E+03 0.  0.
          2    1    1    2  501    0  0.43724611031E+02 -0.14035646848E+03 -0.15624652598E+04  0.15693659446E+04  0.00000000000E+00 0. -1.
          1    1    1    2  502    0  0.32419086229E+02  0.15743255547E+02  0.27851827504E+03  0.28084030476E+03  0.00000000000E+00 0. -1.
         22    1    3    3    0    0 -0.10489492120E+03  0.80123763854E+02  0.43567252029E+02  0.13899952330E+03  0.00000000000E+00 0.  1.
         22    1    3    3    0    0  0.28751223938E+02  0.44489449075E+02  0.57490304252E+02  0.78173390869E+02  0.00000000000E+00 0.  1.
</event>
<event>
 7    1  0.7457412E-006  0.2810655E+03  0.7818608E-02  0.1246617E+00
          2   -1    0    0  502    0  0.00000000000E+00  0.00000000000E+00  0.23844292844E+04  0.23844292844E+04  0.00000000000E+00 0. -1.
          1   -1    0    0  501    0 -0.00000000000E+00 -0.00000000000E+00 -0.47072023316E+03  0.47072023316E+03  0.00000000000E+00 0. -1.
         25    2    1    2    0    0  0.13364173380E+02  0.28803342424E+03 -0.19716492360E+03  0.37100190519E+03  0.12500620763E+03 0.  0.
          2    1    1    2  501    0  0.47502867779E+02 -0.13735427421E+02 -0.17460017857E+03  0.18146737109E+03  0.00000000000E+00 0. -1.
          1    1    1    2  502    0 -0.60867041159E+02 -0.27429799682E+03  0.22854741534E+04  0.23026802412E+04  0.00000000000E+00 0. -1.
         22    1    3    3    0    0 -0.16699714958E+02  0.28205206250E+03 -0.16815830584E+03  0.32880003386E+03  0.00000000000E+00 0.  1.
         22    1    3    3    0    0  0.30063888338E+02  0.59813617421E+01 -0.29006617752E+02  0.42201871329E+02  0.00000000000E+00 0.  1.
</event>
<event>
 7    1  0.7457412E-006  0.5032014E+02  0.7818608E-02  0.1536580E+00
          2   -1    0    0  502    0  0.00000000000E+00  0.00000000000E+00  0.18231426724E+04  0.18231426724E+04  0.00000000000E+00 0. -1.
          1   -1    0    0  501    0 -0.00000000000E+00 -0.00000000000E+00 -0.22378792551E+02  0.22378792551E+02  0.00000000000E+00 0. -1.
         25    2    1    2    0    0 -0.19587853194E+02  0.19882857865E+02  0.79215399619E+03  0.80243913521E+03  0.12498639928E+03 0.  0.
          2    1    1    2  501    0  0.23194542728E+02 -0.45952868420E+02  0.21765879924E+02  0.55887444540E+02  0.00000000000E+00 0. -1.
          1    1    1    2  502    0 -0.36066895332E+01  0.26070010555E+02  0.98684400371E+03  0.98719488518E+03  0.00000000000E+00 0. -1.
         22    1    3    3    0    0 -0.21575442838E+02 -0.15663882386E+01  0.77390457295E+03  0.77420684661E+03  0.00000000000E+00 0. -1.
         22    1    3    3    0    0  0.19875896431E+01  0.21449246103E+02  0.18249423243E+02  0.28232288602E+02  0.00000000000E+00 0. -1.
</event>
<event>
 7    1  0.7457412E-006  0.8257927E+02  0.7818608E-02  0.1371092E+00
          2   -1    0    0  502    0  0.00000000000E+00  0.00000000000E+00  0.14934321225E+04  0.14934321225E+04  0.00000000000E+00 0. -1.
          1   -1    0    0  501    0 -0.00000000000E+00 -0.00000000000E+00 -0.24160796689E+03  0.24160796689E+03  0.00000000000E+00 0. -1.
         25    2    1    2    0    0  0.58646152549E+02 -0.11672888425E+03 -0.49016961857E+02  0.18733245667E+03  0.12500313254E+03 0.  0.
          2    1    1    2  501    0 -0.39697361882E+02  0.36813987495E+02 -0.11624978385E+03  0.12823869330E+03  0.00000000000E+00 0. -1.
          1    1    1    2  502    0 -0.18948790667E+02  0.79914896753E+02  0.14170909013E+04  0.14194689394E+04  0.00000000000E+00 0. -1.
         22    1    3    3    0    0  0.47612738841E+02  0.77918464641E+01  0.97148724091E+01  0.49214474672E+02  0.00000000000E+00 0. -1.
         22    1    3    3    0    0  0.11033413708E+02 -0.12452073071E+03 -0.58731834266E+02  0.13811798200E+03  0.00000000000E+00 0. -1.
</event>
<event>
 7    1  0.7457412E-006  0.1528825E+03  0.7818608E-02  0.1320639E+00
          2   -1    0    0  502    0  0.00000000000E+00  0.00000000000E+00  0.47808457397E+03  0.47808457397E+03  0.00000000000E+00 0. -1.
          1   -1    0    0  501    0 -0.00000000000E+00 -0.00000000000E+00 -0.10383972246E+04  0.10383972246E+04  0.00000000000E+00 0. -1.
         25    2    1    2    0    0 -0.12669652855E+03  0.13952835257E+03 -0.17401330776E+03  0.28535111739E+03  0.12499782958E+03 0.  0.
          2    1    1    2  501    0  0.11306640070E+03 -0.96532810597E+02 -0.80064817706E+03  0.81433414390E+03  0.00000000000E+00 0. -1.
          1    1    1    2  502    0  0.13630127855E+02 -0.42995541976E+02  0.41434883424E+03  0.41679653723E+03  0.00000000000E+00 0. -1.
         22    1    3    3    0    0 -0.14486060384E+03  0.11702446171E+03 -0.17617158370E+03  0.25635082618E+03  0.00000000000E+00 0.  1.
         22    1    3    3    0    0  0.18164075288E+02  0.22503890864E+02  0.21582759328E+01  0.29000291207E+02  0.00000000000E+00 0.  1.
</event>
<event>
 7    1  0.7457412E-006  0.6154381E+02  0.7818608E-02  0.1470625E+00
          2   -1    0    0  502    0  0.00000000000E+00  0.00000000000E+00  0.11615493780E+04  0.11615493780E+04  0.00000000000E+00 0. -1.
          1   -1    0    0  501    0 -0.00000000000E+00 -0.00000000000E+00 -0.12738741377E+03  0.12738741377E+03  0.00000000000E+00 0. -1.
         25    2    1    2    0    0  0.32412897380E+02  0.70255624005E+02  0.21740809711E+03  0.26246914668E+03  0.12504928488E+03 0.  0.
          2    1    1    2  501    0  0.14177347342E+02 -0.30669667323E+02 -0.10109143006E+03  0.10658847453E+03  0.00000000000E+00 0. -1.
          1    1    1    2  502    0 -0.46590244722E+02 -0.39585956683E+02  0.91784529723E+03  0.91987917060E+03  0.00000000000E+00 0. -1.
         22    1    3    3    0    0  0.36754535949E+02  0.58897046032E+02  0.23275531254E+03  0.24288843830E+03  0.00000000000E+00 0. -1.
         22    1    3    3    0    0 -0.43416385688E+01  0.11358577973E+02 -0.15347215432E+02  0.19580708377E+02  0.00000000000E+00 0. -1.
</event>
<event>
 7    1  0.7457412E-006  0.1227591E+03  0.7818608E-02  0.1425444E+00
          2   -1    0    0  502    0  0.00000000000E+00  0.00000000000E+00  0.12086691385E+04  0.12086691385E+04  0.00000000000E+00 0. -1.
          1   -1    0    0  501    0 -0.00000000000E+00 -0.00000000000E+00 -0.38737259730E+02  0.38737259730E+02  0.00000000000E+00 0. -1.
         25    2    1    2    0    0 -0.13648766977E+02 -0.12278455970E+03  0.37248952954E+03  0.41186883357E+03  0.12500059802E+03 0.  0.
          2    1    1    2  501    0  0.36710778518E+02  0.11752906653E+03  0.18256912053E+03  0.22020955136E+03  0.00000000000E+00 0. -1.
          1    1    1    2  502    0 -0.23062011541E+02  0.52554931722E+01  0.61487322866E+03  0.61532801326E+03  0.00000000000E+00 0. -1.
         22    1    3    3    0    0  0.28764330724E+02  0.44171101547E+01  0.21626870244E+02  0.36257676438E+02  0.00000000000E+00 0.  1.
         22    1    3    3    0    0 -0.42413097700E+02 -0.12720166986E+03  0.35086265930E+03  0.37561115713E+03  0.00000000000E+00 0.  1.
</event>
<event>
 7    1  0.7457412E-006  0.1482993E+03  0.7818608E-02  0.1249573E+00
          2   -1    0    0  502    0  0.00000000000E+00  0.00000000000E+00  0.10014234870E+04  0.10014234870E+04  0.00000000000E+00 0. -1.
          1   -1    0    0  501    0 -0.00000000000E+00 -0.00000000000E+00 -0.96870995236E+03  0.96870995236E+03  0.00000000000E+00 0. -1.
         25    2    1    2    0    0  0.19947037497E+03  0.27011795694E+02  0.14544884030E+01  0.23695070618E+03  0.12500181609E+03 0.  0.
          2    1    1    2  501    0 -0.14021842801E+03  0.42032672589E+02 -0.84228642951E+03  0.85491191503E+03  0.00000000000E+00 0. -1.
          1    1    1    2  502    0 -0.59251946966E+02 -0.69044468283E+02  0.87354547578E+03  0.87827081818E+03  0.00000000000E+00 0. -1.
         22    1    3    3    0    0  0.16554643192E+03 -0.32184491851E+02 -0.16183262462E+01  0.16865373289E+03  0.00000000000E+00 0.  1.
         22    1    3    3    0    0  0.33923943053E+02  0.59196287545E+02  0.30728146492E+01  0.68296973295E+02  0.00000000000E+00 0.  1.
</event>
<event>
 7    1  0.7457412E-006  0.1255691E+03  0.7818608E-02  0.1382568E+00
          2   -1    0    0  502    0  0.00000000000E+00  0.00000000000E+00  0.57279428596E+03  0.57279428596E+03  0.00000000000E+00 0. -1.
          1   -1    0    0  501    0 -0.00000000000E+00 -0.00000000000E+00 -0.13213658696E+03  0.13213658696E+03  0.00000000000E+00 0. -1.
         25    2    1    2    0    0 -0.31472109489E+02 -0.10685420917E+03  0.28483302118E+03  0.33039717575E+03  0.12499651233E+03 0.  0.
          2    1    1    2  501    0  0.13626185434E+02 -0.29405760101E+02 -0.88480746790E+02  0.94229582452E+02  0.00000000000E+00 0. -1.
          1    1    1    2  502    0  0.17845924055E+02  0.13625996927E+03  0.24430542461E+03  0.28030411471E+03  0.00000000000E+00 0. -1.
         22    1    3    3    0    0  0.17129414489E+02  0.45821863108E+01 -0.29619514749E+01  0.17977386592E+02  0.00000000000E+00 0. -1.
         22    1    3    3    0    0 -0.48601523978E+02 -0.11143639548E+03  0.28779497266E+03  0.31241978916E+03  0.00000000000E+00 0. -1.
</event>
<event>
 7    1  0.7457412E-006  0.7592299E+02  0.7818608E-02  0.1416396E+00
          2   -1    0    0  502    0  0.00000000000E+00  0.00000000000E+00  0.19635348660E+04  0.19635348660E+04  0.00000000000E+00 0. -1.
          1   -1    0    0  501    0 -0.00000000000E+00 -0.00000000000E+00 -0.86533415458E+03  0.86533415458E+03  0.00000000000E+00 0. -1.
         25    2    1    2    0    0  0.96992412485E+02 -0.46365943418E+02  0.27316842463E+02  0.16711452525E+03  0.12499490341E+03 0.  0.
          2    1    1    2  501    0 -0.56185694948E+02  0.50311686579E+02 -0.79342171611E+03  0.79699819179E+03  0.00000000000E+00 0. -1.
          1    1    1    2  502    0 -0.40806717537E+02 -0.39457431607E+01  0.18643055851E+04  0.18647563036E+04  0.00000000000E+00 0. -1.
         22    1    3    3    0    0 -0.26137940750E+02  0.10333094425E+02 -0.28197346791E+01  0.28247401485E+02  0.00000000000E+00 0.  1.
         22    1    3    3    0    0  0.12313035323E+03 -0.56699037843E+02  0.30136577142E+02  0.13886712376E+03  0.00000000000E+00 0.  1.
</event>
<event>
 7    1  0.7457412E-006  0.7162023E+02  0.7818608E-02  0.1423449E+00
          2   -1    0    0  502    0  0.00000000000E+00  0.00000000000E+00  0.30545008443E+03  0.30545008443E+03  0.00000000000E+00 0. -1.
          1   -1    0    0  501    0 -0.00000000000E+00 -0.00000000000E+00 -0.13629243081E+04  0.13629243081E+04  0.00000000000E+00 0. -1.
         25    2    1    2    0    0  0.81734502091E+02 -0.67171670026E+02 -0.95055705073E+02  0.18934113513E+03  0.12498766459E+03 0.  0.
          2    1    1    2  501    0 -0.39830539536E+02  0.10396883128E+02 -0.12155517810E+04  0.12162486174E+04  0.00000000000E+00 0. -1.
          1    1    1    2  502    0 -0.41903962555E+02  0.56774786898E+02  0.25313326238E+03  0.26278464001E+03  0.00000000000E+00 0. -1.
         22    1    3    3    0    0  0.64325336404E+02 -0.62316728304E+02 -0.12535452173E+03  0.15406128536E+03  0.00000000000E+00 0. -1.
         22    1    3    3    0    0  0.17409165687E+02 -0.48549417220E+01  0.30298816653E+02  0.35279849768E+02  0.00000000000E+00 0. -1.
</event>
<event>
 7    1  0.7457412E-006  0.1607022E+03  0.7818608E-02  0.1226156E+00
          2   -1    0    0  502    0  0.00000000000E+00  0.00000000000E+00  0.10742923012E+04  0.10742923012E+04  0.00000000000E+00 0. -1.
          1   -1    0    0  501    0 -0.00000000000E+00 -0.00000000000E+00 -0.32191475252E+03  0.32191475252E+03  0.00000000000E+00 0. -1.
         25    2    1    2    0    0  0.68527652682E+02 -0.50139382815E+01  0.32519246216E+02  0.14629899807E+03  0.12499886680E+03 0.  0.
          2    1    1    2  501    0  0.10366754508E+03  0.24798483421E+02 -0.24627346618E+03  0.26835153219E+03  0.00000000000E+00 0. -1.
          1    1    1    2  502    0 -0.17219519777E+03 -0.19784545140E+02  0.96613176868E+03  0.98155652349E+03  0.00000000000E+00 0. -1.
         22    1    3    3    0    0 -0.16796193727E+02 -0.76197966037E+01 -0.33596133582E+02  0.38325887018E+02  0.00000000000E+00 0.  1.
         22    1    3    3    0    0  0.85323846409E+02  0.26058583222E+01  0.66115379799E+02  0.10797311105E+03  0.00000000000E+00 0.  1.
</event>
<event>
 7    1  0.7457412E-006  0.1566794E+03  0.7818608E-02  0.1239858E+00
          2   -1    0    0  502    0  0.00000000000E+00  0.00000000000E+00  0.24474179402E+03  0.24474179402E+03  0.00000000000E+00 0. -1.
          1   -1    0    0  501    0 -0.00000000000E+00 -0.00000000000E+00 -0.35334163105E+03  0.35334163105E+03  0.00000000000E+00 0. -1.
         25    2    1    2    0    0  0.13234969088E+03 -0.17332640783E+02 -0.13634235864E+02  0.18337994099E+03  0.12500179701E+03 0.  0.
          2    1    1    2  501    0 -0.15420765879E+03 -0.75091260454E+02 -0.20634963666E+03  0.26832605534E+03  0.00000000000E+00 0. -1.
          1    1    1    2  502    0  0.21857967905E+02  0.92423901238E+02  0.11138403550E+03  0.14637742874E+03  0.00000000000E+00 0. -1.
         22    1    3    3    0    0  0.29012359918E+01  0.37268317698E+02 -0.20662561781E+02  0.42711662736E+02  0.00000000000E+00 0. -1.
         22    1    3    3    0    0  0.12944845489E+03 -0.54600958481E+02  0.70283259168E+01  0.14066827825E+03  0.00000000000E+00 0. -1.
</event>
<event>
 7    1  0.7457412E-006  0.1515124E+03  0.7818608E-02  0.1252206E+00
          2   -1    0    0  502    0  0.00000000000E+00  0.00000000000E+00  0.18825734226E+03  0.18825734226E+03  0.00000000000E+00 0. -1.
          1   -1    0    0  501    0 -0.00000000000E+00 -0.00000000000E+00 -0.18534324489E+04  0.18534324489E+04  0.00000000000E+00 0. -1.
         25    2    1    2    0    0 -0.37164516350E+02 -0.61625431322E+02 -0.58805731303E+02  0.15576159261E+03  0.12499865854E+03 0.  0.
          2    1    1    2  501    0  0.99255071685E+02  0.12220101932E+03 -0.17287605441E+04  0.17359140754E+04  0.00000000000E+00 0. -1.
          1    1    1    2  502    0 -0.62090555335E+02 -0.60575588001E+02  0.12239116881E+03  0.15001412309E+03  0.00000000000E+00 0. -1.
         22    1    3    3    0    0  0.45872291051E+02 -0.17112873214E+02 -0.29189537414E+02  0.57001286041E+02  0.00000000000E+00 0.  1.
         22    1    3    3    0    0 -0.83036807401E+02 -0.44512558108E+02 -0.29616193889E+02  0.98760306566E+02  0.00000000000E+00 0.  1.
</event>
<event>
 7    1  0.7457412E-006  0.6601247E+02  0.7818608E-02  0.1485675E+00
          2   -1    0    0  502    0  0.00000000000E+00  0.00000000000E+00  0.33402415558E+04  0.33402415558E+04  0.00000000000E+00 0. -1.
          1   -1    0    0  501    0 -0.00000000000E+00 -0.00000000000E+00 -0.48071676942E+03  0.48071676942E+03  0.00000000000E+00 0. -1.
         25    2    1    2    0    0 -0.44482844401E+02  0.64867131312E+02 -0.34872227514E+01  0.14772793721E+03  0.12499965816E+03 0.  0.
          2    1    1    2  501    0  0.28301685005E+02 -0.90403713911E+00 -0.40428092764E+03  0.40527135491E+03  0.00000000000E+00 0. -1.
          1    1    1    2  502    0  0.16181159396E+02 -0.63963094173E+02  0.32672929368E+04  0.32679590331E+04  0.00000000000E+00 0. -1.
         22    1    3    3    0    0 -0.73225907083E+02  0.92377280964E+00 -0.19567630539E+02  0.75800916810E+02  0.00000000000E+00 0.  1.
         22    1    3    3    0    0  0.28743062682E+02  0.63943358503E+02  0.16080407787E+02  0.71927020400E+02  0.00000000000E+00 0.  1.
</event>
<event>
 7    1  0.7457412E-006  0.9021474E+02  0.7818608E-02  0.1375776E+00
          2   -1    0    0  502    0  0.00000000000E+00  0.00000000000E+00  0.41721748639E+03  0.41721748639E+03  0.00000000000E+00 0. -1.
          1   -1    0    0  501    0 -0.00000000000E+00 -0.00000000000E+00 -0.30036108454E+03  0.30036108454E+03  0.00000000000E+00 0. -1.
         25    2    1    2    0    0 -0.11835426094E+03  0.27290447831E+02  0.25995666216E+03  0.31297837188E+03  0.12500198173E+03 0.  0.
          2    1    1    2  501    0  0.88987199948E+02  0.10275899856E+02 -0.26178929995E+03  0.27669107943E+03  0.00000000000E+00 0. -1.
          1    1    1    2  502    0  0.29367060990E+02 -0.37566347687E+02  0.11868903964E+03  0.12790911962E+03  0.00000000000E+00 0. -1.
         22    1    3    3    0    0 -0.32613590225E+02  0.70333538372E+02  0.10116885273E+03  0.12745818785E+03  0.00000000000E+00 0. -1.
         22    1    3    3    0    0 -0.85740670713E+02 -0.43043090542E+02  0.15878780943E+03  0.18552018403E+03  0.00000000000E+00 0. -1.
</event>
<event>
 7    1  0.7457412E-006  0.4108652E+02  0.7818608E-02  0.1554487E+00
          2   -1    0    0  502    0  0.00000000000E+00  0.00000000000E+00  0.30304852895E+03  0.30304852895E+03  0.00000000000E+00 0. -1.
          1   -1    0    0  501    0 -0.00000000000E+00 -0.00000000000E+00 -0.13827919416E+04  0.13827919416E+04  0.00000000000E+00 0. -1.
         25    2    1    2    0    0 -0.46014423991E+02 -0.39139228278E+02  0.27192740521E+02  0.14147069146E+03  0.12500122000E+03 0.  0.
          2    1    1    2  501    0  0.69999965341E+01  0.27844765325E+02 -0.13236102973E+04  0.13239216555E+04  0.00000000000E+00 0. -1.
          1    1    1    2  502    0  0.39014427456E+02  0.11294462952E+02  0.21667414412E+03  0.22044812354E+03  0.00000000000E+00 0. -1.
         22    1    3    3    0    0 -0.42758552016E+02  0.12074896982E+02 -0.38027056595E+02  0.58482082221E+02  0.00000000000E+00 0.  1.
         22    1    3    3    0    0 -0.32558719750E+01 -0.51214125260E+02  0.65219797116E+02  0.82988609244E+02  0.00000000000E+00 0.  1.
</event>
<event>
 7    1  0.7457412E-006  0.5856388E+02  0.7818608E-02  0.1437765E+00
          2   -1    0    0  502    0  0.00000000000E+00  0.00000000000E+00  0.67274137966E+02  0.67274137966E+02  0.00000000000E+00 0. -1.
          1   -1    0    0  501    0 -0.00000000000E+00 -0.00000000000E+00 -0.13018166336E+04  0.13018166336E+04  0.00000000000E+00 0. -1.
         25    2    1    2    0    0 -0.14194009316E+02 -0.17558669883E+02 -0.12405066240E+03  0.17754785732E+03  0.12499959203E+03 0.  0.
          2    1    1    2  501    0 -0.41687754441E+01 -0.44976484959E+02 -0.11240624744E+04  0.11249696481E+04  0.00000000000E+00 0. -1.
          1    1    1    2  502    0  0.18362784760E+02  0.62535154842E+02  0.13570641186E+02  0.66573266087E+02  0.00000000000E+00 0. -1.
         22    1    3    3    0    0 -0.72227125208E+01 -0.61973501975E+02 -0.11622485406E+03  0.13191322612E+03  0.00000000000E+00 0. -1.
         22    1    3    3    0    0 -0.69712967953E+01  0.44414832092E+02 -0.78258083411E+01  0.45634631202E+02  0.00000000000E+00 0. -1.
</event>
<event>
 7    1  0.7457412E-006  0.1228787E+03  0.7818608E-02  0.1358216E+00
          2   -1    0    0  502    0  0.00000000000E+00  0.00000000000E+00  0.84062640565E+03  0.84062640565E+03  0.00000000000E+00 0. -1.
          1   -1    0    0  501    0 -0.00000000000E+00 -0.00000000000E+00 -0.58615882342E+02  0.58615882342E+02  0.00000000000E+00 0. -1.
         25    2    1    2    0    0 -0.69480538871E+02  0.13715999990E+03  0.36283755800E+03  0.41341978698E+03  0.12499766363E+03 0.  0.
          2    1    1    2  501    0  0.12680832699E+02 -0.38475820621E+02 -0.10061645544E+02  0.41742412501E+02  0.00000000000E+00 0. -1.
          1    1    1    2  502    0  0.56799706172E+02 -0.98684179282E+02  0.42923461085E+03  0.44408008851E+03  0.00000000000E+00 0. -1.
         22    1    3    3    0    0 -0.23564740278E+02 -0.30343120759E+01  0.16464769622E+03  0.16635314215E+03  0.00000000000E+00 0. -1.
         22    1    3    3    0    0 -0.45915798594E+02  0.14019431198E+03  0.19818986178E+03  0.24706664482E+03  0.00000000000E+00 0. -1.
</event>
<event>
 7    1  0.7457412E-006  0.7662686E+02  0.7818608E-02  0.1444425E+00
          2   -1    0    0  502    0  0.00000000000E+00  0.00000000000E+00  0.12231605944E+04  0.12231605944E+04  0.00000000000E+00 0. -1.
          1   -1    0    0  501    0 -0.00000000000E+00 -0.00000000000E+00 -0.22569239503E+03  0.22569239503E+03  0.00000000000E+00 0. -1.
         25    2    1    2    0    0  0.38697100536E+02  0.50188040647E+02 -0.78376986753E+02  0.16057589877E+03  0.12500144878E+03 0.  0.
          2    1    1    2  501    0  0.29407816940E+02 -0.14635204354E+02 -0.10239500177E+03  0.10753485616E+03  0.00000000000E+00 0. -1.
          1    1    1    2  502    0 -0.68104917477E+02 -0.35552836293E+02  0.11782401879E+04  0.11807422345E+04  0.00000000000E+00 0. -1.
         22    1    3    3    0    0  0.62083056169E+02  0.85550962913E+01 -0.91637224131E+02  0.11101745981E+03  0.00000000000E+00 0. -1.
         22    1    3    3    0    0 -0.23385955633E+02  0.41632944356E+02  0.13260237378E+02  0.49558438958E+02  0.00000000000E+00 0. -1.
</event>
<event>
 7    1  0.7457412E-006  0.1930862E+03  0.7818608E-02  0.1206673E+00
          2   -1    0    0  502    0  0.00000000000E+00  0.00000000000E+00  0.98953802377E+03  0.98953802377E+03  0.00000000000E+00 0. -1.
          1   -1    0    0  501    0 -0.00000000000E+00 -0.00000000000E+00 -0.63166845390E+03  0.63166845390E+03  0.00000000000E+00 0. -1.
         25    2    1    2    0    0  0.13343118742E+03  0.23280231956E+03  0.90876534744E+02  0.30965203470E+03  0.12500014505E+03 0.  0.
          2    1    1    2  501    0 -0.35813686613E+02 -0.18434005806E+03 -0.50143067017E+03  0.53544056079E+03  0.00000000000E+00 0. -1.
          1    1    1    2  502    0 -0.97617500805E+02 -0.48462261494E+02  0.76842370529E+03  0.77611388218E+03  0.00000000000E+00 0. -1.
         22    1    3    3    0    0  0.15144559744E+03  0.23276423134E+03  0.88638332468E+02  0.29149907437E+03  0.00000000000E+00 0.  1.
         22    1    3    3    0    0 -0.18014410025E+02  0.38088212022E-01  0.22382022754E+01  0.18152960329E+02  0.00000000000E+00 0.  1.
</event>
<event>
 7    1  0.7457412E-006  0.7795875E+02  0.7818608E-02  0.1496865E+00
          2   -1    0    0  502    0  0.00000000000E+00  0.00000000000E+00  0.45350030014E+03  0.45350030014E+03  0.00000000000E+00 0. -1.
          1   -1    0    0  501    0 -0.00000000000E+00 -0.00000000000E+00 -0.11006659323E+04  0.11006659323E+04  0.00000000000E+00 0. -1.
         25    2    1    2    0    0  0.51492383903E+02 -0.28908453157E+02  0.66405978195E+02  0.15336493718E+03  0.12499554293E+03 0.  0.
          2    1    1    2  501    0  0.13771492387E+02 -0.17389024613E+02 -0.10524095633E+04  0.10526433019E+04  0.00000000000E+00 0. -1.
          1    1    1    2  502    0 -0.65263876290E+02  0.46297477770E+02  0.33883795292E+03  0.34815799335E+03  0.00000000000E+00 0. -1.
         22    1    3    3    0    0 -0.32279326616E+02 -0.42339486768E+02  0.29216067569E+02  0.60730269807E+02  0.00000000000E+00 0.  1.
         22    1    3    3    0    0  0.83771710519E+02  0.13431033611E+02  0.37189910626E+02  0.92634667374E+02  0.00000000000E+00 0.  1.
</event>
<event>
 7    1  0.7830028E-006  0.5103818E+02  0.7818608E-02  0.1456909E+00
          2   -1    0    0  502    0  0.00000000000E+00  0.00000000000E+00  0.98923826395E+03  0.98923826395E+03  0.00000000000E+00 0. -1.
          1   -1    0    0  501    0 -0.00000000000E+00 -0.00000000000E+00 -0.14938308378E+04  0.14938308378E+04  0.00000000000E+00 0. -1.
         25    2    1    2    0    0  0.87654744839E+02  0.37501839429E+02 -0.97968826518E+02  0.18523693348E+03  0.12500035321E+03 0.  0.
          2    1    1    2  501    0 -0.39261740485E+02 -0.21963473546E+02 -0.13511703411E+04  0.13519190690E+04  0.00000000000E+00 0. -1.
          1    1    1    2  502    0 -0.48393004354E+02 -0.15538365883E+02  0.94454659374E+03  0.94591309930E+03  0.00000000000E+00 0. -1.
         22    1    3    3    0    0  0.11903108327E+03  0.24739943799E+02 -0.64528365196E+02  0.13763856116E+03  0.00000000000E+00 0. -1.
         22    1    3    3    0    0 -0.31376338435E+02  0.12761895630E+02 -0.33440461323E+02  0.47598372316E+02  0.00000000000E+00 0. -1.
</event>
<event>
 7    1  0.7457412E-006  0.5789681E+02  0.7818608E-02  0.1548125E+00
          2   -1    0    0  502    0  0.00000000000E+00  0.00000000000E+00  0.39186547773E+03  0.39186547773E+03  0.00000000000E+00 0. -1.
          1   -1    0    0  501    0 -0.00000000000E+00 -0.00000000000E+00 -0.96616232428E+03  0.96616232428E+03  0.00000000000E+00 0. -1.
         25    2    1    2    0    0  0.28272428448E+02  0.28375057735E+02 -0.62648567961E+03  0.64008823186E+03  0.12499665475E+03 0.  0.
          2    1    1    2  501    0  0.18553688447E+01  0.21141885969E+02 -0.33035172126E+03  0.33103274986E+03  0.00000000000E+00 0. -1.
          1    1    1    2  502    0 -0.30127797293E+02 -0.49516943704E+02  0.38254055433E+03  0.38690682029E+03  0.00000000000E+00 0. -1.
         22    1    3    3    0    0 -0.49141497358E+02  0.19662775696E+02 -0.27913072178E+03  0.28410468379E+03  0.00000000000E+00 0. -1.
         22    1    3    3    0    0  0.77413925807E+02  0.87122820391E+01 -0.34735495783E+03  0.35598354807E+03  0.00000000000E+00 0. -1.
</event>
<event>
 7    1  0.7457412E-006  0.1930682E+03  0.7818608E-02  0.1216398E+00
          2   -1    0    0  502    0  0.00000000000E+00  0.00000000000E+00  0.12853905514E+04  0.12853905514E+04  0.00000000000E+00 0. -1.
          1   -1    0    0  501    0 -0.00000000000E+00 -0.00000000000E+00 -0.13265822608E+04  0.13265822608E+04  0.00000000000E+00 0. -1.
         25    2    1    2    0    0 -0.10504027274E+03 -0.13886920511E+02  0.47402633162E+03  0.50154953882E+03  0.12499868545E+03 0.  0.
          2    1    1    2  501    0  0.19169732714E+03 -0.32458443824E+02 -0.13025507360E+04  0.13169813345E+04  0.00000000000E+00 0. -1.
          1    1    1    2  502    0 -0.86657054403E+02  0.46345364335E+02  0.78733269487E+03  0.79344193882E+03  0.00000000000E+00 0. -1.
         22    1    3    3    0    0  0.28603051955E+02  0.23583232738E+01  0.99755488344E+02  0.10380199287E+03  0.00000000000E+00 0. -1.
         22    1    3    3    0    0 -0.13364332469E+03 -0.16245243785E+02  0.37427084327E+03  0.39774754595E+03  0.00000000000E+00 0. -1.
</event>
<event>
 7    1  0.7457412E-006  0.1419354E+03  0.7818608E-02  0.1423081E+00
          2   -1    0    0  502    0  0.00000000000E+00  0.00000000000E+00  0.78769365128E+02  0.78769365128E+02  0.00000000000E+00 0. -1.
          1   -1    0    0  501    0 -0.00000000000E+00 -0.00000000000E+00 -0.10776685929E+04  0.10776685929E+04  0.00000000000E+00 0. -1.
         25    2    1    2    0    0 -0.43298463142E+02  0.13189377403E+03 -0.33571757681E+03  0.38418975660E+03  0.12499901263E+03 0.  0.
          2    1    1    2  501    0  0.24594215718E+02 -0.14106181812E+03 -0.70826016179E+03  0.72258962680E+03  0.00000000000E+00 0. -1.
          1    1    1    2  502    0  0.18704247424E+02  0.91680440912E+01  0.45078510785E+02  0.49658574675E+02  0.00000000000E+00 0. -1.
         22    1    3    3    0    0 -0.24016524491E-01  0.13219635241E+03 -0.18497221027E+03  0.22735565694E+03  0.00000000000E+00 0. -1.
         22    1    3    3    0    0 -0.43274446617E+02 -0.30257838641E+00 -0.15074536654E+03  0.15683409966E+03  0.00000000000E+00 0. -1.
</event>
<event>
 7    1  0.7457412E-006  0.8496356E+02  0.7818608E-02  0.1336256E+00
          2   -1    0    0  502    0  0.00000000000E+00  0.00000000000E+00  0.10643196808E+04  0.10643196808E+04  0.00000000000E+00 0. -1.
          1   -1    0    0  501    0 -0.00000000000E+00 -0.00000000000E+00 -0.49837878225E+03  0.49837878225E+03  0.00000000000E+00 0. -1.
         25    2    1    2    0    0 -0.12905205135E+03 -0.41026797721E+02  0.21717050163E+02  0.18556524895E+03  0.12500080504E+03 0.  0.
          2    1    1    2  501    0  0.82543424523E+02 -0.12247501063E+02 -0.41095416039E+03  0.41934084008E+03  0.00000000000E+00 0. -1.
          1    1    1    2  502    0  0.46508626830E+02  0.53274298784E+02  0.95517800873E+03  0.95779237397E+03  0.00000000000E+00 0. -1.
         22    1    3    3    0    0 -0.34172561454E+02 -0.75824396654E+02  0.74171754114E+01  0.83499207034E+02  0.00000000000E+00 0. -1.
         22    1    3    3    0    0 -0.94879489899E+02  0.34797598933E+02  0.14299874752E+02  0.10206604192E+03  0.00000000000E+00 0. -1.
</event>
<event>
 7    1  0.7457412E-006  0.5698666E+02  0.7818608E-02  0.1446844E+00
          2   -1    0    0  502    0  0.00000000000E+00  0.00000000000E+00  0.10260177458E+03  0.10260177458E+03  0.00000000000E+00 0. -1.
          1   -1    0    0  501    0 -0.00000000000E+00 -0.00000000000E+00 -0.55641089684E+03  0.55641089684E+03  0.00000000000E+00 0. -1.
         25    2    1    2    0    0  0.10661495955E+02 -0.83637133384E+02  0.21706094670E+02  0.15233057328E+03  0.12499844572E+03 0.  0.
          2    1    1    2  501    0  0.20025852812E+02  0.52969816948E+02 -0.45531944525E+03  0.45882745505E+03  0.00000000000E+00 0. -1.
          1    1    1    2  502    0 -0.30687348767E+02  0.30667316436E+02 -0.20195771688E+02  0.47854643096E+02  0.00000000000E+00 0. -1.
         22    1    3    3    0    0  0.55660346293E+02 -0.12562976207E+02  0.35330399168E+02  0.67112887183E+02  0.00000000000E+00 0.  1.
         22    1    3    3    0    0 -0.44998850337E+02 -0.71074157177E+02 -0.13624304498E+02  0.85217686094E+02  0.00000000000E+00 0.  1.
</event>
<event>
 7    1  0.7457412E-006  0.5856465E+02  0.7818608E-02  0.1432883E+00
          2   -1    0    0  502    0  0.00000000000E+00  0.00000000000E+00  0.89993478743E+03  0.89993478743E+03  0.00000000000E+00 0. -1.
          1   -1    0    0  501    0 -0.00000000000E+00 -0.00000000000E+00 -0.37682619100E+03  0.37682619100E+03  0.00000000000E+00 0. -1.
         25    2    1    2    0    0  0.90166809203E+02  0.26805488442E+02  0.60406935230E+01  0.15655785447E+03  0.12500113649E+03 0.  0.
          2    1    1    2  501    0 -0.44371619192E+02 -0.36732041427E+02 -0.29813795047E+03  0.30365164410E+03  0.00000000000E+00 0. -1.
          1    1    1    2  502    0 -0.45795190011E+02  0.99265529846E+01  0.81520585338E+03  0.81655147986E+03  0.00000000000E+00 0. -1.
         22    1    3    3    0    0 -0.34924559306E+01  0.43757240519E+02 -0.31722612812E+02  0.54159186754E+02  0.00000000000E+00 0. -1.
         22    1    3    3    0    0  0.93659265134E+02 -0.16951752076E+02  0.37763306335E+02  0.10239866771E+03  0.00000000000E+00 0. -1.
</event>
<event>
 7    1  0.7457412E-006  0.1957922E+03  0.7818608E-02  0.1255757E+00
          2   -1    0    0  502    0  0.00000000000E+00  0.00000000000E+00  0.12959258525E+04  0.12959258525E+04  0.00000000000E+00 0. -1.
          1   -1    0    0  501    0 -0.00000000000E+00 -0.00000000000E+00 -0.73974446652E+03  0.73974446652E+03  0.00000000000E+00 0. -1.
         25    2    1    2    0    0 -0.12504761833E+03 -0.12597847947E+03  0.89862727559E+01  0.21728628131E+03  0.12500036323E+03 0.  0.
          2    1    1    2  501    0  0.38554412911E+02 -0.52086157916E+02 -0.62562613944E+03  0.62897335154E+03  0.00000000000E+00 0. -1.
          1    1    1    2  502    0  0.86493205418E+02  0.17806463738E+03  0.11728212526E+04  0.11894106861E+04  0.00000000000E+00 0. -1.
         22    1    3    3    0    0 -0.33416419781E+02 -0.43257056262E+02  0.62246677096E+02  0.82840079895E+02  0.00000000000E+00 0.  1.
         22    1    3    3    0    0 -0.91631198549E+02 -0.82721423204E+02 -0.53260404340E+02  0.13444620141E+03  0.00000000000E+00 0.  1.
</event>
<event>
 7    1  0.7457412E-006  0.7637331E+02  0.7818608E-02  0.1389766E+00
          2   -1    0    0  502    0  0.00000000000E+00  0.00000000000E+00  0.39246387260E+04  0.39246387260E+04  0.00000000000E+00 0. -1.
          1   -1    0    0  501    0 -0.00000000000E+00 -0.00000000000E+00 -0.30561108047E+03  0.30561108047E+03  0.00000000000E+00 0. -1.
         25    2    1    2    0    0  0.33871833529E+02 -0.64982790332E+02  0.45236922256E+03  0.47500807435E+03  0.12499877214E+03 0.  0.
          2    1    1    2  501    0  0.15391147580E+02  0.75019035292E+02 -0.28912363229E+03  0.29909399497E+03  0.00000000000E+00 0. -1.
          1    1    1    2  502    0 -0.49262981109E+02 -0.10036244961E+02  0.34557820553E+04  0.34561477372E+04  0.00000000000E+00 0. -1.
         22    1    3    3    0    0  0.60681673227E+02 -0.76460245700E+02  0.21831601024E+03  0.23914496642E+03  0.00000000000E+00 0. -1.
         22    1    3    3    0    0 -0.26809839698E+02  0.11477455368E+02  0.23405321232E+03  0.23586310793E+03  0.00000000000E+00 0. -1.
</event>
<event>
 7    1  0.7457412E-006  0.7270123E+02  0.7818608E-02  0.1401659E+00
          2   -1    0    0  502    0  0.00000000000E+00  0.00000000000E+00  0.27910061553E+04  0.27910061553E+04  0.00000000000E+00 0. -1.
          1   -1    0    0  501    0 -0.00000000000E+00 -0.00000000000E+00 -0.88455336991E+02  0.88455336991E+02  0.00000000000E+00 0. -1.
         25    2    1    2    0    0  0.27664090557E+02 -0.11689737229E+03  0.13154071426E+04  0.13267850996E+04  0.12502980440E+03 0.  0.
          2    1    1    2  501    0 -0.18218005700E+02  0.69796232360E+02 -0.66576726722E+02  0.98162469021E+02  0.00000000000E+00 0. -1.
          1    1    1    2  502    0 -0.94460848570E+01  0.47101139931E+02  0.14537204024E+04  0.14545139237E+04  0.00000000000E+00 0. -1.
         22    1    3    3    0    0  0.68678969644E+02 -0.73195693317E+02  0.55370975218E+03  0.56273341829E+03  0.00000000000E+00 0. -1.
         22    1    3    3    0    0 -0.41014879087E+02 -0.43701678974E+02  0.76169739045E+03  0.76405168129E+03  0.00000000000E+00 0. -1.
</event>
<event>
 7    1  0.7457412E-006  0.5832673E+02  0.7818608E-02  0.1440111E+00
          2   -1    0    0  502    0  0.00000000000E+00  0.00000000000E+00  0.70631328072E+02  0.70631328072E+02  0.00000000000E+00 0. -1.
          1   -1    0    0  501    0 -0.00000000000E+00 -0.00000000000E+00 -0.38012018040E+03  0.38012018040E+03  0.00000000000E+00 0. -1.
         25    2    1    2    0    0 -0.26662491684E+02  0.25892863302E+02 -0.57005890499E+02  0.14232240002E+03  0.12499866064E+03 0.  0.
          2    1    1    2  501    0 -0.74522485033E+00 -0.61031586415E+02 -0.25652147393E+03  0.26368290898E+03  0.00000000000E+00 0. -1.
          1    1    1    2  502    0  0.27407716534E+02  0.35138723113E+02  0.40385121000E+01  0.44746199476E+02  0.00000000000E+00 0. -1.
         22    1    3    3    0    0 -0.67512575779E+02  0.49030471402E+02 -0.37709467272E+02  0.91563851689E+02  0.00000000000E+00 0.  1.
         22    1    3    3    0    0  0.40850084095E+02 -0.23137608099E+02 -0.19296423228E+02  0.50758548330E+02  0.00000000000E+00 0.  1.
</event>
<event>
 7    1  0.7457412E-006  0.9966135E+02  0.7818608E-02  0.1317137E+00
          2   -1    0    0  502    0  0.00000000000E+00  0.00000000000E+00  0.72187785478E+03  0.72187785478E+03  0.00000000000E+00 0. -1.
          1   -1    0    0  501    0 -0.00000000000E+00 -0.00000000000E+00 -0.85819997486E+03  0.85819997486E+03  0.00000000000E+00 0. -1.
         25    2    1    2    0    0  0.14201934419E+03  0.97078797121E+01 -0.11123085531E+02  0.18977206594E+03  0.12500390764E+03 0.  0.
          2    1    1    2  501    0 -0.51683664179E+02 -0.49252998341E+02 -0.75220857597E+03  0.75558904224E+03  0.00000000000E+00 0. -1.
          1    1    1    2  502    0 -0.90335680012E+02  0.39545118629E+02  0.62700954141E+03  0.63471672147E+03  0.00000000000E+00 0. -1.
         22    1    3    3    0    0 -0.81478815557E+01 -0.29674669359E+02 -0.15518212594E+02  0.34464313391E+02  0.00000000000E+00 0.  1.
         22    1    3    3    0    0  0.15016722575E+03  0.39382549071E+02  0.43951270630E+01  0.15530775255E+03  0.00000000000E+00 0.  1.
</event>
<event>
 7    1  0.7457412E-006  0.5617683E+02  0.7818608E-02  0.1471876E+00
          2   -1    0    0  502    0  0.00000000000E+00  0.00000000000E+00  0.96833699245E+03  0.96833699245E+03  0.00000000000E+00 0. -1.
          1   -1    0    0  501    0 -0.00000000000E+00 -0.00000000000E+00 -0.39195406803E+03  0.39195406803E+03  0.00000000000E+00 0. -1.
         25    2    1    2    0    0 -0.54451230256E+02 -0.59963973121E+02  0.80383547461E+03  0.81751834395E+03  0.12499663160E+03 0.  0.
          2    1    1    2  501    0  0.21600234947E+02  0.29653251773E+02 -0.38104575312E+03  0.38280772127E+03  0.00000000000E+00 0. -1.
          1    1    1    2  502    0  0.32850995309E+02  0.30310721348E+02  0.15359320293E+03  0.15996499526E+03  0.00000000000E+00 0. -1.
         22    1    3    3    0    0 -0.90022421845E+02 -0.29789943072E+02  0.40438952500E+03  0.41535811666E+03  0.00000000000E+00 0.  1.
         22    1    3    3    0    0  0.35571191589E+02 -0.30174030049E+02  0.39944594961E+03  0.40216022730E+03  0.00000000000E+00 0.  1.
</event>
<event>
 7    1  0.7457412E-006  0.3833204E+02  0.7818608E-02  0.1561423E+00
          2   -1    0    0  502    0  0.00000000000E+00  0.00000000000E+00  0.93897930537E+03  0.93897930537E+03  0.00000000000E+00 0. -1.
          1   -1    0    0  501    0 -0.00000000000E+00 -0.00000000000E+00 -0.71041702582E+02  0.71041702582E+02  0.00000000000E+00 0. -1.
         25    2    1    2    0    0 -0.23570834184E+02 -0.22895246763E+02  0.17028839364E+02  0.13041795714E+03  0.12505632981E+03 0.  0.
          2    1    1    2  501    0 -0.14800721494E+02  0.25457265766E+02  0.16704905611E+01  0.29494478733E+02  0.00000000000E+00 0. -1.
          1    1    1    2  502    0  0.38371555677E+02 -0.25620190025E+01  0.84923827287E+03  0.85010857208E+03  0.00000000000E+00 0. -1.
         22    1    3    3    0    0 -0.26462639318E+02  0.49715902596E+02  0.11936642820E+02  0.57571049082E+02  0.00000000000E+00 0. -1.
         22    1    3    3    0    0  0.28918051338E+01 -0.72611149359E+02  0.50921965445E+01  0.72846908059E+02  0.00000000000E+00 0. -1.
</event>
<event>
 7    1  0.7457412E-006  0.8290190E+02  0.7818608E-02  0.1386145E+00
          2   -1    0    0  502    0  0.00000000000E+00  0.00000000000E+00  0.68980084849E+03  0.68980084849E+03  0.00000000000E+00 0. -1.
          1   -1    0    0  501    0 -0.00000000000E+00 -0.00000000000E+00 -0.64930892696E+03  0.64930892696E+03  0.00000000000E+00 0. -1.
         25    2    1    2    0    0  0.41640553327E+02 -0.84843751193E+02  0.49352834286E+03  0.51780905556E+03  0.12499437991E+03 0.  0.
          2    1    1    2  501    0 -0.69081345586E+02  0.45842956076E+02 -0.63132456451E+03  0.63674525101E+03  0.00000000000E+00 0. -1.
          1    1    1    2  502    0  0.27440792259E+02  0.39000795117E+02  0.17828814318E+03  0.18455546889E+03  0.00000000000E+00 0. -1.
         22    1    3    3    0    0  0.78395132680E+02 -0.85852706745E+02  0.41704186692E+03  0.43294387956E+03  0.00000000000E+00 0. -1.
         22    1    3    3    0    0 -0.36754579354E+02  0.10089555518E+01  0.76486475943E+02  0.84865175997E+02  0.00000000000E+00 0. -1.
</event>
<event>
 7    1  0.7457412E-006  0.5337197E+02  0.7818608E-02  0.1568835E+00
          2   -1    0    0  502    0  0.00000000000E+00  0.00000000000E+00  0.10159260311E+03  0.10159260311E+03  0.00000000000E+00 0. -1.
          1   -1    0    0  501    0 -0.00000000000E+00 -0.00000000000E+00 -0.90445392884E+03  0.90445392884E+03  0.00000000000E+00 0. -1.
         25    2    1    2    0    0 -0.62132468962E+02  0.21192699747E+02 -0.11953160347E+03  0.18499258702E+03  0.12499951521E+03 0.  0.
          2    1    1    2  501    0  0.95456539665E+01 -0.17785039094E+02 -0.74195275399E+03  0.74222726726E+03  0.00000000000E+00 0. -1.
          1    1    1    2  502    0  0.52586814995E+02 -0.34076606522E+01  0.58623031732E+02  0.78826677666E+02  0.00000000000E+00 0. -1.
         22    1    3    3    0    0 -0.81176257088E+02 -0.26516125134E+02 -0.96011869591E+02  0.12849501434E+03  0.00000000000E+00 0. -1.
         22    1    3    3    0    0  0.19043788127E+02  0.47708824880E+02 -0.23519733882E+02  0.56497572687E+02  0.00000000000E+00 0. -1.
</event>
<event>
 7    1  0.7457412E-006  0.6314508E+02  0.7818608E-02  0.1447234E+00
          2   -1    0    0  502    0  0.00000000000E+00  0.00000000000E+00  0.26673809223E+03  0.26673809223E+03  0.00000000000E+00 0. -1.
          1   -1    0    0  501    0 -0.00000000000E+00 -0.00000000000E+00 -0.77277808613E+03  0.77277808613E+03  0.00000000000E+00 0. -1.
         25    2    1    2    0    0 -0.90296257902E+02 -0.13667560491E+02 -0.16855224413E+03  0.22885748986E+03  0.12500270102E+03 0.  0.
          2    1    1    2  501    0  0.60717172641E+02 -0.11812421794E+02 -0.57078025905E+03  0.57412212332E+03  0.00000000000E+00 0. -1.
          1    1    1    2  502    0  0.29579085261E+02  0.25479982285E+02  0.23329250928E+03  0.23653656519E+03  0.00000000000E+00 0. -1.
         22    1    3    3    0    0 -0.88764662331E+02  0.10552528855E+02 -0.39820241987E+02  0.97857921579E+02  0.00000000000E+00 0. -1.
         22    1    3    3    0    0 -0.15315955710E+01 -0.24220089346E+02 -0.12873200215E+03  0.13099956828E+03  0.00000000000E+00 0. -1.
</event>
<event>
 7    1  0.7457412E-006  0.5185898E+02  0.7818608E-02  0.1466500E+00
          2   -1    0    0  502    0  0.00000000000E+00  0.00000000000E+00  0.56372817381E+03  0.56372817381E+03  0.00000000000E+00 0. -1.
          1   -1    0    0  501    0 -0.00000000000E+00 -0.00000000000E+00 -0.89250730157E+03  0.89250730157E+03  0.00000000000E+00 0. -1.
         25    2    1    2    0    0 -0.52860179089E+02  0.74583972474E+02  0.11339783389E+03  0.19194074889E+03  0.12500085947E+03 0.  0.
          2    1    1    2  501    0  0.21371804453E+02 -0.35343538836E+02 -0.85119370599E+03  0.85219519177E+03  0.00000000000E+00 0. -1.
          1    1    1    2  502    0  0.31488374637E+02 -0.39240433638E+02  0.40901674434E+03  0.41209953472E+03  0.00000000000E+00 0. -1.
         22    1    3    3    0    0 -0.18504916612E+02 -0.23563248008E+02 -0.90484571193E+01  0.31297494656E+02  0.00000000000E+00 0. -1.
         22    1    3    3    0    0 -0.34355262478E+02  0.98147220482E+02  0.12244629101E+03  0.16064325423E+03  0.00000000000E+00 0. -1.
</event>
<event>
 7    1  0.7457412E-006  0.1565151E+03  0.7818608E-02  0.1275569E+00
          2   -1    0    0  502    0  0.00000000000E+00  0.00000000000E+00  0.11884228851E+03  0.11884228851E+03  0.00000000000E+00 0. -1.
          1   -1    0    0  501    0 -0.00000000000E+00 -0.00000000000E+00 -0.16364404161E+04  0.16364404161E+04  0.00000000000E+00 0. -1.
         25    2    1    2    0    0  0.17785202059E+03  0.76145455374E+02 -0.23375105301E+03  0.32816755064E+03  0.12499965963E+03 0.  0.
          2    1    1    2  501    0 -0.15320679684E+03 -0.14013998487E+02 -0.13344442179E+04  0.13432833228E+04  0.00000000000E+00 0. -1.
          1    1    1    2  502    0 -0.24645223757E+02 -0.62131456887E+02  0.50597143348E+02  0.83831831090E+02  0.00000000000E+00 0. -1.
         22    1    3    3    0    0  0.90120613483E+01 -0.20267444969E+02 -0.71727016789E+02  0.75078302543E+02  0.00000000000E+00 0. -1.
         22    1    3    3    0    0  0.16883995925E+03  0.96412900342E+02 -0.16202403622E+03  0.25308924810E+03  0.00000000000E+00 0. -1.
</event>
<event>
 7    1  0.7457412E-006  0.1161298E+03  0.7818608E-02  0.1353281E+00
          2   -1    0    0  502    0  0.00000000000E+00  0.00000000000E+00  0.69650945093E+03  0.69650945093E+03  0.00000000000E+00 0. -1.
          1   -1    0    0  501    0 -0.00000000000E+00 -0.00000000000E+00 -0.16777336561E+04  0.16777336561E+04  0.00000000000E+00 0. -1.
         25    2    1    2    0    0 -0.14002661408E+03 -0.66580938239E+02 -0.37109395474E+03  0.42115983178E+03  0.12499762665E+03 0.  0.
          2    1    1    2  501    0  0.29059014330E+02  0.33956384481E+02 -0.12762318205E+04  0.12770141432E+04  0.00000000000E+00 0. -1.
          1    1    1    2  502    0  0.11096759975E+03  0.32624553758E+02  0.66610157004E+03  0.67606913205E+03  0.00000000000E+00 0. -1.
         22    1    3    3    0    0 -0.38533574180E+02 -0.34453952957E+02 -0.26809370803E+03  0.27303140387E+03  0.00000000000E+00 0. -1.
         22    1    3    3    0    0 -0.10149303990E+03 -0.32126985282E+02 -0.10300024672E+03  0.14812842791E+03  0.00000000000E+00 0. -1.
</event>
<event>
 7    1  0.7457412E-006  0.6392217E+02  0.7818608E-02  0.1425411E+00
          2   -1    0    0  502    0  0.00000000000E+00  0.00000000000E+00  0.16250225290E+02  0.16250225290E+02  0.00000000000E+00 0. -1.
          1   -1    0    0  501    0 -0.00000000000E+00 -0.00000000000E+00 -0.29717944361E+04  0.29717944361E+04  0.00000000000E+00 0. -1.
         25    2    1    2    0    0  0.23490828938E+02  0.48301451040E+02 -0.12178803763E+04  0.12254563859E+04  0.12500357423E+03 0.  0.
          2    1    1    2  501    0 -0.62884436430E+02 -0.25660806573E+02 -0.17056611591E+04  0.17070128643E+04  0.00000000000E+00 0. -1.
          1    1    1    2  502    0  0.39393607492E+02 -0.22640644467E+02 -0.32002675458E+02  0.55575411196E+02  0.00000000000E+00 0. -1.
         22    1    3    3    0    0 -0.30898309173E+02 -0.22952741910E+02 -0.58427421792E+03  0.58554068655E+03  0.00000000000E+00 0. -1.
         22    1    3    3    0    0  0.54389138111E+02  0.71254192950E+02 -0.63360615838E+03  0.63991569936E+03  0.00000000000E+00 0. -1.
</event>
<event>
 7    1  0.7457412E-006  0.6158914E+02  0.7818608E-02  0.1479094E+00
          2   -1    0    0  502    0  0.00000000000E+00  0.00000000000E+00  0.16609640757E+04  0.16609640757E+04  0.00000000000E+00 0. -1.
          1   -1    0    0  501    0 -0.00000000000E+00 -0.00000000000E+00 -0.18290654827E+02  0.18290654827E+02  0.00000000000E+00 0. -1.
         25    2    1    2    0    0  0.13769606426E+02  0.31502682399E+02  0.61882407954E+03  0.63225795493E+03  0.12499943639E+03 0.  0.
          2    1    1    2  501    0  0.17185043979E+02  0.26743281351E+02  0.13566011767E+02  0.34562487024E+02  0.00000000000E+00 0. -1.
          1    1    1    2  502    0 -0.30954650405E+02 -0.58245963750E+02  0.10102833296E+04  0.10124342886E+04  0.00000000000E+00 0. -1.
         22    1    3    3    0    0  0.44781455999E+02  0.36432069738E+02  0.57739267261E+03  0.58027146482E+03  0.00000000000E+00 0.  1.
         22    1    3    3    0    0 -0.31011849573E+02 -0.49293873397E+01  0.41431406930E+02  0.51986490107E+02  0.00000000000E+00 0.  1.
</event>
<event>
 7    1  0.7457412E-006  0.5764202E+02  0.7818608E-02  0.1450147E+00
          2   -1    0    0  502    0  0.00000000000E+00  0.00000000000E+00  0.11534533431E+04  0.11534533431E+04  0.00000000000E+00 0. -1.
          1   -1    0    0  501    0 -0.00000000000E+00 -0.00000000000E+00 -0.43130164687E+03  0.43130164687E+03  0.00000000000E+00 0. -1.
         25    2    1    2    0    0  0.39516691373E+02 -0.30700366178E+02  0.24320637568E+03  0.27799089153E+03  0.12500205287E+03 0.  0.
          2    1    1    2  501    0 -0.31488434352E+02 -0.27578105014E+02 -0.41187846717E+03  0.41399993369E+03  0.00000000000E+00 0. -1.
          1    1    1    2  502    0 -0.80282570213E+01  0.58278471192E+02  0.89082378768E+03  0.89276416472E+03  0.00000000000E+00 0. -1.
         22    1    3    3    0    0  0.77357281543E+02 -0.44556201532E+02  0.19938448772E+03  0.21845726824E+03  0.00000000000E+00 0.  1.
         22    1    3    3    0    0 -0.37840590169E+02  0.13855835354E+02  0.43821887966E+02  0.59533623295E+02  0.00000000000E+00 0.  1.
</event>
<event>
 7    1  0.7457412E-006  0.1136302E+03  0.7818608E-02  0.1280084E+00
          2   -1    0    0  502    0  0.00000000000E+00  0.00000000000E+00  0.22910778735E+04  0.22910778735E+04  0.00000000000E+00 0. -1.
          1   -1    0    0  501    0 -0.00000000000E+00 -0.00000000000E+00 -0.78037664992E+03  0.78037664992E+03  0.00000000000E+00 0. -1.
         25    2    1    2    0    0 -0.71877230053E+02 -0.55818065170E+02  0.51644956807E+03  0.53909950086E+03  0.12500449136E+03 0.  0.
          2    1    1    2  501    0 -0.49447205741E+02  0.73013949592E+02 -0.76438492096E+03  0.76945459280E+03  0.00000000000E+00 0. -1.
          1    1    1    2  502    0  0.12132443579E+03 -0.17195884422E+02  0.17586365765E+04  0.17629004298E+04  0.00000000000E+00 0. -1.
         22    1    3    3    0    0 -0.87253117038E+02 -0.46043693286E+02  0.51048133607E+03  0.51992722818E+03  0.00000000000E+00 0. -1.
         22    1    3    3    0    0  0.15375886985E+02 -0.97743718836E+01  0.59682319978E+01  0.19172272674E+02  0.00000000000E+00 0. -1.
</event>
<event>
 7    1  0.7457412E-006  0.8830909E+02  0.7818608E-02  0.1354795E+00
          2   -1    0    0  502    0  0.00000000000E+00  0.00000000000E+00  0.45832908837E+03  0.45832908837E+03  0.00000000000E+00 0. -1.
          1   -1    0    0  501    0 -0.00000000000E+00 -0.00000000000E+00 -0.67136856599E+03  0.67136856599E+03  0.00000000000E+00 0. -1.
         25    2    1    2    0    0 -0.70774197378E+02  0.22027995328E+02 -0.45301787335E+02  0.15221983826E+03  0.12499763050E+03 0.  0.
          2    1    1    2  501    0  0.83471508973E+02  0.34588511321E+02 -0.56693293820E+03  0.57408781065E+03  0.00000000000E+00 0. -1.
          1    1    1    2  502    0 -0.12697311595E+02 -0.56616506649E+02  0.39919524791E+03  0.40339000546E+03  0.00000000000E+00 0. -1.
         22    1    3    3    0    0 -0.38475322434E+02  0.52839970737E+02 -0.74323299047E+02  0.98976591804E+02  0.00000000000E+00 0. -1.
         22    1    3    3    0    0 -0.32298874944E+02 -0.30811975409E+02  0.29021511711E+02  0.53243246457E+02  0.00000000000E+00 0. -1.
</event>
<event>
 7    1  0.7457412E-006  0.8604838E+02  0.7818608E-02  0.1406826E+00
          2   -1    0    0  502    0  0.00000000000E+00  0.00000000000E+00  0.94056031361E+03  0.94056031361E+03  0.00000000000E+00 0. -1.
          1   -1    0    0  501    0 -0.00000000000E+00 -0.00000000000E+00 -0.40572245088E+02  0.40572245088E+02  0.00000000000E+00 0. -1.
         25    2    1    2    0    0 -0.87254092965E+01  0.57867682844E+02  0.35097596052E+03  0.37714127531E+03  0.12500646061E+03 0.  0.
          2    1    1    2  501    0 -0.10242612024E+02 -0.91910631820E+02  0.53279942499E+02  0.10672969416E+03  0.00000000000E+00 0. -1.
          1    1    1    2  502    0  0.18968021321E+02  0.34042948976E+02  0.49573216551E+03  0.49726158924E+03  0.00000000000E+00 0. -1.
         22    1    3    3    0    0  0.36984491774E+02  0.78975021258E+02  0.20716055819E+03  0.22476744312E+03  0.00000000000E+00 0.  1.
         22    1    3    3    0    0 -0.45709901070E+02 -0.21107338414E+02  0.14381540232E+03  0.15237383219E+03  0.00000000000E+00 0.  1.
</event>
<event>
 7    1  0.7457412E-006  0.1314119E+03  0.7818608E-02  0.1309747E+00
          2   -1    0    0  502    0  0.00000000000E+00  0.00000000000E+00  0.26646995034E+03  0.26646995034E+03  0.00000000000E+00 0. -1.
          1   -1    0    0  501    0 -0.00000000000E+00 -0.00000000000E+00 -0.14836812496E+04  0.14836812496E+04  0.00000000000E+00 0. -1.
         25    2    1    2    0    0 -0.56689649661E+02 -0.80794066885E+02 -0.76436212839E+02  0.17665915808E+03  0.12499826350E+03 0.  0.
          2    1    1    2  501    0  0.22907661882E+02 -0.53152367758E+02 -0.13343920653E+04  0.13356467044E+04  0.00000000000E+00 0. -1.
          1    1    1    2  502    0  0.33781987780E+02  0.13394643464E+03  0.19361697884E+03  0.23784533745E+03  0.00000000000E+00 0. -1.
         22    1    3    3    0    0 -0.35741314113E+02 -0.66859908570E+02  0.18838073800E+02  0.78118896133E+02  0.00000000000E+00 0.  1.
         22    1    3    3    0    0 -0.20948335548E+02 -0.13934158315E+02 -0.95274286640E+02  0.98540261949E+02  0.00000000000E+00 0.  1.
</event>
<event>
 7    1  0.7457412E-006  0.4280460E+02  0.7818608E-02  0.1555064E+00
          2   -1    0    0  502    0  0.00000000000E+00  0.00000000000E+00  0.13642340934E+04  0.13642340934E+04  0.00000000000E+00 0. -1.
          1   -1    0    0  501    0 -0.00000000000E+00 -0.00000000000E+00 -0.50643135493E+03  0.50643135493E+03  0.00000000000E+00 0. -1.
         25    2    1    2    0    0  0.12806360165E+02  0.35976130471E+02  0.42157496136E+02  0.13733414132E+03  0.12500050826E+03 0.  0.
          2    1    1    2  501    0  0.14274225917E+02 -0.40509536458E+02 -0.45768958272E+03  0.45970047879E+03  0.00000000000E+00 0. -1.
          1    1    1    2  502    0 -0.27080586082E+02  0.45334059875E+01  0.12733348250E+04  0.12736308282E+04  0.00000000000E+00 0. -1.
         22    1    3    3    0    0  0.60588296593E+02  0.51602018636E+02  0.33380582968E+02  0.86301641529E+02  0.00000000000E+00 0. -1.
         22    1    3    3    0    0 -0.47781936428E+02 -0.15625888165E+02  0.87769131679E+01  0.51032499787E+02  0.00000000000E+00 0. -1.
</event>
<event>
 7    1  0.7457412E-006  0.4754714E+02  0.7818608E-02  0.1531177E+00
          2   -1    0    0  502    0  0.00000000000E+00  0.00000000000E+00  0.57273978133E+03  0.57273978133E+03  0.00000000000E+00 0. -1.
          1   -1    0    0  501    0 -0.00000000000E+00 -0.00000000000E+00 -0.56240103751E+02  0.56240103751E+02  0.00000000000E+00 0. -1.
         25    2    1    2    0    0 -0.11593369390E+02  0.31372851837E+02  0.10770969119E+03  0.16836111407E+03  0.12500170043E+03 0.  0.
          2    1    1    2  501    0 -0.28548655203E+02 -0.42173177856E+01 -0.16051326041E+02  0.33022061578E+02  0.00000000000E+00 0. -1.
          1    1    1    2  502    0  0.40142024593E+02 -0.27155534051E+02  0.42484131243E+03  0.42759670943E+03  0.00000000000E+00 0. -1.
         22    1    3    3    0    0 -0.22261655834E+02 -0.40115172335E+02  0.77417461982E+02  0.89990398330E+02  0.00000000000E+00 0.  1.
         22    1    3    3    0    0  0.10668286444E+02  0.71488024172E+02  0.30292229210E+02  0.78370715744E+02  0.00000000000E+00 0.  1.
</event>
<event>
 7    1  0.7457412E-006  0.6194749E+02  0.7818608E-02  0.1397738E+00
          2   -1    0    0  502    0  0.00000000000E+00  0.00000000000E+00  0.27834016464E+04  0.27834016464E+04  0.00000000000E+00 0. -1.
          1   -1    0    0  501    0 -0.00000000000E+00 -0.00000000000E+00 -0.41701275325E+02  0.41701275325E+02  0.00000000000E+00 0. -1.
         25    2    1    2    0    0 -0.50794197844E+02  0.54911025656E+02  0.50294789869E+03  0.52362017859E+03  0.12500492534E+03 0.  0.
          2    1    1    2  501    0  0.62621659731E+02  0.20305262551E+01  0.68351450902E+00  0.62658299502E+02  0.00000000000E+00 0. -1.
          1    1    1    2  502    0 -0.11827461887E+02 -0.56941551911E+02  0.22380689579E+04  0.22388244436E+04  0.00000000000E+00 0. -1.
         22    1    3    3    0    0 -0.54710055934E+02  0.30395720267E+02  0.88307670501E+02  0.10823739973E+03  0.00000000000E+00 0.  1.
         22    1    3    3    0    0  0.39158580901E+01  0.24515305389E+02  0.41464022819E+03  0.41538277886E+03  0.00000000000E+00 0.  1.
</event>
<event>
 7    1  0.7457412E-006  0.1265565E+03  0.7818608E-02  0.1271274E+00
          2   -1    0    0  502    0  0.00000000000E+00  0.00000000000E+00  0.21622325028E+04  0.21622325028E+04  0.00000000000E+00 0. -1.
          1   -1    0    0  501    0 -0.00000000000E+00 -0.00000000000E+00 -0.19844035419E+04  0.19844035419E+04  0.00000000000E+00 0. -1.
         25    2    1    2    0    0 -0.14840802957E+02 -0.75472748344E+02 -0.83795307262E+02  0.16900692101E+03  0.12500120261E+03 0.  0.
          2    1    1    2  501    0  0.78729238410E+02 -0.34978305659E+02 -0.18550815780E+04  0.18570808910E+04  0.00000000000E+00 0. -1.
          1    1    1    2  502    0 -0.63888435454E+02  0.11045105400E+03  0.21167058462E+04  0.21205482326E+04  0.00000000000E+00 0. -1.
         22    1    3    3    0    0 -0.12816272267E+02  0.12564807581E+02  0.23901960375E+02  0.29890381967E+02  0.00000000000E+00 0. -1.
         22    1    3    3    0    0 -0.20245306894E+01 -0.88037555925E+02 -0.10769726764E+03  0.13911653904E+03  0.00000000000E+00 0. -1.
</event>
<event>
 7    1  0.7457412E-006  0.1646103E+03  0.7818608E-02  0.1327033E+00
          2   -1    0    0  502    0  0.00000000000E+00  0.00000000000E+00  0.12382532723E+04  0.12382532723E+04  0.00000000000E+00 0. -1.
          1   -1    0    0  501    0 -0.00000000000E+00 -0.00000000000E+00 -0.11364039554E+04  0.11364039554E+04  0.00000000000E+00 0. -1.
         25    2    1    2    0    0 -0.13296028262E+03 -0.37389414173E+02 -0.20502394354E+03  0.27700562161E+03  0.12498356665E+03 0.  0.
          2    1    1    2  501    0 -0.31758149246E+02  0.23619368299E+02 -0.88926560590E+03  0.89014592761E+03  0.00000000000E+00 0. -1.
          1    1    1    2  502    0  0.16471843187E+03  0.13770045873E+02  0.11961388664E+04  0.12075056785E+04  0.00000000000E+00 0. -1.
         22    1    3    3    0    0 -0.14058066936E+03 -0.57348636945E+02 -0.20565936416E+03  0.25563169761E+03  0.00000000000E+00 0. -1.
         22    1    3    3    0    0  0.76203867419E+01  0.19959222773E+02  0.63542061892E+00  0.21373924000E+02  0.00000000000E+00 0. -1.
</event>
<event>
 7    1  0.7457412E-006  0.7507739E+02  0.7818608E-02  0.1391537E+00
          2   -1    0    0  502    0  0.00000000000E+00  0.00000000000E+00  0.80718918767E+03  0.80718918767E+03  0.00000000000E+00 0. -1.
          1   -1    0    0  501    0 -0.00000000000E+00 -0.00000000000E+00 -0.15302192549E+03  0.15302192549E+03  0.00000000000E+00 0. -1.
         25    2    1    2    0    0  0.45722508715E+02  0.29445644843E+01  0.19346690253E+03  0.23484559751E+03  0.12499517604E+03 0.  0.
          2    1    1    2  501    0  0.22114156938E+02 -0.45312217985E+02 -0.12470994485E+03  0.13451692600E+03  0.00000000000E+00 0. -1.
          1    1    1    2  502    0 -0.67836665653E+02  0.42367653501E+02  0.58541030450E+03  0.59084858964E+03  0.00000000000E+00 0. -1.
         22    1    3    3    0    0  0.54786582500E+02  0.45855265568E+02  0.17151694937E+03  0.18580188084E+03  0.00000000000E+00 0. -1.
         22    1    3    3    0    0 -0.90640737857E+01 -0.42910701084E+02  0.21949953160E+02  0.49043716670E+02  0.00000000000E+00 0. -1.
</event>
<event>
 7    1  0.7457412E-006  0.6017681E+02  0.7818608E-02  0.1416309E+00
          2   -1    0    0  502    0  0.00000000000E+00  0.00000000000E+00  0.14186482878E+04  0.14186482878E+04  0.00000000000E+00 0. -1.
          1   -1    0    0  501    0 -0.00000000000E+00 -0.00000000000E+00 -0.43548497674E+03  0.43548497674E+03  0.00000000000E+00 0. -1.
         25    2    1    2    0    0 -0.71546042232E+02  0.40783864053E+02  0.14180375219E+03  0.20619250997E+03  0.12499954923E+03 0.  0.
          2    1    1    2  501    0  0.59362822540E+02  0.95210570031E+01 -0.40050783172E+03  0.40499520799E+03  0.00000000000E+00 0. -1.
          1    1    1    2  502    0  0.12183219692E+02 -0.50304921056E+02  0.12418673906E+04  0.12429455466E+04  0.00000000000E+00 0. -1.
         22    1    3    3    0    0 -0.41141097367E+02  0.56196606989E+02  0.10375137534E+02  0.70415140477E+02  0.00000000000E+00 0.  1.
         22    1    3    3    0    0 -0.30404944866E+02 -0.15412742936E+02  0.13142861466E+03  0.13577736950E+03  0.00000000000E+00 0.  1.
</event>
<event>
 7    1  0.7457412E-006  0.1484681E+03  0.7818608E-02  0.1324874E+00
          2   -1    0    0  502    0  0.00000000000E+00  0.00000000000E+00  0.41620385494E+03  0.41620385494E+03  0.00000000000E+00 0. -1.
          1   -1    0    0  501    0 -0.00000000000E+00 -0.00000000000E+00 -0.49346946961E+03  0.49346946961E+03  0.00000000000E+00 0. -1.
         25    2    1    2    0    0  0.13808044499E+03  0.41702043482E+02  0.34903474771E+02  0.19402220049E+03  0.12498436708E+03 0.  0.
          2    1    1    2  501    0 -0.12381492379E+03 -0.84094281115E+02 -0.39858670778E+03  0.42576207803E+03  0.00000000000E+00 0. -1.
          1    1    1    2  502    0 -0.14265521204E+02  0.42392237633E+02  0.28641761834E+03  0.28988904602E+03  0.00000000000E+00 0. -1.
         22    1    3    3    0    0  0.10434601075E+03  0.85701825019E+02  0.19123195936E+02  0.13637664534E+03  0.00000000000E+00 0. -1.
         22    1    3    3    0    0  0.33734434240E+02 -0.43999781537E+02  0.15780278835E+02  0.57645555153E+02  0.00000000000E+00 0. -1.
</event>
<event>
 7    1  0.7457412E-006  0.1592534E+03  0.7818608E-02  0.1412123E+00
          2   -1    0    0  502    0  0.00000000000E+00  0.00000000000E+00  0.23333919748E+03  0.23333919748E+03  0.00000000000E+00 0. -1.
          1   -1    0    0  501    0 -0.00000000000E+00 -0.00000000000E+00 -0.57900734724E+03  0.57900734724E+03  0.00000000000E+00 0. -1.
         25    2    1    2    0    0  0.16808842428E+03  0.54551024050E+02 -0.18624409080E+03  0.28555414505E+03  0.12499910319E+03 0.  0.
          2    1    1    2  501    0 -0.18055634906E+02 -0.90649470375E+01 -0.30926592907E+03  0.30992514274E+03  0.00000000000E+00 0. -1.
          1    1    1    2  502    0 -0.15003278937E+03 -0.45486077012E+02  0.14984187012E+03  0.21686725693E+03  0.00000000000E+00 0. -1.
         22    1    3    3    0    0  0.12609441102E+03  0.71068900675E+02 -0.19158280736E+03  0.24011364228E+03  0.00000000000E+00 0. -1.
         22    1    3    3    0    0  0.41994013253E+02 -0.16517876625E+02  0.53387165612E+01  0.45440502768E+02  0.00000000000E+00 0. -1.
</event>
<event>
 7    1  0.7457412E-006  0.9013093E+02  0.7818608E-02  0.1401348E+00
          2   -1    0    0  502    0  0.00000000000E+00  0.00000000000E+00  0.24865508782E+03  0.24865508782E+03  0.00000000000E+00 0. -1.
          1   -1    0    0  501    0 -0.00000000000E+00 -0.00000000000E+00 -0.73723773801E+03  0.73723773801E+03  0.00000000000E+00 0. -1.
         25    2    1    2    0    0  0.54005710192E+02  0.61539625462E+02  0.11719250638E+02  0.14988185107E+03  0.12499394469E+03 0.  0.
          2    1    1    2  501    0  0.30798978012E+02 -0.23671344741E+02 -0.65468933976E+03  0.65584071328E+03  0.00000000000E+00 0. -1.
          1    1    1    2  502    0 -0.84804688204E+02 -0.37868280721E+02  0.15438743892E+03  0.18017026149E+03  0.00000000000E+00 0. -1.
         22    1    3    3    0    0  0.40918269370E+02  0.86392602699E+02  0.45566786948E+02  0.10589768006E+03  0.00000000000E+00 0. -1.
         22    1    3    3    0    0  0.13087440821E+02 -0.24852977238E+02 -0.33847536310E+02  0.43984171006E+02  0.00000000000E+00 0. -1.
</event>
<event>
 7    1  0.7457412E-006  0.4656855E+02  0.7818608E-02  0.1493755E+00
          2   -1    0    0  502    0  0.00000000000E+00  0.00000000000E+00  0.13366459059E+03  0.13366459059E+03  0.00000000000E+00 0. -1.
          1   -1    0    0  501    0 -0.00000000000E+00 -0.00000000000E+00 -0.10904761032E+04  0.10904761032E+04  0.00000000000E+00 0. -1.
         25    2    1    2    0    0  0.39751940425E+02  0.69163822209E+02 -0.52646458016E+03  0.54694945757E+03  0.12499961562E+03 0.  0.
          2    1    1    2  501    0 -0.29221316238E+02 -0.32713302510E+02 -0.54995918692E+03  0.55170567585E+03  0.00000000000E+00 0. -1.
          1    1    1    2  502    0 -0.10530624187E+02 -0.36450519699E+02  0.11961225449E+03  0.12548556035E+03  0.00000000000E+00 0. -1.
         22    1    3    3    0    0 -0.93494696096E-01  0.91856045275E+02 -0.43549270915E+03  0.44507464713E+03  0.00000000000E+00 0.  1.
         22    1    3    3    0    0  0.39845435121E+02 -0.22692223065E+02 -0.90971871009E+02  0.10187481044E+03  0.00000000000E+00 0.  1.
</event>
<event>
 7    1  0.7457412E-006  0.3670866E+02  0.7818608E-02  0.1590664E+00
          2   -1    0    0  502    0  0.00000000000E+00  0.00000000000E+00  0.27031232465E+02  0.27031232465E+02  0.00000000000E+00 0. -1.
          1   -1    0    0  501    0 -0.00000000000E+00 -0.00000000000E+00 -0.51983947502E+03  0.51983947502E+03  0.00000000000E+00 0. -1.
         25    2    1    2    0    0  0.24750273529E+02  0.55328441206E+02 -0.23134942854E+03  0.26985435741E+03  0.12500001473E+03 0.  0.
          2    1    1    2  501    0 -0.12220049859E+02 -0.32952133037E+02 -0.24272682547E+03  0.24525799578E+03  0.00000000000E+00 0. -1.
          1    1    1    2  502    0 -0.12530223670E+02 -0.22376308169E+02 -0.18731988538E+02  0.31758354288E+02  0.00000000000E+00 0. -1.
         22    1    3    3    0    0  0.19146666668E+02  0.32725387166E+02 -0.24149480529E+03  0.24445303597E+03  0.00000000000E+00 0.  1.
         22    1    3    3    0    0  0.56036068614E+01  0.22603054039E+02  0.10145376753E+02  0.25401321447E+02  0.00000000000E+00 0.  1.
</event>
<event>
 7    1  0.7457412E-006  0.1527158E+03  0.7818608E-02  0.1323787E+00
          2   -1    0    0  502    0  0.00000000000E+00  0.00000000000E+00  0.94595794131E+03  0.94595794131E+03  0.00000000000E+00 0. -1.
          1   -1    0    0  501    0 -0.00000000000E+00 -0.00000000000E+00 -0.62830294356E+03  0.62830294356E+03  0.00000000000E+00 0. -1.
         25    2    1    2    0    0  0.10641893217E+03 -0.12958084686E+03  0.24948831798E+03  0.32555482601E+03  0.12500135573E+03 0.  0.
          2    1    1    2  501    0 -0.63440081446E+02  0.13855358811E+03 -0.57967903525E+03  0.59937427758E+03  0.00000000000E+00 0. -1.
          1    1    1    2  502    0 -0.42978850724E+02 -0.89727412523E+01  0.64784571503E+03  0.64933178128E+03  0.00000000000E+00 0. -1.
         22    1    3    3    0    0  0.76029600399E+01 -0.56091213663E+02  0.11744495082E+02  0.57809708668E+02  0.00000000000E+00 0.  1.
         22    1    3    3    0    0  0.98815972131E+02 -0.73489633199E+02  0.23774382289E+03  0.26774511734E+03  0.00000000000E+00 0.  1.
</event>
<event>
 7    1  0.7457412E-006  0.1104501E+03  0.7818608E-02  0.1360004E+00
          2   -1    0    0  502    0  0.00000000000E+00  0.00000000000E+00  0.73522845681E+03  0.73522845681E+03  0.00000000000E+00 0. -1.
          1   -1    0    0  501    0 -0.00000000000E+00 -0.00000000000E+00 -0.88404476395E+03  0.88404476395E+03  0.00000000000E+00 0. -1.
         25    2    1    2    0    0  0.55012929299E+02  0.51677675746E+02  0.10517356912E+03  0.17993036010E+03  0.12496579646E+03 0.  0.
          2    1    1    2  501    0  0.12504451073E+02  0.42599762634E+02 -0.84040272845E+03  0.84157462358E+03  0.00000000000E+00 0. -1.
          1    1    1    2  502    0 -0.67517380372E+02 -0.94277438380E+02  0.58641285219E+03  0.59776823707E+03  0.00000000000E+00 0. -1.
         22    1    3    3    0    0 -0.89910027667E+01  0.41195613114E+01  0.99499642609E+02  0.99989938471E+02  0.00000000000E+00 0. -1.
         22    1    3    3    0    0  0.64003932065E+02  0.47558114435E+02  0.56739265074E+01  0.79940421630E+02  0.00000000000E+00 0. -1.
</event>
<event>
 7    1  0.7457412E-006  0.5930472E+02  0.7818608E-02  0.1479811E+00
          2   -1    0    0  502    0  0.00000000000E+00  0.00000000000E+00  0.98588649137E+03  0.98588649137E+03  0.00000000000E+00 0. -1.
          1   -1    0    0  501    0 -0.00000000000E+00 -0.00000000000E+00 -0.26831311202E+03  0.26831311202E+03  0.00000000000E+00 0. -1.
         25    2    1    2    0    0 -0.43555669317E+02 -0.43911551519E+02 -0.77071459741E+02  0.15935650812E+03  0.12501666324E+03 0.  0.
          2    1    1    2  501    0  0.29794567332E+02 -0.13826689600E+02 -0.14735683693E+03  0.15097327902E+03  0.00000000000E+00 0. -1.
          1    1    1    2  502    0  0.13761101985E+02  0.57738241119E+02  0.94200167602E+03  0.94386981625E+03  0.00000000000E+00 0. -1.
         22    1    3    3    0    0 -0.58632181873E+02 -0.78195338534E+02 -0.72364604298E+02  0.12160953776E+03  0.00000000000E+00 0.  1.
         22    1    3    3    0    0  0.15076512555E+02  0.34283787016E+02 -0.47068554434E+01  0.37746970357E+02  0.00000000000E+00 0.  1.
</event>
<event>
 7    1  0.7457412E-006  0.6055359E+02  0.7818608E-02  0.1545330E+00
          2   -1    0    0  502    0  0.00000000000E+00  0.00000000000E+00  0.53542576133E+02  0.53542576133E+02  0.00000000000E+00 0. -1.
          1   -1    0    0  501    0 -0.00000000000E+00 -0.00000000000E+00 -0.14576538055E+04  0.14576538055E+04  0.00000000000E+00 0. -1.
         25    2    1    2    0    0 -0.42403224940E+02  0.40689155831E+02 -0.20302203841E+03  0.24555314829E+03  0.12499903866E+03 0.  0.
          2    1    1    2  501    0  0.15124530399E+02  0.14075971796E+02 -0.12042038764E+04  0.12043811109E+04  0.00000000000E+00 0. -1.
          1    1    1    2  502    0  0.27278694541E+02 -0.54765127627E+02  0.31146854338E+01  0.61262122435E+02  0.00000000000E+00 0. -1.
         22    1    3    3    0    0 -0.20757349810E+02  0.77183211871E+02 -0.71093222329E+02  0.10696897694E+03  0.00000000000E+00 0.  1.
         22    1    3    3    0    0 -0.21645875130E+02 -0.36494056040E+02 -0.13192881609E+03  0.13858417135E+03  0.00000000000E+00 0.  1.
</event>
<event>
 7    1  0.7457412E-006  0.1595594E+03  0.7818608E-02  0.1285335E+00
          2   -1    0    0  502    0  0.00000000000E+00  0.00000000000E+00  0.15377624510E+04  0.15377624510E+04  0.00000000000E+00 0. -1.
          1   -1    0    0  501    0 -0.00000000000E+00 -0.00000000000E+00 -0.11888170380E+03  0.11888170380E+03  0.00000000000E+00 0. -1.
         25    2    1    2    0    0  0.59488555212E+02  0.18554168292E+03  0.27769225105E+03  0.36152966187E+03  0.12500442319E+03 0.  0.
          2    1    1    2  501    0 -0.51833033577E+02 -0.29725139114E+02 -0.59505819983E+02  0.84327871294E+02  0.00000000000E+00 0. -1.
          1    1    1    2  502    0 -0.76555216346E+01 -0.15581654380E+03  0.12006943162E+04  0.12107866217E+04  0.00000000000E+00 0. -1.
         22    1    3    3    0    0  0.57989585954E+02  0.10890727270E+03  0.25218041443E+03  0.28074641146E+03  0.00000000000E+00 0.  1.
         22    1    3    3    0    0  0.14989692571E+01  0.76634410217E+02  0.25511836615E+02  0.80783250402E+02  0.00000000000E+00 0.  1.
</event>
<event>
 7    1  0.7457412E-006  0.4268508E+02  0.7818608E-02  0.1550535E+00
          2   -1    0    0  502    0  0.00000000000E+00  0.00000000000E+00  0.42589264933E+03  0.42589264933E+03  0.00000000000E+00 0. -1.
          1   -1    0    0  501    0 -0.00000000000E+00 -0.00000000000E+00 -0.11262077232E+04  0.11262077232E+04  0.00000000000E+00 0. -1.
         25    2    1    2    0    0 -0.19403145516E+02 -0.53735836008E+02 -0.15618615657E+03  0.20804769857E+03  0.12500282897E+03 0.  0.
          2    1    1    2  501    0 -0.12494165518E+02  0.25441677238E+02 -0.94274083675E+03  0.94316682957E+03  0.00000000000E+00 0. -1.
          1    1    1    2  502    0  0.31897311035E+02  0.28294158771E+02  0.39861191947E+03  0.40088584437E+03  0.00000000000E+00 0. -1.
         22    1    3    3    0    0 -0.72842073199E+02 -0.30688195129E+02 -0.95466749639E+02  0.12394205596E+03  0.00000000000E+00 0.  1.
         22    1    3    3    0    0  0.53438927683E+02 -0.23047640880E+02 -0.60719406928E+02  0.84105642615E+02  0.00000000000E+00 0.  1.
</event>
<event>
 7    1  0.7457412E-006  0.1645008E+03  0.7818608E-02  0.1188917E+00
          2   -1    0    0  502    0  0.00000000000E+00  0.00000000000E+00  0.77062759018E+03  0.77062759018E+03  0.00000000000E+00 0. -1.
          1   -1    0    0  501    0 -0.00000000000E+00 -0.00000000000E+00 -0.55820890868E+03  0.55820890868E+03  0.00000000000E+00 0. -1.
         25    2    1    2    0    0 -0.25363203675E+02 -0.30532530979E+02  0.45190334900E+02  0.13871175206E+03  0.12499302478E+03 0.  0.
          2    1    1    2  501    0  0.41959357208E+02  0.18488581215E+03 -0.48444185234E+03  0.52021847284E+03  0.00000000000E+00 0. -1.
          1    1    1    2  502    0 -0.16596153533E+02 -0.15435328117E+03  0.65167019893E+03  0.66990627396E+03  0.00000000000E+00 0. -1.
         22    1    3    3    0    0  0.10860362036E+02 -0.59608249755E+00 -0.39982259994E+02  0.41435297659E+02  0.00000000000E+00 0. -1.
         22    1    3    3    0    0 -0.36223565711E+02 -0.29936448482E+02  0.85172594894E+02  0.97276454404E+02  0.00000000000E+00 0. -1.
</event>
<event>
 7    1  0.7457412E-006  0.2094794E+03  0.7818608E-02  0.1194193E+00
          2   -1    0    0  502    0  0.00000000000E+00  0.00000000000E+00  0.41131526676E+03  0.41131526676E+03  0.00000000000E+00 0. -1.
          1   -1    0    0  501    0 -0.00000000000E+00 -0.00000000000E+00 -0.58932271731E+03  0.58932271731E+03  0.00000000000E+00 0. -1.
         25    2    1    2    0    0 -0.23096571777E+02 -0.17638509751E+03  0.79669313842E+02  0.23155160667E+03  0.12499517085E+03 0.  0.
          2    1    1    2  501    0  0.13787246812E+03  0.16881609874E+03 -0.47532286295E+03  0.52291444491E+03  0.00000000000E+00 0. -1.
          1    1    1    2  502    0 -0.11477589634E+03  0.75689987723E+01  0.21764609855E+03  0.24617193248E+03  0.00000000000E+00 0. -1.
         22    1    3    3    0    0  0.37645473877E+02 -0.11097145869E+03  0.86893126405E+01  0.11750468289E+03  0.00000000000E+00 0.  1.
         22    1    3    3    0    0 -0.60742045654E+02 -0.65413638816E+02  0.70980001202E+02  0.11404692378E+03  0.00000000000E+00 0.  1.
</event>
<event>
 7    1  0.7457412E-006  0.8462289E+02  0.7818608E-02  0.1463969E+00
          2   -1    0    0  502    0  0.00000000000E+00  0.00000000000E+00  0.24007736217E+03  0.24007736217E+03  0.00000000000E+00 0. -1.
          1   -1    0    0  501    0 -0.00000000000E+00 -0.00000000000E+00 -0.29343331574E+03  0.29343331574E+03  0.00000000000E+00 0. -1.
         25    2    1    2    0    0 -0.66743829881E+02 -0.60748058123E+02 -0.71293627000E+00  0.15417073960E+03  0.12499217286E+03 0.  0.
          2    1    1    2  501    0 -0.91573226776E+01  0.24096116806E+02 -0.20425420267E+03  0.20587437605E+03  0.00000000000E+00 0. -1.
          1    1    1    2  502    0  0.75901152559E+02  0.36651941316E+02  0.15161118537E+03  0.17346556226E+03  0.00000000000E+00 0. -1.
         22    1    3    3    0    0  0.17108866197E+02 -0.25189256503E+02 -0.43854415950E+02  0.53389341109E+02  0.00000000000E+00 0.  1.
         22    1    3    3    0    0 -0.83852696078E+02 -0.35558801619E+02  0.43141479680E+02  0.10078139849E+03  0.00000000000E+00 0.  1.
</event>
<event>
 7    1  0.7457412E-006  0.7326831E+02  0.7818608E-02  0.1380849E+00
          2   -1    0    0  502    0  0.00000000000E+00  0.00000000000E+00  0.18537710665E+03  0.18537710665E+03  0.00000000000E+00 0. -1.
          1   -1    0    0  501    0 -0.00000000000E+00 -0.00000000000E+00 -0.12580068556E+04  0.12580068556E+04  0.00000000000E+00 0. -1.
         25    2    1    2    0    0 -0.79772577742E+02 -0.99633662922E+02  0.73722476682E+02  0.19326060116E+03  0.12499650173E+03 0.  0.
          2    1    1    2  501    0  0.37472886205E+02  0.62439782449E+02 -0.11814924382E+04  0.11837344826E+04  0.00000000000E+00 0. -1.
          1    1    1    2  502    0  0.42299691537E+02  0.37193880473E+02  0.35140212607E+02  0.66388878518E+02  0.00000000000E+00 0. -1.
         22    1    3    3    0    0 -0.64114498343E+02 -0.51357569287E+02  0.10524990561E+03  0.13351333811E+03  0.00000000000E+00 0.  1.
         22    1    3    3    0    0 -0.15658079399E+02 -0.48276093635E+02 -0.31527428931E+02  0.59747263051E+02  0.00000000000E+00 0.  1.
</event>
<event>
 7    1  0.7457412E-006  0.4145089E+02  0.7818608E-02  0.1552857E+00
          2   -1    0    0  502    0  0.00000000000E+00  0.00000000000E+00  0.19019069921E+03  0.19019069921E+03  0.00000000000E+00 0. -1.
          1   -1    0    0  501    0 -0.00000000000E+00 -0.00000000000E+00 -0.20331562351E+03  0.20331562351E+03  0.00000000000E+00 0. -1.
         25    2    1    2    0    0  0.57523303681E+02  0.31688448841E+02 -0.14996511771E+02  0.14198865810E+03  0.12499118132E+03 0.  0.
          2    1    1    2  501    0 -0.39150040709E+02 -0.95666152061E+01 -0.11985029803E+03  0.12644500683E+03  0.00000000000E+00 0. -1.
          1    1    1    2  502    0 -0.18373262972E+02 -0.22121833635E+02  0.12172188550E+03  0.12507265778E+03  0.00000000000E+00 0. -1.
         22    1    3    3    0    0  0.61924592927E+02  0.26433482642E+02 -0.63769809256E+02  0.92736038229E+02  0.00000000000E+00 0. -1.
         22    1    3    3    0    0 -0.44012892457E+01  0.52549661990E+01  0.48773297485E+02  0.49252619873E+02  0.00000000000E+00 0. -1.
</event>
<event>
 7    1  0.7457412E-006  0.1686145E+03  0.7818608E-02  0.1298458E+00
          2   -1    0    0  502    0  0.00000000000E+00  0.00000000000E+00  0.19866528101E+04  0.19866528101E+04  0.00000000000E+00 0. -1.
          1   -1    0    0  501    0 -0.00000000000E+00 -0.00000000000E+00 -0.52518667247E+03  0.52518667247E+03  0.00000000000E+00 0. -1.
         25    2    1    2    0    0 -0.15947927993E+03 -0.12899779786E+03  0.39956396602E+02  0.24350478867E+03  0.12499598351E+03 0.  0.
          2    1    1    2  501    0  0.49962482334E+02  0.24367149437E+01 -0.41812286353E+03  0.42110440063E+03  0.00000000000E+00 0. -1.
          1    1    1    2  502    0  0.10951679760E+03  0.12656108292E+03  0.18396326046E+04  0.18472302933E+04  0.00000000000E+00 0. -1.
         22    1    3    3    0    0 -0.13712721427E+03 -0.35957179897E+02  0.57266484038E+01  0.14187877284E+03  0.00000000000E+00 0.  1.
         22    1    3    3    0    0 -0.22352065656E+02 -0.93040617968E+02  0.34229748198E+02  0.10162601583E+03  0.00000000000E+00 0.  1.
</event>
<event>
 7    1  0.7457412E-006  0.7732433E+02  0.7818608E-02  0.1352547E+00
          2   -1    0    0  502    0  0.00000000000E+00  0.00000000000E+00  0.47095252345E+03  0.47095252345E+03  0.00000000000E+00 0. -1.
          1   -1    0    0  501    0 -0.00000000000E+00 -0.00000000000E+00 -0.12747867750E+04  0.12747867750E+04  0.00000000000E+00 0. -1.
         25    2    1    2    0    0  0.11362762276E+02 -0.14132166239E+01 -0.11411757175E+03  0.16964429000E+03  0.12500102159E+03 0.  0.
          2    1    1    2  501    0  0.67474806703E+02 -0.30118266368E+01 -0.11283708949E+04  0.11303905507E+04  0.00000000000E+00 0. -1.
          1    1    1    2  502    0 -0.78837568979E+02  0.44250432607E+01  0.43865421507E+03  0.44570445779E+03  0.00000000000E+00 0. -1.
         22    1    3    3    0    0  0.17103631395E+02  0.52432363325E+02 -0.99160540179E+02  0.11346585239E+03  0.00000000000E+00 0. -1.
         22    1    3    3    0    0 -0.57408691190E+01 -0.53845579949E+02 -0.14957031569E+02  0.56178437604E+02  0.00000000000E+00 0. -1.
</event>
<event>
 7    1  0.7457412E-006  0.1296189E+03  0.7818608E-02  0.1370648E+00
          2   -1    0    0  502    0  0.00000000000E+00  0.00000000000E+00  0.23139218078E+04  0.23139218078E+04  0.00000000000E+00 0. -1.
          1   -1    0    0  501    0 -0.00000000000E+00 -0.00000000000E+00 -0.89596587113E+03  0.89596587113E+03  0.00000000000E+00 0. -1.
         25    2    1    2    0    0  0.45310265567E+02  0.91247276966E+02 -0.17650517788E+03  0.23907722673E+03  0.12499902721E+03 0.  0.
          2    1    1    2  501    0 -0.52007397482E+02 -0.12521266493E+03 -0.68136357640E+03  0.69472246552E+03  0.00000000000E+00 0. -1.
          1    1    1    2  502    0  0.66971319151E+01  0.33965387965E+02  0.22758246910E+04  0.22760879867E+04  0.00000000000E+00 0. -1.
         22    1    3    3    0    0  0.60936993184E+02 -0.62444808667E+01 -0.53368394578E+02  0.81243438009E+02  0.00000000000E+00 0.  1.
         22    1    3    3    0    0 -0.15626727617E+02  0.97491757832E+02 -0.12313678330E+03  0.15783378872E+03  0.00000000000E+00 0.  1.
</event>
<event>
 7    1  0.7457412E-006  0.6108823E+02  0.7818608E-02  0.1462126E+00
          2   -1    0    0  502    0  0.00000000000E+00  0.00000000000E+00  0.44394968553E+03  0.44394968553E+03  0.00000000000E+00 0. -1.
          1   -1    0    0  501    0 -0.00000000000E+00 -0.00000000000E+00 -0.27649496309E+03  0.27649496309E+03  0.00000000000E+00 0. -1.
         25    2    1    2    0    0 -0.83851128373E+02  0.20313779638E+02  0.15574389474E+03  0.21754294963E+03  0.12500045126E+03 0.  0.
          2    1    1    2  501    0  0.34349733811E+02  0.11386571422E+02 -0.24086890325E+03  0.24357213875E+03  0.00000000000E+00 0. -1.
          1    1    1    2  502    0  0.49501394562E+02 -0.31700351060E+02  0.25257973096E+03  0.25932956024E+03  0.00000000000E+00 0. -1.
         22    1    3    3    0    0 -0.10483940474E+03 -0.17347242233E+02  0.91824461542E+02  0.14044201415E+03  0.00000000000E+00 0.  1.
         22    1    3    3    0    0  0.20988276370E+02  0.37661021872E+02  0.63919433193E+02  0.77100935488E+02  0.00000000000E+00 0.  1.
</event>
<event>
 7    1  0.7457412E-006  0.9704336E+02  0.7818608E-02  0.1325048E+00
          2   -1    0    0  502    0  0.00000000000E+00  0.00000000000E+00  0.21680611190E+03  0.21680611190E+03  0.00000000000E+00 0. -1.
          1   -1    0    0  501    0 -0.00000000000E+00 -0.00000000000E+00 -0.76680786873E+03  0.76680786873E+03  0.00000000000E+00 0. -1.
         25    2    1    2    0    0 -0.11314243204E+03 -0.92198807631E+02 -0.14633671278E+03  0.24153847082E+03  0.12499827728E+03 0.  0.
          2    1    1    2  501    0  0.45585917166E+02  0.81982649364E+02 -0.56192285867E+03  0.56969863062E+03  0.00000000000E+00 0. -1.
          1    1    1    2  502    0  0.67556514877E+02  0.10216158267E+02  0.15825781461E+03  0.17237687919E+03  0.00000000000E+00 0. -1.
         22    1    3    3    0    0 -0.64801485782E+02 -0.35406977190E+02 -0.14965828451E+03  0.16688465693E+03  0.00000000000E+00 0.  1.
         22    1    3    3    0    0 -0.48340946260E+02 -0.56791830442E+02  0.33215717358E+01  0.74653813895E+02  0.00000000000E+00 0.  1.
</event>
<event>
 7    1  0.7457412E-006  0.8588679E+02  0.7818608E-02  0.1448677E+00
          2   -1    0    0  502    0  0.00000000000E+00  0.00000000000E+00  0.18045392913E+04  0.18045392913E+04  0.00000000000E+00 0. -1.
          1   -1    0    0  501    0 -0.00000000000E+00 -0.00000000000E+00 -0.35534314914E+03  0.35534314914E+03  0.00000000000E+00 0. -1.
         25    2    1    2    0    0  0.14240855312E+02  0.56461460612E+02  0.10750409418E+04  0.10838491120E+04  0.12500069099E+03 0.  0.
          2    1    1    2  501    0 -0.14099522295E+02 -0.84859572412E+02 -0.34538322715E+03  0.35593470912E+03  0.00000000000E+00 0. -1.
          1    1    1    2  502    0 -0.14133301722E+00  0.28398111800E+02  0.71953842754E+03  0.72009861924E+03  0.00000000000E+00 0. -1.
         22    1    3    3    0    0  0.63638877369E+02  0.37958177778E+01  0.59541985275E+03  0.59882310910E+03  0.00000000000E+00 0. -1.
         22    1    3    3    0    0 -0.49398022057E+02  0.52665642834E+02  0.47962108901E+03  0.48502600295E+03  0.00000000000E+00 0. -1.
</event>
<event>
 7    1  0.7457412E-006  0.2705942E+02  0.7818608E-02  0.1642423E+00
          2   -1    0    0  502    0  0.00000000000E+00  0.00000000000E+00  0.29536951108E+03  0.29536951108E+03  0.00000000000E+00 0. -1.
          1   -1    0    0  501    0 -0.00000000000E+00 -0.00000000000E+00 -0.14502845834E+04  0.14502845834E+04  0.00000000000E+00 0. -1.
         25    2    1    2    0    0 -0.10097478545E+02 -0.74396865063E+01 -0.19848629456E+03  0.23490254580E+03  0.12500035553E+03 0.  0.
          2    1    1    2  501    0 -0.73506502134E+01  0.26235950032E+02 -0.12328460424E+04  0.12331470802E+04  0.00000000000E+00 0. -1.
          1    1    1    2  502    0  0.17448128758E+02 -0.18796263526E+02  0.27641726466E+03  0.27760446848E+03  0.00000000000E+00 0. -1.
         22    1    3    3    0    0 -0.66522124534E+02 -0.11332998571E+02 -0.89213270649E+02  0.11185990152E+03  0.00000000000E+00 0. -1.
         22    1    3    3    0    0  0.56424645989E+02  0.38933120650E+01 -0.10927302392E+03  0.12304264427E+03  0.00000000000E+00 0. -1.
</event>
<event>
 7    1  0.7457412E-006  0.6181112E+02  0.7818608E-02  0.1399079E+00
          2   -1    0    0  502    0  0.00000000000E+00  0.00000000000E+00  0.32083592216E+04  0.32083592216E+04  0.00000000000E+00 0. -1.
          1   -1    0    0  501    0 -0.00000000000E+00 -0.00000000000E+00 -0.86945460676E+02  0.86945460676E+02  0.00000000000E+00 0. -1.
         25    2    1    2    0    0  0.15173091962E+02  0.81029049074E+01  0.15889467235E+03  0.20290024067E+03  0.12500044390E+03 0.  0.
          2    1    1    2  501    0 -0.11534122543E+02 -0.65656378226E+02 -0.47486814465E+02  0.81846157715E+02  0.00000000000E+00 0. -1.
          1    1    1    2  502    0 -0.36389694197E+01  0.57553473319E+02  0.30100059030E+04  0.30105582839E+04  0.00000000000E+00 0. -1.
         22    1    3    3    0    0 -0.27503181064E+02 -0.36333191023E+02  0.12396943210E+03  0.13207931645E+03  0.00000000000E+00 0. -1.
         22    1    3    3    0    0  0.42676273026E+02  0.44436095930E+02  0.34925240252E+02  0.70820924222E+02  0.00000000000E+00 0. -1.
</event>
<event>
 7    1  0.7457412E-006  0.5998270E+02  0.7818608E-02  0.1465028E+00
          2   -1    0    0  502    0  0.00000000000E+00  0.00000000000E+00  0.14966733368E+04  0.14966733368E+04  0.00000000000E+00 0. -1.
          1   -1    0    0  501    0 -0.00000000000E+00 -0.00000000000E+00 -0.28729255471E+03  0.28729255471E+03  0.00000000000E+00 0. -1.
         25    2    1    2    0    0  0.74343241007E+02 -0.28102379678E+02 -0.92132741971E+02  0.17443493683E+03  0.12498977485E+03 0.  0.
          2    1    1    2  501    0 -0.40826447066E+02  0.41485008266E+02 -0.14827675167E+03  0.15929155589E+03  0.00000000000E+00 0. -1.
          1    1    1    2  502    0 -0.33516793941E+02 -0.13382628588E+02  0.14497902757E+04  0.14502393988E+04  0.00000000000E+00 0. -1.
         22    1    3    3    0    0  0.58937324792E+02 -0.53973828460E+02 -0.11256249972E+03  0.13804745110E+03  0.00000000000E+00 0. -1.
         22    1    3    3    0    0  0.15405916215E+02  0.25871448782E+02  0.20429757746E+02  0.36387485734E+02  0.00000000000E+00 0. -1.
</event>
<event>
 7    1  0.7457412E-006  0.5036460E+02  0.7818608E-02  0.1547800E+00
          2   -1    0    0  502    0  0.00000000000E+00  0.00000000000E+00  0.25715611518E+03  0.25715611518E+03  0.00000000000E+00 0. -1.
          1   -1    0    0  501    0 -0.00000000000E+00 -0.00000000000E+00 -0.16445293372E+03  0.16445293372E+03  0.00000000000E+00 0. -1.
         25    2    1    2    0    0  0.15379770860E+02  0.24403953062E+02 -0.58058629334E+02  0.14082159871E+03  0.12501131127E+03 0.  0.
          2    1    1    2  501    0 -0.52186873899E+00  0.24442779351E+02 -0.59546659667E+02  0.64370229819E+02  0.00000000000E+00 0. -1.
          1    1    1    2  502    0 -0.14857902121E+02 -0.48846732413E+02  0.21030847047E+03  0.21641722037E+03  0.00000000000E+00 0. -1.
         22    1    3    3    0    0 -0.51158189623E+02 -0.92215415828E+01 -0.35439845926E+02  0.62914067377E+02  0.00000000000E+00 0.  1.
         22    1    3    3    0    0  0.66537960482E+02  0.33625494645E+02 -0.22618783408E+02  0.77907531331E+02  0.00000000000E+00 0.  1.
</event>
<event>
 7    1  0.7457412E-006  0.6856100E+02  0.7818608E-02  0.1458420E+00
          2   -1    0    0  502    0  0.00000000000E+00  0.00000000000E+00  0.17302714431E+03  0.17302714431E+03  0.00000000000E+00 0. -1.
          1   -1    0    0  501    0 -0.00000000000E+00 -0.00000000000E+00 -0.96223953114E+03  0.96223953114E+03  0.00000000000E+00 0. -1.
         25    2    1    2    0    0  0.29034688060E+02 -0.31380487080E+02 -0.45576492185E+01  0.13218846002E+03  0.12500107486E+03 0.  0.
          2    1    1    2  501    0 -0.62142020559E+02  0.30364012210E+02 -0.88998205338E+03  0.89266548006E+03  0.00000000000E+00 0. -1.
          1    1    1    2  502    0  0.33107332499E+02  0.10164748698E+01  0.10532731577E+03  0.11041273537E+03  0.00000000000E+00 0. -1.
         22    1    3    3    0    0  0.45851813180E+02 -0.33144879362E+02  0.49731267144E+02  0.75327091617E+02  0.00000000000E+00 0. -1.
         22    1    3    3    0    0 -0.16817125119E+02  0.17643922823E+01 -0.54288916362E+02  0.56861368407E+02  0.00000000000E+00 0. -1.
</event>
<event>
 7    1  0.7457412E-006  0.4149889E+02  0.7818608E-02  0.1593348E+00
          2   -1    0    0  502    0  0.00000000000E+00  0.00000000000E+00  0.10535341656E+03  0.10535341656E+03  0.00000000000E+00 0. -1.
          1   -1    0    0  501    0 -0.00000000000E+00 -0.00000000000E+00 -0.31685239311E+03  0.31685239311E+03  0.00000000000E+00 0. -1.
         25    2    1    2    0    0 -0.40181048984E+02 -0.48797888126E+02 -0.16557934801E+03  0.21688233490E+03  0.12500270446E+03 0.  0.
          2    1    1    2  501    0  0.14361548166E+02  0.17083694672E+02 -0.11927153914E+03  0.12134169414E+03  0.00000000000E+00 0. -1.
          1    1    1    2  502    0  0.25819500818E+02  0.31714193454E+02  0.73351910598E+02  0.83981780627E+02  0.00000000000E+00 0. -1.
         22    1    3    3    0    0 -0.54977597288E+01  0.28077301356E+02 -0.11507796953E+03  0.11858119280E+03  0.00000000000E+00 0.  1.
         22    1    3    3    0    0 -0.34683289255E+02 -0.76875189482E+02 -0.50501378475E+02  0.98301142106E+02  0.00000000000E+00 0.  1.
</event>
<event>
 7    1  0.7457412E-006  0.5053907E+02  0.7818608E-02  0.1571285E+00
          2   -1    0    0  502    0  0.00000000000E+00  0.00000000000E+00  0.85310524898E+03  0.85310524898E+03  0.00000000000E+00 0. -1.
          1   -1    0    0  501    0 -0.00000000000E+00 -0.00000000000E+00 -0.20418506336E+03  0.20418506336E+03  0.00000000000E+00 0. -1.
         25    2    1    2    0    0  0.31737161548E+02  0.92423693784E+01  0.24500690634E+03  0.27703136925E+03  0.12500130631E+03 0.  0.
          2    1    1    2  501    0  0.20017256722E+02 -0.63226656099E+01 -0.18644812593E+03  0.18762614511E+03  0.00000000000E+00 0. -1.
          1    1    1    2  502    0 -0.51754418271E+02 -0.29197037685E+01  0.59036140522E+03  0.59263279799E+03  0.00000000000E+00 0. -1.
         22    1    3    3    0    0 -0.46346959954E+01  0.22069834799E+02  0.23645385405E+03  0.23752680503E+03  0.00000000000E+00 0. -1.
         22    1    3    3    0    0  0.36371857544E+02 -0.12827465420E+02  0.85530522913E+01  0.39504564215E+02  0.00000000000E+00 0. -1.
</event>
<event>
 7    1  0.7457412E-006  0.5232468E+03  0.7818608E-02  0.1271399E+00
          2   -1    0    0  502    0  0.00000000000E+00  0.00000000000E+00  0.13487131408E+04  0.13487131408E+04  0.00000000000E+00 0. -1.
          1   -1    0    0  501    0 -0.00000000000E+00 -0.00000000000E+00 -0.17313939198E+04  0.17313939198E+04  0.00000000000E+00 0. -1.
         25    2    1    2    0    0  0.42447563488E+03 -0.31141799681E+03  0.10658193645E+04  0.11953061026E+04  0.12500011133E+03 0.  0.
          2    1    1    2  501    0 -0.82500528282E+01  0.19106647363E+02 -0.13700061605E+04  0.13701642264E+04  0.00000000000E+00 0. -1.
          1    1    1    2  502    0 -0.41622558206E+03  0.29231134945E+03 -0.78493982884E+02  0.51463673161E+03  0.00000000000E+00 0. -1.
         22    1    3    3    0    0  0.40492497397E+03 -0.28930859075E+03  0.10496600362E+04  0.11616582487E+04  0.00000000000E+00 0. -1.
         22    1    3    3    0    0  0.19550660917E+02 -0.22109406055E+02  0.16159328248E+02  0.33647853837E+02  0.00000000000E+00 0. -1.
</event>
<event>
 7    1  0.7457412E-006  0.1150769E+03  0.7818608E-02  0.1320475E+00
          2   -1    0    0  502    0  0.00000000000E+00  0.00000000000E+00  0.22211621452E+04  0.22211621452E+04  0.00000000000E+00 0. -1.
          1   -1    0    0  501    0 -0.00000000000E+00 -0.00000000000E+00 -0.98730291237E+03  0.98730291237E+03  0.00000000000E+00 0. -1.
         25    2    1    2    0    0  0.15338041404E+03  0.45748966652E+02  0.13253081744E+03  0.24250330759E+03  0.12499966904E+03 0.  0.
          2    1    1    2  501    0 -0.11435580817E+03 -0.16120393247E+00 -0.92836487354E+03  0.93538153460E+03  0.00000000000E+00 0. -1.
          1    1    1    2  502    0 -0.39024605869E+02 -0.45587762720E+02  0.20296932890E+04  0.20305802154E+04  0.00000000000E+00 0. -1.
         22    1    3    3    0    0  0.40515920803E+02  0.38011047993E+02  0.11541049787E+03  0.12808576278E+03  0.00000000000E+00 0. -1.
         22    1    3    3    0    0  0.11286449324E+03  0.77379186587E+01  0.17120319572E+02  0.11441754481E+03  0.00000000000E+00 0. -1.
</event>
<event>
 7    1  0.7457412E-006  0.9366072E+02  0.7818608E-02  0.1341552E+00
          2   -1    0    0  502    0  0.00000000000E+00  0.00000000000E+00  0.98351087500E+03  0.98351087500E+03  0.00000000000E+00 0. -1.
          1   -1    0    0  501    0 -0.00000000000E+00 -0.00000000000E+00 -0.20043499267E+04  0.20043499267E+04  0.00000000000E+00 0. -1.
         25    2    1    2    0    0  0.29088018575E+02 -0.85418276203E+02 -0.37857636464E+02  0.15874803517E+03  0.12500137318E+03 0.  0.
          2    1    1    2  501    0  0.50403568890E+02  0.34836579397E+02 -0.19031484588E+04  0.19041344919E+04  0.00000000000E+00 0. -1.
          1    1    1    2  502    0 -0.79491587465E+02  0.50581696806E+02  0.92016704355E+03  0.92497827464E+03  0.00000000000E+00 0. -1.
         22    1    3    3    0    0  0.70840444693E+02 -0.85149896213E+02 -0.37666899788E+02  0.11699431084E+03  0.00000000000E+00 0.  1.
         22    1    3    3    0    0 -0.41752426118E+02 -0.26837999024E+00 -0.19073667562E+00  0.41753724326E+02  0.00000000000E+00 0.  1.
</event>
<event>
 7    1  0.7457412E-006  0.2640537E+02  0.7818608E-02  0.1660130E+00
          2   -1    0    0  502    0  0.00000000000E+00  0.00000000000E+00  0.33436370243E+03  0.33436370243E+03  0.00000000000E+00 0. -1.
          1   -1    0    0  501    0 -0.00000000000E+00 -0.00000000000E+00 -0.24614403517E+02  0.24614403517E+02  0.00000000000E+00 0. -1.
         25    2    1    2    0    0  0.16695470337E+01  0.81168821589E+00  0.20416510281E+03  0.23939047391E+03  0.12498385323E+03 0.  0.
          2    1    1    2  501    0 -0.26218989440E+02 -0.10536309463E+02  0.40806737757E+02  0.49635058887E+02  0.00000000000E+00 0. -1.
          1    1    1    2  502    0  0.24549442406E+02  0.97246212471E+01  0.64777458348E+02  0.69952573155E+02  0.00000000000E+00 0. -1.
         22    1    3    3    0    0 -0.25145649767E+02 -0.30191082991E+01  0.21013273201E+03  0.21165345209E+03  0.00000000000E+00 0.  1.
         22    1    3    3    0    0  0.26815196801E+02  0.38307965150E+01 -0.59676291997E+01  0.27737021824E+02  0.00000000000E+00 0.  1.
</event>
<event>
 7    1  0.7457412E-006  0.1091151E+03  0.7818608E-02  0.1372863E+00
          2   -1    0    0  502    0  0.00000000000E+00  0.00000000000E+00  0.55666848443E+03  0.55666848443E+03  0.00000000000E+00 0. -1.
          1   -1    0    0  501    0 -0.00000000000E+00 -0.00000000000E+00 -0.13062731296E+04  0.13062731296E+04  0.00000000000E+00 0. -1.
         25    2    1    2    0    0 -0.98524660685E+02  0.10103776065E+03 -0.68388916040E+03  0.70939784792E+03  0.12500074032E+03 0.  0.
          2    1    1    2  501    0  0.87513702141E+01 -0.39419666164E+02 -0.60349877206E+03  0.60484813337E+03  0.00000000000E+00 0. -1.
          1    1    1    2  502    0  0.89773290471E+02 -0.61618094489E+02  0.53778328731E+03  0.54869563272E+03  0.00000000000E+00 0. -1.
         22    1    3    3    0    0 -0.95355828773E+02  0.12703750733E+03 -0.52984499071E+03  0.55314281748E+03  0.00000000000E+00 0.  1.
         22    1    3    3    0    0 -0.31688319120E+01 -0.25999746672E+02 -0.15404416969E+03  0.15625503044E+03  0.00000000000E+00 0.  1.
</event>
<event>
 7    1  0.7457412E-006  0.7817950E+02  0.7818608E-02  0.1362077E+00
          2   -1    0    0  502    0  0.00000000000E+00  0.00000000000E+00  0.25500124712E+03  0.25500124712E+03  0.00000000000E+00 0. -1.
          1   -1    0    0  501    0 -0.00000000000E+00 -0.00000000000E+00 -0.48510678312E+03  0.48510678312E+03  0.00000000000E+00 0. -1.
         25    2    1    2    0    0  0.11182690465E+02  0.22453883137E+02  0.26585035228E+01  0.12751800267E+03  0.12499817570E+03 0.  0.
          2    1    1    2  501    0  0.30346011298E+02  0.53654503515E+02 -0.41035819354E+03  0.41496208640E+03  0.00000000000E+00 0. -1.
          1    1    1    2  502    0 -0.41528701763E+02 -0.76108386653E+02  0.17759415402E+03  0.19762794117E+03  0.00000000000E+00 0. -1.
         22    1    3    3    0    0 -0.28566785248E+02 -0.42576985934E+02  0.84161766076E+00  0.51279325960E+02  0.00000000000E+00 0. -1.
         22    1    3    3    0    0  0.39749475713E+02  0.65030869072E+02  0.18168858620E+01  0.76238676706E+02  0.00000000000E+00 0. -1.
</event>
<event>
 7    1  0.7457412E-006  0.9164333E+02  0.7818608E-02  0.1317134E+00
          2   -1    0    0  502    0  0.00000000000E+00  0.00000000000E+00  0.22945447875E+04  0.22945447875E+04  0.00000000000E+00 0. -1.
          1   -1    0    0  501    0 -0.00000000000E+00 -0.00000000000E+00 -0.52891254767E+02  0.52891254767E+02  0.00000000000E+00 0. -1.
         25    2    1    2    0    0  0.25892662080E+02  0.88628442393E+01  0.80497339828E+03  0.81508109594E+03  0.12500416419E+03 0.  0.
          2    1    1    2  501    0  0.43778853654E+02 -0.80510316697E+02 -0.55943281779E+00  0.91645033073E+02  0.00000000000E+00 0. -1.
          1    1    1    2  502    0 -0.69671515734E+02  0.71647472458E+02  0.14372395672E+04  0.14407099132E+04  0.00000000000E+00 0. -1.
         22    1    3    3    0    0  0.71845034552E+02  0.27980720175E+02  0.53963885242E+03  0.54511899685E+03  0.00000000000E+00 0.  1.
         22    1    3    3    0    0 -0.45952372472E+02 -0.19117875936E+02  0.26533454586E+03  0.26996209909E+03  0.00000000000E+00 0.  1.
</event>
<event>
 7    1  0.7457412E-006  0.4922142E+02  0.7818608E-02  0.1470655E+00
          2   -1    0    0  502    0  0.00000000000E+00  0.00000000000E+00  0.25792935199E+03  0.25792935199E+03  0.00000000000E+00 0. -1.
          1   -1    0    0  501    0 -0.00000000000E+00 -0.00000000000E+00 -0.34094142795E+03  0.34094142795E+03  0.00000000000E+00 0. -1.
         25    2    1    2    0    0  0.53108208746E+02 -0.26723363437E+02 -0.39189602278E+02  0.14385761030E+03  0.12499826849E+03 0.  0.
          2    1    1    2  501    0 -0.47148697569E+02 -0.15091639148E+02 -0.24474373509E+03  0.24970032663E+03  0.00000000000E+00 0. -1.
          1    1    1    2  502    0 -0.59595111767E+01  0.41815002586E+02  0.20092126141E+03  0.20531284300E+03  0.00000000000E+00 0. -1.
         22    1    3    3    0    0  0.64453716685E+02  0.15657969264E+02  0.20820860956E+02  0.69519506953E+02  0.00000000000E+00 0. -1.
         22    1    3    3    0    0 -0.11345507939E+02 -0.42381332702E+02 -0.60010463234E+02  0.74338103349E+02  0.00000000000E+00 0. -1.
</event>
<event>
 7    1  0.7457412E-006  0.1394574E+03  0.7818608E-02  0.1370458E+00
          2   -1    0    0  502    0  0.00000000000E+00  0.00000000000E+00  0.22154482781E+04  0.22154482781E+04  0.00000000000E+00 0. -1.
          1   -1    0    0  501    0 -0.00000000000E+00 -0.00000000000E+00 -0.19596204047E+03  0.19596204047E+03  0.00000000000E+00 0. -1.
         25    2    1    2    0    0 -0.12110617205E+03  0.10053000789E+03  0.13077807070E+03  0.23979194702E+03  0.12499714671E+03 0.  0.
          2    1    1    2  501    0  0.11821132067E+03 -0.68432850228E+02 -0.10832144901E+03  0.17432873441E+03  0.00000000000E+00 0. -1.
          1    1    1    2  502    0  0.28948513727E+01 -0.32097157658E+02  0.19970296159E+04  0.19972896371E+04  0.00000000000E+00 0. -1.
         22    1    3    3    0    0 -0.39447980421E+02  0.11172510454E+03  0.73708272639E+02  0.13954050165E+03  0.00000000000E+00 0.  1.
         22    1    3    3    0    0 -0.81658191624E+02 -0.11195096655E+02  0.57069798062E+02  0.10025144537E+03  0.00000000000E+00 0.  1.
</event>
<event>
 7    1  0.7457412E-006  0.8309861E+02  0.7818608E-02  0.1399022E+00
          2   -1    0    0  502    0  0.00000000000E+00  0.00000000000E+00  0.10209009011E+04  0.10209009011E+04  0.00000000000E+00 0. -1.
          1   -1    0    0  501    0 -0.00000000000E+00 -0.00000000000E+00 -0.16196500435E+03  0.16196500435E+03  0.00000000000E+00 0. -1.
         25    2    1    2    0    0  0.11153983380E+03 -0.55191403336E+02  0.30871896524E+03  0.35555578045E+03  0.12500115193E+03 0.  0.
          2    1    1    2  501    0 -0.72274773432E+02  0.37873197085E+02 -0.12579286257E+03  0.14993954184E+03  0.00000000000E+00 0. -1.
          1    1    1    2  502    0 -0.39265060366E+02  0.17318206251E+02  0.67600979408E+03  0.67737058316E+03  0.00000000000E+00 0. -1.
         22    1    3    3    0    0  0.13439371110E+03 -0.22151688128E+02  0.23969336846E+03  0.27569054709E+03  0.00000000000E+00 0.  1.
         22    1    3    3    0    0 -0.22853877301E+02 -0.33039715208E+02  0.69025596785E+02  0.79865233364E+02  0.00000000000E+00 0.  1.
</event>
<event>
 7    1  0.7457412E-006  0.5238035E+02  0.7818608E-02  0.1504397E+00
          2   -1    0    0  502    0  0.00000000000E+00  0.00000000000E+00  0.10758579814E+04  0.10758579814E+04  0.00000000000E+00 0. -1.
          1   -1    0    0  501    0 -0.00000000000E+00 -0.00000000000E+00 -0.19785964584E+03  0.19785964584E+03  0.00000000000E+00 0. -1.
         25    2    1    2    0    0 -0.58464492730E+02 -0.47950558147E+02 -0.92064012552E+02  0.17267908702E+03  0.12499972700E+03 0.  0.
          2    1    1    2  501    0  0.42978235344E+02  0.20692703938E+02 -0.56530965811E+02  0.73966660092E+02  0.00000000000E+00 0. -1.
          1    1    1    2  502    0  0.15486257385E+02  0.27257854209E+02  0.10265933139E+04  0.10270718801E+04  0.00000000000E+00 0. -1.
         22    1    3    3    0    0 -0.32272574830E+02 -0.23472509938E+01  0.27240816620E+02  0.42297644893E+02  0.00000000000E+00 0.  1.
         22    1    3    3    0    0 -0.26191917900E+02 -0.45603307153E+02 -0.11930482917E+03  0.13038144212E+03  0.00000000000E+00 0.  1.
</event>
<event>
 7    1  0.7457412E-006  0.1467000E+03  0.7818608E-02  0.1251902E+00
          2   -1    0    0  502    0  0.00000000000E+00  0.00000000000E+00  0.89573631665E+03  0.89573631665E+03  0.00000000000E+00 0. -1.
          1   -1    0    0  501    0 -0.00000000000E+00 -0.00000000000E+00 -0.48495636758E+03  0.48495636758E+03  0.00000000000E+00 0. -1.
         25    2    1    2    0    0  0.54798471750E+02  0.49713108366E+02  0.22591311155E+01  0.14527439113E+03  0.12500111758E+03 0.  0.
          2    1    1    2  501    0 -0.13372781694E+03 -0.92670606133E+02 -0.39483983654E+03  0.42704738236E+03  0.00000000000E+00 0. -1.
          1    1    1    2  502    0  0.78929345190E+02  0.42957497767E+02  0.80336065450E+03  0.80837091074E+03  0.00000000000E+00 0. -1.
         22    1    3    3    0    0  0.13739721067E+02  0.46811679001E+02 -0.55790439658E+02  0.74112660073E+02  0.00000000000E+00 0. -1.
         22    1    3    3    0    0  0.41058750684E+02  0.29014293655E+01  0.58049570773E+02  0.71161731057E+02  0.00000000000E+00 0. -1.
</event>
<event>
 7    1  0.7457412E-006  0.7664668E+02  0.7818608E-02  0.1465109E+00
          2   -1    0    0  502    0  0.00000000000E+00  0.00000000000E+00  0.51122452468E+03  0.51122452468E+03  0.00000000000E+00 0. -1.
          1   -1    0    0  501    0 -0.00000000000E+00 -0.00000000000E+00 -0.59567204193E+03  0.59567204193E+03  0.00000000000E+00 0. -1.
         25    2    1    2    0    0 -0.50153643421E+02  0.21269891376E+01  0.80899338471E+02  0.15713087532E+03  0.12500198792E+03 0.  0.
          2    1    1    2  501    0  0.76113059912E+02 -0.13211611396E+02 -0.55436661009E+03  0.55972321995E+03  0.00000000000E+00 0. -1.
          1    1    1    2  502    0 -0.25959416491E+02  0.11084622259E+02  0.38901975437E+03  0.39004247133E+03  0.00000000000E+00 0. -1.
         22    1    3    3    0    0 -0.88174985895E+02  0.12227065412E+02  0.76815400371E+02  0.11757948376E+03  0.00000000000E+00 0. -1.
         22    1    3    3    0    0  0.38021342474E+02 -0.10100076275E+02  0.40839380998E+01  0.39551391565E+02  0.00000000000E+00 0. -1.
</event>
<event>
 7    1  0.8554524E-006  0.1141943E+03  0.7818608E-02  0.1351745E+00
          2   -1    0    0  502    0  0.00000000000E+00  0.00000000000E+00  0.27195397999E+04  0.27195397999E+04  0.00000000000E+00 0. -1.
          1   -1    0    0  501    0 -0.00000000000E+00 -0.00000000000E+00 -0.94731774132E+03  0.94731774132E+03  0.00000000000E+00 0. -1.
         25    2    1    2    0    0  0.11875152368E+03  0.37171509943E+02 -0.44177320979E+03  0.47567902177E+03  0.12499326916E+03 0.  0.
          2    1    1    2  501    0 -0.87485601387E+02 -0.70977053494E+02 -0.48189848964E+03  0.49489153043E+03  0.00000000000E+00 0. -1.
          1    1    1    2  502    0 -0.31265922291E+02  0.33805543551E+02  0.26958937580E+04  0.26962869890E+04  0.00000000000E+00 0. -1.
         22    1    3    3    0    0 -0.28747653062E+01  0.49319717251E+02 -0.18199190395E+03  0.18857823811E+03  0.00000000000E+00 0.  1.
         22    1    3    3    0    0  0.12162628898E+03 -0.12148207308E+02 -0.25978130584E+03  0.28710078366E+03  0.00000000000E+00 0.  1.
</event>
<event>
 7    1  0.7457412E-006  0.5953118E+02  0.7818608E-02  0.1481549E+00
          2   -1    0    0  502    0  0.00000000000E+00  0.00000000000E+00  0.12380253531E+04  0.12380253531E+04  0.00000000000E+00 0. -1.
          1   -1    0    0  501    0 -0.00000000000E+00 -0.00000000000E+00 -0.19758638289E+03  0.19758638289E+03  0.00000000000E+00 0. -1.
         25    2    1    2    0    0  0.17724257130E+02  0.86318733825E+02  0.18209791387E+03  0.23780165316E+03  0.12499961163E+03 0.  0.
          2    1    1    2  501    0 -0.65725750492E+00 -0.58869122987E+02 -0.16436645486E+03  0.17459191594E+03  0.00000000000E+00 0. -1.
          1    1    1    2  502    0 -0.17066999625E+02 -0.27449610839E+02  0.10227075112E+04  0.10232181669E+04  0.00000000000E+00 0. -1.
         22    1    3    3    0    0 -0.35732214955E+02  0.62720465223E+01  0.11468842097E+03  0.12028949936E+03  0.00000000000E+00 0.  1.
         22    1    3    3    0    0  0.53456472085E+02  0.80046687303E+02  0.67409492904E+02  0.11751215380E+03  0.00000000000E+00 0.  1.
</event>
<event>
 7    1  0.7457412E-006  0.1066899E+03  0.7818608E-02  0.1285670E+00
          2   -1    0    0  502    0  0.00000000000E+00  0.00000000000E+00  0.65365971452E+03  0.65365971452E+03  0.00000000000E+00 0. -1.
          1   -1    0    0  501    0 -0.00000000000E+00 -0.00000000000E+00 -0.22439389612E+04  0.22439389612E+04  0.00000000000E+00 0. -1.
         25    2    1    2    0    0 -0.56887176468E+01 -0.78204717663E+02 -0.25788228013E+03  0.29711437283E+03  0.12500136304E+03 0.  0.
          2    1    1    2  501    0 -0.83284993458E+02  0.73881113383E+02 -0.19617257835E+04  0.19648824033E+04  0.00000000000E+00 0. -1.
          1    1    1    2  502    0  0.88973711105E+02  0.43236042800E+01  0.62932881701E+03  0.63560189957E+03  0.00000000000E+00 0. -1.
         22    1    3    3    0    0 -0.10330052054E+02 -0.79819110000E+02 -0.63102988473E+02  0.10227310228E+03  0.00000000000E+00 0. -1.
         22    1    3    3    0    0  0.46413344071E+01  0.16143923367E+01 -0.19477929166E+03  0.19484127054E+03  0.00000000000E+00 0. -1.
</event>
<event>
 7    1  0.7457412E-006  0.1129356E+03  0.7818608E-02  0.1308773E+00
          2   -1    0    0  502    0  0.00000000000E+00  0.00000000000E+00  0.25886606942E+03  0.25886606942E+03  0.00000000000E+00 0. -1.
          1   -1    0    0  501    0 -0.00000000000E+00 -0.00000000000E+00 -0.69443477974E+03  0.69443477974E+03  0.00000000000E+00 0. -1.
         25    2    1    2    0    0 -0.46231415527E+02  0.10616944138E+03 -0.36374060374E+03  0.40167284237E+03  0.12499820568E+03 0.  0.
          2    1    1    2  501    0  0.99788940522E+02 -0.64357109995E+02 -0.29518091778E+03  0.31816889301E+03  0.00000000000E+00 0. -1.
          1    1    1    2  502    0 -0.53557524995E+02 -0.41812331386E+02  0.22335281120E+03  0.23345911378E+03  0.00000000000E+00 0. -1.
         22    1    3    3    0    0 -0.16719859005E+02  0.48352811124E+02 -0.31842076475E+03  0.32250477741E+03  0.00000000000E+00 0.  1.
         22    1    3    3    0    0 -0.29511556522E+02  0.57816630257E+02 -0.45319838983E+02  0.79168064951E+02  0.00000000000E+00 0.  1.
</event>
<event>
 7    1  0.7457412E-006  0.1701199E+03  0.7818608E-02  0.1287771E+00
          2   -1    0    0  502    0  0.00000000000E+00  0.00000000000E+00  0.15949989763E+04  0.15949989763E+04  0.00000000000E+00 0. -1.
          1   -1    0    0  501    0 -0.00000000000E+00 -0.00000000000E+00 -0.59133357338E+03  0.59133357338E+03  0.00000000000E+00 0. -1.
         25    2    1    2    0    0  0.10444010438E+03 -0.80006497568E+02 -0.30893085983E+03  0.35828975423E+03  0.12499798707E+03 0.  0.
          2    1    1    2  501    0  0.52970071574E+02  0.13929895113E+02 -0.25011123648E+03  0.25603808521E+03  0.00000000000E+00 0. -1.
          1    1    1    2  502    0 -0.15741017595E+03  0.66076602455E+02  0.15627074992E+04  0.15720047102E+04  0.00000000000E+00 0. -1.
         22    1    3    3    0    0  0.72173110702E+02 -0.59764517178E+02 -0.71620118595E+02  0.11794149740E+03  0.00000000000E+00 0. -1.
         22    1    3    3    0    0  0.32266993673E+02 -0.20241980390E+02 -0.23731074124E+03  0.24034825682E+03  0.00000000000E+00 0. -1.
</event>
<event>
 7    1  0.7457412E-006  0.1364023E+03  0.7818608E-02  0.1268966E+00
          2   -1    0    0  502    0  0.00000000000E+00  0.00000000000E+00  0.25134940929E+04  0.25134940929E+04  0.00000000000E+00 0. -1.
          1   -1    0    0  501    0 -0.00000000000E+00 -0.00000000000E+00 -0.54704421620E+02  0.54704421620E+02  0.00000000000E+00 0. -1.
         25    2    1    2    0    0 -0.13569321900E+03  0.99271455889E+01  0.54064087492E+03  0.57133982479E+03  0.12500176742E+03 0.  0.
          2    1    1    2  501    0  0.12204723522E+03  0.70659980875E+02  0.90900698992E+02  0.16778348429E+03  0.00000000000E+00 0. -1.
          1    1    1    2  502    0  0.13645983780E+02 -0.80587126464E+02  0.18272480974E+04  0.18290752055E+04  0.00000000000E+00 0. -1.
         22    1    3    3    0    0 -0.12694934231E+03  0.16143316365E+01  0.54415831870E+03  0.55877277796E+03  0.00000000000E+00 0.  1.
         22    1    3    3    0    0 -0.87438766862E+01  0.83128139525E+01 -0.35174437800E+01  0.12567046831E+02  0.00000000000E+00 0.  1.
</event>
<event>
 7    1  0.7457412E-006  0.9680860E+02  0.7818608E-02  0.1437093E+00
          2   -1    0    0  502    0  0.00000000000E+00  0.00000000000E+00  0.34047270941E+03  0.34047270941E+03  0.00000000000E+00 0. -1.
          1   -1    0    0  501    0 -0.00000000000E+00 -0.00000000000E+00 -0.82201448584E+03  0.82201448584E+03  0.00000000000E+00 0. -1.
         25    2    1    2    0    0 -0.10596645744E+03 -0.14363960976E+01 -0.40587606781E+02  0.16882595285E+03  0.12499558071E+03 0.  0.
          2    1    1    2  501    0  0.13097393021E+02 -0.24138817491E+02 -0.70863972042E+03  0.70917168413E+03  0.00000000000E+00 0. -1.
          1    1    1    2  502    0  0.92869064414E+02  0.25575213589E+02  0.26768555077E+03  0.28448955827E+03  0.00000000000E+00 0. -1.
         22    1    3    3    0    0 -0.51242262007E+02 -0.42318929270E+02  0.27917550000E+02  0.72083637451E+02  0.00000000000E+00 0.  1.
         22    1    3    3    0    0 -0.54724195429E+02  0.40882533172E+02 -0.68505156781E+02  0.96742315403E+02  0.00000000000E+00 0.  1.
</event>
<event>
 7    1  0.7457412E-006  0.6858422E+02  0.7818608E-02  0.1462650E+00
          2   -1    0    0  502    0  0.00000000000E+00  0.00000000000E+00  0.87706928927E+03  0.87706928927E+03  0.00000000000E+00 0. -1.
          1   -1    0    0  501    0 -0.00000000000E+00 -0.00000000000E+00 -0.88446901414E+02  0.88446901414E+02  0.00000000000E+00 0. -1.
         25    2    1    2    0    0 -0.39586251013E+02  0.65108514574E+02  0.30412560073E+03  0.33752559953E+03  0.12499983751E+03 0.  0.
          2    1    1    2  501    0  0.31981269848E+02  0.28782880805E+01 -0.65927345444E+02  0.73331446465E+02  0.00000000000E+00 0. -1.
          1    1    1    2  502    0  0.76049811647E+01 -0.67986802654E+02  0.55042413257E+03  0.55465914469E+03  0.00000000000E+00 0. -1.
         22    1    3    3    0    0 -0.24709662454E+02 -0.36102725761E+02  0.10201943726E+03  0.11100423328E+03  0.00000000000E+00 0.  1.
         22    1    3    3    0    0 -0.14876588559E+02  0.10121124033E+03  0.20210616347E+03  0.22652136626E+03  0.00000000000E+00 0.  1.
</event>
<event>
 7    1  0.7457412E-006  0.3786990E+03  0.7818608E-02  0.1104516E+00
          2   -1    0    0  502    0  0.00000000000E+00  0.00000000000E+00  0.12813308100E+04  0.12813308100E+04  0.00000000000E+00 0. -1.
          1   -1    0    0  501    0 -0.00000000000E+00 -0.00000000000E+00 -0.44758712956E+03  0.44758712956E+03  0.00000000000E+00 0. -1.
         25    2    1    2    0    0  0.14406544308E+03 -0.27130289662E+03  0.44577811263E+03  0.55561065931E+03  0.12499986175E+03 0.  0.
          2    1    1    2  501    0  0.14541741805E+03 -0.11375723013E+03 -0.28869329511E+03  0.34268170585E+03  0.00000000000E+00 0. -1.
          1    1    1    2  502    0 -0.28948286113E+03  0.38506012675E+03  0.67665886295E+03  0.83062557443E+03  0.00000000000E+00 0. -1.
         22    1    3    3    0    0  0.60279328710E+02 -0.13948242058E+03  0.11754540559E+03  0.19210899379E+03  0.00000000000E+00 0. -1.
         22    1    3    3    0    0  0.83786114372E+02 -0.13182047604E+03  0.32823270704E+03  0.36350166552E+03  0.00000000000E+00 0. -1.
</event>
<event>
 7    1  0.7457412E-006  0.8581396E+02  0.7818608E-02  0.1337180E+00
          2   -1    0    0  502    0  0.00000000000E+00  0.00000000000E+00  0.22313484178E+04  0.22313484178E+04  0.00000000000E+00 0. -1.
          1   -1    0    0  501    0 -0.00000000000E+00 -0.00000000000E+00 -0.43541990883E+02  0.43541990883E+02  0.00000000000E+00 0. -1.
         25    2    1    2    0    0  0.90260785118E+02 -0.10322909328E+03  0.70640598937E+03  0.73036346980E+03  0.12497248165E+03 0.  0.
          2    1    1    2  501    0 -0.74572338923E+02  0.35566877969E+02  0.24786292069E+02  0.86257734815E+02  0.00000000000E+00 0. -1.
          1    1    1    2  502    0 -0.15688446196E+02  0.67662215314E+02  0.14566141455E+04  0.14582692041E+04  0.00000000000E+00 0. -1.
         22    1    3    3    0    0  0.10913665726E+03 -0.38050597008E+02  0.49589568525E+03  0.50918679140E+03  0.00000000000E+00 0.  1.
         22    1    3    3    0    0 -0.18875872142E+02 -0.65178496275E+02  0.21051030413E+03  0.22117667840E+03  0.00000000000E+00 0.  1.
</event>
<event>
 7    1  0.7457412E-006  0.9419273E+02  0.7818608E-02  0.1345708E+00
          2   -1    0    0  502    0  0.00000000000E+00  0.00000000000E+00  0.14989977869E+04  0.14989977869E+04  0.00000000000E+00 0. -1.
          1   -1    0    0  501    0 -0.00000000000E+00 -0.00000000000E+00 -0.10699768226E+04  0.10699768226E+04  0.00000000000E+00 0. -1.
         25    2    1    2    0    0  0.92174060978E+02 -0.57328529101E+02 -0.41773009697E+01  0.16560556050E+03  0.12500053624E+03 0.  0.
          2    1    1    2  501    0 -0.40399960865E+02  0.85162911687E+02 -0.98221910892E+03  0.98673160296E+03  0.00000000000E+00 0. -1.
          1    1    1    2  502    0 -0.51774100113E+02 -0.27834382586E+02  0.14154173742E+04  0.14166374460E+04  0.00000000000E+00 0. -1.
         22    1    3    3    0    0  0.49769472980E+02 -0.73243237135E+02 -0.49568730760E+02  0.10148217231E+03  0.00000000000E+00 0. -1.
         22    1    3    3    0    0  0.42404587998E+02  0.15914708034E+02  0.45391429791E+02  0.64123388194E+02  0.00000000000E+00 0. -1.
</event>
<event>
 7    1  0.7457412E-006  0.1845703E+03  0.7818608E-02  0.1201268E+00
          2   -1    0    0  502    0  0.00000000000E+00  0.00000000000E+00  0.87815025575E+02  0.87815025575E+02  0.00000000000E+00 0. -1.
          1   -1    0    0  501    0 -0.00000000000E+00 -0.00000000000E+00 -0.28971212833E+04  0.28971212833E+04  0.00000000000E+00 0. -1.
         25    2    1    2    0    0 -0.66728964146E+02 -0.10638332546E+03 -0.81428959493E+03  0.83334406985E+03  0.12499851104E+03 0.  0.
          2    1    1    2  501    0  0.80417846609E+02 -0.90220561625E+02 -0.19443514843E+04  0.19481040718E+04  0.00000000000E+00 0. -1.
          1    1    1    2  502    0 -0.13688882463E+02  0.19660388708E+03 -0.50665178508E+02  0.20348816730E+03  0.00000000000E+00 0. -1.
         22    1    3    3    0    0 -0.41260132514E+02  0.21097469633E+02 -0.18000641627E+03  0.18587579632E+03  0.00000000000E+00 0.  1.
         22    1    3    3    0    0 -0.25468831631E+02 -0.12748079509E+03 -0.63428317866E+03  0.64746827353E+03  0.00000000000E+00 0.  1.
</event>
<event>
 7    1  0.7457412E-006  0.5735491E+02  0.7818608E-02  0.1456137E+00
          2   -1    0    0  502    0  0.00000000000E+00  0.00000000000E+00  0.23863675844E+03  0.23863675844E+03  0.00000000000E+00 0. -1.
          1   -1    0    0  501    0 -0.00000000000E+00 -0.00000000000E+00 -0.95853380548E+03  0.95853380548E+03  0.00000000000E+00 0. -1.
         25    2    1    2    0    0  0.13022494024E+02 -0.15775678772E+02 -0.25677004028E+03  0.28630987293E+03  0.12499612938E+03 0.  0.
          2    1    1    2  501    0 -0.38436283873E+02  0.46999786464E+02 -0.68382786180E+03  0.68651793307E+03  0.00000000000E+00 0. -1.
          1    1    1    2  502    0  0.25413789849E+02 -0.31224107692E+02  0.22070085504E+03  0.22434275792E+03  0.00000000000E+00 0. -1.
         22    1    3    3    0    0  0.49981082686E+02 -0.23597275818E+02 -0.23760583324E+03  0.24394973261E+03  0.00000000000E+00 0.  1.
         22    1    3    3    0    0 -0.36958588662E+02  0.78215970458E+01 -0.19164207048E+02  0.42360140321E+02  0.00000000000E+00 0.  1.
</event>
<event>
 7    1  0.7457412E-006  0.2551451E+03  0.7818608E-02  0.1163719E+00
          2   -1    0    0  502    0  0.00000000000E+00  0.00000000000E+00  0.14946744388E+04  0.14946744388E+04  0.00000000000E+00 0. -1.
          1   -1    0    0  501    0 -0.00000000000E+00 -0.00000000000E+00 -0.19450819067E+03  0.19450819067E+03  0.00000000000E+00 0. -1.
         25    2    1    2    0    0 -0.82175658528E+02  0.30163385475E+03  0.41805937270E+03  0.53678167743E+03  0.12500043574E+03 0.  0.
          2    1    1    2  501    0 -0.72972466370E+02 -0.11131985832E+03 -0.82789983043E+02  0.15675226632E+03  0.00000000000E+00 0. -1.
          1    1    1    2  502    0  0.15514812490E+03 -0.19031399643E+03  0.96489685844E+03  0.99564868569E+03  0.00000000000E+00 0. -1.
         22    1    3    3    0    0  0.26181568877E+02  0.13691649651E+03  0.16579857903E+03  0.21661202731E+03  0.00000000000E+00 0.  1.
         22    1    3    3    0    0 -0.10835722740E+03  0.16471735823E+03  0.25226079367E+03  0.32016965012E+03  0.00000000000E+00 0.  1.
</event>
<event>
 7    1  0.7457412E-006  0.2934709E+03  0.7818608E-02  0.1255842E+00
          2   -1    0    0  502    0  0.00000000000E+00  0.00000000000E+00  0.13174080449E+04  0.13174080449E+04  0.00000000000E+00 0. -1.
          1   -1    0    0  501    0 -0.00000000000E+00 -0.00000000000E+00 -0.13802413489E+04  0.13802413489E+04  0.00000000000E+00 0. -1.
         25    2    1    2    0    0 -0.18074278858E+03 -0.19670771840E+03 -0.39266531199E+03  0.49109403267E+03  0.12500167832E+03 0.  0.
          2    1    1    2  501    0  0.19443254755E+03  0.23767867705E+03 -0.91285404817E+03  0.96311872702E+03  0.00000000000E+00 0. -1.
          1    1    1    2  502    0 -0.13689758970E+02 -0.40970958656E+02  0.12426860562E+04  0.12434366342E+04  0.00000000000E+00 0. -1.
         22    1    3    3    0    0 -0.38328130231E+02 -0.75504040096E+02 -0.22320702822E+03  0.23872847146E+03  0.00000000000E+00 0. -1.
         22    1    3    3    0    0 -0.14241465835E+03 -0.12120367830E+03 -0.16945828376E+03  0.25236556121E+03  0.00000000000E+00 0. -1.
</event>
<event>
 7    1  0.7457412E-006  0.2248087E+03  0.7818608E-02  0.1150174E+00
          2   -1    0    0  502    0  0.00000000000E+00  0.00000000000E+00  0.11331228382E+03  0.11331228382E+03  0.00000000000E+00 0. -1.
          1   -1    0    0  501    0 -0.00000000000E+00 -0.00000000000E+00 -0.29155642416E+04  0.29155642416E+04  0.00000000000E+00 0. -1.
         25    2    1    2    0    0  0.48657414579E+02  0.29892550033E+01 -0.37406641370E+03  0.39739993081E+03  0.12499817405E+03 0.  0.
          2    1    1    2  501    0  0.46390320018E+02 -0.21997015522E+03 -0.23789246405E+04  0.23895232529E+04  0.00000000000E+00 0. -1.
          1    1    1    2  502    0 -0.95047734597E+02  0.21698090022E+03 -0.49260903514E+02  0.24195334163E+03  0.00000000000E+00 0. -1.
         22    1    3    3    0    0  0.47196337363E+02 -0.54331047017E+02 -0.25937314101E+03  0.26917240425E+03  0.00000000000E+00 0. -1.
         22    1    3    3    0    0  0.14610772163E+01  0.57320302020E+02 -0.11469327269E+03  0.12822752657E+03  0.00000000000E+00 0. -1.
</event>
<event>
 7    1  0.7457412E-006  0.4877584E+02  0.7818608E-02  0.1487610E+00
          2   -1    0    0  502    0  0.00000000000E+00  0.00000000000E+00  0.12897456753E+03  0.12897456753E+03  0.00000000000E+00 0. -1.
          1   -1    0    0  501    0 -0.00000000000E+00 -0.00000000000E+00 -0.20367855788E+03  0.20367855788E+03  0.00000000000E+00 0. -1.
         25    2    1    2    0    0  0.38367164355E+02  0.70543271592E+02  0.20036781363E+02  0.14991675058E+03  0.12500066812E+03 0.  0.
          2    1    1    2  501    0 -0.12734907379E+02 -0.35597589639E+02 -0.12453310463E+03  0.13014553547E+03  0.00000000000E+00 0. -1.
          1    1    1    2  502    0 -0.25632256976E+02 -0.34945681952E+02  0.29792332911E+02  0.52590839365E+02  0.00000000000E+00 0. -1.
         22    1    3    3    0    0  0.55584233360E+02  0.78367419032E+02  0.54606634379E+02  0.11051218884E+03  0.00000000000E+00 0.  1.
         22    1    3    3    0    0 -0.17217069005E+02 -0.78241474399E+01 -0.34569853017E+02  0.39404561740E+02  0.00000000000E+00 0.  1.
</event>
<event>
 7    1  0.7457412E-006  0.5151630E+02  0.7818608E-02  0.1496510E+00
          2   -1    0    0  502    0  0.00000000000E+00  0.00000000000E+00  0.67839608850E+03  0.67839608850E+03  0.00000000000E+00 0. -1.
          1   -1    0    0  501    0 -0.00000000000E+00 -0.00000000000E+00 -0.13205423282E+04  0.13205423282E+04  0.00000000000E+00 0. -1.
         25    2    1    2    0    0 -0.82351410066E+02 -0.17375493890E+02 -0.12043333744E+03  0.19290730247E+03  0.12500150420E+03 0.  0.
          2    1    1    2  501    0  0.48792797667E+02  0.14900780040E+02 -0.11628715169E+04  0.11639900924E+04  0.00000000000E+00 0. -1.
          1    1    1    2  502    0  0.33558612399E+02  0.24747138494E+01  0.64115861462E+03  0.64204102188E+03  0.00000000000E+00 0. -1.
         22    1    3    3    0    0 -0.11877694524E+01  0.39832560130E+02 -0.72305225221E+02  0.82559610204E+02  0.00000000000E+00 0. -1.
         22    1    3    3    0    0 -0.81163640614E+02 -0.57208054020E+02 -0.48128112218E+02  0.11034769226E+03  0.00000000000E+00 0. -1.
</event>
<event>
 7    1  0.7457412E-006  0.8298491E+02  0.7818608E-02  0.1401600E+00
          2   -1    0    0  502    0  0.00000000000E+00  0.00000000000E+00  0.40774962575E+03  0.40774962575E+03  0.00000000000E+00 0. -1.
          1   -1    0    0  501    0 -0.00000000000E+00 -0.00000000000E+00 -0.14574809331E+04  0.14574809331E+04  0.00000000000E+00 0. -1.
         25    2    1    2    0    0 -0.67642885011E+02 -0.95761019188E+02 -0.32709919048E+02  0.17446877327E+03  0.12499472530E+03 0.  0.
          2    1    1    2  501    0  0.67993349124E+01  0.41552978137E+02 -0.13486301635E+04  0.13492872930E+04  0.00000000000E+00 0. -1.
          1    1    1    2  502    0  0.60843550098E+02  0.54208041051E+02  0.33160877523E+03  0.34147449262E+03  0.00000000000E+00 0. -1.
         22    1    3    3    0    0 -0.32749577115E+02  0.17690231709E+02 -0.41132983208E+02  0.55474331061E+02  0.00000000000E+00 0. -1.
         22    1    3    3    0    0 -0.34893307896E+02 -0.11345125090E+03  0.84230641601E+01  0.11899444221E+03  0.00000000000E+00 0. -1.
</event>
<event>
 7    1  0.7457412E-006  0.1459514E+03  0.7818608E-02  0.1384321E+00
          2   -1    0    0  502    0  0.00000000000E+00  0.00000000000E+00  0.28967550738E+03  0.28967550738E+03  0.00000000000E+00 0. -1.
          1   -1    0    0  501    0 -0.00000000000E+00 -0.00000000000E+00 -0.25842525740E+03  0.25842525740E+03  0.00000000000E+00 0. -1.
         25    2    1    2    0    0 -0.85404579889E+02 -0.14314618145E+03  0.55777590505E+02  0.21568629150E+03  0.12499866083E+03 0.  0.
          2    1    1    2  501    0  0.81457091490E+02  0.11594147131E+03 -0.14860285569E+03  0.20533020051E+03  0.00000000000E+00 0. -1.
          1    1    1    2  502    0  0.39474884000E+01  0.27204710142E+02  0.12407551517E+03  0.12708427276E+03  0.00000000000E+00 0. -1.
         22    1    3    3    0    0 -0.27652195156E+02 -0.10112377695E+03  0.88431903925E+02  0.13715270246E+03  0.00000000000E+00 0.  1.
         22    1    3    3    0    0 -0.57752384734E+02 -0.42022404502E+02 -0.32654313420E+02  0.78533589040E+02  0.00000000000E+00 0.  1.
</event>
<event>
 7    1  0.7457412E-006  0.8102646E+02  0.7818608E-02  0.1330739E+00
          2   -1    0    0  502    0  0.00000000000E+00  0.00000000000E+00  0.38679727587E+03  0.38679727587E+03  0.00000000000E+00 0. -1.
          1   -1    0    0  501    0 -0.00000000000E+00 -0.00000000000E+00 -0.50492185575E+03  0.50492185575E+03  0.00000000000E+00 0. -1.
         25    2    1    2    0    0  0.12714246290E+02  0.14084067981E+02  0.66717628277E+02  0.14295770051E+03  0.12500259670E+03 0.  0.
          2    1    1    2  501    0 -0.31532914822E+02  0.74638877299E+02 -0.45584207107E+03  0.46298734376E+03  0.00000000000E+00 0. -1.
          1    1    1    2  502    0  0.18818668533E+02 -0.88722945279E+02  0.27099986291E+03  0.28577408735E+03  0.00000000000E+00 0. -1.
         22    1    3    3    0    0  0.68711588395E+02  0.14605157509E+02  0.33240522753E+02  0.77714383216E+02  0.00000000000E+00 0.  1.
         22    1    3    3    0    0 -0.55997342106E+02 -0.52108952852E+00  0.33477105524E+02  0.65243317293E+02  0.00000000000E+00 0.  1.
</event>
<event>
 7    1  0.7457412E-006  0.6999384E+02  0.7818608E-02  0.1422979E+00
          2   -1    0    0  502    0  0.00000000000E+00  0.00000000000E+00  0.13917506919E+04  0.13917506919E+04  0.00000000000E+00 0. -1.
          1   -1    0    0  501    0 -0.00000000000E+00 -0.00000000000E+00 -0.10054557390E+03  0.10054557390E+03  0.00000000000E+00 0. -1.
         25    2    1    2    0    0 -0.45917320707E+02 -0.37929351339E+02  0.80113441486E+03  0.81301259171E+03  0.12500435023E+03 0.  0.
          2    1    1    2  501    0  0.16587244592E+02  0.68372742890E+02 -0.80635327814E+02  0.10701413339E+03  0.00000000000E+00 0. -1.
          1    1    1    2  502    0  0.29330076115E+02 -0.30443391551E+02  0.57070603097E+03  0.57226954073E+03  0.00000000000E+00 0. -1.
         22    1    3    3    0    0 -0.63410647433E+02 -0.11645940027E+02  0.18214290736E+03  0.19321639897E+03  0.00000000000E+00 0.  1.
         22    1    3    3    0    0  0.17493326726E+02 -0.26283411312E+02  0.61899150749E+03  0.61979619274E+03  0.00000000000E+00 0.  1.
</event>
<event>
 7    1  0.7457412E-006  0.6598059E+02  0.7818608E-02  0.1504134E+00
          2   -1    0    0  502    0  0.00000000000E+00  0.00000000000E+00  0.70335249065E+03  0.70335249065E+03  0.00000000000E+00 0. -1.
          1   -1    0    0  501    0 -0.00000000000E+00 -0.00000000000E+00 -0.28239965775E+03  0.28239965775E+03  0.00000000000E+00 0. -1.
         25    2    1    2    0    0  0.53257559705E+02  0.31210786477E+01  0.20065008621E+03  0.24235120103E+03  0.12501015458E+03 0.  0.
          2    1    1    2  501    0 -0.63287769989E+02  0.19705107733E+02 -0.25701887824E+03  0.26542859091E+03  0.00000000000E+00 0. -1.
          1    1    1    2  502    0  0.10030210284E+02 -0.22826186381E+02  0.47732162494E+03  0.47797235646E+03  0.00000000000E+00 0. -1.
         22    1    3    3    0    0  0.73112551457E+02  0.28703952045E+02  0.19399233473E+03  0.20929020039E+03  0.00000000000E+00 0. -1.
         22    1    3    3    0    0 -0.19854991752E+02 -0.25582873398E+02  0.66577514745E+01  0.33061000642E+02  0.00000000000E+00 0. -1.
</event>
<event>
 7    1  0.7457412E-006  0.6155224E+02  0.7818608E-02  0.1425914E+00
          2   -1    0    0  502    0  0.00000000000E+00  0.00000000000E+00  0.30518788699E+02  0.30518788699E+02  0.00000000000E+00 0. -1.
          1   -1    0    0  501    0 -0.00000000000E+00 -0.00000000000E+00 -0.16851190551E+04  0.16851190551E+04  0.00000000000E+00 0. -1.
         25    2    1    2    0    0  0.54620194856E+02 -0.77491354279E+02 -0.52289968531E+03  0.54592816475E+03  0.12500081800E+03 0.  0.
          2    1    1    2  501    0 -0.42787253931E+02  0.19460766543E+02 -0.11028149290E+04  0.11038162158E+04  0.00000000000E+00 0. -1.
          1    1    1    2  502    0 -0.11832940925E+02  0.58030587736E+02 -0.28885652037E+02  0.65893463238E+02  0.00000000000E+00 0. -1.
         22    1    3    3    0    0 -0.38040105997E+02 -0.60066866014E+01 -0.10083798384E+03  0.10794178493E+03  0.00000000000E+00 0. -1.
         22    1    3    3    0    0  0.92660300853E+02 -0.71484667677E+02 -0.42206170147E+03  0.43798637983E+03  0.00000000000E+00 0. -1.
</event>
<event>
 7    1  0.7457412E-006  0.6869025E+02  0.7818608E-02  0.1388996E+00
          2   -1    0    0  502    0  0.00000000000E+00  0.00000000000E+00  0.64080650134E+03  0.64080650134E+03  0.00000000000E+00 0. -1.
          1   -1    0    0  501    0 -0.00000000000E+00 -0.00000000000E+00 -0.48795090326E+03  0.48795090326E+03  0.00000000000E+00 0. -1.
         25    2    1    2    0    0 -0.70612853718E+01 -0.11787468377E+02  0.95302304084E+02  0.15779121363E+03  0.12500692690E+03 0.  0.
          2    1    1    2  501    0  0.28257803795E+02  0.63885836393E+02 -0.45248016473E+03  0.45784080535E+03  0.00000000000E+00 0. -1.
          1    1    1    2  502    0 -0.21196518423E+02 -0.52098368016E+02  0.51003345873E+03  0.51312538562E+03  0.00000000000E+00 0. -1.
         22    1    3    3    0    0 -0.41308807885E+02 -0.52595143815E+02  0.75735272654E+02  0.10103711341E+03  0.00000000000E+00 0.  1.
         22    1    3    3    0    0  0.34247522513E+02  0.40807675438E+02  0.19567031430E+02  0.56754100221E+02  0.00000000000E+00 0.  1.
</event>
<event>
 7    1  0.7457412E-006  0.7215352E+02  0.7818608E-02  0.1477157E+00
          2   -1    0    0  502    0  0.00000000000E+00  0.00000000000E+00  0.41067855669E+03  0.41067855669E+03  0.00000000000E+00 0. -1.
          1   -1    0    0  501    0 -0.00000000000E+00 -0.00000000000E+00 -0.33761505196E+03  0.33761505196E+03  0.00000000000E+00 0. -1.
         25    2    1    2    0    0 -0.51632430003E+02  0.50103412829E+02  0.25850199701E+02  0.14652579007E+03  0.12500125810E+03 0.  0.
          2    1    1    2  501    0  0.67079894919E+02 -0.27340806779E+02 -0.27194442366E+03  0.28142672506E+03  0.00000000000E+00 0. -1.
          1    1    1    2  502    0 -0.15447464916E+02 -0.22762606051E+02  0.31915772870E+03  0.32034109351E+03  0.00000000000E+00 0. -1.
         22    1    3    3    0    0 -0.49940996924E+02 -0.20095337004E+02 -0.25468029015E+02  0.59552886118E+02  0.00000000000E+00 0.  1.
         22    1    3    3    0    0 -0.16914330791E+01  0.70198749833E+02  0.51318228716E+02  0.86972903956E+02  0.00000000000E+00 0.  1.
</event>
<event>
 7    1  0.7457412E-006  0.6153022E+02  0.7818608E-02  0.1436434E+00
          2   -1    0    0  502    0  0.00000000000E+00  0.00000000000E+00  0.14629477219E+03  0.14629477219E+03  0.00000000000E+00 0. -1.
          1   -1    0    0  501    0 -0.00000000000E+00 -0.00000000000E+00 -0.59203102693E+03  0.59203102693E+03  0.00000000000E+00 0. -1.
         25    2    1    2    0    0  0.15616553100E+02 -0.87431864832E+02  0.27614631209E+02  0.15580760305E+03  0.12500093436E+03 0.  0.
          2    1    1    2  501    0  0.15751616418E+02  0.40465552412E+02 -0.51215598715E+03  0.51399351118E+03  0.00000000000E+00 0. -1.
          1    1    1    2  502    0 -0.31368169518E+02  0.46966312420E+02  0.38805101200E+02  0.68524684898E+02  0.00000000000E+00 0. -1.
         22    1    3    3    0    0  0.42032549711E+02 -0.62812436398E+02  0.67976026375E+02  0.10165076273E+03  0.00000000000E+00 0. -1.
         22    1    3    3    0    0 -0.26415996611E+02 -0.24619428434E+02 -0.40361395166E+02  0.54156840318E+02  0.00000000000E+00 0. -1.
</event>
<event>
 7    1  0.7457412E-006  0.1058018E+03  0.7818608E-02  0.1313142E+00
          2   -1    0    0  502    0  0.00000000000E+00  0.00000000000E+00  0.36474460987E+03  0.36474460987E+03  0.00000000000E+00 0. -1.
          1   -1    0    0  501    0 -0.00000000000E+00 -0.00000000000E+00 -0.26572241469E+03  0.26572241469E+03  0.00000000000E+00 0. -1.
         25    2    1    2    0    0  0.11110311830E+03 -0.37744789098E+02 -0.40198024792E+02  0.17609362787E+03  0.12499805031E+03 0.  0.
          2    1    1    2  501    0 -0.49398139501E+02 -0.49189960851E+02 -0.13950643946E+03  0.15595472127E+03  0.00000000000E+00 0. -1.
          1    1    1    2  502    0 -0.61704978799E+02  0.86934749948E+02  0.27872665943E+03  0.29841867541E+03  0.00000000000E+00 0. -1.
         22    1    3    3    0    0 -0.15202822494E+02 -0.87745426517E+01  0.25380607657E+02  0.30859255590E+02  0.00000000000E+00 0.  1.
         22    1    3    3    0    0  0.12630594079E+03 -0.28970246446E+02 -0.65578632449E+02  0.14523437228E+03  0.00000000000E+00 0.  1.
</event>
<event>
 7    1  0.7457412E-006  0.5991400E+02  0.7818608E-02  0.1419382E+00
          2   -1    0    0  502    0  0.00000000000E+00  0.00000000000E+00  0.12501574848E+04  0.12501574848E+04  0.00000000000E+00 0. -1.
          1   -1    0    0  501    0 -0.00000000000E+00 -0.00000000000E+00 -0.51607411893E+03  0.51607411893E+03  0.00000000000E+00 0. -1.
         25    2    1    2    0    0  0.52806549839E+02  0.72976456008E+02  0.95325894818E+02  0.18118050736E+03  0.12500102075E+03 0.  0.
          2    1    1    2  501    0  0.24803836030E+01 -0.50707818498E+02 -0.47098291701E+03  0.47371124461E+03  0.00000000000E+00 0. -1.
          1    1    1    2  502    0 -0.55286933442E+02 -0.22268637511E+02  0.11097403881E+04  0.11113398518E+04  0.00000000000E+00 0. -1.
         22    1    3    3    0    0  0.34268390686E+01  0.85673323302E+02  0.16519297905E+02  0.87318662122E+02  0.00000000000E+00 0.  1.
         22    1    3    3    0    0  0.49379710771E+02 -0.12696867293E+02  0.78806596913E+02  0.93861845240E+02  0.00000000000E+00 0.  1.
</event>
<event>
 7    1  0.7457412E-006  0.3902292E+02  0.7818608E-02  0.1551055E+00
          2   -1    0    0  502    0  0.00000000000E+00  0.00000000000E+00  0.40586219029E+03  0.40586219029E+03  0.00000000000E+00 0. -1.
          1   -1    0    0  501    0 -0.00000000000E+00 -0.00000000000E+00 -0.15310009858E+03  0.15310009858E+03  0.00000000000E+00 0. -1.
         25    2    1    2    0    0 -0.49376835166E+02 -0.35154485893E+02 -0.47435530084E+02  0.14679770610E+03  0.12500210907E+03 0.  0.
          2    1    1    2  501    0  0.11037986350E+02  0.28862083277E+02 -0.50563612594E+02  0.59258213880E+02  0.00000000000E+00 0. -1.
          1    1    1    2  502    0  0.38338848816E+02  0.62924026167E+01  0.35076123439E+03  0.35290636890E+03  0.00000000000E+00 0. -1.
         22    1    3    3    0    0 -0.38641799173E+02 -0.25602363827E+02 -0.90346940795E+02  0.10154427304E+03  0.00000000000E+00 0.  1.
         22    1    3    3    0    0 -0.10735035993E+02 -0.95521220670E+01  0.42911410712E+02  0.45253433052E+02  0.00000000000E+00 0.  1.
</event>
<event>
 7    1  0.7457412E-006  0.1048232E+03  0.7818608E-02  0.1414701E+00
          2   -1    0    0  502    0  0.00000000000E+00  0.00000000000E+00  0.12057424922E+04  0.12057424922E+04  0.00000000000E+00 0. -1.
          1   -1    0    0  501    0 -0.00000000000E+00 -0.00000000000E+00 -0.32119210946E+04  0.32119210946E+04  0.00000000000E+00 0. -1.
         25    2    1    2    0    0  0.85393967573E+02  0.68664295501E+02  0.22681423041E+03  0.28120394835E+03  0.12499620104E+03 0.  0.
          2    1    1    2  501    0 -0.60518254287E+02 -0.85586505764E+02 -0.31836256728E+04  0.31853508336E+04  0.00000000000E+00 0. -1.
          1    1    1    2  502    0 -0.24875713286E+02  0.16922210262E+02  0.95063283996E+03  0.95110880488E+03  0.00000000000E+00 0. -1.
         22    1    3    3    0    0  0.52756160702E+02  0.26260861661E+02  0.21940789084E+03  0.22718421580E+03  0.00000000000E+00 0.  1.
         22    1    3    3    0    0  0.32637806871E+02  0.42403433840E+02  0.74063395788E+01  0.54019732550E+02  0.00000000000E+00 0.  1.
</event>
<event>
 7    1  0.7457412E-006  0.1858604E+03  0.7818608E-02  0.1201114E+00
          2   -1    0    0  502    0  0.00000000000E+00  0.00000000000E+00  0.20301149056E+04  0.20301149056E+04  0.00000000000E+00 0. -1.
          1   -1    0    0  501    0 -0.00000000000E+00 -0.00000000000E+00 -0.70675403266E+03  0.70675403266E+03  0.00000000000E+00 0. -1.
         25    2    1    2    0    0  0.11699730006E+03 -0.27979286943E+03 -0.20514275963E+03  0.38688662308E+03  0.12500115713E+03 0.  0.
          2    1    1    2  501    0 -0.57677557549E+02  0.10548089445E+03 -0.39745654669E+03  0.41524044389E+03  0.00000000000E+00 0. -1.
          1    1    1    2  502    0 -0.59319742515E+02  0.17431197498E+03  0.19259601792E+04  0.19347418713E+04  0.00000000000E+00 0. -1.
         22    1    3    3    0    0  0.50520749185E+02 -0.16310870497E+03 -0.18385615423E+03  0.25091807664E+03  0.00000000000E+00 0. -1.
         22    1    3    3    0    0  0.66476550879E+02 -0.11668416446E+03 -0.21286605399E+02  0.13596854644E+03  0.00000000000E+00 0. -1.
</event>
<event>
 7    1  0.7457412E-006  0.2827276E+02  0.7818608E-02  0.1638742E+00
          2   -1    0    0  502    0  0.00000000000E+00  0.00000000000E+00  0.17949813578E+04  0.17949813578E+04  0.00000000000E+00 0. -1.
          1   -1    0    0  501    0 -0.00000000000E+00 -0.00000000000E+00 -0.60167821092E+01  0.60167821092E+01  0.00000000000E+00 0. -1.
         25    2    1    2    0    0 -0.52472094103E+01 -0.49435420571E+00  0.13837006186E+04  0.13893452772E+04  0.12500047858E+03 0.  0.
          2    1    1    2  501    0  0.27563286914E+02 -0.10923617592E+02  0.78236363087E+02  0.83665935218E+02  0.00000000000E+00 0. -1.
          1    1    1    2  502    0 -0.22316077503E+02  0.11417971798E+02  0.32702759395E+03  0.32798692749E+03  0.00000000000E+00 0. -1.
         22    1    3    3    0    0  0.66594404221E-01 -0.62191627010E+02  0.78071056547E+03  0.78318375235E+03  0.00000000000E+00 0. -1.
         22    1    3    3    0    0 -0.53138038145E+01  0.61697272805E+02  0.60299005315E+03  0.60616152482E+03  0.00000000000E+00 0. -1.
</event>
<event>
 7    1  0.7457412E-006  0.2636299E+02  0.7818608E-02  0.1685007E+00
          2   -1    0    0  502    0  0.00000000000E+00  0.00000000000E+00  0.19535275063E+04  0.19535275063E+04  0.00000000000E+00 0. -1.
          1   -1    0    0  501    0 -0.00000000000E+00 -0.00000000000E+00 -0.14534686039E+02  0.14534686039E+02  0.00000000000E+00 0. -1.
         25    2    1    2    0    0 -0.21920360261E+01  0.77792594453E+01  0.36939964108E+03  0.39006076957E+03  0.12500394885E+03 0.  0.
          2    1    1    2  501    0  0.44313245126E+01 -0.28439527163E+02  0.45975036972E+02  0.54241564937E+02  0.00000000000E+00 0. -1.
          1    1    1    2  502    0 -0.22392884865E+01  0.20660267718E+02  0.15236181422E+04  0.15237598578E+04  0.00000000000E+00 0. -1.
         22    1    3    3    0    0  0.17995676548E+02  0.16084271364E+02  0.36734273978E+03  0.36813480768E+03  0.00000000000E+00 0. -1.
         22    1    3    3    0    0 -0.20187712574E+02 -0.83050119186E+01  0.20569013075E+01  0.21925961893E+02  0.00000000000E+00 0. -1.
</event>
<event>
 7    1  0.7457412E-006  0.1117567E+03  0.7818608E-02  0.1362324E+00
          2   -1    0    0  502    0  0.00000000000E+00  0.00000000000E+00  0.20775105234E+04  0.20775105234E+04  0.00000000000E+00 0. -1.
          1   -1    0    0  501    0 -0.00000000000E+00 -0.00000000000E+00 -0.21332505056E+02  0.21332505056E+02  0.00000000000E+00 0. -1.
         25    2    1    2    0    0  0.10710737091E+03  0.98447264256E+02  0.90538235573E+03  0.92547602050E+03  0.12499920677E+03 0.  0.
          2    1    1    2  501    0 -0.72628461228E+02 -0.72698742017E+02  0.23409573511E+03  0.25565761023E+03  0.00000000000E+00 0. -1.
          1    1    1    2  502    0 -0.34478909678E+02 -0.25748522239E+02  0.91669992753E+03  0.91770939776E+03  0.00000000000E+00 0. -1.
         22    1    3    3    0    0  0.10136961313E+03  0.46434270272E+02  0.80088053974E+03  0.80860471112E+03  0.00000000000E+00 0. -1.
         22    1    3    3    0    0  0.57377577764E+01  0.52012993984E+02  0.10450181600E+03  0.11687130937E+03  0.00000000000E+00 0. -1.
</event>
<event>
 7    1  0.7457412E-006  0.6990185E+02  0.7818608E-02  0.1386204E+00
          2   -1    0    0  502    0  0.00000000000E+00  0.00000000000E+00  0.13084594155E+04  0.13084594155E+04  0.00000000000E+00 0. -1.
          1   -1    0    0  501    0 -0.00000000000E+00 -0.00000000000E+00 -0.18509791522E+04  0.18509791522E+04  0.00000000000E+00 0. -1.
         25    2    1    2    0    0 -0.49652605655E+02 -0.51624183053E+02 -0.95379381017E+02  0.17279746830E+03  0.12502520227E+03 0.  0.
          2    1    1    2  501    0 -0.37418347521E+01  0.70185808348E+02 -0.17155416171E+04  0.17169808062E+04  0.00000000000E+00 0. -1.
          1    1    1    2  502    0  0.53394440407E+02 -0.18561625295E+02  0.12684012614E+04  0.12696602932E+04  0.00000000000E+00 0. -1.
         22    1    3    3    0    0 -0.88316821911E+02 -0.45807736196E+02 -0.88381221522E+02  0.13307685766E+03  0.00000000000E+00 0. -1.
         22    1    3    3    0    0  0.38664216256E+02 -0.58164468569E+01 -0.69981594945E+01  0.39720610632E+02  0.00000000000E+00 0. -1.
</event>
<event>
 7    1  0.7457412E-006  0.2329575E+03  0.7818608E-02  0.1236899E+00
          2   -1    0    0  502    0  0.00000000000E+00  0.00000000000E+00  0.11502444264E+03  0.11502444264E+03  0.00000000000E+00 0. -1.
          1   -1    0    0  501    0 -0.00000000000E+00 -0.00000000000E+00 -0.42614465082E+04  0.42614465082E+04  0.00000000000E+00 0. -1.
         25    2    1    2    0    0  0.20129130985E+03  0.63227126300E+02 -0.18038466886E+03  0.30443056928E+03  0.12499392719E+03 0.  0.
          2    1    1    2  501    0  0.35550263235E+02  0.55404640242E+02 -0.36859303964E+04  0.36865181923E+04  0.00000000000E+00 0. -1.
          1    1    1    2  502    0 -0.23684157308E+03 -0.11863176654E+03 -0.28010700040E+03  0.38552218930E+03  0.00000000000E+00 0. -1.
         22    1    3    3    0    0  0.48821623102E+02 -0.31795931414E+02 -0.78938083426E+02  0.98110922694E+02  0.00000000000E+00 0. -1.
         22    1    3    3    0    0  0.15246968675E+03  0.95023057714E+02 -0.10144658543E+03  0.20631964659E+03  0.00000000000E+00 0. -1.
</event>
<event>
 7    1  0.7457412E-006  0.9186709E+02  0.7818608E-02  0.1335635E+00
          2   -1    0    0  502    0  0.00000000000E+00  0.00000000000E+00  0.11838570943E+03  0.11838570943E+03  0.00000000000E+00 0. -1.
          1   -1    0    0  501    0 -0.00000000000E+00 -0.00000000000E+00 -0.19402872811E+04  0.19402872811E+04  0.00000000000E+00 0. -1.
         25    2    1    2    0    0  0.10664383450E+03 -0.60075103737E+02 -0.28601623016E+03  0.33528590432E+03  0.12501771153E+03 0.  0.
          2    1    1    2  501    0 -0.62791363534E+02 -0.19533433743E+02 -0.16067765565E+04  0.16081216412E+04  0.00000000000E+00 0. -1.
          1    1    1    2  502    0 -0.43852470961E+02  0.79608537480E+02  0.70891214992E+02  0.11526544501E+03  0.00000000000E+00 0. -1.
         22    1    3    3    0    0 -0.22940100727E+02 -0.29696828644E+02 -0.35750231520E+02  0.51828842420E+02  0.00000000000E+00 0. -1.
         22    1    3    3    0    0  0.12958393522E+03 -0.30378275092E+02 -0.25026599864E+03  0.28345706190E+03  0.00000000000E+00 0. -1.
</event>
<event>
 7    1  0.7457412E-006  0.2772401E+03  0.7818608E-02  0.1156401E+00
          2   -1    0    0  502    0  0.00000000000E+00  0.00000000000E+00  0.14964125634E+04  0.14964125634E+04  0.00000000000E+00 0. -1.
          1   -1    0    0  501    0 -0.00000000000E+00 -0.00000000000E+00 -0.43686044093E+03  0.43686044093E+03  0.00000000000E+00 0. -1.
         25    2    1    2    0    0  0.26374266652E+03  0.26453831546E+03 -0.44244589243E+02  0.39638818520E+03  0.12500118079E+03 0.  0.
          2    1    1    2  501    0 -0.16779262246E+03 -0.17187887924E+03 -0.14527170448E+03  0.28071441253E+03  0.00000000000E+00 0. -1.
          1    1    1    2  502    0 -0.95950044061E+02 -0.92659436224E+02  0.12490684162E+04  0.12561704066E+04  0.00000000000E+00 0. -1.
         22    1    3    3    0    0  0.52986888054E+02  0.10608033484E+03 -0.58702270166E+02  0.13231252498E+03  0.00000000000E+00 0.  1.
         22    1    3    3    0    0  0.21075577847E+03  0.15845798062E+03  0.14457680923E+02  0.26407566022E+03  0.00000000000E+00 0.  1.
</event>
<event>
 7    1  0.7457412E-006  0.9036873E+02  0.7818608E-02  0.1341229E+00
          2   -1    0    0  502    0  0.00000000000E+00  0.00000000000E+00  0.27619988193E+04  0.27619988193E+04  0.00000000000E+00 0. -1.
          1   -1    0    0  501    0 -0.00000000000E+00 -0.00000000000E+00 -0.22130410792E+04  0.22130410792E+04  0.00000000000E+00 0. -1.
         25    2    1    2    0    0 -0.13375214123E+03  0.40415670706E+01  0.30486538032E+03  0.35563147497E+03  0.12499950529E+03 0.  0.
          2    1    1    2  501    0  0.83298071635E+02  0.34811940834E+02 -0.21863093808E+04  0.21881725591E+04  0.00000000000E+00 0. -1.
          1    1    1    2  502    0  0.50454069600E+02 -0.38853507904E+02  0.24304017405E+04  0.24312358644E+04  0.00000000000E+00 0. -1.
         22    1    3    3    0    0 -0.15300642130E+03  0.72873463419E+01  0.21697251581E+03  0.26559582639E+03  0.00000000000E+00 0.  1.
         22    1    3    3    0    0  0.19254280070E+02 -0.32457792713E+01  0.87892864504E+02  0.90035648578E+02  0.00000000000E+00 0.  1.
</event>
<event>
 7    1  0.7457412E-006  0.7694604E+02  0.7818608E-02  0.1391497E+00
          2   -1    0    0  502    0  0.00000000000E+00  0.00000000000E+00  0.91847856645E+03  0.91847856645E+03  0.00000000000E+00 0. -1.
          1   -1    0    0  501    0 -0.00000000000E+00 -0.00000000000E+00 -0.37402260911E+03  0.37402260911E+03  0.00000000000E+00 0. -1.
         25    2    1    2    0    0  0.90370877368E+02  0.58275370111E+02  0.54048970641E+03  0.56508147705E+03  0.12500015490E+03 0.  0.
          2    1    1    2  501    0 -0.49182820639E+02 -0.16981415011E+01 -0.35667361943E+03  0.36005264105E+03  0.00000000000E+00 0. -1.
          1    1    1    2  502    0 -0.41188056729E+02 -0.56577228610E+02  0.36063987036E+03  0.36736705746E+03  0.00000000000E+00 0. -1.
         22    1    3    3    0    0  0.53728019592E+02  0.94723554098E+02  0.30142368494E+03  0.32049257344E+03  0.00000000000E+00 0.  1.
         22    1    3    3    0    0  0.36642857775E+02 -0.36448183987E+02  0.23906602148E+03  0.24458890361E+03  0.00000000000E+00 0.  1.
</event>
<event>
 7    1  0.7457412E-006  0.2089939E+03  0.7818608E-02  0.1297743E+00
          2   -1    0    0  502    0  0.00000000000E+00  0.00000000000E+00  0.25160848298E+04  0.25160848298E+04  0.00000000000E+00 0. -1.
          1   -1    0    0  501    0 -0.00000000000E+00 -0.00000000000E+00 -0.12127776424E+03  0.12127776424E+03  0.00000000000E+00 0. -1.
         25    2    1    2    0    0  0.80060490822E+02  0.20968828646E+03  0.52745310439E+03  0.58669620043E+03  0.12500717817E+03 0.  0.
          2    1    1    2  501    0 -0.10497967577E+03 -0.17760383669E+03  0.24948495003E+02  0.20781309520E+03  0.00000000000E+00 0. -1.
          1    1    1    2  502    0  0.24919184949E+02 -0.32084449769E+02  0.18424054662E+04  0.18428532984E+04  0.00000000000E+00 0. -1.
         22    1    3    3    0    0  0.29750375794E+02  0.59988781228E+02  0.49340440680E+02  0.83175824730E+02  0.00000000000E+00 0. -1.
         22    1    3    3    0    0  0.50310115028E+02  0.14969950523E+03  0.47811266371E+03  0.50352037570E+03  0.00000000000E+00 0. -1.
</event>
<event>
 7    1  0.7457412E-006  0.4548918E+02  0.7818608E-02  0.1550079E+00
          2   -1    0    0  502    0  0.00000000000E+00  0.00000000000E+00  0.17097656978E+04  0.17097656978E+04  0.00000000000E+00 0. -1.
          1   -1    0    0  501    0 -0.00000000000E+00 -0.00000000000E+00 -0.10593268216E+04  0.10593268216E+04  0.00000000000E+00 0. -1.
         25    2    1    2    0    0  0.55384320350E+02  0.27535885783E+02  0.10118014758E+04  0.10213679662E+04  0.12499859240E+03 0.  0.
          2    1    1    2  501    0 -0.45397290096E+02 -0.28012319355E+01 -0.10537962126E+04  0.10547773312E+04  0.00000000000E+00 0. -1.
          1    1    1    2  502    0 -0.99870302540E+01 -0.24734653847E+02  0.69243361300E+03  0.69294722186E+03  0.00000000000E+00 0. -1.
         22    1    3    3    0    0 -0.26890138153E+02 -0.11678985432E+02  0.54288829464E+03  0.54367929765E+03  0.00000000000E+00 0. -1.
         22    1    3    3    0    0  0.82274458503E+02  0.39214871214E+02  0.46891318114E+03  0.47768866858E+03  0.00000000000E+00 0. -1.
</event>
<event>
 7    1  0.7457412E-006  0.4448301E+02  0.7818608E-02  0.1578828E+00
          2   -1    0    0  502    0  0.00000000000E+00  0.00000000000E+00  0.22324224864E+03  0.22324224864E+03  0.00000000000E+00 0. -1.
          1   -1    0    0  501    0 -0.00000000000E+00 -0.00000000000E+00 -0.14214997551E+04  0.14214997551E+04  0.00000000000E+00 0. -1.
         25    2    1    2    0    0 -0.15747620370E+02 -0.32349718435E+02 -0.81260286786E+03  0.82294793595E+03  0.12500157042E+03 0.  0.
          2    1    1    2  501    0 -0.21384084631E+02  0.77872519817E+01 -0.60123452886E+03  0.60166508878E+03  0.00000000000E+00 0. -1.
          1    1    1    2  502    0  0.37131705001E+02  0.24562466453E+02  0.21557989030E+03  0.22012897895E+03  0.00000000000E+00 0. -1.
         22    1    3    3    0    0  0.77276293611E+01 -0.73935455475E+02 -0.62318460786E+03  0.62760275916E+03  0.00000000000E+00 0. -1.
         22    1    3    3    0    0 -0.23475249731E+02  0.41585737040E+02 -0.18941826000E+03  0.19534517679E+03  0.00000000000E+00 0. -1.
</event>
<event>
 7    1  0.7457412E-006  0.1551241E+03  0.7818608E-02  0.1241956E+00
          2   -1    0    0  502    0  0.00000000000E+00  0.00000000000E+00  0.12983465183E+04  0.12983465183E+04  0.00000000000E+00 0. -1.
          1   -1    0    0  501    0 -0.00000000000E+00 -0.00000000000E+00 -0.10360693788E+04  0.10360693788E+04  0.00000000000E+00 0. -1.
         25    2    1    2    0    0 -0.10489226359E+03  0.22188328640E+03  0.48922405239E+03  0.56142723793E+03  0.12500316119E+03 0.  0.
          2    1    1    2  501    0  0.81135430978E+02 -0.13103181139E+03 -0.99113834183E+03  0.10030491047E+04  0.00000000000E+00 0. -1.
          1    1    1    2  502    0  0.23756832613E+02 -0.90851475016E+02  0.76419142886E+03  0.76993955448E+03  0.00000000000E+00 0. -1.
         22    1    3    3    0    0 -0.31179186556E+02  0.15271770571E+03  0.19093805679E+03  0.24647957490E+03  0.00000000000E+00 0. -1.
         22    1    3    3    0    0 -0.73713077035E+02  0.69165580696E+02  0.29828599560E+03  0.31494766304E+03  0.00000000000E+00 0. -1.
</event>
<event>
 7    1  0.7457412E-006  0.9507967E+02  0.7818608E-02  0.1461155E+00
          2   -1    0    0  502    0  0.00000000000E+00  0.00000000000E+00  0.18054592933E+03  0.18054592933E+03  0.00000000000E+00 0. -1.
          1   -1    0    0  501    0 -0.00000000000E+00 -0.00000000000E+00 -0.20757896925E+03  0.20757896925E+03  0.00000000000E+00 0. -1.
         25    2    1    2    0    0  0.79621534452E+02 -0.13046690958E+02 -0.49487287406E+02  0.15680337786E+03  0.12501401041E+03 0.  0.
          2    1    1    2  501    0 -0.98337090564E+02  0.27117082780E+02 -0.77850083514E+02  0.12832051692E+03  0.00000000000E+00 0. -1.
          1    1    1    2  502    0  0.18715556112E+02 -0.14070391821E+02  0.10030433100E+03  0.10300100381E+03  0.00000000000E+00 0. -1.
         22    1    3    3    0    0  0.79980689956E+02 -0.58483325962E+02 -0.50801507296E+02  0.11134632156E+03  0.00000000000E+00 0.  1.
         22    1    3    3    0    0 -0.35915550454E+00  0.45436635004E+02  0.13142198900E+01  0.45457056295E+02  0.00000000000E+00 0.  1.
</event>
<event>
 7    1  0.7457412E-006  0.1320252E+03  0.7818608E-02  0.1281220E+00
          2   -1    0    0  502    0  0.00000000000E+00  0.00000000000E+00  0.15302914324E+04  0.15302914324E+04  0.00000000000E+00 0. -1.
          1   -1    0    0  501    0 -0.00000000000E+00 -0.00000000000E+00 -0.10474936222E+03  0.10474936222E+03  0.00000000000E+00 0. -1.
         25    2    1    2    0    0 -0.87340954336E+02 -0.16581735190E+03  0.87248057398E+03  0.90109441529E+03  0.12499982723E+03 0.  0.
          2    1    1    2  501    0  0.38487226210E+02  0.64466092647E+02 -0.68891968685E+02  0.10189821898E+03  0.00000000000E+00 0. -1.
          1    1    1    2  502    0  0.48853728125E+02  0.10135125925E+03  0.62195346493E+03  0.63204816038E+03  0.00000000000E+00 0. -1.
         22    1    3    3    0    0 -0.15110908761E+02  0.16438478361E+02  0.18058965130E+03  0.18196479135E+03  0.00000000000E+00 0. -1.
         22    1    3    3    0    0 -0.72230045574E+02 -0.18225583026E+03  0.69189092268E+03  0.71912962394E+03  0.00000000000E+00 0. -1.
</event>
<event>
 7    1  0.7457412E-006  0.5439703E+02  0.7818608E-02  0.1566438E+00
          2   -1    0    0  502    0  0.00000000000E+00  0.00000000000E+00  0.59875085529E+03  0.59875085529E+03  0.00000000000E+00 0. -1.
          1   -1    0    0  501    0 -0.00000000000E+00 -0.00000000000E+00 -0.35651064135E+03  0.35651064135E+03  0.00000000000E+00 0. -1.
         25    2    1    2    0    0  0.50619636659E+02 -0.21826324102E+02 -0.66881119779E+02  0.15210706016E+03  0.12499895011E+03 0.  0.
          2    1    1    2  501    0 -0.11769367548E+02 -0.16299579767E+02 -0.24527234864E+03  0.24609493965E+03  0.00000000000E+00 0. -1.
          1    1    1    2  502    0 -0.38850269110E+02  0.38125903870E+02  0.55439368236E+03  0.55705949682E+03  0.00000000000E+00 0. -1.
         22    1    3    3    0    0 -0.33479597397E+02  0.11234861987E+02 -0.48331376045E+02  0.59858395202E+02  0.00000000000E+00 0.  1.
         22    1    3    3    0    0  0.84099234056E+02 -0.33061186089E+02 -0.18549743734E+02  0.92248664961E+02  0.00000000000E+00 0.  1.
</event>
<event>
 7    1  0.7457412E-006  0.1009029E+03  0.7818608E-02  0.1388792E+00
          2   -1    0    0  502    0  0.00000000000E+00  0.00000000000E+00  0.81013279704E+03  0.81013279704E+03  0.00000000000E+00 0. -1.
          1   -1    0    0  501    0 -0.00000000000E+00 -0.00000000000E+00 -0.15844886897E+04  0.15844886897E+04  0.00000000000E+00 0. -1.
         25    2    1    2    0    0  0.13485070441E+03  0.20182812926E+02 -0.12051140946E+03  0.22076832307E+03  0.12499437685E+03 0.  0.
          2    1    1    2  501    0 -0.34692239939E+02 -0.16350752624E+02 -0.14102822734E+04  0.14108036679E+04  0.00000000000E+00 0. -1.
          1    1    1    2  502    0 -0.10015846447E+03 -0.38320603018E+01  0.75643779017E+03  0.76304949583E+03  0.00000000000E+00 0. -1.
         22    1    3    3    0    0  0.93862740049E+02  0.37557905742E+02 -0.99571825424E+01  0.10158718294E+03  0.00000000000E+00 0. -1.
         22    1    3    3    0    0  0.40987964358E+02 -0.17375092816E+02 -0.11055422692E+03  0.11918114013E+03  0.00000000000E+00 0. -1.
</event>
<event>
 7    1  0.7457412E-006  0.4706107E+02  0.7818608E-02  0.1532650E+00
          2   -1    0    0  502    0  0.00000000000E+00  0.00000000000E+00  0.29332798429E+04  0.29332798429E+04  0.00000000000E+00 0. -1.
          1   -1    0    0  501    0 -0.00000000000E+00 -0.00000000000E+00 -0.77914750614E+02  0.77914750614E+02  0.00000000000E+00 0. -1.
         25    2    1    2    0    0  0.42766397211E+02 -0.19277381522E+02  0.31458583116E+03  0.34174489219E+03  0.12499897603E+03 0.  0.
          2    1    1    2  501    0  0.34916478092E+01  0.28663561569E+02 -0.60870308006E+02  0.67371995392E+02  0.00000000000E+00 0. -1.
          1    1    1    2  502    0 -0.46258045020E+02 -0.93861800466E+01  0.26016495691E+04  0.26020777059E+04  0.00000000000E+00 0. -1.
         22    1    3    3    0    0  0.34936815184E+02  0.48660905710E+02  0.19490413687E+03  0.20390215146E+03  0.00000000000E+00 0. -1.
         22    1    3    3    0    0  0.78295820266E+01 -0.67938287233E+02  0.11968169429E+03  0.13784274074E+03  0.00000000000E+00 0. -1.
</event>
<event>
 7    1  0.7457412E-006  0.1230114E+03  0.7818608E-02  0.1295154E+00
          2   -1    0    0  502    0  0.00000000000E+00  0.00000000000E+00  0.76571506278E+02  0.76571506278E+02  0.00000000000E+00 0. -1.
          1   -1    0    0  501    0 -0.00000000000E+00 -0.00000000000E+00 -0.11400925202E+04  0.11400925202E+04  0.00000000000E+00 0. -1.
         25    2    1    2    0    0 -0.17369230066E+03 -0.64536634258E+02 -0.52495724392E+03  0.57056033315E+03  0.12499997336E+03 0.  0.
          2    1    1    2  501    0  0.62257991450E+02  0.33497057789E+02 -0.52488094826E+03  0.52962073244E+03  0.00000000000E+00 0. -1.
          1    1    1    2  502    0  0.11143430921E+03  0.31039576468E+02 -0.13682821781E+02  0.11648296094E+03  0.00000000000E+00 0. -1.
         22    1    3    3    0    0 -0.17682486753E+03 -0.23416712232E+02 -0.37875849938E+03  0.41865663382E+03  0.00000000000E+00 0. -1.
         22    1    3    3    0    0  0.31325668671E+01 -0.41119922025E+02 -0.14619874454E+03  0.15190369933E+03  0.00000000000E+00 0. -1.
</event>
<event>
 7    1  0.7457412E-006  0.5108638E+02  0.7818608E-02  0.1465579E+00
          2   -1    0    0  502    0  0.00000000000E+00  0.00000000000E+00  0.19896683840E+04  0.19896683840E+04  0.00000000000E+00 0. -1.
          1   -1    0    0  501    0 -0.00000000000E+00 -0.00000000000E+00 -0.33821665458E+03  0.33821665458E+03  0.00000000000E+00 0. -1.
         25    2    1    2    0    0 -0.40447234179E+01 -0.40171290192E+02 -0.16123758455E+03  0.20797243125E+03  0.12499952458E+03 0.  0.
          2    1    1    2  501    0  0.41819111835E+02  0.57055355254E+01 -0.15037322658E+03  0.15618418141E+03  0.00000000000E+00 0. -1.
          1    1    1    2  502    0 -0.37774388417E+02  0.34465754667E+02  0.19630625405E+04  0.19637284259E+04  0.00000000000E+00 0. -1.
         22    1    3    3    0    0  0.16119783467E+01 -0.85530156424E+02 -0.10113190598E+03  0.13246006394E+03  0.00000000000E+00 0. -1.
         22    1    3    3    0    0 -0.56567017646E+01  0.45358866232E+02 -0.60105678566E+02  0.75512367309E+02  0.00000000000E+00 0. -1.
</event>
<event>
 7    1  0.7457412E-006  0.7831675E+02  0.7818608E-02  0.1350110E+00
          2   -1    0    0  502    0  0.00000000000E+00  0.00000000000E+00  0.15654822689E+04  0.15654822689E+04  0.00000000000E+00 0. -1.
          1   -1    0    0  501    0 -0.00000000000E+00 -0.00000000000E+00 -0.13572579872E+04  0.13572579872E+04  0.00000000000E+00 0. -1.
         25    2    1    2    0    0 -0.18443952655E+02  0.90240163409E+02  0.13723438878E+03  0.20722432462E+03  0.12500070707E+03 0.  0.
          2    1    1    2  501    0 -0.48122898759E+02 -0.48162360900E+02 -0.13202723533E+04  0.13220266689E+04  0.00000000000E+00 0. -1.
          1    1    1    2  502    0  0.66566851414E+02 -0.42077802509E+02  0.13912622463E+04  0.13934892626E+04  0.00000000000E+00 0. -1.
         22    1    3    3    0    0 -0.65524069693E+02  0.23560271865E+02  0.40119776122E+02  0.80362220947E+02  0.00000000000E+00 0. -1.
         22    1    3    3    0    0  0.47080117038E+02  0.66679891544E+02  0.97114612655E+02  0.12686210367E+03  0.00000000000E+00 0. -1.
</event>
<event>
 7    1  0.7457412E-006  0.4840009E+02  0.7818608E-02  0.1456872E+00
          2   -1    0    0  502    0  0.00000000000E+00  0.00000000000E+00  0.47988334533E+03  0.47988334533E+03  0.00000000000E+00 0. -1.
          1   -1    0    0  501    0 -0.00000000000E+00 -0.00000000000E+00 -0.74590677794E+02  0.74590677794E+02  0.00000000000E+00 0. -1.
         25    2    1    2    0    0  0.10764317708E+01 -0.18284424259E+02  0.14863951125E+03  0.19507013784E+03  0.12499270178E+03 0.  0.
          2    1    1    2  501    0 -0.48523474609E+02  0.17573024057E+02 -0.36003410632E+02  0.62925228166E+02  0.00000000000E+00 0. -1.
          1    1    1    2  502    0  0.47447042838E+02  0.71140020233E+00  0.29265656692E+03  0.29647865711E+03  0.00000000000E+00 0. -1.
         22    1    3    3    0    0  0.13495442900E+02  0.41657997844E+02  0.12091353196E+02  0.45428147503E+02  0.00000000000E+00 0. -1.
         22    1    3    3    0    0 -0.12419011129E+02 -0.59942422103E+02  0.13654815805E+03  0.14964199034E+03  0.00000000000E+00 0. -1.
</event>
<event>
 7    1  0.7457412E-006  0.7067994E+02  0.7818608E-02  0.1381925E+00
          2   -1    0    0  502    0  0.00000000000E+00  0.00000000000E+00  0.48225223667E+03  0.48225223667E+03  0.00000000000E+00 0. -1.
          1   -1    0    0  501    0 -0.00000000000E+00 -0.00000000000E+00 -0.87390977701E+03  0.87390977701E+03  0.00000000000E+00 0. -1.
         25    2    1    2    0    0  0.12529908316E+03 -0.23452216579E+02 -0.94633822769E+02  0.20206534902E+03  0.12499991264E+03 0.  0.
          2    1    1    2  501    0 -0.56911386044E+02  0.10544061201E+02 -0.72156809110E+03  0.72388575976E+03  0.00000000000E+00 0. -1.
          1    1    1    2  502    0 -0.68387697114E+02  0.12908155378E+02  0.42454437353E+03  0.43021090489E+03  0.00000000000E+00 0. -1.
         22    1    3    3    0    0 -0.10869875683E+02 -0.37095227819E+02 -0.62555739990E+01  0.39157915296E+02  0.00000000000E+00 0. -1.
         22    1    3    3    0    0  0.13616895884E+03  0.13643011239E+02 -0.88378248770E+02  0.16290743373E+03  0.00000000000E+00 0. -1.
</event>
<event>
 7    1  0.7457412E-006  0.6500270E+02  0.7818608E-02  0.1428740E+00
          2   -1    0    0  502    0  0.00000000000E+00  0.00000000000E+00  0.32312517281E+03  0.32312517281E+03  0.00000000000E+00 0. -1.
          1   -1    0    0  501    0 -0.00000000000E+00 -0.00000000000E+00 -0.31457954608E+03  0.31457954608E+03  0.00000000000E+00 0. -1.
         25    2    1    2    0    0 -0.35758335897E+02 -0.94584367565E+02 -0.15893869723E+03  0.22607856196E+03  0.12500058210E+03 0.  0.
          2    1    1    2  501    0  0.21701524581E+02  0.53351638724E+02 -0.11350387591E+03  0.12728111946E+03  0.00000000000E+00 0. -1.
          1    1    1    2  502    0  0.14056811316E+02  0.41232728841E+02  0.28098819987E+03  0.28434503748E+03  0.00000000000E+00 0. -1.
         22    1    3    3    0    0 -0.46420372482E+02 -0.66534115966E+02 -0.17438192444E+03  0.19232965226E+03  0.00000000000E+00 0.  1.
         22    1    3    3    0    0  0.10662036585E+02 -0.28050251599E+02  0.15443227209E+02  0.33748909694E+02  0.00000000000E+00 0.  1.
</event>
<event>
 7    1  0.7457412E-006  0.6249272E+02  0.7818608E-02  0.1409194E+00
          2   -1    0    0  502    0  0.00000000000E+00  0.00000000000E+00  0.30776547043E+03  0.30776547043E+03  0.00000000000E+00 0. -1.
          1   -1    0    0  501    0 -0.00000000000E+00 -0.00000000000E+00 -0.60511507045E+03  0.60511507045E+03  0.00000000000E+00 0. -1.
         25    2    1    2    0    0  0.53882816371E+02  0.60962698166E+01 -0.12222424639E+03  0.18303328325E+03  0.12498757524E+03 0.  0.
          2    1    1    2  501    0 -0.34075167038E+02 -0.54904908103E+02 -0.44764429531E+03  0.45228429230E+03  0.00000000000E+00 0. -1.
          1    1    1    2  502    0 -0.19807649333E+02  0.48808638286E+02  0.27251894169E+03  0.27756296533E+03  0.00000000000E+00 0. -1.
         22    1    3    3    0    0 -0.76660583769E+01  0.72284228282E+01  0.23001050897E+02  0.25299543277E+02  0.00000000000E+00 0. -1.
         22    1    3    3    0    0  0.61548874748E+02 -0.11321530116E+01 -0.14522529729E+03  0.15773373997E+03  0.00000000000E+00 0. -1.
</event>
<event>
 7    1  0.7457412E-006  0.9842128E+02  0.7818608E-02  0.1415943E+00
          2   -1    0    0  502    0  0.00000000000E+00  0.00000000000E+00  0.16581566554E+04  0.16581566554E+04  0.00000000000E+00 0. -1.
          1   -1    0    0  501    0 -0.00000000000E+00 -0.00000000000E+00 -0.33062213630E+04  0.33062213630E+04  0.00000000000E+00 0. -1.
         25    2    1    2    0    0 -0.68511917327E+02 -0.86397851699E+01 -0.37997686623E+03  0.40592949012E+03  0.12501121298E+03 0.  0.
          2    1    1    2  501    0  0.10017595048E+03  0.64996860812E+01 -0.29122502166E+04  0.29139798886E+04  0.00000000000E+00 0. -1.
          1    1    1    2  502    0 -0.31664033155E+02  0.21400990887E+01  0.16441623752E+04  0.16444686398E+04  0.00000000000E+00 0. -1.
         22    1    3    3    0    0 -0.78779822866E+02 -0.10942518438E+02 -0.10997234848E+03  0.13571999348E+03  0.00000000000E+00 0.  1.
         22    1    3    3    0    0  0.10267905539E+02  0.23027332682E+01 -0.27000451776E+03  0.27020949664E+03  0.00000000000E+00 0.  1.
</event>
<event>
 7    1  0.7457412E-006  0.6721247E+02  0.7818608E-02  0.1407200E+00
          2   -1    0    0  502    0  0.00000000000E+00  0.00000000000E+00  0.75379379828E+02  0.75379379828E+02  0.00000000000E+00 0. -1.
          1   -1    0    0  501    0 -0.00000000000E+00 -0.00000000000E+00 -0.57277878218E+03  0.57277878218E+03  0.00000000000E+00 0. -1.
         25    2    1    2    0    0  0.35220171141E+02  0.88830297998E+01 -0.27753047145E+03  0.30654133491E+03  0.12500023500E+03 0.  0.
          2    1    1    2  501    0 -0.80368279064E+02  0.12004376331E+02 -0.26331591813E+03  0.27556929813E+03  0.00000000000E+00 0. -1.
          1    1    1    2  502    0  0.45148107923E+02 -0.20887406131E+02  0.43446987229E+02  0.66047528971E+02  0.00000000000E+00 0. -1.
         22    1    3    3    0    0  0.25960014109E+01 -0.29743943171E+02 -0.61407144944E+01  0.30481957830E+02  0.00000000000E+00 0. -1.
         22    1    3    3    0    0  0.32624169730E+02  0.38626972971E+02 -0.27138975696E+03  0.27605937708E+03  0.00000000000E+00 0. -1.
</event>
<event>
 7    1  0.7457412E-006  0.4033264E+02  0.7818608E-02  0.1597533E+00
          2   -1    0    0  502    0  0.00000000000E+00  0.00000000000E+00  0.65856154771E+03  0.65856154771E+03  0.00000000000E+00 0. -1.
          1   -1    0    0  501    0 -0.00000000000E+00 -0.00000000000E+00 -0.34331568008E+02  0.34331568008E+02  0.00000000000E+00 0. -1.
         25    2    1    2    0    0 -0.43321321235E+02  0.40418355587E+02  0.25433678073E+03  0.28951780845E+03  0.12499193189E+03 0.  0.
          2    1    1    2  501    0  0.32895077983E+02 -0.20604756262E+02  0.65756404048E+01  0.39368530362E+02  0.00000000000E+00 0. -1.
          1    1    1    2  502    0  0.10426243252E+02 -0.19813599325E+02  0.36331755857E+03  0.36400677691E+03  0.00000000000E+00 0. -1.
         22    1    3    3    0    0  0.72385497078E-01  0.92739339208E+01  0.23107145651E+03  0.23125749524E+03  0.00000000000E+00 0. -1.
         22    1    3    3    0    0 -0.43393706732E+02  0.31144421666E+02  0.23265324217E+02  0.58260313215E+02  0.00000000000E+00 0. -1.
</event>
<event>
 7    1  0.7457412E-006  0.2130512E+03  0.7818608E-02  0.1316573E+00
          2   -1    0    0  502    0  0.00000000000E+00  0.00000000000E+00  0.14353739353E+04  0.14353739353E+04  0.00000000000E+00 0. -1.
          1   -1    0    0  501    0 -0.00000000000E+00 -0.00000000000E+00 -0.43638625067E+03  0.43638625067E+03  0.00000000000E+00 0. -1.
         25    2    1    2    0    0 -0.17007106209E+03  0.17346648254E+03  0.87533362472E+03  0.91697841093E+03  0.12500265925E+03 0.  0.
          2    1    1    2  501    0  0.13932393440E+03 -0.16000164867E+03 -0.38789925797E+03  0.44212839833E+03  0.00000000000E+00 0. -1.
          1    1    1    2  502    0  0.30747127698E+02 -0.13464833863E+02  0.51155331788E+03  0.51265337670E+03  0.00000000000E+00 0. -1.
         22    1    3    3    0    0 -0.24862508497E+02  0.10272539626E+03  0.44364694944E+03  0.45606278857E+03  0.00000000000E+00 0. -1.
         22    1    3    3    0    0 -0.14520855360E+03  0.70741086276E+02  0.43168667528E+03  0.46091562237E+03  0.00000000000E+00 0. -1.
</event>
<event>
 7    1  0.7457412E-006  0.5207504E+02  0.7818608E-02  0.1448760E+00
          2   -1    0    0  502    0  0.00000000000E+00  0.00000000000E+00  0.29453210409E+03  0.29453210409E+03  0.00000000000E+00 0. -1.
          1   -1    0    0  501    0 -0.00000000000E+00 -0.00000000000E+00 -0.13350908734E+04  0.13350908734E+04  0.00000000000E+00 0. -1.
         25    2    1    2    0    0  0.43533924804E+02 -0.82415262563E+02  0.58176758138E+02  0.16642504677E+03  0.12500113157E+03 0.  0.
          2    1    1    2  501    0 -0.10076997601E+02  0.45711336600E+02 -0.12771461812E+04  0.12780036934E+04  0.00000000000E+00 0. -1.
          1    1    1    2  502    0 -0.33456927202E+02  0.36703925963E+02  0.17841065376E+03  0.18519423731E+03  0.00000000000E+00 0. -1.
         22    1    3    3    0    0  0.13853927967E+02 -0.10514713854E+03  0.11582122124E+02  0.10668644533E+03  0.00000000000E+00 0. -1.
         22    1    3    3    0    0  0.29679996836E+02  0.22731875979E+02  0.46594636014E+02  0.59738601448E+02  0.00000000000E+00 0. -1.
</event>
<event>
 7    1  0.7457412E-006  0.8414939E+02  0.7818608E-02  0.1324669E+00
          2   -1    0    0  502    0  0.00000000000E+00  0.00000000000E+00  0.44670166661E+03  0.44670166661E+03  0.00000000000E+00 0. -1.
          1   -1    0    0  501    0 -0.00000000000E+00 -0.00000000000E+00 -0.14711568364E+03  0.14711568364E+03  0.00000000000E+00 0. -1.
         25    2    1    2    0    0  0.95341111137E+01  0.35913716655E+02  0.99720724616E+02  0.16416415478E+03  0.12499980992E+03 0.  0.
          2    1    1    2  501    0  0.78529328799E+02  0.91402175691E+01 -0.92104159313E+02  0.12138193944E+03  0.00000000000E+00 0. -1.
          1    1    1    2  502    0 -0.88063439912E+02 -0.45053934224E+02  0.29196941767E+03  0.30827125603E+03  0.00000000000E+00 0. -1.
         22    1    3    3    0    0  0.66179607738E+02  0.19570381452E+02  0.69381115210E+02  0.97859488341E+02  0.00000000000E+00 0.  1.
         22    1    3    3    0    0 -0.56645496624E+02  0.16343335203E+02  0.30339609406E+02  0.66304666444E+02  0.00000000000E+00 0.  1.
</event>
<event>
 7    1  0.7457412E-006  0.1181254E+03  0.7818608E-02  0.1365567E+00
          2   -1    0    0  502    0  0.00000000000E+00  0.00000000000E+00  0.20056129032E+03  0.20056129032E+03  0.00000000000E+00 0. -1.
          1   -1    0    0  501    0 -0.00000000000E+00 -0.00000000000E+00 -0.19008808318E+04  0.19008808318E+04  0.00000000000E+00 0. -1.
         25    2    1    2    0    0 -0.12220835184E+03  0.65849878159E+02 -0.26032070420E+03  0.32041062775E+03  0.12500005451E+03 0.  0.
          2    1    1    2  501    0  0.85235104378E+02 -0.80099740614E+02 -0.16060573667E+04  0.16103109192E+04  0.00000000000E+00 0. -1.
          1    1    1    2  502    0  0.36973247464E+02  0.14249862455E+02  0.16605852938E+03  0.17072057518E+03  0.00000000000E+00 0. -1.
         22    1    3    3    0    0 -0.60907943200E+01 -0.33019173411E+02 -0.58462659061E+02  0.67418440301E+02  0.00000000000E+00 0.  1.
         22    1    3    3    0    0 -0.11611755752E+03  0.98869051571E+02 -0.20185804514E+03  0.25299218745E+03  0.00000000000E+00 0.  1.
</event>
<event>
 7    1  0.7457412E-006  0.6846194E+02  0.7818608E-02  0.1373187E+00
          2   -1    0    0  502    0  0.00000000000E+00  0.00000000000E+00  0.14949773604E+04  0.14949773604E+04  0.00000000000E+00 0. -1.
          1   -1    0    0  501    0 -0.00000000000E+00 -0.00000000000E+00 -0.16867651159E+04  0.16867651159E+04  0.00000000000E+00 0. -1.
         25    2    1    2    0    0  0.22447796860E+01  0.41121107103E+01  0.44588409080E+03  0.46309786174E+03  0.12500023451E+03 0.  0.
          2    1    1    2  501    0  0.43417773797E+02  0.52933305091E+02 -0.16761757193E+04  0.16775732710E+04  0.00000000000E+00 0. -1.
          1    1    1    2  502    0 -0.45662553483E+02 -0.57045415801E+02  0.10385038729E+04  0.10410713436E+04  0.00000000000E+00 0. -1.
         22    1    3    3    0    0  0.69583825049E+01 -0.59089338730E+02  0.25949535210E+03  0.26622886170E+03  0.00000000000E+00 0.  1.
         22    1    3    3    0    0 -0.47136028188E+01  0.63201449440E+02  0.18638873870E+03  0.19686900004E+03  0.00000000000E+00 0.  1.
</event>
<event>
 7    1  0.7457412E-006  0.1603561E+03  0.7818608E-02  0.1234808E+00
          2   -1    0    0  502    0  0.00000000000E+00  0.00000000000E+00  0.10282713791E+04  0.10282713791E+04  0.00000000000E+00 0. -1.
          1   -1    0    0  501    0 -0.00000000000E+00 -0.00000000000E+00 -0.82188121393E+03  0.82188121393E+03  0.00000000000E+00 0. -1.
         25    2    1    2    0    0  0.32720614281E+02  0.22861534257E+03  0.50272365522E+03  0.56717776962E+03  0.12499574143E+03 0.  0.
          2    1    1    2  501    0 -0.39638402093E+02 -0.89298162892E+02 -0.77667185508E+03  0.78279277928E+03  0.00000000000E+00 0. -1.
          1    1    1    2  502    0  0.69177878117E+01 -0.13931717968E+03  0.48033836498E+03  0.50018204407E+03  0.00000000000E+00 0. -1.
         22    1    3    3    0    0  0.16918336721E+02  0.23703857341E+03  0.42029525819E+03  0.48282669713E+03  0.00000000000E+00 0. -1.
         22    1    3    3    0    0  0.15802277560E+02 -0.84232308354E+01  0.82428397036E+02  0.84351072499E+02  0.00000000000E+00 0. -1.
</event>
<event>
 7    1  0.7457412E-006  0.7797334E+02  0.7818608E-02  0.1502333E+00
          2   -1    0    0  502    0  0.00000000000E+00  0.00000000000E+00  0.15361220284E+04  0.15361220284E+04  0.00000000000E+00 0. -1.
          1   -1    0    0  501    0 -0.00000000000E+00 -0.00000000000E+00 -0.94042231197E+03  0.94042231197E+03  0.00000000000E+00 0. -1.
         25    2    1    2    0    0  0.62332380159E+02 -0.34402571936E+02  0.28615298941E+02  0.14667117413E+03  0.12499894165E+03 0.  0.
          2    1    1    2  501    0 -0.65599791262E+01 -0.20327085134E+02 -0.88021087491E+03  0.88046999269E+03  0.00000000000E+00 0. -1.
          1    1    1    2  502    0 -0.55772401032E+02  0.54729657071E+02  0.14472952924E+04  0.14494031735E+04  0.00000000000E+00 0. -1.
         22    1    3    3    0    0 -0.10987254835E+02 -0.53991192721E+02  0.42418487645E+02  0.69534859994E+02  0.00000000000E+00 0.  1.
         22    1    3    3    0    0  0.73319634993E+02  0.19588620784E+02 -0.13803188705E+02  0.77136314134E+02  0.00000000000E+00 0.  1.
</event>
<event>
 7    1  0.7457412E-006  0.1203826E+03  0.7818608E-02  0.1319209E+00
          2   -1    0    0  502    0  0.00000000000E+00  0.00000000000E+00  0.14865008059E+04  0.14865008059E+04  0.00000000000E+00 0. -1.
          1   -1    0    0  501    0 -0.00000000000E+00 -0.00000000000E+00 -0.12300899315E+04  0.12300899315E+04  0.00000000000E+00 0. -1.
         25    2    1    2    0    0 -0.45500799752E+02 -0.12646516824E+03  0.15345681617E+03  0.23924695630E+03  0.12500540033E+03 0.  0.
          2    1    1    2  501    0  0.57617178753E+02  0.68064081206E+01 -0.11836798349E+04  0.11851008472E+04  0.00000000000E+00 0. -1.
          1    1    1    2  502    0 -0.12116379001E+02  0.11965876012E+03  0.12866338931E+04  0.12922429340E+04  0.00000000000E+00 0. -1.
         22    1    3    3    0    0 -0.53559678966E+02 -0.75853143548E+02  0.18223003805E+02  0.94627778505E+02  0.00000000000E+00 0. -1.
         22    1    3    3    0    0  0.80588792134E+01 -0.50612024695E+02  0.13523381237E+03  0.14461917779E+03  0.00000000000E+00 0. -1.
</event>
<event>
 7    1  0.7457412E-006  0.4497241E+02  0.7818608E-02  0.1532287E+00
          2   -1    0    0  502    0  0.00000000000E+00  0.00000000000E+00  0.18101443796E+04  0.18101443796E+04  0.00000000000E+00 0. -1.
          1   -1    0    0  501    0 -0.00000000000E+00 -0.00000000000E+00 -0.18820168315E+03  0.18820168315E+03  0.00000000000E+00 0. -1.
         25    2    1    2    0    0 -0.46860941509E+02 -0.37135490007E+02  0.51723771355E+02  0.14790170890E+03  0.12499829805E+03 0.  0.
          2    1    1    2  501    0  0.24727817807E+01  0.30187543162E+02 -0.13817701552E+03  0.14145773231E+03  0.00000000000E+00 0. -1.
          1    1    1    2  502    0  0.44388159728E+02  0.69479468454E+01  0.17083959406E+04  0.17089866215E+04  0.00000000000E+00 0. -1.
         22    1    3    3    0    0 -0.73262281558E+02  0.19716229032E+02  0.27409253617E+02  0.80668201728E+02  0.00000000000E+00 0. -1.
         22    1    3    3    0    0  0.26401340049E+02 -0.56851719039E+02  0.24314517738E+02  0.67233507174E+02  0.00000000000E+00 0. -1.
</event>
<event>
 7    1  0.7457412E-006  0.3488092E+03  0.7818608E-02  0.1160319E+00
          2   -1    0    0  502    0  0.00000000000E+00  0.00000000000E+00  0.18685302171E+04  0.18685302171E+04  0.00000000000E+00 0. -1.
          1   -1    0    0  501    0 -0.00000000000E+00 -0.00000000000E+00 -0.13484820589E+04  0.13484820589E+04  0.00000000000E+00 0. -1.
         25    2    1    2    0    0  0.26146145874E+03 -0.10267304886E+03  0.12647617689E+04  0.13015961400E+04  0.12500532065E+03 0.  0.
          2    1    1    2  501    0 -0.34683939435E+03  0.48193501340E+02 -0.13023766970E+04  0.13486308761E+04  0.00000000000E+00 0. -1.
          1    1    1    2  502    0  0.85377935612E+02  0.54479547517E+02  0.55766308632E+03  0.56678525989E+03  0.00000000000E+00 0. -1.
         22    1    3    3    0    0  0.12969647230E+03 -0.21033991658E+02  0.35111612955E+03  0.37489483880E+03  0.00000000000E+00 0.  1.
         22    1    3    3    0    0  0.13176498644E+03 -0.81639057199E+02  0.91364563935E+03  0.92670130118E+03  0.00000000000E+00 0.  1.
</event>
<event>
 7    1  0.7457412E-006  0.9235642E+02  0.7818608E-02  0.1375951E+00
          2   -1    0    0  502    0  0.00000000000E+00  0.00000000000E+00  0.13595286986E+04  0.13595286986E+04  0.00000000000E+00 0. -1.
          1   -1    0    0  501    0 -0.00000000000E+00 -0.00000000000E+00 -0.17098184675E+03  0.17098184675E+03  0.00000000000E+00 0. -1.
         25    2    1    2    0    0 -0.20682614809E+02 -0.10676371355E+03  0.20910261958E+03  0.26678632651E+03  0.12499910963E+03 0.  0.
          2    1    1    2  501    0  0.54047931746E+02  0.74360555645E+02 -0.12673675286E+03  0.15656588290E+03  0.00000000000E+00 0. -1.
          1    1    1    2  502    0 -0.33365316937E+02  0.32403157900E+02  0.11061809851E+04  0.11071583360E+04  0.00000000000E+00 0. -1.
         22    1    3    3    0    0  0.39829104472E+02 -0.50848725210E+02  0.15579738523E+03  0.16865579048E+03  0.00000000000E+00 0. -1.
         22    1    3    3    0    0 -0.60511719280E+02 -0.55914988335E+02  0.53305234356E+02  0.98130536025E+02  0.00000000000E+00 0. -1.
</event>
<event>
 7    1  0.7457412E-006  0.1513945E+03  0.7818608E-02  0.1315897E+00
          2   -1    0    0  502    0  0.00000000000E+00  0.00000000000E+00  0.16756592044E+04  0.16756592044E+04  0.00000000000E+00 0. -1.
          1   -1    0    0  501    0 -0.00000000000E+00 -0.00000000000E+00 -0.14029157245E+03  0.14029157245E+03  0.00000000000E+00 0. -1.
         25    2    1    2    0    0  0.54761632262E+02  0.16594482292E+03  0.86010819206E+02  0.23142794368E+03  0.12499804588E+03 0.  0.
          2    1    1    2  501    0 -0.72318395885E+02 -0.12178276832E+03  0.74495489295E+01  0.14183260846E+03  0.00000000000E+00 0. -1.
          1    1    1    2  502    0  0.17556763623E+02 -0.44162054602E+02  0.14419072638E+04  0.14426902247E+04  0.00000000000E+00 0. -1.
         22    1    3    3    0    0  0.68672929860E+02  0.12280011083E+03  0.11140948134E+03  0.17946562636E+03  0.00000000000E+00 0. -1.
         22    1    3    3    0    0 -0.13911297597E+02  0.43144712096E+02 -0.25398662133E+02  0.51962317316E+02  0.00000000000E+00 0. -1.
</event>
<event>
 7    1  0.7457412E-006  0.7998839E+02  0.7818608E-02  0.1373364E+00
          2   -1    0    0  502    0  0.00000000000E+00  0.00000000000E+00  0.16022924067E+04  0.16022924067E+04  0.00000000000E+00 0. -1.
          1   -1    0    0  501    0 -0.00000000000E+00 -0.00000000000E+00 -0.23523614915E+03  0.23523614915E+03  0.00000000000E+00 0. -1.
         25    2    1    2    0    0  0.40056409756E+02 -0.25736748661E+02  0.63365649940E+03  0.64762104473E+03  0.12500224858E+03 0.  0.
          2    1    1    2  501    0  0.51444870015E+02  0.19042098117E+02 -0.22273016105E+03  0.22938592109E+03  0.00000000000E+00 0. -1.
          1    1    1    2  502    0 -0.91501279771E+02  0.66946505442E+01  0.95612991920E+03  0.96052159004E+03  0.00000000000E+00 0. -1.
         22    1    3    3    0    0  0.77606475475E+02 -0.36266856065E+02  0.52986307754E+03  0.53674289080E+03  0.00000000000E+00 0. -1.
         22    1    3    3    0    0 -0.37550065719E+02  0.10530107403E+02  0.10379342186E+03  0.11087815393E+03  0.00000000000E+00 0. -1.
</event>
<event>
 7    1  0.1320095E-005  0.1141988E+03  0.7818608E-02  0.1292740E+00
          2   -1    0    0  502    0  0.00000000000E+00  0.00000000000E+00  0.88490194607E+03  0.88490194607E+03  0.00000000000E+00 0. -1.
          1   -1    0    0  501    0 -0.00000000000E+00 -0.00000000000E+00 -0.15884616865E+04  0.15884616865E+04  0.00000000000E+00 0. -1.
         25    2    1    2    0    0 -0.14648125694E+02 -0.37577277083E+02 -0.30983154919E+03  0.33652176320E+03  0.12499875558E+03 0.  0.
          2    1    1    2  501    0 -0.58924142965E+02 -0.50929568902E+02 -0.12602780273E+04  0.12626822965E+04  0.00000000000E+00 0. -1.
          1    1    1    2  502    0  0.73572268659E+02  0.88506845985E+02  0.86654983609E+03  0.87415957292E+03  0.00000000000E+00 0. -1.
         22    1    3    3    0    0 -0.16103262064E+02  0.31998573683E+02 -0.21995263493E+03  0.22285058981E+03  0.00000000000E+00 0. -1.
         22    1    3    3    0    0  0.14551363697E+01 -0.69575850766E+02 -0.89878914260E+02  0.11367117339E+03  0.00000000000E+00 0. -1.
</event>
<event>
 7    1  0.7457412E-006  0.3165250E+02  0.7818608E-02  0.1626284E+00
          2   -1    0    0  502    0  0.00000000000E+00  0.00000000000E+00  0.40269545221E+02  0.40269545221E+02  0.00000000000E+00 0. -1.
          1   -1    0    0  501    0 -0.00000000000E+00 -0.00000000000E+00 -0.97376712138E+03  0.97376712138E+03  0.00000000000E+00 0. -1.
         25    2    1    2    0    0 -0.42023768994E+02 -0.16179377769E+02 -0.12584941763E+03  0.18299218314E+03  0.12498117356E+03 0.  0.
          2    1    1    2  501    0  0.31131387505E+02 -0.52740963843E+01 -0.80633018091E+03  0.80694816440E+03  0.00000000000E+00 0. -1.
          1    1    1    2  502    0  0.10892381489E+02  0.21453474153E+02 -0.13179776211E+01  0.24096319071E+02  0.00000000000E+00 0. -1.
         22    1    3    3    0    0  0.33374581217E+02 -0.30916506953E+02 -0.83949056326E+02  0.95483700869E+02  0.00000000000E+00 0. -1.
         22    1    3    3    0    0 -0.75398350211E+02  0.14737129184E+02 -0.41900361309E+02  0.87508482269E+02  0.00000000000E+00 0. -1.
</event>
<event>
 7    1  0.7457412E-006  0.1016476E+03  0.7818608E-02  0.1340577E+00
          2   -1    0    0  502    0  0.00000000000E+00  0.00000000000E+00  0.17377119693E+04  0.17377119693E+04  0.00000000000E+00 0. -1.
          1   -1    0    0  501    0 -0.00000000000E+00 -0.00000000000E+00 -0.62296198069E+03  0.62296198069E+03  0.00000000000E+00 0. -1.
         25    2    1    2    0    0 -0.92489742201E+02  0.10640080633E+03  0.51913627560E+01  0.18847230671E+03  0.12497750258E+03 0.  0.
          2    1    1    2  501    0  0.37171443745E+02 -0.92930849180E+02 -0.52610816005E+03  0.53554426057E+03  0.00000000000E+00 0. -1.
          1    1    1    2  502    0  0.55318298456E+02 -0.13469957146E+02  0.16356667859E+04  0.16366573827E+04  0.00000000000E+00 0. -1.
         22    1    3    3    0    0 -0.58583217476E+02  0.83156079676E+02 -0.54957835289E+02  0.11561699969E+03  0.00000000000E+00 0. -1.
         22    1    3    3    0    0 -0.33906524725E+02  0.23244726650E+02  0.60149198045E+02  0.72855307023E+02  0.00000000000E+00 0. -1.
</event>
<event>
 7    1  0.7457412E-006  0.6986958E+02  0.7818608E-02  0.1399300E+00
          2   -1    0    0  502    0  0.00000000000E+00  0.00000000000E+00  0.28311559618E+04  0.28311559618E+04  0.00000000000E+00 0. -1.
          1   -1    0    0  501    0 -0.00000000000E+00 -0.00000000000E+00 -0.18070032526E+02  0.18070032526E+02  0.00000000000E+00 0. -1.
         25    2    1    2    0    0 -0.82693223104E+02  0.98205807700E+01  0.13634284012E+04  0.13716765155E+04  0.12499938059E+03 0.  0.
          2    1    1    2  501    0  0.50103369256E+02 -0.48955438991E+02  0.77574767642E+02  0.10452189815E+03  0.00000000000E+00 0. -1.
          1    1    1    2  502    0  0.32589853847E+02  0.39134858221E+02  0.13720827605E+04  0.13730275807E+04  0.00000000000E+00 0. -1.
         22    1    3    3    0    0 -0.29764201529E+02 -0.51131366444E+02  0.83768533715E+03  0.83977202168E+03  0.00000000000E+00 0. -1.
         22    1    3    3    0    0 -0.52929021575E+02  0.60951947214E+02  0.52574306404E+03  0.53190449386E+03  0.00000000000E+00 0. -1.
</event>
<event>
 7    1  0.7457412E-006  0.1499313E+03  0.7818608E-02  0.1209031E+00
          2   -1    0    0  502    0  0.00000000000E+00  0.00000000000E+00  0.45205726609E+03  0.45205726609E+03  0.00000000000E+00 0. -1.
          1   -1    0    0  501    0 -0.00000000000E+00 -0.00000000000E+00 -0.11699214557E+04  0.11699214557E+04  0.00000000000E+00 0. -1.
         25    2    1    2    0    0 -0.16388997618E+01 -0.27422865412E+03 -0.54628537564E+02  0.30628946227E+03  0.12499966738E+03 0.  0.
          2    1    1    2  501    0  0.33130248334E+02  0.14104786021E+03 -0.96948570900E+03  0.98025234108E+03  0.00000000000E+00 0. -1.
          1    1    1    2  502    0 -0.31491348572E+02  0.13318079391E+03  0.30625005693E+03  0.33543691847E+03  0.00000000000E+00 0. -1.
         22    1    3    3    0    0  0.47695130421E+02 -0.12047506232E+03 -0.64053051108E+02  0.14454016557E+03  0.00000000000E+00 0. -1.
         22    1    3    3    0    0 -0.49334030183E+02 -0.15375359180E+03  0.94245135440E+01  0.16174929670E+03  0.00000000000E+00 0. -1.
</event>
<event>
 7    1  0.7457412E-006  0.6938160E+02  0.7818608E-02  0.1428072E+00
          2   -1    0    0  502    0  0.00000000000E+00  0.00000000000E+00  0.11620749561E+04  0.11620749561E+04  0.00000000000E+00 0. -1.
          1   -1    0    0  501    0 -0.00000000000E+00 -0.00000000000E+00 -0.39110918280E+02  0.39110918280E+02  0.00000000000E+00 0. -1.
         25    2    1    2    0    0 -0.43523566396E+02 -0.97832948040E+02  0.38690436858E+03  0.42045865567E+03  0.12499961661E+03 0.  0.
          2    1    1    2  501    0  0.16223435134E+02  0.37676615161E+02 -0.68496980674E+00  0.41026776148E+02  0.00000000000E+00 0. -1.
          1    1    1    2  502    0  0.27300131262E+02  0.60156332880E+02  0.73674463908E+03  0.73970044259E+03  0.00000000000E+00 0. -1.
         22    1    3    3    0    0 -0.70873715660E+02 -0.68538465286E+02  0.14554931646E+03  0.17579877223E+03  0.00000000000E+00 0. -1.
         22    1    3    3    0    0  0.27350149264E+02 -0.29294482755E+02  0.24135505212E+03  0.24465988345E+03  0.00000000000E+00 0. -1.
</event>
<event>
 7    1  0.7457412E-006  0.1367780E+03  0.7818608E-02  0.1417185E+00
          2   -1    0    0  502    0  0.00000000000E+00  0.00000000000E+00  0.29161961304E+03  0.29161961304E+03  0.00000000000E+00 0. -1.
          1   -1    0    0  501    0 -0.00000000000E+00 -0.00000000000E+00 -0.30113013408E+03  0.30113013408E+03  0.00000000000E+00 0. -1.
         25    2    1    2    0    0  0.52023855556E+02 -0.11213948945E+03  0.71868598616E+02  0.18991176457E+03  0.12497854301E+03 0.  0.
          2    1    1    2  501    0 -0.73975877254E+02  0.11758938346E+03 -0.22119585028E+03  0.26120355607E+03  0.00000000000E+00 0. -1.
          1    1    1    2  502    0  0.21952021697E+02 -0.54498940152E+01  0.13981673063E+03  0.14163442648E+03  0.00000000000E+00 0. -1.
         22    1    3    3    0    0  0.40771128562E+02 -0.12645425452E+03  0.19274802311E+02  0.13425528450E+03  0.00000000000E+00 0.  1.
         22    1    3    3    0    0  0.11252726994E+02  0.14314765075E+02  0.52593796305E+02  0.55656480069E+02  0.00000000000E+00 0.  1.
</event>
<event>
 7    1  0.7457412E-006  0.2229556E+03  0.7818608E-02  0.1264519E+00
          2   -1    0    0  502    0  0.00000000000E+00  0.00000000000E+00  0.74073638846E+03  0.74073638846E+03  0.00000000000E+00 0. -1.
          1   -1    0    0  501    0 -0.00000000000E+00 -0.00000000000E+00 -0.25202592831E+03  0.25202592831E+03  0.00000000000E+00 0. -1.
         25    2    1    2    0    0  0.22125912766E+03  0.66666551444E+01 -0.21639495032E+01  0.25422136472E+03  0.12499509486E+03 0.  0.
          2    1    1    2  501    0 -0.22241414790E+03  0.45533861916E+02 -0.17305355770E+02  0.22768588254E+03  0.00000000000E+00 0. -1.
          1    1    1    2  502    0  0.11550202477E+01 -0.52200517060E+02  0.50817976543E+03  0.51085506951E+03  0.00000000000E+00 0. -1.
         22    1    3    3    0    0  0.16441240887E+03 -0.10474470068E+02  0.53115827766E+02  0.17309663739E+03  0.00000000000E+00 0. -1.
         22    1    3    3    0    0  0.56846718782E+02  0.17141125213E+02 -0.55279777270E+02  0.81124727333E+02  0.00000000000E+00 0. -1.
</event>
<event>
 7    1  0.7457412E-006  0.1236269E+03  0.7818608E-02  0.1390691E+00
          2   -1    0    0  502    0  0.00000000000E+00  0.00000000000E+00  0.18632335216E+04  0.18632335216E+04  0.00000000000E+00 0. -1.
          1   -1    0    0  501    0 -0.00000000000E+00 -0.00000000000E+00 -0.89100680250E+03  0.89100680250E+03  0.00000000000E+00 0. -1.
         25    2    1    2    0    0 -0.10047135076E+03  0.11373186656E+03 -0.71441632782E+02  0.20918467669E+03  0.12499956910E+03 0.  0.
          2    1    1    2  501    0  0.84812577383E+02 -0.87176408798E+02 -0.74563358811E+03  0.75548815163E+03  0.00000000000E+00 0. -1.
          1    1    1    2  502    0  0.15658773377E+02 -0.26555457758E+02  0.17893019400E+04  0.17895674958E+04  0.00000000000E+00 0. -1.
         22    1    3    3    0    0 -0.75867001027E+02  0.13441946051E+03 -0.82717341707E+02  0.17511867926E+03  0.00000000000E+00 0. -1.
         22    1    3    3    0    0 -0.24604349733E+02 -0.20687593951E+02  0.11275708924E+02  0.34065997431E+02  0.00000000000E+00 0. -1.
</event>
<event>
 7    1  0.7457412E-006  0.5486747E+02  0.7818608E-02  0.1544578E+00
          2   -1    0    0  502    0  0.00000000000E+00  0.00000000000E+00  0.25252465696E+04  0.25252465696E+04  0.00000000000E+00 0. -1.
          1   -1    0    0  501    0 -0.00000000000E+00 -0.00000000000E+00 -0.20390395759E+02  0.20390395759E+02  0.00000000000E+00 0. -1.
         25    2    1    2    0    0  0.14390047095E+01  0.65845911670E+02  0.43618063584E+03  0.45849296930E+03  0.12499800398E+03 0.  0.
          2    1    1    2  501    0 -0.18239793681E+02 -0.13868643341E+02  0.59208210858E+01  0.23666124819E+02  0.00000000000E+00 0. -1.
          1    1    1    2  502    0  0.16800788971E+02 -0.51977268329E+02  0.20627547169E+04  0.20634778713E+04  0.00000000000E+00 0. -1.
         22    1    3    3    0    0 -0.35606051118E+02  0.84992977083E+02  0.36042301280E+03  0.37201659262E+03  0.00000000000E+00 0. -1.
         22    1    3    3    0    0  0.37045055827E+02 -0.19147065412E+02  0.75757623043E+02  0.86476376683E+02  0.00000000000E+00 0. -1.
</event>
<event>
 7    1  0.7457412E-006  0.1016240E+03  0.7818608E-02  0.1310897E+00
          2   -1    0    0  502    0  0.00000000000E+00  0.00000000000E+00  0.24875955227E+04  0.24875955227E+04  0.00000000000E+00 0. -1.
          1   -1    0    0  501    0 -0.00000000000E+00 -0.00000000000E+00 -0.40214216400E+03  0.40214216400E+03  0.00000000000E+00 0. -1.
         25    2    1    2    0    0  0.16143390482E+03  0.45506248916E+02  0.66479430477E+02  0.21949261138E+03  0.12500306979E+03 0.  0.
          2    1    1    2  501    0 -0.87367280776E+02 -0.45159516171E+02 -0.31760954450E+03  0.33248796431E+03  0.00000000000E+00 0. -1.
          1    1    1    2  502    0 -0.74066624045E+02 -0.34673274554E+00  0.23365834728E+04  0.23377571110E+04  0.00000000000E+00 0. -1.
         22    1    3    3    0    0  0.15255662998E+03  0.74691515073E+02  0.30937110844E+02  0.17265414157E+03  0.00000000000E+00 0.  1.
         22    1    3    3    0    0  0.88772748453E+01 -0.29185266157E+02  0.35542319633E+02  0.46838469811E+02  0.00000000000E+00 0.  1.
</event>
<event>
 7    1  0.7457412E-006  0.4795135E+02  0.7818608E-02  0.1481544E+00
          2   -1    0    0  502    0  0.00000000000E+00  0.00000000000E+00  0.14132502525E+04  0.14132502525E+04  0.00000000000E+00 0. -1.
          1   -1    0    0  501    0 -0.00000000000E+00 -0.00000000000E+00 -0.23214918475E+02  0.23214918475E+02  0.00000000000E+00 0. -1.
         25    2    1    2    0    0  0.16959125601E+02  0.26032011023E+01  0.41669264992E+03  0.43537618735E+03  0.12500108566E+03 0.  0.
          2    1    1    2  501    0  0.23950574335E+02 -0.32198976496E+02  0.17277090714E+02  0.43690982615E+02  0.00000000000E+00 0. -1.
          1    1    1    2  502    0 -0.40909699937E+02  0.29595775394E+02  0.95606559336E+03  0.95739800098E+03  0.00000000000E+00 0. -1.
         22    1    3    3    0    0 -0.16508374380E+02  0.16433320575E+01 -0.73664158678E+00  0.16606312227E+02  0.00000000000E+00 0.  1.
         22    1    3    3    0    0  0.33467499982E+02  0.95986904477E+00  0.41742929150E+03  0.41876987512E+03  0.00000000000E+00 0.  1.
</event>
<event>
 7    1  0.7457412E-006  0.9204610E+02  0.7818608E-02  0.1306819E+00
          2   -1    0    0  502    0  0.00000000000E+00  0.00000000000E+00  0.87295426523E+03  0.87295426523E+03  0.00000000000E+00 0. -1.
          1   -1    0    0  501    0 -0.00000000000E+00 -0.00000000000E+00 -0.46923134637E+03  0.46923134637E+03  0.00000000000E+00 0. -1.
         25    2    1    2    0    0 -0.53991228410E+02 -0.39902375690E+02  0.44514696612E+02  0.14870405569E+03  0.12499634247E+03 0.  0.
          2    1    1    2  501    0 -0.33339854861E+02  0.78039315251E+02 -0.40984909017E+03  0.41854265895E+03  0.00000000000E+00 0. -1.
          1    1    1    2  502    0  0.87331083271E+02 -0.38136939561E+02  0.76905731241E+03  0.77493889697E+03  0.00000000000E+00 0. -1.
         22    1    3    3    0    0 -0.25088706680E+02 -0.67372341881E+02  0.70835184937E+02  0.10092620610E+03  0.00000000000E+00 0. -1.
         22    1    3    3    0    0 -0.28902521730E+02  0.27469966191E+02 -0.26320488325E+02  0.47777849581E+02  0.00000000000E+00 0. -1.
</event>
<event>
 7    1  0.7457412E-006  0.2929079E+03  0.7818608E-02  0.1276992E+00
          2   -1    0    0  502    0  0.00000000000E+00  0.00000000000E+00  0.24931590033E+04  0.24931590033E+04  0.00000000000E+00 0. -1.
          1   -1    0    0  501    0 -0.00000000000E+00 -0.00000000000E+00 -0.46821537110E+03  0.46821537110E+03  0.00000000000E+00 0. -1.
         25    2    1    2    0    0  0.25088055613E+03 -0.78215701970E+02  0.27233810698E+03  0.39856152874E+03  0.12499799277E+03 0.  0.
          2    1    1    2  501    0 -0.28548017489E+03  0.84866904536E+02 -0.35019624507E+03  0.45971592511E+03  0.00000000000E+00 0. -1.
          1    1    1    2  502    0  0.34599618760E+02 -0.66512025659E+01  0.21028017703E+04  0.21030969206E+04  0.00000000000E+00 0. -1.
         22    1    3    3    0    0  0.21956062143E+03 -0.97382545796E+02  0.27057131875E+03  0.36179975848E+03  0.00000000000E+00 0.  1.
         22    1    3    3    0    0  0.31319934693E+02  0.19166843826E+02  0.17667882342E+01  0.36761770253E+02  0.00000000000E+00 0.  1.
</event>
<event>
 7    1  0.7457412E-006  0.6713070E+02  0.7818608E-02  0.1481237E+00
          2   -1    0    0  502    0  0.00000000000E+00  0.00000000000E+00  0.55238561598E+02  0.55238561598E+02  0.00000000000E+00 0. -1.
          1   -1    0    0  501    0 -0.00000000000E+00 -0.00000000000E+00 -0.77421480521E+03  0.77421480521E+03  0.00000000000E+00 0. -1.
         25    2    1    2    0    0 -0.42913804342E+02  0.15811214602E+02 -0.18379128335E+03  0.22691722364E+03  0.12498240451E+03 0.  0.
          2    1    1    2  501    0 -0.27853125343E+02 -0.70303375754E+01 -0.53028053637E+03  0.53105806603E+03  0.00000000000E+00 0. -1.
          1    1    1    2  502    0  0.70766929685E+02 -0.87808770268E+01 -0.49044238898E+01  0.71478077143E+02  0.00000000000E+00 0. -1.
         22    1    3    3    0    0  0.30708455648E+02  0.30336980254E+02 -0.21734636861E+02  0.48329453325E+02  0.00000000000E+00 0.  1.
         22    1    3    3    0    0 -0.73622259990E+02 -0.14525765651E+02 -0.16205664649E+03  0.17858777031E+03  0.00000000000E+00 0.  1.
</event>
<event>
 7    1  0.7457412E-006  0.1352912E+03  0.7818608E-02  0.1269011E+00
          2   -1    0    0  502    0  0.00000000000E+00  0.00000000000E+00  0.26869868794E+04  0.26869868794E+04  0.00000000000E+00 0. -1.
          1   -1    0    0  501    0 -0.00000000000E+00 -0.00000000000E+00 -0.17788294835E+03  0.17788294835E+03  0.00000000000E+00 0. -1.
         25    2    1    2    0    0  0.68142007350E+02 -0.27580387458E+02  0.36538459059E+03  0.39310985810E+03  0.12500180220E+03 0.  0.
          2    1    1    2  501    0  0.78316409306E+02  0.25521380968E+02 -0.15119479609E+03  0.17217626787E+03  0.00000000000E+00 0. -1.
          1    1    1    2  502    0 -0.14645841666E+03  0.20590064900E+01  0.22949141365E+04  0.22995837018E+04  0.00000000000E+00 0. -1.
         22    1    3    3    0    0 -0.27700947546E+02  0.57629475065E+01  0.17592033762E+03  0.17818114168E+03  0.00000000000E+00 0. -1.
         22    1    3    3    0    0  0.95842954897E+02 -0.33343334965E+02  0.18946425297E+03  0.21492871642E+03  0.00000000000E+00 0. -1.
</event>
<event>
 7    1  0.7457412E-006  0.6661405E+02  0.7818608E-02  0.1428328E+00
          2   -1    0    0  502    0  0.00000000000E+00  0.00000000000E+00  0.72739446683E+03  0.72739446683E+03  0.00000000000E+00 0. -1.
          1   -1    0    0  501    0 -0.00000000000E+00 -0.00000000000E+00 -0.14545701743E+03  0.14545701743E+03  0.00000000000E+00 0. -1.
         25    2    1    2    0    0 -0.10066228882E+03 -0.35864424367E+02  0.47052048304E+03  0.49842717719E+03  0.12498388969E+03 0.  0.
          2    1    1    2  501    0  0.64628845055E+02  0.13061587034E+02 -0.12117675647E+03  0.13795397413E+03  0.00000000000E+00 0. -1.
          1    1    1    2  502    0  0.36033443763E+02  0.22802837333E+02  0.23259372284E+03  0.23647033294E+03  0.00000000000E+00 0. -1.
         22    1    3    3    0    0 -0.12362698794E+03 -0.35011984227E+01  0.33013523079E+03  0.35254100633E+03  0.00000000000E+00 0. -1.
         22    1    3    3    0    0  0.22964699125E+02 -0.32363225945E+02  0.14038525225E+03  0.14588617086E+03  0.00000000000E+00 0. -1.
</event>
<event>
 7    1  0.7457412E-006  0.4108154E+02  0.7818608E-02  0.1595632E+00
          2   -1    0    0  502    0  0.00000000000E+00  0.00000000000E+00  0.10725588596E+04  0.10725588596E+04  0.00000000000E+00 0. -1.
          1   -1    0    0  501    0 -0.00000000000E+00 -0.00000000000E+00 -0.60293496280E+02  0.60293496280E+02  0.00000000000E+00 0. -1.
         25    2    1    2    0    0  0.97961912946E+01  0.27237537746E+02  0.53855626849E+02  0.13915381397E+03  0.12500202628E+03 0.  0.
          2    1    1    2  501    0 -0.17885381820E+02  0.13210503243E+02 -0.10021498305E+02  0.24389233425E+02  0.00000000000E+00 0. -1.
          1    1    1    2  502    0  0.80891905250E+01 -0.40448040989E+02  0.96843123477E+03  0.96930930848E+03  0.00000000000E+00 0. -1.
         22    1    3    3    0    0 -0.85717461519E+01  0.75387236506E+02  0.40087573504E+02  0.85812142553E+02  0.00000000000E+00 0.  1.
         22    1    3    3    0    0  0.18367937446E+02 -0.48149698760E+02  0.13768053345E+02  0.53341671418E+02  0.00000000000E+00 0.  1.
</event>
<event>
 7    1  0.7457412E-006  0.5455694E+02  0.7818608E-02  0.1468182E+00
          2   -1    0    0  502    0  0.00000000000E+00  0.00000000000E+00  0.46869097946E+03  0.46869097946E+03  0.00000000000E+00 0. -1.
          1   -1    0    0  501    0 -0.00000000000E+00 -0.00000000000E+00 -0.15224427977E+04  0.15224427977E+04  0.00000000000E+00 0. -1.
         25    2    1    2    0    0 -0.20787612399E+02  0.48385503446E+02 -0.67445388288E+03  0.68795847813E+03  0.12500218285E+03 0.  0.
          2    1    1    2  501    0  0.51065182499E+02 -0.24140685837E+02 -0.83947163036E+03  0.84136974259E+03  0.00000000000E+00 0. -1.
          1    1    1    2  502    0 -0.30277570100E+02 -0.24244817609E+02  0.46017369498E+03  0.46180555646E+03  0.00000000000E+00 0. -1.
         22    1    3    3    0    0 -0.87934793843E+01 -0.37059852396E+02 -0.99042447656E+02  0.10611392169E+03  0.00000000000E+00 0. -1.
         22    1    3    3    0    0 -0.11994133015E+02  0.85445355842E+02 -0.57541143523E+03  0.58184455643E+03  0.00000000000E+00 0. -1.
</event>
<event>
 7    1  0.7457412E-006  0.2019714E+03  0.7818608E-02  0.1296386E+00
          2   -1    0    0  502    0  0.00000000000E+00  0.00000000000E+00  0.97733339470E+03  0.97733339470E+03  0.00000000000E+00 0. -1.
          1   -1    0    0  501    0 -0.00000000000E+00 -0.00000000000E+00 -0.96194767928E+02  0.96194767928E+02  0.00000000000E+00 0. -1.
         25    2    1    2    0    0 -0.19422197593E+03  0.58097531332E+02  0.37928958445E+03  0.44786883739E+03  0.12501362946E+03 0.  0.
          2    1    1    2  501    0  0.20230771966E+03 -0.16303244646E+02  0.10875065006E+03  0.23026270455E+03  0.00000000000E+00 0. -1.
          1    1    1    2  502    0 -0.80857437278E+01 -0.41794286686E+02  0.39309839226E+03  0.39539662069E+03  0.00000000000E+00 0. -1.
         22    1    3    3    0    0 -0.53190714492E+02  0.67590379787E+02  0.21245853543E+03  0.22920807321E+03  0.00000000000E+00 0. -1.
         22    1    3    3    0    0 -0.14103126144E+03 -0.94928484552E+01  0.16683104902E+03  0.21866076418E+03  0.00000000000E+00 0. -1.
</event>
<event>
 7    1  0.7457412E-006  0.1032175E+03  0.7818608E-02  0.1394915E+00
          2   -1    0    0  502    0  0.00000000000E+00  0.00000000000E+00  0.16276613884E+04  0.16276613884E+04  0.00000000000E+00 0. -1.
          1   -1    0    0  501    0 -0.00000000000E+00 -0.00000000000E+00 -0.52080489355E+02  0.52080489355E+02  0.00000000000E+00 0. -1.
         25    2    1    2    0    0 -0.68068588306E+02 -0.22714336395E+02  0.80893013086E+03  0.82167038141E+03  0.12499994111E+03 0.  0.
          2    1    1    2  501    0  0.95059137895E+02  0.46076704521E+02  0.16318525033E+02  0.10689058264E+03  0.00000000000E+00 0. -1.
          1    1    1    2  502    0 -0.26990549589E+02 -0.23362368126E+02  0.75033224312E+03  0.75118091368E+03  0.00000000000E+00 0. -1.
         22    1    3    3    0    0 -0.10489841762E+01  0.46756322555E+02  0.30710341548E+03  0.31064410805E+03  0.00000000000E+00 0. -1.
         22    1    3    3    0    0 -0.67019604130E+02 -0.69470658950E+02  0.50182671538E+03  0.51102627336E+03  0.00000000000E+00 0. -1.
</event>
<event>
 7    1  0.7457412E-006  0.4761096E+02  0.7818608E-02  0.1508276E+00
          2   -1    0    0  502    0  0.00000000000E+00  0.00000000000E+00  0.11380282559E+03  0.11380282559E+03  0.00000000000E+00 0. -1.
          1   -1    0    0  501    0 -0.00000000000E+00 -0.00000000000E+00 -0.41328630478E+03  0.41328630478E+03  0.00000000000E+00 0. -1.
         25    2    1    2    0    0  0.45537531297E+02  0.11751426699E+01  0.15297887228E+02  0.13391362150E+03  0.12499513972E+03 0.  0.
          2    1    1    2  501    0 -0.34748738060E+02 -0.32986273515E+02 -0.34480784928E+03  0.34812070027E+03  0.00000000000E+00 0. -1.
          1    1    1    2  502    0 -0.10788793237E+02  0.31811130845E+02  0.30026482860E+02  0.45054808602E+02  0.00000000000E+00 0. -1.
         22    1    3    3    0    0  0.57374646148E+02  0.27618702735E+00 -0.44712591267E+02  0.72740237267E+02  0.00000000000E+00 0.  1.
         22    1    3    3    0    0 -0.11837114851E+02  0.89895564259E+00  0.60010478496E+02  0.61173384233E+02  0.00000000000E+00 0.  1.
</event>
<event>
 7    1  0.7457412E-006  0.5441023E+02  0.7818608E-02  0.1425872E+00
          2   -1    0    0  502    0  0.00000000000E+00  0.00000000000E+00  0.22159445766E+04  0.22159445766E+04  0.00000000000E+00 0. -1.
          1   -1    0    0  501    0 -0.00000000000E+00 -0.00000000000E+00 -0.30079917064E+02  0.30079917064E+02  0.00000000000E+00 0. -1.
         25    2    1    2    0    0  0.41951782167E+02  0.22255016505E+02  0.96365430851E+03  0.97288865475E+03  0.12500988138E+03 0.  0.
          2    1    1    2  501    0  0.57657767062E+01 -0.54103875621E+02  0.50719511722E+01  0.54646118133E+02  0.00000000000E+00 0. -1.
          1    1    1    2  502    0 -0.47717558873E+02  0.31848859117E+02  0.12171383999E+04  0.12184897208E+04  0.00000000000E+00 0. -1.
         22    1    3    3    0    0 -0.33588269683E+02  0.43722686543E+02  0.38319819435E+03  0.38714429006E+03  0.00000000000E+00 0.  1.
         22    1    3    3    0    0  0.75540051850E+02 -0.21467670038E+02  0.58045611417E+03  0.58574436469E+03  0.00000000000E+00 0.  1.
</event>
<event>
 7    1  0.7457412E-006  0.7245461E+02  0.7818608E-02  0.1499536E+00
          2   -1    0    0  502    0  0.00000000000E+00  0.00000000000E+00  0.58154302999E+02  0.58154302999E+02  0.00000000000E+00 0. -1.
          1   -1    0    0  501    0 -0.00000000000E+00 -0.00000000000E+00 -0.30254903278E+03  0.30254903278E+03  0.00000000000E+00 0. -1.
         25    2    1    2    0    0  0.68122765606E+02  0.23441513099E+02 -0.10791932462E+03  0.18017170804E+03  0.12500019208E+03 0.  0.
          2    1    1    2  501    0  0.66267951869E+01 -0.22475248277E+02  0.16334250424E+01  0.23488705306E+02  0.00000000000E+00 0. -1.
          1    1    1    2  502    0 -0.74749560793E+02 -0.96626482179E+00 -0.13810883020E+03  0.15704292243E+03  0.00000000000E+00 0. -1.
         22    1    3    3    0    0  0.81319432642E+02 -0.27470517476E+02 -0.90589626333E+02  0.12479567242E+03  0.00000000000E+00 0.  1.
         22    1    3    3    0    0 -0.13196667036E+02  0.50912030575E+02 -0.17329698288E+02  0.55376035619E+02  0.00000000000E+00 0.  1.
</event>
<event>
 7    1  0.7457412E-006  0.1190005E+03  0.7818608E-02  0.1270051E+00
          2   -1    0    0  502    0  0.00000000000E+00  0.00000000000E+00  0.15848780330E+04  0.15848780330E+04  0.00000000000E+00 0. -1.
          1   -1    0    0  501    0 -0.00000000000E+00 -0.00000000000E+00 -0.14719461712E+04  0.14719461712E+04  0.00000000000E+00 0. -1.
         25    2    1    2    0    0 -0.40491891115E+02  0.45402613939E+02  0.75062667873E+03  0.76339137272E+03  0.12499994611E+03 0.  0.
          2    1    1    2  501    0  0.11920307164E+03  0.35809291439E+01 -0.14605303331E+04  0.14653910909E+04  0.00000000000E+00 0. -1.
          1    1    1    2  502    0 -0.78711180524E+02 -0.48983543083E+02  0.82283551615E+03  0.82804174054E+03  0.00000000000E+00 0. -1.
         22    1    3    3    0    0  0.12735209766E+02  0.75512541003E+02  0.36510256147E+03  0.37304719515E+03  0.00000000000E+00 0.  1.
         22    1    3    3    0    0 -0.53227100881E+02 -0.30109927065E+02  0.38552411726E+03  0.39034417757E+03  0.00000000000E+00 0.  1.
</event>
<event>
 7    1  0.7457412E-006  0.6426678E+02  0.7818608E-02  0.1517791E+00
          2   -1    0    0  502    0  0.00000000000E+00  0.00000000000E+00  0.59984164514E+03  0.59984164514E+03  0.00000000000E+00 0. -1.
          1   -1    0    0  501    0 -0.00000000000E+00 -0.00000000000E+00 -0.58484426986E+03  0.58484426986E+03  0.00000000000E+00 0. -1.
         25    2    1    2    0    0 -0.77443590061E+02 -0.53552642448E+01 -0.10556587081E+03  0.18109608583E+03  0.12500180290E+03 0.  0.
          2    1    1    2  501    0  0.60067256952E+02  0.20933781132E+02 -0.43897764445E+03  0.44356247686E+03  0.00000000000E+00 0. -1.
          1    1    1    2  502    0  0.17376333108E+02 -0.15578516887E+02  0.55954089054E+03  0.56002735230E+03  0.00000000000E+00 0. -1.
         22    1    3    3    0    0  0.58621537973E+01 -0.20116244025E+02  0.20473365478E+02  0.29294825735E+02  0.00000000000E+00 0. -1.
         22    1    3    3    0    0 -0.83305743858E+02  0.14760979781E+02 -0.12603923629E+03  0.15180126010E+03  0.00000000000E+00 0. -1.
</event>
<event>
 7    1  0.7457412E-006  0.1795646E+03  0.7818608E-02  0.1208815E+00
          2   -1    0    0  502    0  0.00000000000E+00  0.00000000000E+00  0.13890649683E+04  0.13890649683E+04  0.00000000000E+00 0. -1.
          1   -1    0    0  501    0 -0.00000000000E+00 -0.00000000000E+00 -0.34939232397E+04  0.34939232397E+04  0.00000000000E+00 0. -1.
         25    2    1    2    0    0  0.12852243056E+03 -0.17127994006E+03 -0.74686285861E+02  0.25895475027E+03  0.12499875345E+03 0.  0.
          2    1    1    2  501    0 -0.16782064463E+03  0.63701206349E+02 -0.33221464248E+04  0.33269924076E+04  0.00000000000E+00 0. -1.
          1    1    1    2  502    0  0.39298214070E+02  0.10757873371E+03  0.12919744393E+04  0.12970410500E+04  0.00000000000E+00 0. -1.
         22    1    3    3    0    0 -0.22999833026E+02 -0.10742457771E+02  0.14920297397E+01  0.25428701716E+02  0.00000000000E+00 0.  1.
         22    1    3    3    0    0  0.15152226359E+03 -0.16053748229E+03 -0.76178315601E+02  0.23352604855E+03  0.00000000000E+00 0.  1.
</event>
<event>
 7    1  0.7457412E-006  0.5766028E+02  0.7818608E-02  0.1432991E+00
          2   -1    0    0  502    0  0.00000000000E+00  0.00000000000E+00  0.13218786157E+04  0.13218786157E+04  0.00000000000E+00 0. -1.
          1   -1    0    0  501    0 -0.00000000000E+00 -0.00000000000E+00 -0.29082092306E+02  0.29082092306E+02  0.00000000000E+00 0. -1.
         25    2    1    2    0    0  0.63842449541E+02  0.23249841104E+02  0.50379458815E+03  0.52349848767E+03  0.12500106428E+03 0.  0.
          2    1    1    2  501    0 -0.37724016584E+02  0.28954021808E+02  0.13043068608E+02  0.49310834964E+02  0.00000000000E+00 0. -1.
          1    1    1    2  502    0 -0.26118432958E+02 -0.52203862913E+02  0.77595886664E+03  0.77815138537E+03  0.00000000000E+00 0. -1.
         22    1    3    3    0    0  0.99098837343E+02  0.17285234671E+02  0.42843023684E+03  0.44008161372E+03  0.00000000000E+00 0. -1.
         22    1    3    3    0    0 -0.35256387801E+02  0.59646064338E+01  0.75364351306E+02  0.83416873943E+02  0.00000000000E+00 0. -1.
</event>
<event>
 7    1  0.7457412E-006  0.3589813E+02  0.7818608E-02  0.1570933E+00
          2   -1    0    0  502    0  0.00000000000E+00  0.00000000000E+00  0.67165326106E+03  0.67165326106E+03  0.00000000000E+00 0. -1.
          1   -1    0    0  501    0 -0.00000000000E+00 -0.00000000000E+00 -0.36686910008E+03  0.36686910008E+03  0.00000000000E+00 0. -1.
         25    2    1    2    0    0 -0.97508766505E+01 -0.15148400480E+02 -0.30598695665E+02  0.12995078686E+03  0.12500549266E+03 0.  0.
          2    1    1    2  501    0  0.23313785809E+02 -0.18268558951E+02 -0.28530427015E+03  0.28683758370E+03  0.00000000000E+00 0. -1.
          1    1    1    2  502    0 -0.13562909158E+02  0.33416959431E+02  0.62068712679E+03  0.62173399058E+03  0.00000000000E+00 0. -1.
         22    1    3    3    0    0 -0.14131250675E+02  0.37319206673E+02  0.29815872632E+02  0.49813669742E+02  0.00000000000E+00 0. -1.
         22    1    3    3    0    0  0.43803740243E+01 -0.52467607153E+02 -0.60414568297E+02  0.80137117115E+02  0.00000000000E+00 0. -1.
</event>
<event>
 7    1  0.7457412E-006  0.1457414E+03  0.7818608E-02  0.1355483E+00
          2   -1    0    0  502    0  0.00000000000E+00  0.00000000000E+00  0.47618271942E+03  0.47618271942E+03  0.00000000000E+00 0. -1.
          1   -1    0    0  501    0 -0.00000000000E+00 -0.00000000000E+00 -0.78634235179E+03  0.78634235179E+03  0.00000000000E+00 0. -1.
         25    2    1    2    0    0  0.73223088740E+02 -0.85589111255E+02 -0.26752706501E+03  0.31604234446E+03  0.12499966515E+03 0.  0.
          2    1    1    2  501    0  0.17274782009E+02 -0.30386476694E+02 -0.48193679236E+03  0.48320267785E+03  0.00000000000E+00 0. -1.
          1    1    1    2  502    0 -0.90497870749E+02  0.11597558795E+03  0.43930422499E+03  0.46328004890E+03  0.00000000000E+00 0. -1.
         22    1    3    3    0    0  0.96213795748E+02 -0.85459169993E+02 -0.26273414731E+03  0.29255699682E+03  0.00000000000E+00 0.  1.
         22    1    3    3    0    0 -0.22990707008E+02 -0.12994126167E+00 -0.47929176994E+01  0.23485347635E+02  0.00000000000E+00 0.  1.
</event>
<event>
 7    1  0.7457412E-006  0.4298173E+02  0.7818608E-02  0.1592674E+00
          2   -1    0    0  502    0  0.00000000000E+00  0.00000000000E+00  0.28175799266E+03  0.28175799266E+03  0.00000000000E+00 0. -1.
          1   -1    0    0  501    0 -0.00000000000E+00 -0.00000000000E+00 -0.17757893387E+03  0.17757893387E+03  0.00000000000E+00 0. -1.
         25    2    1    2    0    0  0.16147570565E+02  0.33396223781E+02 -0.81603760904E+02  0.15381741484E+03  0.12499828606E+03 0.  0.
          2    1    1    2  501    0  0.19597734110E+01 -0.45239821262E+02 -0.50740883347E+02  0.68008230255E+02  0.00000000000E+00 0. -1.
          1    1    1    2  502    0 -0.18107343976E+02  0.11843597481E+02  0.23652370304E+03  0.23751128143E+03  0.00000000000E+00 0. -1.
         22    1    3    3    0    0 -0.51716425965E+02  0.19499736088E+02 -0.59251699236E+02  0.81028342476E+02  0.00000000000E+00 0.  1.
         22    1    3    3    0    0  0.67863996530E+02  0.13896487692E+02 -0.22352061668E+02  0.72789072367E+02  0.00000000000E+00 0.  1.
</event>
<event>
 7    1  0.7457412E-006  0.9957568E+02  0.7818608E-02  0.1331492E+00
          2   -1    0    0  502    0  0.00000000000E+00  0.00000000000E+00  0.33648730821E+02  0.33648730821E+02  0.00000000000E+00 0. -1.
          1   -1    0    0  501    0 -0.00000000000E+00 -0.00000000000E+00 -0.15835652403E+04  0.15835652403E+04  0.00000000000E+00 0. -1.
         25    2    1    2    0    0  0.51082309988E+02 -0.23164633156E+02 -0.99129559293E+03  0.10007192423E+04  0.12500418680E+03 0.  0.
          2    1    1    2  501    0  0.53161057524E+02  0.33635175989E+02 -0.48350716129E+03  0.48758240136E+03  0.00000000000E+00 0. -1.
          1    1    1    2  502    0 -0.10424336751E+03 -0.10470542833E+02 -0.75113755216E+02  0.12891232742E+03  0.00000000000E+00 0. -1.
         22    1    3    3    0    0 -0.39085038041E+02 -0.77769201564E+01 -0.44883492003E+03  0.45060060599E+03  0.00000000000E+00 0.  1.
         22    1    3    3    0    0  0.90167348029E+02 -0.15387713000E+02 -0.54246067290E+03  0.55011863630E+03  0.00000000000E+00 0.  1.
</event>
<event>
 7    1  0.7457412E-006  0.5343000E+02  0.7818608E-02  0.1477459E+00
          2   -1    0    0  502    0  0.00000000000E+00  0.00000000000E+00  0.18105439241E+04  0.18105439241E+04  0.00000000000E+00 0. -1.
          1   -1    0    0  501    0 -0.00000000000E+00 -0.00000000000E+00 -0.10185182723E+04  0.10185182723E+04  0.00000000000E+00 0. -1.
         25    2    1    2    0    0 -0.34913676332E+02  0.17305063069E+02  0.92676965653E+03  0.93597270565E+03  0.12499791778E+03 0.  0.
          2    1    1    2  501    0 -0.21725834392E+02 -0.30036169500E+02 -0.10126189068E+04  0.10132972090E+04  0.00000000000E+00 0. -1.
          1    1    1    2  502    0  0.56639510724E+02  0.12731106432E+02  0.87787490213E+03  0.87979228175E+03  0.00000000000E+00 0. -1.
         22    1    3    3    0    0  0.45666835837E+02 -0.39961383651E+01  0.25952736328E+03  0.26354483738E+03  0.00000000000E+00 0.  1.
         22    1    3    3    0    0 -0.80580512169E+02  0.21301201434E+02  0.66724229325E+03  0.67242786827E+03  0.00000000000E+00 0.  1.
</event>
<event>
 7    1  0.7457412E-006  0.5659636E+02  0.7818608E-02  0.1470441E+00
          2   -1    0    0  502    0  0.00000000000E+00  0.00000000000E+00  0.18294914003E+04  0.18294914003E+04  0.00000000000E+00 0. -1.
          1   -1    0    0  501    0 -0.00000000000E+00 -0.00000000000E+00 -0.65064333526E+03  0.65064333526E+03  0.00000000000E+00 0. -1.
         25    2    1    2    0    0 -0.26581201524E+02 -0.17754725788E+02 -0.12391903029E+01  0.12903027830E+03  0.12500194624E+03 0.  0.
          2    1    1    2  501    0  0.79545998792E+01 -0.35919703333E+02 -0.58447302831E+03  0.58562976492E+03  0.00000000000E+00 0. -1.
          1    1    1    2  502    0  0.18626601645E+02  0.53674429121E+02  0.17645602836E+04  0.17654746923E+04  0.00000000000E+00 0. -1.
         22    1    3    3    0    0 -0.22174440342E+02 -0.51566051262E+02 -0.46132284588E+02  0.72656390831E+02  0.00000000000E+00 0.  1.
         22    1    3    3    0    0 -0.44067611824E+01  0.33811325474E+02  0.44893094285E+02  0.56373887474E+02  0.00000000000E+00 0.  1.
</event>
<event>
 7    1  0.7457412E-006  0.1010992E+03  0.7818608E-02  0.1328557E+00
          2   -1    0    0  502    0  0.00000000000E+00  0.00000000000E+00  0.11926143641E+04  0.11926143641E+04  0.00000000000E+00 0. -1.
          1   -1    0    0  501    0 -0.00000000000E+00 -0.00000000000E+00 -0.28852518973E+03  0.28852518973E+03  0.00000000000E+00 0. -1.
         25    2    1    2    0    0  0.15953086296E+03  0.20060574323E+01 -0.13482033253E+03  0.24342798344E+03  0.12500616206E+03 0.  0.
          2    1    1    2  501    0 -0.60587395164E+02 -0.19279319977E+02 -0.86763812129E+02  0.10756618301E+03  0.00000000000E+00 0. -1.
          1    1    1    2  502    0 -0.98943467798E+02  0.17273262545E+02  0.11256733190E+04  0.11301453874E+04  0.00000000000E+00 0. -1.
         22    1    3    3    0    0  0.25443957760E+02  0.49783579846E+02 -0.62182973393E+02  0.83621301046E+02  0.00000000000E+00 0. -1.
         22    1    3    3    0    0  0.13408690520E+03 -0.47777522413E+02 -0.72637359141E+02  0.15980668239E+03  0.00000000000E+00 0. -1.
</event>
<event>
 7    1  0.7457412E-006  0.2112475E+03  0.7818608E-02  0.1258582E+00
          2   -1    0    0  502    0  0.00000000000E+00  0.00000000000E+00  0.13548170918E+04  0.13548170918E+04  0.00000000000E+00 0. -1.
          1   -1    0    0  501    0 -0.00000000000E+00 -0.00000000000E+00 -0.63713055981E+03  0.63713055981E+03  0.00000000000E+00 0. -1.
         25    2    1    2    0    0  0.16147047383E+03  0.33826225403E+02  0.62652890474E+02  0.21625815232E+03  0.12500110525E+03 0.  0.
          2    1    1    2  501    0  0.55295971365E+02 -0.18815113203E+02 -0.54905476005E+03  0.55215286150E+03  0.00000000000E+00 0. -1.
          1    1    1    2  502    0 -0.21676644520E+03 -0.15011112200E+02  0.12040884016E+04  0.12235366378E+04  0.00000000000E+00 0. -1.
         22    1    3    3    0    0  0.15361554292E+03  0.22042720333E+02  0.94295622466E+02  0.18159097159E+03  0.00000000000E+00 0. -1.
         22    1    3    3    0    0  0.78549309092E+01  0.11783505069E+02 -0.31642731993E+02  0.34667180723E+02  0.00000000000E+00 0. -1.
</event>
<event>
 7    1  0.7457412E-006  0.8573244E+02  0.7818608E-02  0.1401080E+00
          2   -1    0    0  502    0  0.00000000000E+00  0.00000000000E+00  0.11263575145E+04  0.11263575145E+04  0.00000000000E+00 0. -1.
          1   -1    0    0  501    0 -0.00000000000E+00 -0.00000000000E+00 -0.81450392073E+03  0.81450392073E+03  0.00000000000E+00 0. -1.
         25    2    1    2    0    0  0.94346829983E+02 -0.83369322996E+02 -0.39966867329E+03  0.43727830090E+03  0.12500198273E+03 0.  0.
          2    1    1    2  501    0 -0.34157757798E+02  0.22539161099E+02 -0.39331421534E+03  0.39543752754E+03  0.00000000000E+00 0. -1.
          1    1    1    2  502    0 -0.60189072186E+02  0.60830161897E+02  0.11048364824E+04  0.11081456068E+04  0.00000000000E+00 0. -1.
         22    1    3    3    0    0  0.75697168501E+02 -0.91969419990E+02 -0.17511185233E+03  0.21178431566E+03  0.00000000000E+00 0. -1.
         22    1    3    3    0    0  0.18649661483E+02  0.86000969936E+01 -0.22455682096E+03  0.22549398524E+03  0.00000000000E+00 0. -1.
</event>
<event>
 7    1  0.7457412E-006  0.5252494E+02  0.7818608E-02  0.1447889E+00
          2   -1    0    0  502    0  0.00000000000E+00  0.00000000000E+00  0.53821307777E+03  0.53821307777E+03  0.00000000000E+00 0. -1.
          1   -1    0    0  501    0 -0.00000000000E+00 -0.00000000000E+00 -0.54251929266E+03  0.54251929266E+03  0.00000000000E+00 0. -1.
         25    2    1    2    0    0  0.45530740185E+02  0.13143784302E+01  0.30230744391E+03  0.33028548407E+03  0.12499573776E+03 0.  0.
          2    1    1    2  501    0 -0.78422113548E+01 -0.46044307239E+02 -0.52361846848E+03  0.52569751668E+03  0.00000000000E+00 0. -1.
          1    1    1    2  502    0 -0.37688528831E+02  0.44729928809E+02  0.21700480970E+03  0.22474936967E+03  0.00000000000E+00 0. -1.
         22    1    3    3    0    0 -0.21519468194E+02  0.31393112981E+02  0.20414548232E+03  0.20766317200E+03  0.00000000000E+00 0. -1.
         22    1    3    3    0    0  0.67050208380E+02 -0.30078734551E+02  0.98161961586E+02  0.12262231207E+03  0.00000000000E+00 0. -1.
</event>
<event>
 7    1  0.7457412E-006  0.1342231E+03  0.7818608E-02  0.1368616E+00
          2   -1    0    0  502    0  0.00000000000E+00  0.00000000000E+00  0.24295583879E+04  0.24295583879E+04  0.00000000000E+00 0. -1.
          1   -1    0    0  501    0 -0.00000000000E+00 -0.00000000000E+00 -0.41460713372E+02  0.41460713372E+02  0.00000000000E+00 0. -1.
         25    2    1    2    0    0  0.10292151581E+03 -0.44825312359E+02  0.78028739397E+03  0.79816973173E+03  0.12499742565E+03 0.  0.
          2    1    1    2  501    0  0.18934247260E+02 -0.28238952070E+02 -0.19602976254E+02  0.39245647037E+02  0.00000000000E+00 0. -1.
          1    1    1    2  502    0 -0.12185576307E+03  0.73064264429E+02  0.16274132568E+04  0.16336037225E+04  0.00000000000E+00 0. -1.
         22    1    3    3    0    0  0.66972277352E+02 -0.55146823101E+02  0.21783336730E+03  0.23447352503E+03  0.00000000000E+00 0.  1.
         22    1    3    3    0    0  0.35949238457E+02  0.10321510742E+02  0.56245402667E+03  0.56369620670E+03  0.00000000000E+00 0.  1.
</event>
<event>
 7    1  0.7457412E-006  0.9901498E+02  0.7818608E-02  0.1346269E+00
          2   -1    0    0  502    0  0.00000000000E+00  0.00000000000E+00  0.36308305662E+04  0.36308305662E+04  0.00000000000E+00 0. -1.
          1   -1    0    0  501    0 -0.00000000000E+00 -0.00000000000E+00 -0.51415202601E+03  0.51415202601E+03  0.00000000000E+00 0. -1.
         25    2    1    2    0    0  0.97802628593E+02 -0.17212521661E+02  0.49662662937E+02  0.16718897004E+03  0.12499658616E+03 0.  0.
          2    1    1    2  501    0 -0.73600444390E+02  0.67324868339E+02 -0.44970390269E+03  0.46063354568E+03  0.00000000000E+00 0. -1.
          1    1    1    2  502    0 -0.24202184203E+02 -0.50112346678E+02  0.35167197799E+04  0.35171600765E+04  0.00000000000E+00 0. -1.
         22    1    3    3    0    0  0.10731655356E+03 -0.53172529296E+02  0.24408909232E+02  0.12222911024E+03  0.00000000000E+00 0.  1.
         22    1    3    3    0    0 -0.95139249652E+01  0.35960007635E+02  0.25253753705E+02  0.44959859804E+02  0.00000000000E+00 0.  1.
</event>
<event>
 7    1  0.7457412E-006  0.1521790E+03  0.7818608E-02  0.1263242E+00
          2   -1    0    0  502    0  0.00000000000E+00  0.00000000000E+00  0.21627644670E+04  0.21627644670E+04  0.00000000000E+00 0. -1.
          1   -1    0    0  501    0 -0.00000000000E+00 -0.00000000000E+00 -0.27659886592E+03  0.27659886592E+03  0.00000000000E+00 0. -1.
         25    2    1    2    0    0  0.46624658795E+01 -0.18396375948E+03  0.64376454915E+02  0.23158946484E+03  0.12499979554E+03 0.  0.
          2    1    1    2  501    0  0.61250058222E+02  0.47413534485E+02 -0.18223953276E+03  0.19801732294E+03  0.00000000000E+00 0. -1.
          1    1    1    2  502    0 -0.65912524101E+02  0.13655022500E+03  0.20040286789E+04  0.20097565451E+04  0.00000000000E+00 0. -1.
         22    1    3    3    0    0 -0.30236322544E+02  0.46920799703E+01  0.82137838954E+01  0.31681493988E+02  0.00000000000E+00 0.  1.
         22    1    3    3    0    0  0.34898788423E+02 -0.18865583945E+03  0.56162671019E+02  0.19990797085E+03  0.00000000000E+00 0.  1.
</event>
<event>
 7    1  0.7457412E-006  0.7322247E+02  0.7818608E-02  0.1423819E+00
          2   -1    0    0  502    0  0.00000000000E+00  0.00000000000E+00  0.52019535391E+03  0.52019535391E+03  0.00000000000E+00 0. -1.
          1   -1    0    0  501    0 -0.00000000000E+00 -0.00000000000E+00 -0.17551298634E+03  0.17551298634E+03  0.00000000000E+00 0. -1.
         25    2    1    2    0    0 -0.52573406559E+02  0.83207610999E+02  0.14536279145E+02  0.15976117371E+03  0.12499943844E+03 0.  0.
          2    1    1    2  501    0  0.15114511764E+02 -0.68754078475E+02 -0.89790209932E+02  0.11409580874E+03  0.00000000000E+00 0. -1.
          1    1    1    2  502    0  0.37458894795E+02 -0.14453532524E+02  0.41993629836E+03  0.42185135780E+03  0.00000000000E+00 0. -1.
         22    1    3    3    0    0  0.27239391113E+02 -0.12219063052E+02  0.18806151691E+02  0.35284008722E+02  0.00000000000E+00 0.  1.
         22    1    3    3    0    0 -0.79812797672E+02  0.95426674051E+02 -0.42698725458E+01  0.12447716499E+03  0.00000000000E+00 0.  1.
</event>
<event>
 7    1  0.7457412E-006  0.6814670E+02  0.7818608E-02  0.1435868E+00
          2   -1    0    0  502    0  0.00000000000E+00  0.00000000000E+00  0.64884946307E+03  0.64884946307E+03  0.00000000000E+00 0. -1.
          1   -1    0    0  501    0 -0.00000000000E+00 -0.00000000000E+00 -0.34921528911E+03  0.34921528911E+03  0.00000000000E+00 0. -1.
         25    2    1    2    0    0 -0.50766167138E+02 -0.90717543991E+01 -0.15374260976E+03  0.20474081980E+03  0.12499005073E+03 0.  0.
          2    1    1    2  501    0  0.71256785266E+02 -0.24550718416E+02 -0.16095759342E+03  0.17772904687E+03  0.00000000000E+00 0. -1.
          1    1    1    2  502    0 -0.20490618128E+02  0.33622472815E+02  0.61433437715E+03  0.61559488551E+03  0.00000000000E+00 0. -1.
         22    1    3    3    0    0  0.36048363339E+02  0.15528228268E+02 -0.21810293520E+02  0.44903221221E+02  0.00000000000E+00 0.  1.
         22    1    3    3    0    0 -0.86814530478E+02 -0.24599982667E+02 -0.13193231624E+03  0.15983759858E+03  0.00000000000E+00 0.  1.
</event>
<event>
 7    1  0.7457412E-006  0.9340290E+02  0.7818608E-02  0.1353527E+00
          2   -1    0    0  502    0  0.00000000000E+00  0.00000000000E+00  0.11049925328E+03  0.11049925328E+03  0.00000000000E+00 0. -1.
          1   -1    0    0  501    0 -0.00000000000E+00 -0.00000000000E+00 -0.26360634384E+03  0.26360634384E+03  0.00000000000E+00 0. -1.
         25    2    1    2    0    0 -0.25724177849E+02  0.82704158067E+02 -0.20052746925E+02  0.15339251632E+03  0.12500176125E+03 0.  0.
          2    1    1    2  501    0  0.48242790010E+02  0.27341021687E+02 -0.14329895357E+02  0.57273415786E+02  0.00000000000E+00 0. -1.
          1    1    1    2  502    0 -0.22518612161E+02 -0.11004517975E+03 -0.11872444828E+03  0.16343966501E+03  0.00000000000E+00 0. -1.
         22    1    3    3    0    0 -0.64018156359E+02  0.89287072734E+02 -0.28771406637E+02  0.11357068082E+03  0.00000000000E+00 0.  1.
         22    1    3    3    0    0  0.38293978510E+02 -0.65829146670E+01  0.87186597123E+01  0.39821835503E+02  0.00000000000E+00 0.  1.
</event>
<event>
 7    1  0.7457412E-006  0.8973858E+02  0.7818608E-02  0.1304902E+00
          2   -1    0    0  502    0  0.00000000000E+00  0.00000000000E+00  0.36429956162E+03  0.36429956162E+03  0.00000000000E+00 0. -1.
          1   -1    0    0  501    0 -0.00000000000E+00 -0.00000000000E+00 -0.66235348421E+03  0.66235348421E+03  0.00000000000E+00 0. -1.
         25    2    1    2    0    0 -0.10534556616E+02  0.37832109939E+02  0.95218390594E+02  0.16196674567E+03  0.12499775745E+03 0.  0.
          2    1    1    2  501    0 -0.77268114921E+02 -0.49561848374E+02 -0.61714000859E+03  0.62392990680E+03  0.00000000000E+00 0. -1.
          1    1    1    2  502    0  0.87802671537E+02  0.11729738435E+02  0.22386769541E+03  0.24075639335E+03  0.00000000000E+00 0. -1.
         22    1    3    3    0    0  0.36529530531E+02  0.18554181052E+02 -0.12507860362E+02  0.42838193311E+02  0.00000000000E+00 0. -1.
         22    1    3    3    0    0 -0.47064087147E+02  0.19277928887E+02  0.10772625096E+03  0.11912855235E+03  0.00000000000E+00 0. -1.
</event>
<event>
 7    1  0.7457412E-006  0.1105788E+03  0.7818608E-02  0.1322078E+00
          2   -1    0    0  502    0  0.00000000000E+00  0.00000000000E+00  0.27588843774E+03  0.27588843774E+03  0.00000000000E+00 0. -1.
          1   -1    0    0  501    0 -0.00000000000E+00 -0.00000000000E+00 -0.10830300272E+04  0.10830300272E+04  0.00000000000E+00 0. -1.
         25    2    1    2    0    0 -0.10484668957E+03 -0.61467080978E+02 -0.66938959911E+03  0.69172206763E+03  0.12500381227E+03 0.  0.
          2    1    1    2  501    0  0.50636405422E+02 -0.35017171319E+02 -0.38837579097E+03  0.39322512999E+03  0.00000000000E+00 0. -1.
          1    1    1    2  502    0  0.54210284144E+02  0.96484252297E+02  0.25062380066E+03  0.27397126730E+03  0.00000000000E+00 0. -1.
         22    1    3    3    0    0  0.58576524935E+01 -0.21692799703E+02 -0.15407554149E+02  0.27244859635E+02  0.00000000000E+00 0. -1.
         22    1    3    3    0    0 -0.11070434206E+03 -0.39774281275E+02 -0.65398204496E+03  0.66447720799E+03  0.00000000000E+00 0. -1.
</event>
<event>
 7    1  0.7457412E-006  0.7426652E+02  0.7818608E-02  0.1394942E+00
          2   -1    0    0  502    0  0.00000000000E+00  0.00000000000E+00  0.35770138996E+03  0.35770138996E+03  0.00000000000E+00 0. -1.
          1   -1    0    0  501    0 -0.00000000000E+00 -0.00000000000E+00 -0.11122261605E+04  0.11122261605E+04  0.00000000000E+00 0. -1.
         25    2    1    2    0    0 -0.48086167981E+01 -0.10240745464E+03 -0.17586029302E+03  0.23888014711E+03  0.12500588971E+03 0.  0.
          2    1    1    2  501    0 -0.29957218938E+02  0.67028135528E+02 -0.90146923378E+03  0.90445397084E+03  0.00000000000E+00 0. -1.
          1    1    1    2  502    0  0.34765835736E+02  0.35379319110E+02  0.32280475621E+03  0.32659343256E+03  0.00000000000E+00 0. -1.
         22    1    3    3    0    0 -0.11225106055E+02 -0.52576383271E+02 -0.18058340782E+03  0.18841615181E+03  0.00000000000E+00 0.  1.
         22    1    3    3    0    0  0.64164892573E+01 -0.49831071366E+02  0.47231148033E+01  0.50463995297E+02  0.00000000000E+00 0.  1.
</event>
<event>
 7    1  0.7457412E-006  0.5327161E+02  0.7818608E-02  0.1487359E+00
          2   -1    0    0  502    0  0.00000000000E+00  0.00000000000E+00  0.17557291559E+04  0.17557291559E+04  0.00000000000E+00 0. -1.
          1   -1    0    0  501    0 -0.00000000000E+00 -0.00000000000E+00 -0.33956966396E+03  0.33956966396E+03  0.00000000000E+00 0. -1.
         25    2    1    2    0    0  0.52026609792E+01  0.85738529293E+02  0.85034201191E+03  0.86376179800E+03  0.12499897346E+03 0.  0.
          2    1    1    2  501    0  0.58525833009E+01 -0.52870783333E+02 -0.33039711412E+03  0.33465179737E+03  0.00000000000E+00 0. -1.
          1    1    1    2  502    0 -0.11055244280E+02 -0.32867745960E+02  0.89621459416E+03  0.89688522451E+03  0.00000000000E+00 0. -1.
         22    1    3    3    0    0 -0.45782096158E+02 -0.38400185666E+01  0.19332543614E+03  0.19870951243E+03  0.00000000000E+00 0. -1.
         22    1    3    3    0    0  0.50984757137E+02  0.89578547860E+02  0.65701657577E+03  0.66505228557E+03  0.00000000000E+00 0. -1.
</event>
<event>
 7    1  0.7457412E-006  0.1430158E+03  0.7818608E-02  0.1234732E+00
          2   -1    0    0  502    0  0.00000000000E+00  0.00000000000E+00  0.38449404427E+04  0.38449404427E+04  0.00000000000E+00 0. -1.
          1   -1    0    0  501    0 -0.00000000000E+00 -0.00000000000E+00 -0.88357656353E+02  0.88357656353E+02  0.00000000000E+00 0. -1.
         25    2    1    2    0    0  0.21773217473E+03  0.36341928081E+02  0.21095584198E+03  0.32993358238E+03  0.12500306343E+03 0.  0.
          2    1    1    2  501    0 -0.10069204984E+03  0.43362879844E+02  0.82154242508E+02  0.13699834966E+03  0.00000000000E+00 0. -1.
          1    1    1    2  502    0 -0.11704012490E+03 -0.79704807925E+02  0.34634727019E+04  0.34663661670E+04  0.00000000000E+00 0. -1.
         22    1    3    3    0    0  0.83678854773E+02 -0.36583123249E+02  0.12493011828E+03  0.15475144619E+03  0.00000000000E+00 0. -1.
         22    1    3    3    0    0  0.13405331996E+03  0.72925051330E+02  0.86025723692E+02  0.17518213619E+03  0.00000000000E+00 0. -1.
</event>
<event>
 7    1  0.7457412E-006  0.4678930E+02  0.7818608E-02  0.1494117E+00
          2   -1    0    0  502    0  0.00000000000E+00  0.00000000000E+00  0.18033000368E+04  0.18033000368E+04  0.00000000000E+00 0. -1.
          1   -1    0    0  501    0 -0.00000000000E+00 -0.00000000000E+00 -0.14102341359E+04  0.14102341359E+04  0.00000000000E+00 0. -1.
         25    2    1    2    0    0 -0.33574939961E+01 -0.11534380796E+02  0.37002961210E+03  0.39075928457E+03  0.12500635958E+03 0.  0.
          2    1    1    2  501    0  0.10764681660E+02 -0.36096568012E+02 -0.13992075205E+04  0.13997144444E+04  0.00000000000E+00 0. -1.
          1    1    1    2  502    0 -0.74071876636E+01  0.47630948809E+02  0.14222438092E+04  0.14230604437E+04  0.00000000000E+00 0. -1.
         22    1    3    3    0    0 -0.55890551937E+02 -0.16389224054E+02  0.10086918802E+03  0.11647726625E+03  0.00000000000E+00 0.  1.
         22    1    3    3    0    0  0.52533057941E+02  0.48548432576E+01  0.26916042408E+03  0.27428201831E+03  0.00000000000E+00 0.  1.
</event>
<event>
 7    1  0.7457412E-006  0.5226232E+02  0.7818608E-02  0.1456173E+00
          2   -1    0    0  502    0  0.00000000000E+00  0.00000000000E+00  0.21789670798E+03  0.21789670798E+03  0.00000000000E+00 0. -1.
          1   -1    0    0  501    0 -0.00000000000E+00 -0.00000000000E+00 -0.21549079549E+03  0.21549079549E+03  0.00000000000E+00 0. -1.
         25    2    1    2    0    0 -0.21515614950E+02  0.84295182873E+02  0.51365364053E+02  0.16072276791E+03  0.12499923183E+03 0.  0.
          2    1    1    2  501    0 -0.62878677465E+01 -0.43720548287E+02 -0.15210662531E+03  0.15839017989E+03  0.00000000000E+00 0. -1.
          1    1    1    2  502    0  0.27803482696E+02 -0.40574634586E+02  0.10314717375E+03  0.11427455567E+03  0.00000000000E+00 0. -1.
         22    1    3    3    0    0  0.87075855262E+01  0.51066879532E+02  0.88430551865E+02  0.10248712472E+03  0.00000000000E+00 0. -1.
         22    1    3    3    0    0 -0.30223200476E+02  0.33228303341E+02 -0.37065187812E+02  0.58235643187E+02  0.00000000000E+00 0. -1.
</event>
<event>
 7    1  0.7457412E-006  0.1076125E+03  0.7818608E-02  0.1329489E+00
          2   -1    0    0  502    0  0.00000000000E+00  0.00000000000E+00  0.18396240323E+04  0.18396240323E+04  0.00000000000E+00 0. -1.
          1   -1    0    0  501    0 -0.00000000000E+00 -0.00000000000E+00 -0.19036819029E+02  0.19036819029E+02  0.00000000000E+00 0. -1.
         25    2    1    2    0    0 -0.80183587905E+01  0.80516143065E+02  0.72420594483E+03  0.73935411583E+03  0.12499245853E+03 0.  0.
          2    1    1    2  501    0 -0.37968711159E+02 -0.11786635338E+03  0.36307523276E+03  0.38361142440E+03  0.00000000000E+00 0. -1.
          1    1    1    2  502    0  0.45987069950E+02  0.37350210317E+02  0.73330603565E+03  0.73569531107E+03  0.00000000000E+00 0. -1.
         22    1    3    3    0    0 -0.17257029231E+02 -0.64073475533E+01  0.12386489739E+02  0.22187480447E+02  0.00000000000E+00 0.  1.
         22    1    3    3    0    0  0.92386704409E+01  0.86923490619E+02  0.71181945509E+03  0.71716663538E+03  0.00000000000E+00 0.  1.
</event>
<event>
 7    1  0.7457412E-006  0.1455606E+03  0.7818608E-02  0.1334735E+00
          2   -1    0    0  502    0  0.00000000000E+00  0.00000000000E+00  0.17260053432E+04  0.17260053432E+04  0.00000000000E+00 0. -1.
          1   -1    0    0  501    0 -0.00000000000E+00 -0.00000000000E+00 -0.23925080772E+04  0.23925080772E+04  0.00000000000E+00 0. -1.
         25    2    1    2    0    0 -0.46426326130E+02 -0.15304230058E+03 -0.10922165176E+02  0.20328325898E+03  0.12500976028E+03 0.  0.
          2    1    1    2  501    0  0.53302781148E+01  0.14524141329E+03 -0.22828256256E+04  0.22874475550E+04  0.00000000000E+00 0. -1.
          1    1    1    2  502    0  0.41096048015E+02  0.78008872804E+01  0.16272450568E+04  0.16277826064E+04  0.00000000000E+00 0. -1.
         22    1    3    3    0    0 -0.72076473894E+02 -0.83370961851E+02 -0.48105684687E+02  0.12024929217E+03  0.00000000000E+00 0.  1.
         22    1    3    3    0    0  0.25650147764E+02 -0.69671338724E+02  0.37183519512E+02  0.83033966804E+02  0.00000000000E+00 0.  1.
</event>
<event>
 7    1  0.7457412E-006  0.9328700E+02  0.7818608E-02  0.1331867E+00
          2   -1    0    0  502    0  0.00000000000E+00  0.00000000000E+00  0.21275320026E+04  0.21275320026E+04  0.00000000000E+00 0. -1.
          1   -1    0    0  501    0 -0.00000000000E+00 -0.00000000000E+00 -0.22025639678E+04  0.22025639678E+04  0.00000000000E+00 0. -1.
         25    2    1    2    0    0 -0.41116703819E+02 -0.43539724655E+02  0.15174103223E+03  0.20551375983E+03  0.12499709461E+03 0.  0.
          2    1    1    2  501    0  0.93555222404E+02  0.19511347255E+01 -0.21740962674E+04  0.21761091348E+04  0.00000000000E+00 0. -1.
          1    1    1    2  502    0 -0.52438518585E+02  0.41588589929E+02  0.19473232700E+04  0.19484730758E+04  0.00000000000E+00 0. -1.
         22    1    3    3    0    0 -0.84812097198E+02 -0.37764775200E+02  0.11720001913E+03  0.14951626855E+03  0.00000000000E+00 0.  1.
         22    1    3    3    0    0  0.43695393379E+02 -0.57749494544E+01  0.34541013093E+02  0.55997491277E+02  0.00000000000E+00 0.  1.
</event>
<event>
 7    1  0.7457412E-006  0.2387569E+03  0.7818608E-02  0.1314985E+00
          2   -1    0    0  502    0  0.00000000000E+00  0.00000000000E+00  0.11139242991E+04  0.11139242991E+04  0.00000000000E+00 0. -1.
          1   -1    0    0  501    0 -0.00000000000E+00 -0.00000000000E+00 -0.11781264237E+03  0.11781264237E+03  0.00000000000E+00 0. -1.
         25    2    1    2    0    0 -0.21750490420E+03 -0.69293833701E+02  0.48356246447E+03  0.54915361657E+03  0.12500807495E+03 0.  0.
          2    1    1    2  501    0 -0.24597711803E+02  0.17835062409E+02 -0.55322039835E+02  0.63116281328E+02  0.00000000000E+00 0. -1.
          1    1    1    2  502    0  0.24210261601E+03  0.51458771292E+02  0.56787123205E+03  0.61946704353E+03  0.00000000000E+00 0. -1.
         22    1    3    3    0    0  0.91103250093E+00  0.19987978582E+02  0.72205750420E+02  0.74926761986E+02  0.00000000000E+00 0.  1.
         22    1    3    3    0    0 -0.21841593670E+03 -0.89281812283E+02  0.41135671405E+03  0.47422685458E+03  0.00000000000E+00 0.  1.
</event>
<event>
 7    1  0.7457412E-006  0.1111399E+03  0.7818608E-02  0.1394007E+00
          2   -1    0    0  502    0  0.00000000000E+00  0.00000000000E+00  0.17359884480E+03  0.17359884480E+03  0.00000000000E+00 0. -1.
          1   -1    0    0  501    0 -0.00000000000E+00 -0.00000000000E+00 -0.28012782060E+03  0.28012782060E+03  0.00000000000E+00 0. -1.
         25    2    1    2    0    0  0.93996820077E+02  0.11914981374E+02  0.17576273855E+02  0.15780745267E+03  0.12496758679E+03 0.  0.
          2    1    1    2  501    0  0.27962929994E+02 -0.18254022994E+02 -0.16406077219E+03  0.16742482427E+03  0.00000000000E+00 0. -1.
          1    1    1    2  502    0 -0.12195975007E+03  0.63390416196E+01  0.39955522530E+02  0.12849438846E+03  0.00000000000E+00 0. -1.
         22    1    3    3    0    0  0.16511953924E+02  0.34584750799E+01 -0.51168812309E+02  0.53878131235E+02  0.00000000000E+00 0. -1.
         22    1    3    3    0    0  0.77484866153E+02  0.84565062942E+01  0.68745086164E+02  0.10392932143E+03  0.00000000000E+00 0. -1.
</event>
<event>
 7    1  0.7457412E-006  0.1214095E+03  0.7818608E-02  0.1315347E+00
          2   -1    0    0  502    0  0.00000000000E+00  0.00000000000E+00  0.83600784127E+03  0.83600784127E+03  0.00000000000E+00 0. -1.
          1   -1    0    0  501    0 -0.00000000000E+00 -0.00000000000E+00 -0.23912796268E+04  0.23912796268E+04  0.00000000000E+00 0. -1.
         25    2    1    2    0    0 -0.18730755437E+02  0.99019461106E+02 -0.17255079712E+03  0.23570076028E+03  0.12500150373E+03 0.  0.
          2    1    1    2  501    0 -0.59339639175E+02 -0.50602048665E+01 -0.21821073887E+04  0.21829199376E+04  0.00000000000E+00 0. -1.
          1    1    1    2  502    0  0.78070394612E+02 -0.93959256239E+02  0.79938640022E+03  0.80866677019E+03  0.00000000000E+00 0. -1.
         22    1    3    3    0    0  0.53529261892E+01 -0.13185358255E+02  0.11841637255E+02  0.18513018771E+02  0.00000000000E+00 0. -1.
         22    1    3    3    0    0 -0.24083681626E+02  0.11220481936E+03 -0.18439243437E+03  0.21718774151E+03  0.00000000000E+00 0. -1.
</event>
<event>
 7    1  0.7457412E-006  0.8947210E+02  0.7818608E-02  0.1314491E+00
          2   -1    0    0  502    0  0.00000000000E+00  0.00000000000E+00  0.16492985219E+04  0.16492985219E+04  0.00000000000E+00 0. -1.
          1   -1    0    0  501    0 -0.00000000000E+00 -0.00000000000E+00 -0.31133862493E+03  0.31133862493E+03  0.00000000000E+00 0. -1.
         25    2    1    2    0    0  0.27566869005E+02 -0.10758582136E+03 -0.62659024830E+02  0.17856164931E+03  0.12499387181E+03 0.  0.
          2    1    1    2  501    0  0.47944306970E+02  0.77084444042E+02 -0.17881787761E+03  0.20054052318E+03  0.00000000000E+00 0. -1.
          1    1    1    2  502    0 -0.75511175974E+02  0.30501377315E+02  0.15794367994E+04  0.15815349743E+04  0.00000000000E+00 0. -1.
         22    1    3    3    0    0  0.72888765839E+02 -0.39962686477E+02 -0.47553162914E+02  0.95765817488E+02  0.00000000000E+00 0.  1.
         22    1    3    3    0    0 -0.45321896835E+02 -0.67623134880E+02 -0.15105861916E+02  0.82795831827E+02  0.00000000000E+00 0.  1.
</event>
<event>
 7    1  0.7457412E-006  0.1681564E+03  0.7818608E-02  0.1259633E+00
          2   -1    0    0  502    0  0.00000000000E+00  0.00000000000E+00  0.89631256243E+03  0.89631256243E+03  0.00000000000E+00 0. -1.
          1   -1    0    0  501    0 -0.00000000000E+00 -0.00000000000E+00 -0.96160367573E+03  0.96160367573E+03  0.00000000000E+00 0. -1.
         25    2    1    2    0    0 -0.59626462703E+02 -0.15283002682E+03  0.40361565875E+02  0.21016135081E+03  0.12500562077E+03 0.  0.
          2    1    1    2  501    0  0.70611189471E+02 -0.16973051057E+02 -0.86577723752E+03  0.86881773091E+03  0.00000000000E+00 0. -1.
          1    1    1    2  502    0 -0.10984726768E+02  0.16980307788E+03  0.76012455834E+03  0.77893715643E+03  0.00000000000E+00 0. -1.
         22    1    3    3    0    0 -0.39362588696E+02 -0.69902164977E+02 -0.42848555387E+02  0.90949022843E+02  0.00000000000E+00 0. -1.
         22    1    3    3    0    0 -0.20263874007E+02 -0.82927861844E+02  0.83210121262E+02  0.11921232797E+03  0.00000000000E+00 0. -1.
</event>
<event>
 7    1  0.7457412E-006  0.6859582E+02  0.7818608E-02  0.1375882E+00
          2   -1    0    0  502    0  0.00000000000E+00  0.00000000000E+00  0.50979148180E+03  0.50979148180E+03  0.00000000000E+00 0. -1.
          1   -1    0    0  501    0 -0.00000000000E+00 -0.00000000000E+00 -0.57332336635E+02  0.57332336635E+02  0.00000000000E+00 0. -1.
         25    2    1    2    0    0 -0.18819955055E+02  0.17076919170E+02  0.13265288007E+03  0.18403515269E+03  0.12500535573E+03 0.  0.
          2    1    1    2  501    0 -0.59147215123E+02 -0.20672791300E+02  0.98117646841E+01  0.63419461392E+02  0.00000000000E+00 0. -1.
          1    1    1    2  502    0  0.77967170179E+02  0.35958721308E+01  0.30999450042E+03  0.31966920435E+03  0.00000000000E+00 0. -1.
         22    1    3    3    0    0  0.47852569624E+02  0.28995125287E+02  0.37959044490E+02  0.67612682010E+02  0.00000000000E+00 0. -1.
         22    1    3    3    0    0 -0.66672524679E+02 -0.11918206117E+02  0.94693835576E+02  0.11642247068E+03  0.00000000000E+00 0. -1.
</event>
<event>
 7    1  0.7457412E-006  0.9251158E+02  0.7818608E-02  0.1311162E+00
          2   -1    0    0  502    0  0.00000000000E+00  0.00000000000E+00  0.15850559672E+03  0.15850559672E+03  0.00000000000E+00 0. -1.
          1   -1    0    0  501    0 -0.00000000000E+00 -0.00000000000E+00 -0.10980582312E+04  0.10980582312E+04  0.00000000000E+00 0. -1.
         25    2    1    2    0    0  0.11986410702E+03 -0.11494255211E+03  0.20854727789E+02  0.20890097727E+03  0.12500201677E+03 0.  0.
          2    1    1    2  501    0 -0.47716429886E+02  0.77754388560E+02 -0.96216062337E+03  0.96647590130E+03  0.00000000000E+00 0. -1.
          1    1    1    2  502    0 -0.72147677136E+02  0.37188163545E+02  0.17532610742E+01  0.81186949372E+02  0.00000000000E+00 0. -1.
         22    1    3    3    0    0  0.10694969060E+03 -0.13862764239E+03  0.34829957266E+02  0.17851886588E+03  0.00000000000E+00 0.  1.
         22    1    3    3    0    0  0.12914416424E+02  0.23685090285E+02 -0.13975229476E+02  0.30382111386E+02  0.00000000000E+00 0.  1.
</event>
<event>
 7    1  0.7457412E-006  0.6162980E+02  0.7818608E-02  0.1447487E+00
          2   -1    0    0  502    0  0.00000000000E+00  0.00000000000E+00  0.13458665471E+04  0.13458665471E+04  0.00000000000E+00 0. -1.
          1   -1    0    0  501    0 -0.00000000000E+00 -0.00000000000E+00 -0.86942593239E+03  0.86942593239E+03  0.00000000000E+00 0. -1.
         25    2    1    2    0    0 -0.70259641046E+02 -0.71031453376E+02  0.84449765699E+03  0.85952545077E+03  0.12500329329E+03 0.  0.
          2    1    1    2  501    0  0.36641018209E+02  0.49494788073E+02 -0.86000229554E+03  0.86220429516E+03  0.00000000000E+00 0. -1.
          1    1    1    2  502    0  0.33618622837E+02  0.21536665303E+02  0.49194525329E+03  0.49356273359E+03  0.00000000000E+00 0. -1.
         22    1    3    3    0    0 -0.22514709164E+01  0.23164177090E+02  0.36987665111E+02  0.43700521643E+02  0.00000000000E+00 0. -1.
         22    1    3    3    0    0 -0.68008170130E+02 -0.94195630466E+02  0.80750999188E+03  0.81582492913E+03  0.00000000000E+00 0. -1.
</event>
<event>
 7    1  0.7457412E-006  0.1532115E+03  0.7818608E-02  0.1326795E+00
          2   -1    0    0  502    0  0.00000000000E+00  0.00000000000E+00  0.12980575567E+04  0.12980575567E+04  0.00000000000E+00 0. -1.
          1   -1    0    0  501    0 -0.00000000000E+00 -0.00000000000E+00 -0.29040167670E+03  0.29040167670E+03  0.00000000000E+00 0. -1.
         25    2    1    2    0    0 -0.18381478880E+03 -0.43418399393E+02  0.47215251435E+02  0.23135943955E+03  0.12499950525E+03 0.  0.
          2    1    1    2  501    0  0.14269884145E+03  0.32224219327E+02 -0.17089678262E+03  0.22496015197E+03  0.00000000000E+00 0. -1.
          1    1    1    2  502    0  0.41115947349E+02  0.11194180066E+02  0.11313374112E+04  0.11321396419E+04  0.00000000000E+00 0. -1.
         22    1    3    3    0    0  0.12211373053E+02 -0.62584796461E+01  0.27672066113E+02  0.30887367034E+02  0.00000000000E+00 0.  1.
         22    1    3    3    0    0 -0.19602616185E+03 -0.37159919747E+02  0.19543185322E+02  0.20047207251E+03  0.00000000000E+00 0.  1.
</event>
<event>
 7    1  0.7457412E-006  0.1909808E+03  0.7818608E-02  0.1371007E+00
          2   -1    0    0  502    0  0.00000000000E+00  0.00000000000E+00  0.77942528389E+03  0.77942528389E+03  0.00000000000E+00 0. -1.
          1   -1    0    0  501    0 -0.00000000000E+00 -0.00000000000E+00 -0.96241369310E+03  0.96241369310E+03  0.00000000000E+00 0. -1.
         25    2    1    2    0    0  0.21242817573E+03  0.67238613834E+01  0.82655195432E+01  0.24670708945E+03  0.12500051607E+03 0.  0.
          2    1    1    2  501    0 -0.18914092034E+03 -0.41732325936E+01 -0.83236432610E+03  0.85359362402E+03  0.00000000000E+00 0. -1.
          1    1    1    2  502    0 -0.23287255387E+02 -0.25506287898E+01  0.64111039735E+03  0.64153826352E+03  0.00000000000E+00 0. -1.
         22    1    3    3    0    0  0.19386685009E+02 -0.42985447436E+02  0.39703213208E+01  0.47321831096E+02  0.00000000000E+00 0.  1.
         22    1    3    3    0    0  0.19304149072E+03  0.49709308819E+02  0.42951982224E+01  0.19938525835E+03  0.00000000000E+00 0.  1.
</event>
<event>
 7    1  0.7457412E-006  0.6156416E+02  0.7818608E-02  0.1516208E+00
          2   -1    0    0  502    0  0.00000000000E+00  0.00000000000E+00  0.54625021652E+03  0.54625021652E+03  0.00000000000E+00 0. -1.
          1   -1    0    0  501    0 -0.00000000000E+00 -0.00000000000E+00 -0.15104320829E+04  0.15104320829E+04  0.00000000000E+00 0. -1.
         25    2    1    2    0    0 -0.44806169394E+02  0.55162062994E+02 -0.16809160948E+03  0.22120223546E+03  0.12500077514E+03 0.  0.
          2    1    1    2  501    0  0.20342514584E+02 -0.57950332963E+02 -0.13147762700E+04  0.13162099753E+04  0.00000000000E+00 0. -1.
          1    1    1    2  502    0  0.24463654810E+02  0.27882699690E+01  0.51868601305E+03  0.51927008868E+03  0.00000000000E+00 0. -1.
         22    1    3    3    0    0 -0.79928198104E+02  0.49852329513E+01 -0.11505902986E+03  0.14018541205E+03  0.00000000000E+00 0. -1.
         22    1    3    3    0    0  0.35122028710E+02  0.50176830043E+02 -0.53032579620E+02  0.81016823407E+02  0.00000000000E+00 0. -1.
</event>
<event>
 7    1  0.7457412E-006  0.2101525E+03  0.7818608E-02  0.1294928E+00
          2   -1    0    0  502    0  0.00000000000E+00  0.00000000000E+00  0.60951837304E+03  0.60951837304E+03  0.00000000000E+00 0. -1.
          1   -1    0    0  501    0 -0.00000000000E+00 -0.00000000000E+00 -0.43123604586E+03  0.43123604586E+03  0.00000000000E+00 0. -1.
         25    2    1    2    0    0  0.11116681659E+03 -0.13581608560E+03 -0.13299987565E+03  0.25321446019E+03  0.12499810281E+03 0.  0.
          2    1    1    2  501    0  0.37182361174E+02 -0.18362197845E+02 -0.21524370216E+03  0.21920207483E+03  0.00000000000E+00 0. -1.
          1    1    1    2  502    0 -0.14834917777E+03  0.15417828345E+03  0.52652590498E+03  0.56833788388E+03  0.00000000000E+00 0. -1.
         22    1    3    3    0    0  0.83046964233E+02 -0.34946525214E+02 -0.11639038930E+03  0.14718960770E+03  0.00000000000E+00 0.  1.
         22    1    3    3    0    0  0.28119852362E+02 -0.10086956039E+03 -0.16609486351E+02  0.10602485249E+03  0.00000000000E+00 0.  1.
</event>
<event>
 7    1  0.7457412E-006  0.2601079E+02  0.7818608E-02  0.1660749E+00
          2   -1    0    0  502    0  0.00000000000E+00  0.00000000000E+00  0.90475894886E+03  0.90475894886E+03  0.00000000000E+00 0. -1.
          1   -1    0    0  501    0 -0.00000000000E+00 -0.00000000000E+00 -0.32946428857E+03  0.32946428857E+03  0.00000000000E+00 0. -1.
         25    2    1    2    0    0 -0.11709671328E+01  0.24731131918E+01 -0.33752934417E+01  0.12507851898E+03  0.12500302337E+03 0.  0.
          2    1    1    2  501    0 -0.42235690558E+01 -0.25922990443E+02 -0.26441509606E+03  0.26571635816E+03  0.00000000000E+00 0. -1.
          1    1    1    2  502    0  0.53945361887E+01  0.23449877251E+02  0.84308504979E+03  0.84342836029E+03  0.00000000000E+00 0. -1.
         22    1    3    3    0    0  0.56190186784E+02  0.25693042238E+02 -0.10900832610E+02  0.62739920799E+02  0.00000000000E+00 0.  1.
         22    1    3    3    0    0 -0.57361153917E+02 -0.23219929046E+02  0.75255391687E+01  0.62338598183E+02  0.00000000000E+00 0.  1.
</event>
<event>
 7    1  0.7457412E-006  0.8516085E+02  0.7818608E-02  0.1480137E+00
          2   -1    0    0  502    0  0.00000000000E+00  0.00000000000E+00  0.10862120159E+04  0.10862120159E+04  0.00000000000E+00 0. -1.
          1   -1    0    0  501    0 -0.00000000000E+00 -0.00000000000E+00 -0.16385505504E+02  0.16385505504E+02  0.00000000000E+00 0. -1.
         25    2    1    2    0    0 -0.33901794387E+01  0.76711813141E+02  0.59775358695E+03  0.61549274647E+03  0.12500309860E+03 0.  0.
          2    1    1    2  501    0  0.23910461653E+02 -0.86698167401E+02  0.29048702619E+03  0.30409043851E+03  0.00000000000E+00 0. -1.
          1    1    1    2  502    0 -0.20520282215E+02  0.99863542604E+01  0.18158589723E+03  0.18301433640E+03  0.00000000000E+00 0. -1.
         22    1    3    3    0    0 -0.82596855296E+01  0.43892155624E+02  0.51238834464E+02  0.67971772726E+02  0.00000000000E+00 0. -1.
         22    1    3    3    0    0  0.48695060909E+01  0.32819657516E+02  0.54651475249E+03  0.54752097375E+03  0.00000000000E+00 0. -1.
</event>
<event>
 7    1  0.7457412E-006  0.3509381E+03  0.7818608E-02  0.1288186E+00
          2   -1    0    0  502    0  0.00000000000E+00  0.00000000000E+00  0.12996312608E+04  0.12996312608E+04  0.00000000000E+00 0. -1.
          1   -1    0    0  501    0 -0.00000000000E+00 -0.00000000000E+00 -0.73013825049E+03  0.73013825049E+03  0.00000000000E+00 0. -1.
         25    2    1    2    0    0 -0.11686957948E+03 -0.31335410336E+03 -0.68566675111E+02  0.36355876662E+03  0.12499718057E+03 0.  0.
          2    1    1    2  501    0  0.11750089881E+02 -0.23693894728E+02 -0.48666012006E+03  0.48737822860E+03  0.00000000000E+00 0. -1.
          1    1    1    2  502    0  0.10511948960E+03  0.33704799809E+03  0.11247198054E+04  0.11788325160E+04  0.00000000000E+00 0. -1.
         22    1    3    3    0    0  0.19083716244E+02 -0.11423018340E+03 -0.17993602290E+02  0.11720278473E+03  0.00000000000E+00 0.  1.
         22    1    3    3    0    0 -0.13595329572E+03 -0.19912391996E+03 -0.50573072821E+02  0.24635598189E+03  0.00000000000E+00 0.  1.
</event>
<event>
 7    1  0.7457412E-006  0.8007034E+02  0.7818608E-02  0.1427759E+00
          2   -1    0    0  502    0  0.00000000000E+00  0.00000000000E+00  0.11352754841E+03  0.11352754841E+03  0.00000000000E+00 0. -1.
          1   -1    0    0  501    0 -0.00000000000E+00 -0.00000000000E+00 -0.28587097632E+04  0.28587097632E+04  0.00000000000E+00 0. -1.
         25    2    1    2    0    0  0.40142557581E+02  0.10549388797E+03 -0.25059755315E+03  0.30193279976E+03  0.12499558633E+03 0.  0.
          2    1    1    2  501    0 -0.37334305373E+02 -0.69975003136E+02 -0.25781973081E+04  0.25794169324E+04  0.00000000000E+00 0. -1.
          1    1    1    2  502    0 -0.28082522083E+01 -0.35518884831E+02  0.83612646449E+02  0.90887579494E+02  0.00000000000E+00 0. -1.
         22    1    3    3    0    0  0.80828657765E+01 -0.23778742833E+02 -0.89240609565E+02  0.92707322933E+02  0.00000000000E+00 0. -1.
         22    1    3    3    0    0  0.32059691805E+02  0.12927263080E+03 -0.16135694358E+03  0.20922547683E+03  0.00000000000E+00 0. -1.
</event>
<event>
 7    1  0.7457412E-006  0.4016513E+02  0.7818608E-02  0.1524089E+00
          2   -1    0    0  502    0  0.00000000000E+00  0.00000000000E+00  0.13213125281E+04  0.13213125281E+04  0.00000000000E+00 0. -1.
          1   -1    0    0  501    0 -0.00000000000E+00 -0.00000000000E+00 -0.24010710699E+03  0.24010710699E+03  0.00000000000E+00 0. -1.
         25    2    1    2    0    0  0.35459443049E+02  0.66986178547E+02 -0.18417322581E+02  0.14737243903E+03  0.12503966489E+03 0.  0.
          2    1    1    2  501    0 -0.17809078922E+02 -0.31059719016E+02 -0.15485041546E+03  0.15893558634E+03  0.00000000000E+00 0. -1.
          1    1    1    2  502    0 -0.17650364127E+02 -0.35926459531E+02  0.12544731591E+04  0.12551116097E+04  0.00000000000E+00 0. -1.
         22    1    3    3    0    0 -0.18589988671E+02 -0.27577593742E+02  0.10141722914E+02  0.34770186929E+02  0.00000000000E+00 0.  1.
         22    1    3    3    0    0  0.54049431720E+02  0.94563772289E+02 -0.28559045495E+02  0.11260225210E+03  0.00000000000E+00 0.  1.
</event>
<event>
 7    1  0.7457412E-006  0.5826068E+02  0.7818608E-02  0.1460014E+00
          2   -1    0    0  502    0  0.00000000000E+00  0.00000000000E+00  0.67832333222E+03  0.67832333222E+03  0.00000000000E+00 0. -1.
          1   -1    0    0  501    0 -0.00000000000E+00 -0.00000000000E+00 -0.21901051517E+03  0.21901051517E+03  0.00000000000E+00 0. -1.
         25    2    1    2    0    0  0.49950691766E+02  0.76232605132E+02  0.21960211241E+02  0.15625341810E+03  0.12500559226E+03 0.  0.
          2    1    1    2  501    0 -0.69112504388E+01 -0.37904717190E+02 -0.14798189202E+03  0.15291557584E+03  0.00000000000E+00 0. -1.
          1    1    1    2  502    0 -0.43039441327E+02 -0.38327887942E+02  0.58533449782E+03  0.58816485345E+03  0.00000000000E+00 0. -1.
         22    1    3    3    0    0 -0.31338838412E+02  0.55303505167E+02 -0.13744625605E+02  0.65034723108E+02  0.00000000000E+00 0. -1.
         22    1    3    3    0    0  0.81289530178E+02  0.20929099965E+02  0.35704836846E+02  0.91218694993E+02  0.00000000000E+00 0. -1.
</event>
<event>
 7    1  0.7457412E-006  0.1670751E+03  0.7818608E-02  0.1283259E+00
          2   -1    0    0  502    0  0.00000000000E+00  0.00000000000E+00  0.11771315866E+03  0.11771315866E+03  0.00000000000E+00 0. -1.
          1   -1    0    0  501    0 -0.00000000000E+00 -0.00000000000E+00 -0.61849663120E+03  0.61849663120E+03  0.00000000000E+00 0. -1.
         25    2    1    2    0    0 -0.17432831907E+03 -0.11388703060E+03 -0.19544365702E+03  0.31174402669E+03  0.12500198614E+03 0.  0.
          2    1    1    2  501    0  0.43959028840E+02  0.38133539587E+02 -0.26084428378E+03  0.26725699886E+03  0.00000000000E+00 0. -1.
          1    1    1    2  502    0  0.13036929023E+03  0.75753491014E+02 -0.44495531738E+02  0.15720876432E+03  0.00000000000E+00 0. -1.
         22    1    3    3    0    0 -0.13662283817E+03 -0.81656391479E+02 -0.20669913320E+03  0.26087946996E+03  0.00000000000E+00 0.  1.
         22    1    3    3    0    0 -0.37705480899E+02 -0.32230639122E+02  0.11255476176E+02  0.50864556736E+02  0.00000000000E+00 0.  1.
</event>
<event>
 7    1  0.7457412E-006  0.1520423E+03  0.7818608E-02  0.1295156E+00
          2   -1    0    0  502    0  0.00000000000E+00  0.00000000000E+00  0.11475181079E+04  0.11475181079E+04  0.00000000000E+00 0. -1.
          1   -1    0    0  501    0 -0.00000000000E+00 -0.00000000000E+00 -0.87846834230E+03  0.87846834230E+03  0.00000000000E+00 0. -1.
         25    2    1    2    0    0 -0.98461134075E+02 -0.51851948203E+02  0.28873069345E+03  0.33373620864E+03  0.12502489417E+03 0.  0.
          2    1    1    2  501    0 -0.55571953467E+02 -0.13538814990E+02 -0.84661995817E+03  0.84854987779E+03  0.00000000000E+00 0. -1.
          1    1    1    2  502    0  0.15403308754E+03  0.65390763193E+02  0.82693903031E+03  0.84370036376E+03  0.00000000000E+00 0. -1.
         22    1    3    3    0    0  0.28307426894E+02 -0.25054990008E+02  0.65956771051E+02  0.76022092770E+02  0.00000000000E+00 0.  1.
         22    1    3    3    0    0 -0.12676856097E+03 -0.26796958195E+02  0.22277392240E+03  0.25771411587E+03  0.00000000000E+00 0.  1.
</event>
<event>
 7    1  0.7457412E-006  0.9466713E+02  0.7818608E-02  0.1295150E+00
          2   -1    0    0  502    0  0.00000000000E+00  0.00000000000E+00  0.10075506443E+04  0.10075506443E+04  0.00000000000E+00 0. -1.
          1   -1    0    0  501    0 -0.00000000000E+00 -0.00000000000E+00 -0.66044885894E+03  0.66044885894E+03  0.00000000000E+00 0. -1.
         25    2    1    2    0    0 -0.15207471679E+03  0.10250291957E+03 -0.20566230370E+03  0.30258074041E+03  0.12499821317E+03 0.  0.
          2    1    1    2  501    0  0.66953256841E+02 -0.62905409599E+02 -0.39879492728E+03  0.40923981133E+03  0.00000000000E+00 0. -1.
          1    1    1    2  502    0  0.85121459949E+02 -0.39597509968E+02  0.95155901637E+03  0.95617895154E+03  0.00000000000E+00 0. -1.
         22    1    3    3    0    0 -0.14216170063E+03  0.26423968717E+02 -0.14497636136E+03  0.20475917709E+03  0.00000000000E+00 0.  1.
         22    1    3    3    0    0 -0.99130161554E+01  0.76078950850E+02 -0.60685942340E+02  0.97821563315E+02  0.00000000000E+00 0.  1.
</event>
<event>
 7    1  0.7457412E-006  0.2512512E+03  0.7818608E-02  0.1268440E+00
          2   -1    0    0  502    0  0.00000000000E+00  0.00000000000E+00  0.12813224381E+04  0.12813224381E+04  0.00000000000E+00 0. -1.
          1   -1    0    0  501    0 -0.00000000000E+00 -0.00000000000E+00 -0.26250630958E+03  0.26250630958E+03  0.00000000000E+00 0. -1.
         25    2    1    2    0    0 -0.23115785460E+03 -0.59869207847E+02  0.63207990927E+03  0.68714542123E+03  0.12500216970E+03 0.  0.
          2    1    1    2  501    0  0.23029184192E+03  0.10446035312E+03 -0.16577817509E+03  0.30237179294E+03  0.00000000000E+00 0. -1.
          1    1    1    2  502    0  0.86601267865E+00 -0.44591145274E+02  0.55251439437E+03  0.55431153353E+03  0.00000000000E+00 0. -1.
         22    1    3    3    0    0 -0.22172359454E+03 -0.37773287371E+02  0.44582860750E+03  0.49935089954E+03  0.00000000000E+00 0.  1.
         22    1    3    3    0    0 -0.94342600604E+01 -0.22095920476E+02  0.18625130177E+03  0.18779452169E+03  0.00000000000E+00 0.  1.
</event>
<event>
 7    1  0.7457412E-006  0.2157359E+03  0.7818608E-02  0.1348077E+00
          2   -1    0    0  502    0  0.00000000000E+00  0.00000000000E+00  0.98352296141E+03  0.98352296141E+03  0.00000000000E+00 0. -1.
          1   -1    0    0  501    0 -0.00000000000E+00 -0.00000000000E+00 -0.10103707408E+04  0.10103707408E+04  0.00000000000E+00 0. -1.
         25    2    1    2    0    0 -0.14805250008E+03  0.12376148262E+03  0.37716301550E+02  0.23298692305E+03  0.12499575813E+03 0.  0.
          2    1    1    2  501    0  0.16928583829E+03 -0.13723791405E+03 -0.89953527142E+03  0.92555693754E+03  0.00000000000E+00 0. -1.
          1    1    1    2  502    0 -0.21233338212E+02  0.13476431427E+02  0.83497119051E+03  0.83534984158E+03  0.00000000000E+00 0. -1.
         22    1    3    3    0    0 -0.12101678365E+03  0.41061215058E+02 -0.18896839841E+02  0.12918272277E+03  0.00000000000E+00 0. -1.
         22    1    3    3    0    0 -0.27035716431E+02  0.82700267561E+02  0.56613141391E+02  0.10380420028E+03  0.00000000000E+00 0. -1.
</event>
<event>
 7    1  0.7457412E-006  0.3359377E+02  0.7818608E-02  0.1645325E+00
          2   -1    0    0  502    0  0.00000000000E+00  0.00000000000E+00  0.82057059342E+03  0.82057059342E+03  0.00000000000E+00 0. -1.
          1   -1    0    0  501    0 -0.00000000000E+00 -0.00000000000E+00 -0.17763523670E+04  0.17763523670E+04  0.00000000000E+00 0. -1.
         25    2    1    2    0    0 -0.26705784808E+02  0.43363541260E+02  0.22584760762E+02  0.13685196890E+03  0.12499917728E+03 0.  0.
          2    1    1    2  501    0  0.24259501013E+02 -0.23191685435E+02 -0.17189155980E+04  0.17192432088E+04  0.00000000000E+00 0. -1.
          1    1    1    2  502    0  0.24462837959E+01 -0.20171855825E+02  0.74054906366E+03  0.74082778280E+03  0.00000000000E+00 0. -1.
         22    1    3    3    0    0 -0.13023512732E+02  0.87655832354E+02  0.14880458059E+02  0.89858693856E+02  0.00000000000E+00 0. -1.
         22    1    3    3    0    0 -0.13682272077E+02 -0.44292291094E+02  0.77043027033E+01  0.46993275047E+02  0.00000000000E+00 0. -1.
</event>
<event>
 7    1  0.7457412E-006  0.1454167E+03  0.7818608E-02  0.1379062E+00
          2   -1    0    0  502    0  0.00000000000E+00  0.00000000000E+00  0.54446353483E+03  0.54446353483E+03  0.00000000000E+00 0. -1.
          1   -1    0    0  501    0 -0.00000000000E+00 -0.00000000000E+00 -0.57097264523E+03  0.57097264523E+03  0.00000000000E+00 0. -1.
         25    2    1    2    0    0  0.13913094679E+03  0.38477066535E+02  0.11965327905E+03  0.22534505256E+03  0.12500232208E+03 0.  0.
          2    1    1    2  501    0 -0.12994339192E+03 -0.65768730599E+02 -0.50730792245E+03  0.52779933612E+03  0.00000000000E+00 0. -1.
          1    1    1    2  502    0 -0.91875548627E+01  0.27291664064E+02  0.36114553300E+03  0.36229179137E+03  0.00000000000E+00 0. -1.
         22    1    3    3    0    0  0.14379877996E+02  0.31148917588E+02 -0.18565735655E+02  0.39009261701E+02  0.00000000000E+00 0.  1.
         22    1    3    3    0    0  0.12475106879E+03  0.73281489470E+01  0.13821901470E+03  0.18633579086E+03  0.00000000000E+00 0.  1.
</event>
<event>
 7    1  0.7457412E-006  0.1156473E+03  0.7818608E-02  0.1429807E+00
          2   -1    0    0  502    0  0.00000000000E+00  0.00000000000E+00  0.41851755778E+03  0.41851755778E+03  0.00000000000E+00 0. -1.
          1   -1    0    0  501    0 -0.00000000000E+00 -0.00000000000E+00 -0.40507761620E+03  0.40507761620E+03  0.00000000000E+00 0. -1.
         25    2    1    2    0    0  0.10421538375E+03 -0.10602020156E+02  0.15271322541E+03  0.22342471694E+03  0.12499610347E+03 0.  0.
          2    1    1    2  501    0 -0.11577043759E+03 -0.10761384044E+02 -0.35989785545E+03  0.37821299286E+03  0.00000000000E+00 0. -1.
          1    1    1    2  502    0  0.11555053835E+02  0.21363404200E+02  0.22062457161E+03  0.22195746418E+03  0.00000000000E+00 0. -1.
         22    1    3    3    0    0  0.39224202072E+02 -0.40929932397E+02  0.13939188730E+03  0.15047888768E+03  0.00000000000E+00 0.  1.
         22    1    3    3    0    0  0.64991181681E+02  0.30327912240E+02  0.13321338116E+02  0.72945829259E+02  0.00000000000E+00 0.  1.
</event>
<event>
 7    1  0.7457412E-006  0.1472198E+03  0.7818608E-02  0.1298434E+00
          2   -1    0    0  502    0  0.00000000000E+00  0.00000000000E+00  0.19569864951E+04  0.19569864951E+04  0.00000000000E+00 0. -1.
          1   -1    0    0  501    0 -0.00000000000E+00 -0.00000000000E+00 -0.12542205008E+04  0.12542205008E+04  0.00000000000E+00 0. -1.
         25    2    1    2    0    0  0.13790614774E+03 -0.12462325661E+03  0.31197951929E+03  0.38406398078E+03  0.12499943682E+03 0.  0.
          2    1    1    2  501    0 -0.10965765975E+02  0.56244942161E+02 -0.12142709630E+04  0.12156223563E+04  0.00000000000E+00 0. -1.
          1    1    1    2  502    0 -0.12694038177E+03  0.68378314447E+02  0.16050574381E+04  0.16115206588E+04  0.00000000000E+00 0. -1.
         22    1    3    3    0    0  0.49128585265E+02 -0.12451783945E+03  0.16650932306E+03  0.21364378038E+03  0.00000000000E+00 0.  1.
         22    1    3    3    0    0  0.88777562479E+02 -0.10541716044E+00  0.14547019623E+03  0.17042020040E+03  0.00000000000E+00 0.  1.
</event>
<event>
 7    1  0.7457412E-006  0.1419373E+03  0.7818608E-02  0.1264984E+00
          2   -1    0    0  502    0  0.00000000000E+00  0.00000000000E+00  0.13517455455E+04  0.13517455455E+04  0.00000000000E+00 0. -1.
          1   -1    0    0  501    0 -0.00000000000E+00 -0.00000000000E+00 -0.34176132785E+03  0.34176132785E+03  0.00000000000E+00 0. -1.
         25    2    1    2    0    0 -0.47524911522E+02 -0.55582029610E+02  0.15670295125E+03  0.21337437274E+03  0.12499931512E+03 0.  0.
          2    1    1    2  501    0 -0.44367841980E+02 -0.68538426040E+02 -0.30288563502E+03  0.31369687462E+03  0.00000000000E+00 0. -1.
          1    1    1    2  502    0  0.91892753502E+02  0.12412045565E+03  0.11561669014E+04  0.11664356260E+04  0.00000000000E+00 0. -1.
         22    1    3    3    0    0 -0.81549429441E+02 -0.65131298272E+02  0.13908234873E+03  0.17388586828E+03  0.00000000000E+00 0. -1.
         22    1    3    3    0    0  0.34024517919E+02  0.95492686619E+01  0.17620602520E+02  0.39488504463E+02  0.00000000000E+00 0. -1.
</event>
<event>
 7    1  0.7537698E-006  0.1714847E+03  0.7818608E-02  0.1261557E+00
          2   -1    0    0  502    0  0.00000000000E+00  0.00000000000E+00  0.19999436799E+04  0.19999436799E+04  0.00000000000E+00 0. -1.
          1   -1    0    0  501    0 -0.00000000000E+00 -0.00000000000E+00 -0.18664044198E+04  0.18664044198E+04  0.00000000000E+00 0. -1.
         25    2    1    2    0    0 -0.14626423786E+03 -0.16938096403E+03 -0.72028597891E+03  0.76453888004E+03  0.12499867766E+03 0.  0.
          2    1    1    2  501    0  0.86708274312E+02  0.13282505946E+03 -0.11177735941E+04  0.11289723774E+04  0.00000000000E+00 0. -1.
          1    1    1    2  502    0  0.59555963548E+02  0.36555904576E+02  0.19715988331E+04  0.19728368422E+04  0.00000000000E+00 0. -1.
         22    1    3    3    0    0 -0.11729275151E+03 -0.62045829133E+02 -0.50624957891E+03  0.52335065742E+03  0.00000000000E+00 0. -1.
         22    1    3    3    0    0 -0.28971486350E+02 -0.10733513490E+03 -0.21403640000E+03  0.24118822262E+03  0.00000000000E+00 0. -1.
</event>
<event>
 7    1  0.7457412E-006  0.4424210E+02  0.7818608E-02  0.1570651E+00
          2   -1    0    0  502    0  0.00000000000E+00  0.00000000000E+00  0.21005586399E+03  0.21005586399E+03  0.00000000000E+00 0. -1.
          1   -1    0    0  501    0 -0.00000000000E+00 -0.00000000000E+00 -0.60659401078E+03  0.60659401078E+03  0.00000000000E+00 0. -1.
         25    2    1    2    0    0  0.81774638762E+01 -0.29867820407E+02 -0.82375084133E+02  0.15287165586E+03  0.12500052428E+03 0.  0.
          2    1    1    2  501    0  0.11909575554E+02  0.43138951152E+02 -0.48711107873E+03  0.48916256002E+03  0.00000000000E+00 0. -1.
          1    1    1    2  502    0 -0.20087039430E+02 -0.13271130745E+02  0.17294801607E+03  0.17461565889E+03  0.00000000000E+00 0. -1.
         22    1    3    3    0    0  0.14066098397E+02 -0.34827564049E+02  0.25065016965E+02  0.45156056263E+02  0.00000000000E+00 0. -1.
         22    1    3    3    0    0 -0.58886345208E+01  0.49597436425E+01 -0.10744010110E+03  0.10771559960E+03  0.00000000000E+00 0. -1.
</event>
<event>
 7    1  0.7457412E-006  0.1077862E+03  0.7818608E-02  0.1327245E+00
          2   -1    0    0  502    0  0.00000000000E+00  0.00000000000E+00  0.51760700135E+03  0.51760700135E+03  0.00000000000E+00 0. -1.
          1   -1    0    0  501    0 -0.00000000000E+00 -0.00000000000E+00 -0.28347362154E+03  0.28347362154E+03  0.00000000000E+00 0. -1.
         25    2    1    2    0    0 -0.96446624684E+02  0.83180917769E+02  0.60662202204E+02  0.18848153524E+03  0.12499747941E+03 0.  0.
          2    1    1    2  501    0  0.38502399601E+02 -0.99981109347E+02 -0.20395422069E+03  0.23038225005E+03  0.00000000000E+00 0. -1.
          1    1    1    2  502    0  0.57944225083E+02  0.16800191577E+02  0.37742539830E+03  0.38221683759E+03  0.00000000000E+00 0. -1.
         22    1    3    3    0    0 -0.11780331429E+03  0.43950131557E+02  0.68420721448E+02  0.14314548559E+03  0.00000000000E+00 0. -1.
         22    1    3    3    0    0  0.21356689602E+02  0.39230786212E+02 -0.77585192436E+01  0.45336049656E+02  0.00000000000E+00 0. -1.
</event>
<event>
 7    1  0.7457412E-006  0.7572580E+02  0.7818608E-02  0.1366066E+00
          2   -1    0    0  502    0  0.00000000000E+00  0.00000000000E+00  0.73701289221E+03  0.73701289221E+03  0.00000000000E+00 0. -1.
          1   -1    0    0  501    0 -0.00000000000E+00 -0.00000000000E+00 -0.76191416153E+03  0.76191416153E+03  0.00000000000E+00 0. -1.
         25    2    1    2    0    0  0.62780726533E+02  0.19175978555E+02  0.22509484888E+03  0.26571377106E+03  0.12500791719E+03 0.  0.
          2    1    1    2  501    0 -0.28640456013E+02 -0.70394319596E+02 -0.73771814577E+03  0.74162234226E+03  0.00000000000E+00 0. -1.
          1    1    1    2  502    0 -0.34140270520E+02  0.51218341041E+02  0.48772202756E+03  0.49159094041E+03  0.00000000000E+00 0. -1.
         22    1    3    3    0    0  0.69303035949E+02 -0.29185543340E+02  0.19345178267E+03  0.20755312320E+03  0.00000000000E+00 0.  1.
         22    1    3    3    0    0 -0.65223094164E+01  0.48361521895E+02  0.31643066209E+02  0.58160647858E+02  0.00000000000E+00 0.  1.
</event>
<event>
 7    1  0.7457412E-006  0.4250305E+02  0.7818608E-02  0.1581545E+00
          2   -1    0    0  502    0  0.00000000000E+00  0.00000000000E+00  0.57685652421E+03  0.57685652421E+03  0.00000000000E+00 0. -1.
          1   -1    0    0  501    0 -0.00000000000E+00 -0.00000000000E+00 -0.91932541442E+02  0.91932541442E+02  0.00000000000E+00 0. -1.
         25    2    1    2    0    0 -0.23485407203E+02 -0.98717224006E+00  0.97803857811E+02  0.16044626305E+03  0.12499947945E+03 0.  0.
          2    1    1    2  501    0  0.41452974321E+02 -0.14037945832E+02 -0.52358244192E+02  0.68240741043E+02  0.00000000000E+00 0. -1.
          1    1    1    2  502    0 -0.17967567118E+02  0.15025118072E+02  0.43947836915E+03  0.44010206156E+03  0.00000000000E+00 0. -1.
         22    1    3    3    0    0  0.22979071112E+02 -0.44743341069E+02  0.79453118867E+02  0.94036175895E+02  0.00000000000E+00 0.  1.
         22    1    3    3    0    0 -0.46464478315E+02  0.43756168829E+02  0.18350738944E+02  0.66410087151E+02  0.00000000000E+00 0.  1.
</event>
<event>
 7    1  0.7457412E-006  0.6748721E+02  0.7818608E-02  0.1387334E+00
          2   -1    0    0  502    0  0.00000000000E+00  0.00000000000E+00  0.59013398009E+03  0.59013398009E+03  0.00000000000E+00 0. -1.
          1   -1    0    0  501    0 -0.00000000000E+00 -0.00000000000E+00 -0.21333290277E+04  0.21333290277E+04  0.00000000000E+00 0. -1.
         25    2    1    2    0    0 -0.19319229358E+02  0.29063609534E+02 -0.93584775268E+02  0.16000475881E+03  0.12500194661E+03 0.  0.
          2    1    1    2  501    0 -0.28299183426E+02 -0.62211040622E+02 -0.20044391616E+04  0.20056040012E+04  0.00000000000E+00 0. -1.
          1    1    1    2  502    0  0.47618412784E+02  0.33147431088E+02  0.55482888922E+03  0.55785424776E+03  0.00000000000E+00 0. -1.
         22    1    3    3    0    0 -0.58477287836E+02  0.56939884587E+02 -0.55914436147E+02  0.98935169778E+02  0.00000000000E+00 0. -1.
         22    1    3    3    0    0  0.39158058477E+02 -0.27876275053E+02 -0.37670339122E+02  0.61069589028E+02  0.00000000000E+00 0. -1.
</event>
<event>
 7    1  0.7457412E-006  0.4002892E+02  0.7818608E-02  0.1518789E+00
          2   -1    0    0  502    0  0.00000000000E+00  0.00000000000E+00  0.21239472353E+03  0.21239472353E+03  0.00000000000E+00 0. -1.
          1   -1    0    0  501    0 -0.00000000000E+00 -0.00000000000E+00 -0.58317099820E+03  0.58317099820E+03  0.00000000000E+00 0. -1.
         25    2    1    2    0    0  0.40598075895E+02  0.17634729211E+02 -0.50683380393E+03  0.52389370914E+03  0.12499970493E+03 0.  0.
          2    1    1    2  501    0 -0.34119001640E+02  0.21866361698E+02 -0.59538860184E+02  0.72021662844E+02  0.00000000000E+00 0. -1.
          1    1    1    2  502    0 -0.64790742554E+01 -0.39501090909E+02  0.19559638945E+03  0.19965034974E+03  0.00000000000E+00 0. -1.
         22    1    3    3    0    0  0.14253330160E+02 -0.24862359525E+02 -0.21086987123E+02  0.35580266550E+02  0.00000000000E+00 0.  1.
         22    1    3    3    0    0  0.26344745735E+02  0.42497088736E+02 -0.48574681681E+03  0.48831344259E+03  0.00000000000E+00 0.  1.
</event>
<event>
 7    1  0.7457412E-006  0.3383388E+02  0.7818608E-02  0.1635770E+00
          2   -1    0    0  502    0  0.00000000000E+00  0.00000000000E+00  0.13131669767E+04  0.13131669767E+04  0.00000000000E+00 0. -1.
          1   -1    0    0  501    0 -0.00000000000E+00 -0.00000000000E+00 -0.24557684480E+02  0.24557684480E+02  0.00000000000E+00 0. -1.
         25    2    1    2    0    0  0.99294938514E+01 -0.83091298688E+01  0.26111059927E+03  0.28978002479E+03  0.12500432484E+03 0.  0.
          2    1    1    2  501    0  0.15864325898E+02 -0.14224446443E+02  0.14847883155E+01  0.21359220705E+02  0.00000000000E+00 0. -1.
          1    1    1    2  502    0 -0.25793819749E+02  0.22533576311E+02  0.10260139046E+04  0.10265854157E+04  0.00000000000E+00 0. -1.
         22    1    3    3    0    0 -0.43076748014E+02 -0.30785783038E+02  0.57404438896E+02  0.78093791441E+02  0.00000000000E+00 0.  1.
         22    1    3    3    0    0  0.53006241865E+02  0.22476653169E+02  0.20370616038E+03  0.21168623335E+03  0.00000000000E+00 0.  1.
</event>
<event>
 7    1  0.7457412E-006  0.1471095E+03  0.7818608E-02  0.1332467E+00
          2   -1    0    0  502    0  0.00000000000E+00  0.00000000000E+00  0.34197982626E+03  0.34197982626E+03  0.00000000000E+00 0. -1.
          1   -1    0    0  501    0 -0.00000000000E+00 -0.00000000000E+00 -0.20314851210E+03  0.20314851210E+03  0.00000000000E+00 0. -1.
         25    2    1    2    0    0  0.43168322942E+02  0.13757830052E+03  0.12858408637E+02  0.19124658638E+03  0.12497449840E+03 0.  0.
          2    1    1    2  501    0 -0.40613386690E+02  0.11531779120E+02 -0.85358615134E+02  0.95228789165E+02  0.00000000000E+00 0. -1.
          1    1    1    2  502    0 -0.25549362522E+01 -0.14911007964E+03  0.21133152065E+03  0.25865296281E+03  0.00000000000E+00 0. -1.
         22    1    3    3    0    0 -0.91502212894E+01  0.13523148890E+03  0.24141265899E+02  0.13767382779E+03  0.00000000000E+00 0.  1.
         22    1    3    3    0    0  0.52318544232E+02  0.23468116259E+01 -0.11282857262E+02  0.53572758594E+02  0.00000000000E+00 0.  1.
</event>
<event>
 7    1  0.7457412E-006  0.1966135E+03  0.7818608E-02  0.1266731E+00
          2   -1    0    0  502    0  0.00000000000E+00  0.00000000000E+00  0.16007035475E+04  0.16007035475E+04  0.00000000000E+00 0. -1.
          1   -1    0    0  501    0 -0.00000000000E+00 -0.00000000000E+00 -0.15157379184E+04  0.15157379184E+04  0.00000000000E+00 0. -1.
         25    2    1    2    0    0  0.20386755989E+03 -0.84363539388E+02 -0.19342638277E+03  0.31893254018E+03  0.12500004353E+03 0.  0.
          2    1    1    2  501    0 -0.15567511218E+03  0.11654055277E+03 -0.12515007807E+04  0.12665191057E+04  0.00000000000E+00 0. -1.
          1    1    1    2  502    0 -0.48192447710E+02 -0.32177013380E+02  0.15298927926E+04  0.15309898201E+04  0.00000000000E+00 0. -1.
         22    1    3    3    0    0  0.11252539712E+03  0.15358414029E+02 -0.57898358314E+02  0.12747574582E+03  0.00000000000E+00 0. -1.
         22    1    3    3    0    0  0.91342162775E+02 -0.99721953417E+02 -0.13552802445E+03  0.19145679436E+03  0.00000000000E+00 0. -1.
</event>
<event>
 7    1  0.7457412E-006  0.9615434E+02  0.7818608E-02  0.1334085E+00
          2   -1    0    0  502    0  0.00000000000E+00  0.00000000000E+00  0.78743643423E+03  0.78743643423E+03  0.00000000000E+00 0. -1.
          1   -1    0    0  501    0 -0.00000000000E+00 -0.00000000000E+00 -0.15775718578E+04  0.15775718578E+04  0.00000000000E+00 0. -1.
         25    2    1    2    0    0 -0.77742326386E+02 -0.13466910582E+03  0.14574016982E+03  0.24707181589E+03  0.12499859093E+03 0.  0.
          2    1    1    2  501    0  0.61939861327E+02  0.72977348949E+02 -0.15236843668E+04  0.15266880132E+04  0.00000000000E+00 0. -1.
          1    1    1    2  502    0  0.15802465059E+02  0.61691756866E+02  0.58780877346E+03  0.59124846293E+03  0.00000000000E+00 0. -1.
         22    1    3    3    0    0 -0.86979367159E+02 -0.47026222518E+02  0.11953370975E+03  0.15512957063E+03  0.00000000000E+00 0.  1.
         22    1    3    3    0    0  0.92370407726E+01 -0.87642883297E+02  0.26206460071E+02  0.91942245264E+02  0.00000000000E+00 0.  1.
</event>
<event>
 7    1  0.7457412E-006  0.9505016E+02  0.7818608E-02  0.1302636E+00
          2   -1    0    0  502    0  0.00000000000E+00  0.00000000000E+00  0.22119603053E+04  0.22119603053E+04  0.00000000000E+00 0. -1.
          1   -1    0    0  501    0 -0.00000000000E+00 -0.00000000000E+00 -0.41587931690E+03  0.41587931690E+03  0.00000000000E+00 0. -1.
         25    2    1    2    0    0  0.87811197626E+01  0.20748989723E+02  0.11998843054E+04  0.12065868471E+04  0.12498737750E+03 0.  0.
          2    1    1    2  501    0 -0.94047023359E+02 -0.16199136729E+02 -0.40516749267E+03  0.41625467175E+03  0.00000000000E+00 0. -1.
          1    1    1    2  502    0  0.85265903597E+02 -0.45498529948E+01  0.10013641757E+04  0.10049981034E+04  0.00000000000E+00 0. -1.
         22    1    3    3    0    0 -0.54403489118E+02  0.12367564401E+02  0.36112917561E+03  0.36541343401E+03  0.00000000000E+00 0.  1.
         22    1    3    3    0    0  0.63184608880E+02  0.83814253227E+01  0.83875512979E+03  0.84117341306E+03  0.00000000000E+00 0.  1.
</event>
<event>
 7    1  0.7457412E-006  0.7497486E+02  0.7818608E-02  0.1364674E+00
          2   -1    0    0  502    0  0.00000000000E+00  0.00000000000E+00  0.27128728734E+04  0.27128728734E+04  0.00000000000E+00 0. -1.
          1   -1    0    0  501    0 -0.00000000000E+00 -0.00000000000E+00 -0.10628330591E+03  0.10628330591E+03  0.00000000000E+00 0. -1.
         25    2    1    2    0    0 -0.12500688738E+03 -0.31445427920E+02  0.10004599784E+04  0.10164449736E+04  0.12499871673E+03 0.  0.
          2    1    1    2  501    0  0.62682783814E+02  0.39908928739E+02 -0.83576923390E+02  0.11183450319E+03  0.00000000000E+00 0. -1.
          1    1    1    2  502    0  0.62324103566E+02 -0.84635008183E+01  0.16897065125E+04  0.16908767025E+04  0.00000000000E+00 0. -1.
         22    1    3    3    0    0 -0.13229095176E+03 -0.44404026731E+01  0.94606737353E+03  0.95528220352E+03  0.00000000000E+00 0.  1.
         22    1    3    3    0    0  0.72840643751E+01 -0.27005025247E+02  0.54392604878E+02  0.61162770113E+02  0.00000000000E+00 0.  1.
</event>
<event>
 7    1  0.7457412E-006  0.1164895E+03  0.7818608E-02  0.1444951E+00
          2   -1    0    0  502    0  0.00000000000E+00  0.00000000000E+00  0.31133469860E+04  0.31133469860E+04  0.00000000000E+00 0. -1.
          1   -1    0    0  501    0 -0.00000000000E+00 -0.00000000000E+00 -0.33451431337E+03  0.33451431337E+03  0.00000000000E+00 0. -1.
         25    2    1    2    0    0 -0.73490221487E+02 -0.64068027508E+02  0.30864238437E+02  0.16150066348E+03  0.12499735313E+03 0.  0.
          2    1    1    2  501    0 -0.21027342957E+02 -0.45941000576E+01 -0.26763303514E+03  0.26849710689E+03  0.00000000000E+00 0. -1.
          1    1    1    2  502    0  0.94517564444E+02  0.68662127565E+02  0.30156014693E+04  0.30178635290E+04  0.00000000000E+00 0. -1.
         22    1    3    3    0    0 -0.92382072800E+02 -0.28131852546E+01  0.55825977274E+01  0.92593340924E+02  0.00000000000E+00 0.  1.
         22    1    3    3    0    0  0.18891851312E+02 -0.61254842253E+02  0.25281640710E+02  0.68907322560E+02  0.00000000000E+00 0.  1.
</event>
<event>
 7    1  0.7457412E-006  0.1812232E+03  0.7818608E-02  0.1192035E+00
          2   -1    0    0  502    0  0.00000000000E+00  0.00000000000E+00  0.39143906706E+04  0.39143906706E+04  0.00000000000E+00 0. -1.
          1   -1    0    0  501    0 -0.00000000000E+00 -0.00000000000E+00 -0.29138868891E+04  0.29138868891E+04  0.00000000000E+00 0. -1.
         25    2    1    2    0    0 -0.30164674841E+03 -0.86746087500E+02 -0.58651711301E+02  0.34290011934E+03  0.12499929632E+03 0.  0.
          2    1    1    2  501    0  0.16820255185E+03  0.59731761992E+02 -0.27089444291E+04  0.27148185762E+04  0.00000000000E+00 0. -1.
          1    1    1    2  502    0  0.13344419657E+03  0.27014325508E+02  0.37680999218E+04  0.37705588642E+04  0.00000000000E+00 0. -1.
         22    1    3    3    0    0 -0.82133493083E+02 -0.73888548464E+02  0.13903471555E+02  0.11134960620E+03  0.00000000000E+00 0.  1.
         22    1    3    3    0    0 -0.21951325533E+03 -0.12857539036E+02 -0.72555182856E+02  0.23155051314E+03  0.00000000000E+00 0.  1.
</event>
<event>
 7    1  0.7457412E-006  0.1209283E+03  0.7818608E-02  0.1321358E+00
          2   -1    0    0  502    0  0.00000000000E+00  0.00000000000E+00  0.36684510165E+04  0.36684510165E+04  0.00000000000E+00 0. -1.
          1   -1    0    0  501    0 -0.00000000000E+00 -0.00000000000E+00 -0.11433646956E+03  0.11433646956E+03  0.00000000000E+00 0. -1.
         25    2    1    2    0    0  0.18311076893E+02  0.73713438087E+02  0.17848780105E+03  0.23076416955E+03  0.12500096133E+03 0.  0.
          2    1    1    2  501    0 -0.43426552923E+02 -0.12450086023E+03 -0.38549618343E+02  0.13737686403E+03  0.00000000000E+00 0. -1.
          1    1    1    2  502    0  0.25115476030E+02  0.50787422139E+02  0.34141763642E+04  0.34146464525E+04  0.00000000000E+00 0. -1.
         22    1    3    3    0    0  0.26526635744E+02  0.69577121564E+02  0.27318721135E+02  0.79315514078E+02  0.00000000000E+00 0.  1.
         22    1    3    3    0    0 -0.82155588511E+01  0.41363165226E+01  0.15116907992E+03  0.15144865547E+03  0.00000000000E+00 0.  1.
</event>
<event>
 7    1  0.7457412E-006  0.1303628E+03  0.7818608E-02  0.1243528E+00
          2   -1    0    0  502    0  0.00000000000E+00  0.00000000000E+00  0.16393887953E+04  0.16393887953E+04  0.00000000000E+00 0. -1.
          1   -1    0    0  501    0 -0.00000000000E+00 -0.00000000000E+00 -0.43385603187E+03  0.43385603187E+03  0.00000000000E+00 0. -1.
         25    2    1    2    0    0  0.37324439978E+02  0.31152613482E+02 -0.31936401838E+02  0.13787174516E+03  0.12500034081E+03 0.  0.
          2    1    1    2  501    0 -0.11141148001E+03 -0.11243593724E+03 -0.32897441624E+03  0.36507331374E+03  0.00000000000E+00 0. -1.
          1    1    1    2  502    0  0.74087040035E+02  0.81283323762E+02  0.15664435815E+04  0.15702997683E+04  0.00000000000E+00 0. -1.
         22    1    3    3    0    0 -0.94893644704E+01  0.20815693927E+02 -0.71903998089E+02  0.75455457675E+02  0.00000000000E+00 0.  1.
         22    1    3    3    0    0  0.46813804448E+02  0.10336919555E+02  0.39967596251E+02  0.62416287481E+02  0.00000000000E+00 0.  1.
</event>
<event>
 7    1  0.7457412E-006  0.4548561E+02  0.7818608E-02  0.1479043E+00
          2   -1    0    0  502    0  0.00000000000E+00  0.00000000000E+00  0.98279467373E+03  0.98279467373E+03  0.00000000000E+00 0. -1.
          1   -1    0    0  501    0 -0.00000000000E+00 -0.00000000000E+00 -0.51190706074E+02  0.51190706074E+02  0.00000000000E+00 0. -1.
         25    2    1    2    0    0 -0.48299259080E+02 -0.39716657151E+02  0.31870899412E+03  0.34801007791E+03  0.12500144043E+03 0.  0.
          2    1    1    2  501    0  0.42722149737E+02 -0.53739403887E+01 -0.22756362860E+02  0.48702293211E+02  0.00000000000E+00 0. -1.
          1    1    1    2  502    0  0.55771093427E+01  0.45090597540E+02  0.63565133639E+03  0.63727300868E+03  0.00000000000E+00 0. -1.
         22    1    3    3    0    0 -0.53797366656E+02  0.11420163541E+02  0.49691598083E+02  0.74120386632E+02  0.00000000000E+00 0.  1.
         22    1    3    3    0    0  0.54981075767E+01 -0.51136820692E+02  0.26901739604E+03  0.27388969128E+03  0.00000000000E+00 0.  1.
</event>
<event>
 7    1  0.7457412E-006  0.1888476E+03  0.7818608E-02  0.1222591E+00
          2   -1    0    0  502    0  0.00000000000E+00  0.00000000000E+00  0.66440885225E+03  0.66440885225E+03  0.00000000000E+00 0. -1.
          1   -1    0    0  501    0 -0.00000000000E+00 -0.00000000000E+00 -0.14381672167E+03  0.14381672167E+03  0.00000000000E+00 0. -1.
         25    2    1    2    0    0 -0.61518689436E+02  0.23326098223E+03  0.84558910806E+02  0.28455356283E+03  0.12500114297E+03 0.  0.
          2    1    1    2  501    0  0.43555125534E+02 -0.14085189187E+03  0.10897569793E+03  0.18333577704E+03  0.00000000000E+00 0. -1.
          1    1    1    2  502    0  0.17963563901E+02 -0.92409090353E+02  0.32705752185E+03  0.34033623405E+03  0.00000000000E+00 0. -1.
         22    1    3    3    0    0 -0.95866816424E+02  0.12462776841E+03  0.57783664809E+02  0.16751560844E+03  0.00000000000E+00 0. -1.
         22    1    3    3    0    0  0.34348126988E+02  0.10863321381E+03  0.26775245997E+02  0.11703795440E+03  0.00000000000E+00 0. -1.
</event>
<event>
 7    1  0.7457412E-006  0.7307994E+02  0.7818608E-02  0.1487413E+00
          2   -1    0    0  502    0  0.00000000000E+00  0.00000000000E+00  0.25020817630E+04  0.25020817630E+04  0.00000000000E+00 0. -1.
          1   -1    0    0  501    0 -0.00000000000E+00 -0.00000000000E+00 -0.29306867208E+02  0.29306867208E+02  0.00000000000E+00 0. -1.
         25    2    1    2    0    0  0.82984313928E+02 -0.30246538646E+02  0.65914848846E+03  0.67668512240E+03  0.12499910227E+03 0.  0.
          2    1    1    2  501    0 -0.71434222652E+02  0.77725112337E+01  0.42676990263E+02  0.83573833194E+02  0.00000000000E+00 0. -1.
          1    1    1    2  502    0 -0.11550091276E+02  0.22474027412E+02  0.17709494170E+04  0.17711296746E+04  0.00000000000E+00 0. -1.
         22    1    3    3    0    0  0.54869388803E+02 -0.71209336813E+02  0.27460010166E+03  0.28894053940E+03  0.00000000000E+00 0. -1.
         22    1    3    3    0    0  0.28114925125E+02  0.40962798167E+02  0.38454838680E+03  0.38774458299E+03  0.00000000000E+00 0. -1.
</event>
<event>
 7    1  0.7457412E-006  0.1217863E+03  0.7818608E-02  0.1241271E+00
          2   -1    0    0  502    0  0.00000000000E+00  0.00000000000E+00  0.25832184074E+04  0.25832184074E+04  0.00000000000E+00 0. -1.
          1   -1    0    0  501    0 -0.00000000000E+00 -0.00000000000E+00 -0.48444358709E+03  0.48444358709E+03  0.00000000000E+00 0. -1.
         25    2    1    2    0    0  0.48708832080E+02 -0.11340826386E+03 -0.22200805531E+03  0.28310087513E+03  0.12499817696E+03 0.  0.
          2    1    1    2  501    0 -0.11962961579E+03  0.13991262475E+02 -0.21467971103E+03  0.24615925481E+03  0.00000000000E+00 0. -1.
          1    1    1    2  502    0  0.70920783706E+02  0.99417001384E+02  0.25354625867E+04  0.25384018646E+04  0.00000000000E+00 0. -1.
         22    1    3    3    0    0  0.87889970253E+02 -0.50480592183E+02 -0.12182999250E+03  0.15847865512E+03  0.00000000000E+00 0.  1.
         22    1    3    3    0    0 -0.39181138172E+02 -0.62927671676E+02 -0.10017806281E+03  0.12462222001E+03  0.00000000000E+00 0.  1.
</event>
<event>
 7    1  0.7457412E-006  0.1265157E+03  0.7818608E-02  0.1256393E+00
          2   -1    0    0  502    0  0.00000000000E+00  0.00000000000E+00  0.37549885279E+03  0.37549885279E+03  0.00000000000E+00 0. -1.
          1   -1    0    0  501    0 -0.00000000000E+00 -0.00000000000E+00 -0.61364337972E+03  0.61364337972E+03  0.00000000000E+00 0. -1.
         25    2    1    2    0    0  0.38568766602E+02 -0.14971823406E+01  0.10540836417E+03  0.16800803827E+03  0.12500394543E+03 0.  0.
          2    1    1    2  501    0 -0.11756254759E+03 -0.59262707125E+02 -0.56402375296E+03  0.57918547543E+03  0.00000000000E+00 0. -1.
          1    1    1    2  502    0  0.78993780990E+02  0.60759889465E+02  0.22047086186E+03  0.24194871880E+03  0.00000000000E+00 0. -1.
         22    1    3    3    0    0  0.47788539461E+02 -0.29999068467E+01  0.13168504771E+03  0.14012029023E+03  0.00000000000E+00 0. -1.
         22    1    3    3    0    0 -0.92197728597E+01  0.15027245062E+01 -0.26276683542E+02  0.27887748035E+02  0.00000000000E+00 0. -1.
</event>
<event>
 7    1  0.7457412E-006  0.1043335E+03  0.7818608E-02  0.1328029E+00
          2   -1    0    0  502    0  0.00000000000E+00  0.00000000000E+00  0.57440481053E+02  0.57440481053E+02  0.00000000000E+00 0. -1.
          1   -1    0    0  501    0 -0.00000000000E+00 -0.00000000000E+00 -0.79214249039E+03  0.79214249039E+03  0.00000000000E+00 0. -1.
         25    2    1    2    0    0 -0.10951141207E+03 -0.10356229150E+03 -0.26885821191E+03  0.33260807085E+03  0.12500197234E+03 0.  0.
          2    1    1    2  501    0  0.52483048634E+02  0.32814778742E+02 -0.39999068682E+03  0.40475156534E+03  0.00000000000E+00 0. -1.
          1    1    1    2  502    0  0.57028363439E+02  0.70747512762E+02 -0.65853110600E+02  0.11222333525E+03  0.00000000000E+00 0. -1.
         22    1    3    3    0    0 -0.10965124254E+03 -0.19925793665E+02 -0.13923827719E+03  0.17834721775E+03  0.00000000000E+00 0.  1.
         22    1    3    3    0    0  0.13983046941E+00 -0.83636497838E+02 -0.12961993472E+03  0.15426085310E+03  0.00000000000E+00 0.  1.
</event>
<event>
 7    1  0.7457412E-006  0.1486919E+03  0.7818608E-02  0.1329452E+00
          2   -1    0    0  502    0  0.00000000000E+00  0.00000000000E+00  0.19295798990E+03  0.19295798990E+03  0.00000000000E+00 0. -1.
          1   -1    0    0  501    0 -0.00000000000E+00 -0.00000000000E+00 -0.10474508551E+04  0.10474508551E+04  0.00000000000E+00 0. -1.
         25    2    1    2    0    0 -0.11739617985E+03 -0.13723496159E+03 -0.26114040394E+03  0.34122652592E+03  0.12500373472E+03 0.  0.
          2    1    1    2  501    0  0.10683230264E+03  0.95665828081E+02 -0.73619881163E+03  0.75003585367E+03  0.00000000000E+00 0. -1.
          1    1    1    2  502    0  0.10563877215E+02  0.41569133504E+02  0.14284635031E+03  0.14914646546E+03  0.00000000000E+00 0. -1.
         22    1    3    3    0    0 -0.49294046960E+02 -0.13490674045E+03 -0.13134387811E+03  0.19463028028E+03  0.00000000000E+00 0. -1.
         22    1    3    3    0    0 -0.68102132892E+02 -0.23282211365E+01 -0.12979652583E+03  0.14659624564E+03  0.00000000000E+00 0. -1.
</event>
<event>
 7    1  0.7457412E-006  0.1068293E+03  0.7818608E-02  0.1267967E+00
          2   -1    0    0  502    0  0.00000000000E+00  0.00000000000E+00  0.38466498934E+04  0.38466498934E+04  0.00000000000E+00 0. -1.
          1   -1    0    0  501    0 -0.00000000000E+00 -0.00000000000E+00 -0.10822121028E+04  0.10822121028E+04  0.00000000000E+00 0. -1.
         25    2    1    2    0    0  0.23628090448E+02  0.89924707672E+02  0.16887695347E+04  0.16959398655E+04  0.12499898519E+03 0.  0.
          2    1    1    2  501    0 -0.10455191190E+03 -0.22430232914E+02 -0.10746833874E+04  0.10799900929E+04  0.00000000000E+00 0. -1.
          1    1    1    2  502    0  0.80923821448E+02 -0.67494474759E+02  0.21503516433E+04  0.21529320377E+04  0.00000000000E+00 0. -1.
         22    1    3    3    0    0  0.54436677823E+02  0.86625193034E+02  0.15653675225E+04  0.15687073521E+04  0.00000000000E+00 0.  1.
         22    1    3    3    0    0 -0.30808587375E+02  0.32995146387E+01  0.12340201218E+03  0.12723251338E+03  0.00000000000E+00 0.  1.
</event>
<event>
 7    1  0.7457412E-006  0.5392400E+02  0.7818608E-02  0.1455606E+00
          2   -1    0    0  502    0  0.00000000000E+00  0.00000000000E+00  0.86682832361E+03  0.86682832361E+03  0.00000000000E+00 0. -1.
          1   -1    0    0  501    0 -0.00000000000E+00 -0.00000000000E+00 -0.90696851712E+02  0.90696851712E+02  0.00000000000E+00 0. -1.
         25    2    1    2    0    0 -0.59006787643E+02  0.15101131827E+02  0.25560770235E+03  0.29098083549E+03  0.12499881580E+03 0.  0.
          2    1    1    2  501    0  0.28987379876E+02 -0.45869997444E+02 -0.62025903413E+02  0.82410785409E+02  0.00000000000E+00 0. -1.
          1    1    1    2  502    0  0.30019407767E+02  0.30768865617E+02  0.58254967297E+03  0.58413355443E+03  0.00000000000E+00 0. -1.
         22    1    3    3    0    0 -0.90477302563E+02  0.17053106889E+02  0.11726669547E+03  0.14909201387E+03  0.00000000000E+00 0.  1.
         22    1    3    3    0    0  0.31470514920E+02 -0.19519750619E+01  0.13834100688E+03  0.14188882162E+03  0.00000000000E+00 0.  1.
</event>
<event>
 7    1  0.7457412E-006  0.5066102E+02  0.7818608E-02  0.1520902E+00
          2   -1    0    0  502    0  0.00000000000E+00  0.00000000000E+00  0.28546283710E+03  0.28546283710E+03  0.00000000000E+00 0. -1.
          1   -1    0    0  501    0 -0.00000000000E+00 -0.00000000000E+00 -0.62741728397E+02  0.62741728397E+02  0.00000000000E+00 0. -1.
         25    2    1    2    0    0 -0.68540589511E+02 -0.27410851316E+02  0.14267955832E+03  0.20354711813E+03  0.12499922302E+03 0.  0.
          2    1    1    2  501    0  0.28887759481E+02  0.24887634958E+01 -0.19299017638E+02  0.34830283854E+02  0.00000000000E+00 0. -1.
          1    1    1    2  502    0  0.39652830030E+02  0.24922087820E+02  0.99340568014E+02  0.10982716351E+03  0.00000000000E+00 0. -1.
         22    1    3    3    0    0 -0.39792686942E+02  0.46706315579E+02  0.87120494958E+02  0.10655945988E+03  0.00000000000E+00 0.  1.
         22    1    3    3    0    0 -0.28747902569E+02 -0.74117166895E+02  0.55559063366E+02  0.96987658250E+02  0.00000000000E+00 0.  1.
</event>
<event>
 7    1  0.7457412E-006  0.6215332E+02  0.7818608E-02  0.1513144E+00
          2   -1    0    0  502    0  0.00000000000E+00  0.00000000000E+00  0.47294788455E+03  0.47294788455E+03  0.00000000000E+00 0. -1.
          1   -1    0    0  501    0 -0.00000000000E+00 -0.00000000000E+00 -0.49028976262E+03  0.49028976262E+03  0.00000000000E+00 0. -1.
         25    2    1    2    0    0 -0.72477986396E+01 -0.70072098321E+02  0.11544795296E+02  0.14394487802E+03  0.12499686421E+03 0.  0.
          2    1    1    2  501    0  0.27509334303E+02  0.55603475682E+02 -0.42142453306E+03  0.42596613368E+03  0.00000000000E+00 0. -1.
          1    1    1    2  502    0 -0.20261535663E+02  0.14468622639E+02  0.39253785970E+03  0.39332663546E+03  0.00000000000E+00 0. -1.
         22    1    3    3    0    0 -0.10084568933E+02 -0.68134812719E+02  0.62420345481E+02  0.92953487104E+02  0.00000000000E+00 0. -1.
         22    1    3    3    0    0  0.28367702930E+01 -0.19372856022E+01 -0.50875550185E+02  0.50991390919E+02  0.00000000000E+00 0. -1.
</event>
<event>
 7    1  0.7457412E-006  0.7064202E+02  0.7818608E-02  0.1393144E+00
          2   -1    0    0  502    0  0.00000000000E+00  0.00000000000E+00  0.48829405850E+02  0.48829405850E+02  0.00000000000E+00 0. -1.
          1   -1    0    0  501    0 -0.00000000000E+00 -0.00000000000E+00 -0.27776656268E+04  0.27776656268E+04  0.00000000000E+00 0. -1.
         25    2    1    2    0    0 -0.52667839759E+02 -0.10526798961E+03 -0.10544536463E+04  0.10683400466E+04  0.12499084742E+03 0.  0.
          2    1    1    2  501    0  0.20891308103E+02  0.62973945415E+02 -0.16986556211E+04  0.16999509062E+04  0.00000000000E+00 0. -1.
          1    1    1    2  502    0  0.31776531655E+02  0.42294044200E+02  0.24273046364E+02  0.58204079914E+02  0.00000000000E+00 0. -1.
         22    1    3    3    0    0 -0.82982437764E+01  0.16513671984E+02 -0.26857159444E+02  0.32601675196E+02  0.00000000000E+00 0. -1.
         22    1    3    3    0    0 -0.44369595982E+02 -0.12178166160E+03 -0.10275964869E+04  0.10357383714E+04  0.00000000000E+00 0. -1.
</event>
<event>
 7    1  0.7457412E-006  0.8750253E+02  0.7818608E-02  0.1413193E+00
          2   -1    0    0  502    0  0.00000000000E+00  0.00000000000E+00  0.20485002694E+03  0.20485002694E+03  0.00000000000E+00 0. -1.
          1   -1    0    0  501    0 -0.00000000000E+00 -0.00000000000E+00 -0.48127326782E+03  0.48127326782E+03  0.00000000000E+00 0. -1.
         25    2    1    2    0    0  0.39223879973E+02 -0.39130898767E+02 -0.47938464373E+02  0.14488932465E+03  0.12500032013E+03 0.  0.
          2    1    1    2  501    0 -0.57534921951E+02  0.70665513117E+02 -0.37723195710E+03  0.38808224830E+03  0.00000000000E+00 0. -1.
          1    1    1    2  502    0  0.18311041977E+02 -0.31534614350E+02  0.14874718059E+03  0.15315172181E+03  0.00000000000E+00 0. -1.
         22    1    3    3    0    0 -0.40593743325E+02 -0.32932959736E+02 -0.37101880559E+02  0.64101336766E+02  0.00000000000E+00 0.  1.
         22    1    3    3    0    0  0.79817623299E+02 -0.61979390302E+01 -0.10836583814E+02  0.80787987882E+02  0.00000000000E+00 0.  1.
</event>
<event>
 7    1  0.7457412E-006  0.7181937E+02  0.7818608E-02  0.1443073E+00
          2   -1    0    0  502    0  0.00000000000E+00  0.00000000000E+00  0.15952226437E+04  0.15952226437E+04  0.00000000000E+00 0. -1.
          1   -1    0    0  501    0 -0.00000000000E+00 -0.00000000000E+00 -0.19579543721E+03  0.19579543721E+03  0.00000000000E+00 0. -1.
         25    2    1    2    0    0 -0.55648052722E+02  0.44266150204E+02  0.10739014707E+04  0.10834866402E+04  0.12499093174E+03 0.  0.
          2    1    1    2  501    0 -0.18365296673E+02 -0.30264616160E+02 -0.18658341067E+03  0.18991208559E+03  0.00000000000E+00 0. -1.
          1    1    1    2  502    0  0.74013349395E+02 -0.14001534044E+02  0.51210914649E+03  0.51761935509E+03  0.00000000000E+00 0. -1.
         22    1    3    3    0    0 -0.87324908622E+02 -0.27695404185E-01  0.74608289854E+03  0.75117596602E+03  0.00000000000E+00 0. -1.
         22    1    3    3    0    0  0.31676855899E+02  0.44293845608E+02  0.32781857212E+03  0.33231067420E+03  0.00000000000E+00 0. -1.
</event>
<event>
 7    1  0.7457412E-006  0.8984527E+02  0.7818608E-02  0.1482432E+00
          2   -1    0    0  502    0  0.00000000000E+00  0.00000000000E+00  0.66402161821E+03  0.66402161821E+03  0.00000000000E+00 0. -1.
          1   -1    0    0  501    0 -0.00000000000E+00 -0.00000000000E+00 -0.74646290231E+03  0.74646290231E+03  0.00000000000E+00 0. -1.
         25    2    1    2    0    0 -0.10676003703E+03 -0.29975586414E+02 -0.25045880892E+03  0.30108298470E+03  0.12500042970E+03 0.  0.
          2    1    1    2  501    0  0.20541991983E+02  0.55712503127E+01 -0.46730587259E+03  0.46779032784E+03  0.00000000000E+00 0. -1.
          1    1    1    2  502    0  0.86218045050E+02  0.24404336101E+02  0.63532339740E+03  0.64161120797E+03  0.00000000000E+00 0. -1.
         22    1    3    3    0    0 -0.34920663698E+02 -0.69540950765E+02 -0.16611709557E+03  0.18344014290E+03  0.00000000000E+00 0. -1.
         22    1    3    3    0    0 -0.71839373336E+02  0.39565364351E+02 -0.84341713342E+02  0.11764284180E+03  0.00000000000E+00 0. -1.
</event>
<event>
 7    1  0.7457412E-006  0.1480626E+03  0.7818608E-02  0.1274166E+00
          2   -1    0    0  502    0  0.00000000000E+00  0.00000000000E+00  0.15613517429E+04  0.15613517429E+04  0.00000000000E+00 0. -1.
          1   -1    0    0  501    0 -0.00000000000E+00 -0.00000000000E+00 -0.12557576115E+03  0.12557576115E+03  0.00000000000E+00 0. -1.
         25    2    1    2    0    0 -0.12044037999E+03  0.17362018043E+03  0.33847227083E+03  0.41813796656E+03  0.12500411504E+03 0.  0.
          2    1    1    2  501    0  0.29915950629E+02 -0.65066100190E+02 -0.65725411559E+02  0.97202835455E+02  0.00000000000E+00 0. -1.
          1    1    1    2  502    0  0.90524429362E+02 -0.10855408024E+03  0.11630291225E+04  0.11715867020E+04  0.00000000000E+00 0. -1.
         22    1    3    3    0    0  0.26417063686E+02  0.25191261835E+02  0.44457550766E+02  0.57523340887E+02  0.00000000000E+00 0. -1.
         22    1    3    3    0    0 -0.14685744368E+03  0.14842891860E+03  0.29401472006E+03  0.36061462568E+03  0.00000000000E+00 0. -1.
</event>
<event>
 7    1  0.7457412E-006  0.6875534E+02  0.7818608E-02  0.1453140E+00
          2   -1    0    0  502    0  0.00000000000E+00  0.00000000000E+00  0.24491227464E+04  0.24491227464E+04  0.00000000000E+00 0. -1.
          1   -1    0    0  501    0 -0.00000000000E+00 -0.00000000000E+00 -0.37093749095E+02  0.37093749095E+02  0.00000000000E+00 0. -1.
         25    2    1    2    0    0 -0.14663306289E+02  0.35202151165E+02  0.78809914792E+03  0.79886263993E+03  0.12500818581E+03 0.  0.
          2    1    1    2  501    0  0.11444864327E+02 -0.69379513731E+02  0.76753178219E+01  0.70734802953E+02  0.00000000000E+00 0. -1.
          1    1    1    2  502    0  0.32184419621E+01  0.34177362566E+02  0.16162545315E+04  0.16166190526E+04  0.00000000000E+00 0. -1.
         22    1    3    3    0    0 -0.46430166663E+02  0.69381009840E+02  0.46947828454E+03  0.47684310267E+03  0.00000000000E+00 0. -1.
         22    1    3    3    0    0  0.31766860375E+02 -0.34178858675E+02  0.31862086338E+03  0.32201953726E+03  0.00000000000E+00 0. -1.
</event>
<event>
 7    1  0.7457412E-006  0.6033319E+02  0.7818608E-02  0.1477710E+00
          2   -1    0    0  502    0  0.00000000000E+00  0.00000000000E+00  0.95181746444E+02  0.95181746444E+02  0.00000000000E+00 0. -1.
          1   -1    0    0  501    0 -0.00000000000E+00 -0.00000000000E+00 -0.22681948769E+04  0.22681948769E+04  0.00000000000E+00 0. -1.
         25    2    1    2    0    0 -0.28633908446E+02  0.60946719977E+02 -0.10664800903E+04  0.10758893983E+04  0.12499524323E+03 0.  0.
          2    1    1    2  501    0  0.32761686837E+02 -0.74163310652E+00 -0.11866962571E+04  0.11871486363E+04  0.00000000000E+00 0. -1.
          1    1    1    2  502    0 -0.41277783907E+01 -0.60205086870E+02  0.80163216964E+02  0.10033858876E+03  0.00000000000E+00 0. -1.
         22    1    3    3    0    0  0.47513802952E+02  0.63793429119E+01 -0.39806570873E+03  0.40094209801E+03  0.00000000000E+00 0.  1.
         22    1    3    3    0    0 -0.76147711397E+02  0.54567377065E+02 -0.66841438159E+03  0.67494730024E+03  0.00000000000E+00 0.  1.
</event>
<event>
 7    1  0.7457412E-006  0.5021274E+02  0.7818608E-02  0.1445113E+00
          2   -1    0    0  502    0  0.00000000000E+00  0.00000000000E+00  0.29005008230E+04  0.29005008230E+04  0.00000000000E+00 0. -1.
          1   -1    0    0  501    0 -0.00000000000E+00 -0.00000000000E+00 -0.15470689402E+03  0.15470689402E+03  0.00000000000E+00 0. -1.
         25    2    1    2    0    0 -0.33967623346E+02 -0.48412629184E+02  0.17827139024E+03  0.22561594469E+03  0.12499713525E+03 0.  0.
          2    1    1    2  501    0  0.50542711040E+02  0.13749883335E+01 -0.12591772044E+03  0.13568982479E+03  0.00000000000E+00 0. -1.
          1    1    1    2  502    0 -0.16575087695E+02  0.47037640851E+02  0.26934402592E+04  0.26939019475E+04  0.00000000000E+00 0. -1.
         22    1    3    3    0    0 -0.43901432692E+01 -0.53361017405E+02  0.97186147631E+01  0.54416201717E+02  0.00000000000E+00 0.  1.
         22    1    3    3    0    0 -0.29577480076E+02  0.49483882210E+01  0.16855277547E+03  0.17119974297E+03  0.00000000000E+00 0.  1.
</event>
<event>
 7    1  0.7457412E-006  0.6586917E+02  0.7818608E-02  0.1430631E+00
          2   -1    0    0  502    0  0.00000000000E+00  0.00000000000E+00  0.17969494002E+04  0.17969494002E+04  0.00000000000E+00 0. -1.
          1   -1    0    0  501    0 -0.00000000000E+00 -0.00000000000E+00 -0.12779967873E+02  0.12779967873E+02  0.00000000000E+00 0. -1.
         25    2    1    2    0    0 -0.91332671049E+02  0.45217220242E+02  0.91462929958E+03  0.92874008737E+03  0.12500056173E+03 0.  0.
          2    1    1    2  501    0  0.39852111474E+02 -0.14411001707E+02  0.93752678119E+02  0.10288553063E+03  0.00000000000E+00 0. -1.
          1    1    1    2  502    0  0.51480559576E+02 -0.30806218535E+02  0.77578745461E+03  0.77810375006E+03  0.00000000000E+00 0. -1.
         22    1    3    3    0    0  0.27843642178E+01  0.63926310825E+02  0.30896706079E+03  0.31552332807E+03  0.00000000000E+00 0. -1.
         22    1    3    3    0    0 -0.94117035267E+02 -0.18709090583E+02  0.60566223879E+03  0.61321675931E+03  0.00000000000E+00 0. -1.
</event>
<event>
 7    1  0.7457412E-006  0.6466567E+02  0.7818608E-02  0.1497886E+00
          2   -1    0    0  502    0  0.00000000000E+00  0.00000000000E+00  0.20873380618E+04  0.20873380618E+04  0.00000000000E+00 0. -1.
          1   -1    0    0  501    0 -0.00000000000E+00 -0.00000000000E+00 -0.16778854554E+03  0.16778854554E+03  0.00000000000E+00 0. -1.
         25    2    1    2    0    0  0.45600694465E+02 -0.75770047730E+00  0.49893992404E+03  0.51637745337E+03  0.12499851641E+03 0.  0.
          2    1    1    2  501    0  0.17394210526E+02 -0.20063953806E+02 -0.15725957296E+03  0.15948571751E+03  0.00000000000E+00 0. -1.
          1    1    1    2  502    0 -0.62994904991E+02  0.20821654284E+02  0.15778691652E+04  0.15792634365E+04  0.00000000000E+00 0. -1.
         22    1    3    3    0    0  0.60620952186E+02  0.11924559624E+02  0.49148513602E+03  0.49535314060E+03  0.00000000000E+00 0.  1.
         22    1    3    3    0    0 -0.15020257721E+02 -0.12682260101E+02  0.74547880134E+01  0.21024312774E+02  0.00000000000E+00 0.  1.
</event>
<event>
 7    1  0.7457412E-006  0.6975262E+02  0.7818608E-02  0.1400947E+00
          2   -1    0    0  502    0  0.00000000000E+00  0.00000000000E+00  0.25177034118E+03  0.25177034118E+03  0.00000000000E+00 0. -1.
          1   -1    0    0  501    0 -0.00000000000E+00 -0.00000000000E+00 -0.60927208434E+03  0.60927208434E+03  0.00000000000E+00 0. -1.
         25    2    1    2    0    0  0.10046801046E+03  0.19374294556E+02 -0.32678439903E+02  0.16480760283E+03  0.12499792439E+03 0.  0.
          2    1    1    2  501    0 -0.34449494105E+02 -0.36723342633E+02 -0.50295661800E+03  0.50547080146E+03  0.00000000000E+00 0. -1.
          1    1    1    2  502    0 -0.66018516354E+02  0.17349048076E+02  0.17813331475E+03  0.19076402123E+03  0.00000000000E+00 0. -1.
         22    1    3    3    0    0  0.12851152249E+03  0.25111852908E+02 -0.16637030014E+02  0.13199472466E+03  0.00000000000E+00 0.  1.
         22    1    3    3    0    0 -0.28043512032E+02 -0.57375583520E+01 -0.16041409889E+02  0.32812878175E+02  0.00000000000E+00 0.  1.
</event>
<event>
 7    1  0.7457412E-006  0.3076035E+02  0.7818608E-02  0.1657203E+00
          2   -1    0    0  502    0  0.00000000000E+00  0.00000000000E+00  0.12827486275E+04  0.12827486275E+04  0.00000000000E+00 0. -1.
          1   -1    0    0  501    0 -0.00000000000E+00 -0.00000000000E+00 -0.12089765444E+03  0.12089765444E+03  0.00000000000E+00 0. -1.
         25    2    1    2    0    0 -0.11941586174E+02 -0.14075369538E+02  0.22417191144E+03  0.25733071723E+03  0.12500133856E+03 0.  0.
          2    1    1    2  501    0 -0.18649814207E+02  0.91053884788E+01 -0.10305304501E+03  0.10512208976E+03  0.00000000000E+00 0. -1.
          1    1    1    2  502    0  0.30591400381E+02  0.49699810589E+01  0.10407321067E+04  0.10411934750E+04  0.00000000000E+00 0. -1.
         22    1    3    3    0    0  0.31095391554E+02  0.14931364009E+02  0.85330858869E+01  0.35534244917E+02  0.00000000000E+00 0.  1.
         22    1    3    3    0    0 -0.43036977728E+02 -0.29006733547E+02  0.21563882555E+03  0.22179647231E+03  0.00000000000E+00 0.  1.
</event>
<event>
 7    1  0.7457412E-006  0.1056465E+03  0.7818608E-02  0.1376016E+00
          2   -1    0    0  502    0  0.00000000000E+00  0.00000000000E+00  0.17138513204E+03  0.17138513204E+03  0.00000000000E+00 0. -1.
          1   -1    0    0  501    0 -0.00000000000E+00 -0.00000000000E+00 -0.11049208692E+04  0.11049208692E+04  0.00000000000E+00 0. -1.
         25    2    1    2    0    0 -0.33019841686E+01 -0.10067953133E+03 -0.32305664448E+03  0.36075484420E+03  0.12502476132E+03 0.  0.
          2    1    1    2  501    0  0.43885803524E+02  0.98590500772E+02 -0.75640909528E+03  0.76406856369E+03  0.00000000000E+00 0. -1.
          1    1    1    2  502    0 -0.40583819356E+02  0.20890305596E+01  0.14593000258E+03  0.15148259338E+03  0.00000000000E+00 0. -1.
         22    1    3    3    0    0 -0.43498904465E+02 -0.63742921319E+02 -0.28221964254E+03  0.29258031606E+03  0.00000000000E+00 0. -1.
         22    1    3    3    0    0  0.40196920296E+02 -0.36936610012E+02 -0.40837001940E+02  0.68174528146E+02  0.00000000000E+00 0. -1.
</event>
<event>
 7    1  0.7457412E-006  0.1234364E+03  0.7818608E-02  0.1383841E+00
          2   -1    0    0  502    0  0.00000000000E+00  0.00000000000E+00  0.13893811271E+04  0.13893811271E+04  0.00000000000E+00 0. -1.
          1   -1    0    0  501    0 -0.00000000000E+00 -0.00000000000E+00 -0.75844367423E+03  0.75844367423E+03  0.00000000000E+00 0. -1.
         25    2    1    2    0    0  0.52581467328E+02 -0.74890942144E+02 -0.41128142473E+03  0.43948842340E+03  0.12499680016E+03 0.  0.
          2    1    1    2  501    0  0.13004149549E+02 -0.29927265320E+02 -0.32947203617E+03  0.33108393458E+03  0.00000000000E+00 0. -1.
          1    1    1    2  502    0 -0.65585616877E+02  0.10481820746E+03  0.13716909138E+04  0.13772524434E+04  0.00000000000E+00 0. -1.
         22    1    3    3    0    0  0.28523864404E+02  0.19610105686E+02 -0.29593367571E+02  0.45540470900E+02  0.00000000000E+00 0.  1.
         22    1    3    3    0    0  0.24057602925E+02 -0.94501047830E+02 -0.38168805716E+03  0.39394795250E+03  0.00000000000E+00 0.  1.
</event>
<event>
 7    1  0.7457412E-006  0.8664602E+02  0.7818608E-02  0.1444374E+00
          2   -1    0    0  502    0  0.00000000000E+00  0.00000000000E+00  0.16449235526E+03  0.16449235526E+03  0.00000000000E+00 0. -1.
          1   -1    0    0  501    0 -0.00000000000E+00 -0.00000000000E+00 -0.11287710009E+04  0.11287710009E+04  0.00000000000E+00 0. -1.
         25    2    1    2    0    0  0.17901211463E+02 -0.67187164083E+02 -0.86401513311E+02  0.16710786090E+03  0.12500098913E+03 0.  0.
          2    1    1    2  501    0 -0.46018328880E+02  0.74533106619E+02 -0.99837118186E+03  0.10022065093E+04  0.00000000000E+00 0. -1.
          1    1    1    2  502    0  0.28117117417E+02 -0.73459425363E+01  0.12049404948E+03  0.12394898597E+03  0.00000000000E+00 0. -1.
         22    1    3    3    0    0 -0.27968951261E+02 -0.28941140636E+02  0.20112466206E+02  0.44992923364E+02  0.00000000000E+00 0.  1.
         22    1    3    3    0    0  0.45870162724E+02 -0.38246023447E+02 -0.10651397952E+03  0.12211493754E+03  0.00000000000E+00 0.  1.
</event>
<event>
 7    1  0.7457412E-006  0.5590083E+02  0.7818608E-02  0.1431120E+00
          2   -1    0    0  502    0  0.00000000000E+00  0.00000000000E+00  0.76827963213E+03  0.76827963213E+03  0.00000000000E+00 0. -1.
          1   -1    0    0  501    0 -0.00000000000E+00 -0.00000000000E+00 -0.16999705627E+03  0.16999705627E+03  0.00000000000E+00 0. -1.
         25    2    1    2    0    0 -0.33187824202E+02 -0.95354092294E+02  0.10203768228E+02  0.16101768334E+03  0.12501497058E+03 0.  0.
          2    1    1    2  501    0  0.23477220359E+02  0.46561002946E+02 -0.86417131620E+02  0.10093080555E+03  0.00000000000E+00 0. -1.
          1    1    1    2  502    0  0.97106038430E+01  0.48793089348E+02  0.67449593925E+03  0.67632819951E+03  0.00000000000E+00 0. -1.
         22    1    3    3    0    0  0.19860154275E+02 -0.12226105844E+02  0.49614019466E+02  0.54822024037E+02  0.00000000000E+00 0.  1.
         22    1    3    3    0    0 -0.53047978477E+02 -0.83127986450E+02 -0.39410251238E+02  0.10619565930E+03  0.00000000000E+00 0.  1.
</event>
<event>
 7    1  0.7457412E-006  0.2163145E+03  0.7818608E-02  0.1156339E+00
          2   -1    0    0  502    0  0.00000000000E+00  0.00000000000E+00  0.13902308529E+04  0.13902308529E+04  0.00000000000E+00 0. -1.
          1   -1    0    0  501    0 -0.00000000000E+00 -0.00000000000E+00 -0.92400549934E+03  0.92400549934E+03  0.00000000000E+00 0. -1.
         25    2    1    2    0    0  0.13803020904E+03  0.74243011910E+02 -0.30240840267E+03  0.36281998782E+03  0.12499255230E+03 0.  0.
          2    1    1    2  501    0 -0.30265458094E+03 -0.27693702147E+02 -0.54643502791E+03  0.62526632424E+03  0.00000000000E+00 0. -1.
          1    1    1    2  502    0  0.16462437190E+03 -0.46549309763E+02  0.13150687842E+04  0.13261500402E+04  0.00000000000E+00 0. -1.
         22    1    3    3    0    0  0.51916868311E+02  0.25471795712E+02 -0.16304787090E+02  0.60083439267E+02  0.00000000000E+00 0. -1.
         22    1    3    3    0    0  0.86113340726E+02  0.48771216198E+02 -0.28610361558E+03  0.30273654855E+03  0.00000000000E+00 0. -1.
</event>
<event>
 7    1  0.7457412E-006  0.8769941E+02  0.7818608E-02  0.1399292E+00
          2   -1    0    0  502    0  0.00000000000E+00  0.00000000000E+00  0.10845398094E+04  0.10845398094E+04  0.00000000000E+00 0. -1.
          1   -1    0    0  501    0 -0.00000000000E+00 -0.00000000000E+00 -0.45919612804E+03  0.45919612804E+03  0.00000000000E+00 0. -1.
         25    2    1    2    0    0 -0.45234639790E+01  0.78367029480E+02 -0.11482500673E+02  0.14803173655E+03  0.12497877487E+03 0.  0.
          2    1    1    2  501    0  0.40523532191E+02  0.20718394534E+01 -0.37643614116E+03  0.37861671589E+03  0.00000000000E+00 0. -1.
          1    1    1    2  502    0 -0.36000068212E+02 -0.80438868933E+02  0.10132623232E+04  0.10170874850E+04  0.00000000000E+00 0. -1.
         22    1    3    3    0    0 -0.58383020900E+02  0.72451945524E+02 -0.12196964626E+02  0.93843633166E+02  0.00000000000E+00 0.  1.
         22    1    3    3    0    0  0.53859556921E+02  0.59150839557E+01  0.71446395296E+00  0.54188103387E+02  0.00000000000E+00 0.  1.
</event>
<event>
 7    1  0.7457412E-006  0.5854259E+02  0.7818608E-02  0.1484616E+00
          2   -1    0    0  502    0  0.00000000000E+00  0.00000000000E+00  0.15919758113E+04  0.15919758113E+04  0.00000000000E+00 0. -1.
          1   -1    0    0  501    0 -0.00000000000E+00 -0.00000000000E+00 -0.44778615382E+02  0.44778615382E+02  0.00000000000E+00 0. -1.
         25    2    1    2    0    0 -0.19508804099E+02 -0.47610920712E+02  0.24383704669E+03  0.27879926002E+03  0.12500051536E+03 0.  0.
          2    1    1    2  501    0 -0.29025950478E+02  0.13864281276E+02 -0.16924502615E+02  0.36347804407E+02  0.00000000000E+00 0. -1.
          1    1    1    2  502    0  0.48534754577E+02  0.33746639436E+02  0.13202846519E+04  0.13216073623E+04  0.00000000000E+00 0. -1.
         22    1    3    3    0    0 -0.21026783792E+02  0.56527910003E+01  0.21887764316E+03  0.21995795588E+03  0.00000000000E+00 0.  1.
         22    1    3    3    0    0  0.15179796930E+01 -0.53263711712E+02  0.24959403531E+02  0.58841304135E+02  0.00000000000E+00 0.  1.
</event>
<event>
 7    1  0.7457412E-006  0.8983542E+02  0.7818608E-02  0.1384251E+00
          2   -1    0    0  502    0  0.00000000000E+00  0.00000000000E+00  0.37708584460E+03  0.37708584460E+03  0.00000000000E+00 0. -1.
          1   -1    0    0  501    0 -0.00000000000E+00 -0.00000000000E+00 -0.63009830427E+03  0.63009830427E+03  0.00000000000E+00 0. -1.
         25    2    1    2    0    0 -0.13031183798E+03 -0.87972813466E+01 -0.56985655146E+02  0.18955518436E+03  0.12500094298E+03 0.  0.
          2    1    1    2  501    0  0.87459638779E+02 -0.38739542127E+01 -0.50140917186E+03  0.50899445337E+03  0.00000000000E+00 0. -1.
          1    1    1    2  502    0  0.42852199202E+02  0.12671235559E+02  0.30538236734E+03  0.30863451115E+03  0.00000000000E+00 0. -1.
         22    1    3    3    0    0 -0.93600583645E+02  0.49406475288E+02 -0.10172842090E+02  0.10632758708E+03  0.00000000000E+00 0. -1.
         22    1    3    3    0    0 -0.36711254336E+02 -0.58203756635E+02 -0.46812813055E+02  0.83227597271E+02  0.00000000000E+00 0. -1.
</event>
<event>
 7    1  0.7457412E-006  0.8826669E+02  0.7818608E-02  0.1393877E+00
          2   -1    0    0  502    0  0.00000000000E+00  0.00000000000E+00  0.44993848833E+03  0.44993848833E+03  0.00000000000E+00 0. -1.
          1   -1    0    0  501    0 -0.00000000000E+00 -0.00000000000E+00 -0.41246978792E+03  0.41246978792E+03  0.00000000000E+00 0. -1.
         25    2    1    2    0    0 -0.27091908218E+02 -0.63811236873E+02  0.29878290319E+02  0.14602300306E+03  0.12499663895E+03 0.  0.
          2    1    1    2  501    0  0.68778750865E+02  0.57994145713E+02 -0.34742453344E+03  0.35888388644E+03  0.00000000000E+00 0. -1.
          1    1    1    2  502    0 -0.41686842647E+02  0.58170911602E+01  0.35501494353E+03  0.35750138675E+03  0.00000000000E+00 0. -1.
         22    1    3    3    0    0 -0.12102261981E+02  0.34650479186E+02 -0.11071963274E+02  0.38336781602E+02  0.00000000000E+00 0.  1.
         22    1    3    3    0    0 -0.14989646237E+02 -0.98461716059E+02  0.40950253593E+02  0.10768622146E+03  0.00000000000E+00 0.  1.
</event>
<event>
 7    1  0.7457412E-006  0.5367452E+02  0.7818608E-02  0.1537219E+00
          2   -1    0    0  502    0  0.00000000000E+00  0.00000000000E+00  0.37651205038E+03  0.37651205038E+03  0.00000000000E+00 0. -1.
          1   -1    0    0  501    0 -0.00000000000E+00 -0.00000000000E+00 -0.35851013573E+02  0.35851013573E+02  0.00000000000E+00 0. -1.
         25    2    1    2    0    0  0.10120342296E+02  0.33893261279E+02  0.19450524289E+03  0.23389796605E+03  0.12499917810E+03 0.  0.
          2    1    1    2  501    0  0.13737125894E+02  0.20371832989E+02  0.45984573023E+01  0.24997320191E+02  0.00000000000E+00 0. -1.
          1    1    1    2  502    0 -0.23857468190E+02 -0.54265094268E+02  0.14155733662E+03  0.15346777771E+03  0.00000000000E+00 0. -1.
         22    1    3    3    0    0 -0.32314976209E+02  0.62369819392E+02  0.69345586430E+02  0.98706952216E+02  0.00000000000E+00 0.  1.
         22    1    3    3    0    0  0.42435318504E+02 -0.28476558113E+02  0.12515965646E+03  0.13519101384E+03  0.00000000000E+00 0.  1.
</event>
<event>
 7    1  0.2007707E-005  0.9089319E+02  0.7818608E-02  0.1331991E+00
          2   -1    0    0  502    0  0.00000000000E+00  0.00000000000E+00  0.21860301008E+04  0.21860301008E+04  0.00000000000E+00 0. -1.
          1   -1    0    0  501    0 -0.00000000000E+00 -0.00000000000E+00 -0.12345809835E+04  0.12345809835E+04  0.00000000000E+00 0. -1.
         25    2    1    2    0    0 -0.11159345207E+03 -0.56577499602E+02 -0.59661934802E+03  0.62228141646E+03  0.12500161128E+03 0.  0.
          2    1    1    2  501    0  0.45092867357E+02  0.73486198886E+02 -0.62161283867E+03  0.62756362969E+03  0.00000000000E+00 0. -1.
          1    1    1    2  502    0  0.66500584717E+02 -0.16908699284E+02  0.21696813040E+04  0.21707660382E+04  0.00000000000E+00 0. -1.
         22    1    3    3    0    0  0.18624050400E+02 -0.26687207333E+02 -0.50658146295E+02  0.60210547868E+02  0.00000000000E+00 0.  1.
         22    1    3    3    0    0 -0.13021750247E+03 -0.29890292269E+02 -0.54596120173E+03  0.56207086859E+03  0.00000000000E+00 0.  1.
</event>
<event>
 7    1  0.7457412E-006  0.5495613E+02  0.7818608E-02  0.1474176E+00
          2   -1    0    0  502    0  0.00000000000E+00  0.00000000000E+00  0.12660312477E+04  0.12660312477E+04  0.00000000000E+00 0. -1.
          1   -1    0    0  501    0 -0.00000000000E+00 -0.00000000000E+00 -0.11340431624E+03  0.11340431624E+03  0.00000000000E+00 0. -1.
         25    2    1    2    0    0 -0.17764232363E+02  0.71600687458E+01  0.96480904787E+03  0.97306145612E+03  0.12500105597E+03 0.  0.
          2    1    1    2  501    0  0.54647094958E+02 -0.79382208122E+01 -0.10105330512E+03  0.11515680967E+03  0.00000000000E+00 0. -1.
          1    1    1    2  502    0 -0.36882862595E+02  0.77815206643E+00  0.28887118869E+03  0.29121729813E+03  0.00000000000E+00 0. -1.
         22    1    3    3    0    0 -0.36592352526E+02  0.59158221056E+02  0.45952020735E+03  0.46475532955E+03  0.00000000000E+00 0. -1.
         22    1    3    3    0    0  0.18828120163E+02 -0.51998152310E+02  0.50528884051E+03  0.50830612656E+03  0.00000000000E+00 0. -1.
</event>
<event>
 7    1  0.7457412E-006  0.4843354E+02  0.7818608E-02  0.1506806E+00
          2   -1    0    0  502    0  0.00000000000E+00  0.00000000000E+00  0.44498725735E+03  0.44498725735E+03  0.00000000000E+00 0. -1.
          1   -1    0    0  501    0 -0.00000000000E+00 -0.00000000000E+00 -0.96365017624E+03  0.96365017624E+03  0.00000000000E+00 0. -1.
         25    2    1    2    0    0 -0.67109911601E+01 -0.45848024522E+02 -0.20382714109E+03  0.24355118455E+03  0.12499838917E+03 0.  0.
          2    1    1    2  501    0 -0.30137139708E+02  0.14286958793E+02 -0.73819903209E+03  0.73895207921E+03  0.00000000000E+00 0. -1.
          1    1    1    2  502    0  0.36848130868E+02  0.31561065729E+02  0.42336325429E+03  0.42613416984E+03  0.00000000000E+00 0. -1.
         22    1    3    3    0    0 -0.59011899095E+02 -0.90655822039E+01 -0.53407860984E+02  0.80106108570E+02  0.00000000000E+00 0.  1.
         22    1    3    3    0    0  0.52300907935E+02 -0.36782442318E+02 -0.15041928011E+03  0.16344507598E+03  0.00000000000E+00 0.  1.
</event>
<event>
 7    1  0.7457412E-006  0.1038324E+03  0.7818608E-02  0.1423540E+00
          2   -1    0    0  502    0  0.00000000000E+00  0.00000000000E+00  0.89176270883E+03  0.89176270883E+03  0.00000000000E+00 0. -1.
          1   -1    0    0  501    0 -0.00000000000E+00 -0.00000000000E+00 -0.18324017444E+03  0.18324017444E+03  0.00000000000E+00 0. -1.
         25    2    1    2    0    0  0.12628794125E+03 -0.21750301056E+02  0.14252447203E+03  0.22882330500E+03  0.12500064034E+03 0.  0.
          2    1    1    2  501    0 -0.98176917208E+02  0.25608958020E+02 -0.12138842784E+03  0.15820769962E+03  0.00000000000E+00 0. -1.
          1    1    1    2  502    0 -0.28111024039E+02 -0.38586569635E+01  0.68738649020E+03  0.68797187865E+03  0.00000000000E+00 0. -1.
         22    1    3    3    0    0  0.12655828132E+03  0.25744922341E+02  0.86823351091E+02  0.15562163697E+03  0.00000000000E+00 0.  1.
         22    1    3    3    0    0 -0.27034007494E+00 -0.47495223398E+02  0.55701120940E+02  0.73201668036E+02  0.00000000000E+00 0.  1.
</event>
<event>
 7    1  0.7457412E-006  0.1013048E+03  0.7818608E-02  0.1311399E+00
          2   -1    0    0  502    0  0.00000000000E+00  0.00000000000E+00  0.71272061287E+03  0.71272061287E+03  0.00000000000E+00 0. -1.
          1   -1    0    0  501    0 -0.00000000000E+00 -0.00000000000E+00 -0.12904120902E+04  0.12904120902E+04  0.00000000000E+00 0. -1.
         25    2    1    2    0    0 -0.38238411283E+02  0.62016814929E+02 -0.28368668229E+02  0.14743790122E+03  0.12499956779E+03 0.  0.
          2    1    1    2  501    0  0.63099698632E+02  0.38588570720E+02 -0.11972499224E+04  0.11995324200E+04  0.00000000000E+00 0. -1.
          1    1    1    2  502    0 -0.24861287349E+02 -0.10060538565E+03  0.64792711333E+03  0.65616238190E+03  0.00000000000E+00 0. -1.
         22    1    3    3    0    0 -0.44745593421E+02  0.90848824775E+01 -0.67358410245E+02  0.81374803539E+02  0.00000000000E+00 0.  1.
         22    1    3    3    0    0  0.65071821376E+01  0.52931932451E+02  0.38989742016E+02  0.66063097679E+02  0.00000000000E+00 0.  1.
</event>
<event>
 7    1  0.7457412E-006  0.5814037E+02  0.7818608E-02  0.1440230E+00
          2   -1    0    0  502    0  0.00000000000E+00  0.00000000000E+00  0.35529469458E+03  0.35529469458E+03  0.00000000000E+00 0. -1.
          1   -1    0    0  501    0 -0.00000000000E+00 -0.00000000000E+00 -0.39878746137E+03  0.39878746137E+03  0.00000000000E+00 0. -1.
         25    2    1    2    0    0 -0.66195416091E+02 -0.61284538170E+02 -0.26609366198E+02  0.15642865897E+03  0.12499695696E+03 0.  0.
          2    1    1    2  501    0  0.43864324619E+02  0.84289540601E+01 -0.30277938380E+03  0.30605633713E+03  0.00000000000E+00 0. -1.
          1    1    1    2  502    0  0.22331091471E+02  0.52855584110E+02  0.28589598320E+03  0.29159715985E+03  0.00000000000E+00 0. -1.
         22    1    3    3    0    0 -0.84421446435E+02 -0.32730699044E+01  0.10588976067E+02  0.85145874938E+02  0.00000000000E+00 0.  1.
         22    1    3    3    0    0  0.18226030345E+02 -0.58011468265E+02 -0.37198342266E+02  0.71282784035E+02  0.00000000000E+00 0.  1.
</event>
<event>
 7    1  0.7457412E-006  0.1222796E+03  0.7818608E-02  0.1342285E+00
          2   -1    0    0  502    0  0.00000000000E+00  0.00000000000E+00  0.10288504494E+03  0.10288504494E+03  0.00000000000E+00 0. -1.
          1   -1    0    0  501    0 -0.00000000000E+00 -0.00000000000E+00 -0.84868561185E+03  0.84868561185E+03  0.00000000000E+00 0. -1.
         25    2    1    2    0    0 -0.37439112637E+02  0.83410095960E+02 -0.15329291908E+03  0.21790748922E+03  0.12500409416E+03 0.  0.
          2    1    1    2  501    0 -0.38688343536E+02  0.26037892866E+02 -0.59839857233E+03  0.60021297150E+03  0.00000000000E+00 0. -1.
          1    1    1    2  502    0  0.76127456172E+02 -0.10944798883E+03  0.58909245018E+01  0.13345019608E+03  0.00000000000E+00 0. -1.
         22    1    3    3    0    0 -0.66204836168E+02  0.14793236401E+02 -0.11672055818E+03  0.13500225509E+03  0.00000000000E+00 0.  1.
         22    1    3    3    0    0  0.28765723532E+02  0.68616859559E+02 -0.36572360900E+02  0.82905234140E+02  0.00000000000E+00 0.  1.
</event>
<event>
 7    1  0.7457412E-006  0.6838944E+02  0.7818608E-02  0.1452736E+00
          2   -1    0    0  502    0  0.00000000000E+00  0.00000000000E+00  0.12835893107E+04  0.12835893107E+04  0.00000000000E+00 0. -1.
          1   -1    0    0  501    0 -0.00000000000E+00 -0.00000000000E+00 -0.82097678174E+03  0.82097678174E+03  0.00000000000E+00 0. -1.
         25    2    1    2    0    0  0.23507188578E+02 -0.49935666568E+02  0.38233387725E+02  0.14188638652E+03  0.12499518404E+03 0.  0.
          2    1    1    2  501    0  0.32940192187E+02  0.10635677347E+02 -0.76776908296E+03  0.76854898259E+03  0.00000000000E+00 0. -1.
          1    1    1    2  502    0 -0.56447380766E+02  0.39299989222E+02  0.11921482242E+04  0.11941307234E+04  0.00000000000E+00 0. -1.
         22    1    3    3    0    0  0.42503315393E+02 -0.80258469371E+02  0.50679730438E+02  0.10400186923E+03  0.00000000000E+00 0. -1.
         22    1    3    3    0    0 -0.18996126814E+02  0.30322802802E+02 -0.12446342714E+02  0.37884517295E+02  0.00000000000E+00 0. -1.
</event>
<event>
 7    1  0.7457412E-006  0.4898409E+02  0.7818608E-02  0.1516907E+00
          2   -1    0    0  502    0  0.00000000000E+00  0.00000000000E+00  0.65267618173E+03  0.65267618173E+03  0.00000000000E+00 0. -1.
          1   -1    0    0  501    0 -0.00000000000E+00 -0.00000000000E+00 -0.81820669803E+03  0.81820669803E+03  0.00000000000E+00 0. -1.
         25    2    1    2    0    0 -0.13647852893E+01  0.70191723245E+02 -0.13963040426E+03  0.20012808255E+03  0.12500343588E+03 0.  0.
          2    1    1    2  501    0  0.18704977757E+02 -0.44736254583E+02 -0.64703868687E+03  0.64885304266E+03  0.00000000000E+00 0. -1.
          1    1    1    2  502    0 -0.17340192468E+02 -0.25455468662E+02  0.62113857483E+03  0.62190175454E+03  0.00000000000E+00 0. -1.
         22    1    3    3    0    0 -0.24553882427E+02  0.10101135296E+03 -0.91802339996E+02  0.13868617883E+03  0.00000000000E+00 0. -1.
         22    1    3    3    0    0  0.23189097137E+02 -0.30819629715E+02 -0.47828064264E+02  0.61441903723E+02  0.00000000000E+00 0. -1.
</event>
<event>
 7    1  0.7457412E-006  0.8475538E+02  0.7818608E-02  0.1426075E+00
          2   -1    0    0  502    0  0.00000000000E+00  0.00000000000E+00  0.22626100764E+03  0.22626100764E+03  0.00000000000E+00 0. -1.
          1   -1    0    0  501    0 -0.00000000000E+00 -0.00000000000E+00 -0.47815962080E+03  0.47815962080E+03  0.00000000000E+00 0. -1.
         25    2    1    2    0    0 -0.89246291478E+02 -0.36566279089E+02 -0.13473853902E+03  0.20755980423E+03  0.12499842050E+03 0.  0.
          2    1    1    2  501    0  0.83662045134E+02  0.29318756724E+01 -0.29969592118E+03  0.31116808779E+03  0.00000000000E+00 0. -1.
          1    1    1    2  502    0  0.55842463433E+01  0.33634403416E+02  0.18253584704E+03  0.18569273641E+03  0.00000000000E+00 0. -1.
         22    1    3    3    0    0 -0.95013436812E+02 -0.63443628039E+02 -0.62408926840E+02  0.13018264578E+03  0.00000000000E+00 0.  1.
         22    1    3    3    0    0  0.57671453347E+01  0.26877348950E+02 -0.72329612178E+02  0.77377158449E+02  0.00000000000E+00 0.  1.
</event>
<event>
 7    1  0.7457412E-006  0.2195802E+03  0.7818608E-02  0.1221637E+00
          2   -1    0    0  502    0  0.00000000000E+00  0.00000000000E+00  0.20908271026E+04  0.20908271026E+04  0.00000000000E+00 0. -1.
          1   -1    0    0  501    0 -0.00000000000E+00 -0.00000000000E+00 -0.51925409435E+03  0.51925409435E+03  0.00000000000E+00 0. -1.
         25    2    1    2    0    0 -0.20369704276E+03 -0.87297533662E+02  0.87654653562E+03  0.91272860511E+03  0.12500533130E+03 0.  0.
          2    1    1    2  501    0 -0.20103815095E+02  0.79265503106E+02 -0.48724434321E+03  0.49405893713E+03  0.00000000000E+00 0. -1.
          1    1    1    2  502    0  0.22380085786E+03  0.80320305558E+01  0.11822708159E+04  0.12032936547E+04  0.00000000000E+00 0. -1.
         22    1    3    3    0    0 -0.35136908552E+02  0.20435076128E+01  0.34294946083E+02  0.49141851744E+02  0.00000000000E+00 0.  1.
         22    1    3    3    0    0 -0.16856013421E+03 -0.89341041275E+02  0.84225158954E+03  0.86358675336E+03  0.00000000000E+00 0.  1.
</event>
<event>
 7    1  0.7457412E-006  0.5444733E+02  0.7818608E-02  0.1546313E+00
          2   -1    0    0  502    0  0.00000000000E+00  0.00000000000E+00  0.14740059178E+04  0.14740059178E+04  0.00000000000E+00 0. -1.
          1   -1    0    0  501    0 -0.00000000000E+00 -0.00000000000E+00 -0.86713916513E+01  0.86713916513E+01  0.00000000000E+00 0. -1.
         25    2    1    2    0    0 -0.10630084475E+02 -0.38756437747E+02  0.73306182568E+03  0.74472796933E+03  0.12500019151E+03 0.  0.
          2    1    1    2  501    0  0.23763522654E+02  0.57434058817E+02  0.39059562780E+03  0.39551020288E+03  0.00000000000E+00 0. -1.
          1    1    1    2  502    0 -0.13133438179E+02 -0.18677621070E+02  0.34167707264E+03  0.34243913722E+03  0.00000000000E+00 0. -1.
         22    1    3    3    0    0 -0.12621495668E+02 -0.54420577721E+02  0.72471949451E+03  0.72686948426E+03  0.00000000000E+00 0.  1.
         22    1    3    3    0    0  0.19914111926E+01  0.15664139973E+02  0.83423311683E+01  0.17858485069E+02  0.00000000000E+00 0.  1.
</event>
<event>
 7    1  0.7457412E-006  0.9488384E+02  0.7818608E-02  0.1386657E+00
          2   -1    0    0  502    0  0.00000000000E+00  0.00000000000E+00  0.34617668121E+03  0.34617668121E+03  0.00000000000E+00 0. -1.
          1   -1    0    0  501    0 -0.00000000000E+00 -0.00000000000E+00 -0.12142485319E+03  0.12142485319E+03  0.00000000000E+00 0. -1.
         25    2    1    2    0    0  0.20931185480E+02  0.64475704989E+02  0.42124995764E+02  0.14830333596E+03  0.12499653247E+03 0.  0.
          2    1    1    2  501    0 -0.18645438995E+02 -0.10590597591E+03 -0.22629339021E+02  0.10989001372E+03  0.00000000000E+00 0. -1.
          1    1    1    2  502    0 -0.22857464853E+01  0.41430270925E+02  0.20525617128E+03  0.20940818474E+03  0.00000000000E+00 0. -1.
         22    1    3    3    0    0 -0.14876134651E+02  0.87777900673E+02  0.10458271016E+01  0.89035683763E+02  0.00000000000E+00 0.  1.
         22    1    3    3    0    0  0.35807320132E+02 -0.23302195684E+02  0.41079168662E+02  0.59267652195E+02  0.00000000000E+00 0.  1.
</event>
<event>
 7    1  0.7457412E-006  0.6852201E+02  0.7818608E-02  0.1484535E+00
          2   -1    0    0  502    0  0.00000000000E+00  0.00000000000E+00  0.22128078998E+04  0.22128078998E+04  0.00000000000E+00 0. -1.
          1   -1    0    0  501    0 -0.00000000000E+00 -0.00000000000E+00 -0.15142032943E+02  0.15142032943E+02  0.00000000000E+00 0. -1.
         25    2    1    2    0    0 -0.42632705759E+02  0.10233089121E+02  0.45136642399E+03  0.47040248997E+03  0.12499836059E+03 0.  0.
          2    1    1    2  501    0 -0.23216281152E+02  0.14735623444E+02  0.33675265443E+02  0.43475945205E+02  0.00000000000E+00 0. -1.
          1    1    1    2  502    0  0.65848986911E+02 -0.24968712565E+02  0.17126241774E+04  0.17140714976E+04  0.00000000000E+00 0. -1.
         22    1    3    3    0    0 -0.84577310215E+02  0.16746691808E+02  0.24534519052E+03  0.26005390903E+03  0.00000000000E+00 0.  1.
         22    1    3    3    0    0  0.41944604455E+02 -0.65136026875E+01  0.20602123347E+03  0.21034858094E+03  0.00000000000E+00 0.  1.
</event>
<event>
 7    1  0.7457412E-006  0.4470173E+03  0.7818608E-02  0.1253738E+00
          2   -1    0    0  502    0  0.00000000000E+00  0.00000000000E+00  0.69661975203E+03  0.69661975203E+03  0.00000000000E+00 0. -1.
          1   -1    0    0  501    0 -0.00000000000E+00 -0.00000000000E+00 -0.16259063644E+04  0.16259063644E+04  0.00000000000E+00 0. -1.
         25    2    1    2    0    0 -0.27532898517E+03 -0.33508758790E+03 -0.43738679230E+03  0.62850793873E+03  0.12500112532E+03 0.  0.
          2    1    1    2  501    0 -0.28630342362E+02  0.43370497544E+01 -0.10087923864E+04  0.10092079000E+04  0.00000000000E+00 0. -1.
          1    1    1    2  502    0  0.30395932754E+03  0.33075053815E+03  0.51689256636E+03  0.68481027770E+03  0.00000000000E+00 0. -1.
         22    1    3    3    0    0  0.91987587558E+01 -0.39583913432E+02 -0.31396711371E+02  0.51354229136E+02  0.00000000000E+00 0. -1.
         22    1    3    3    0    0 -0.28452774393E+03 -0.29550367447E+03 -0.40599008093E+03  0.57715370960E+03  0.00000000000E+00 0. -1.
</event>
<event>
 7    1  0.7457412E-006  0.4719457E+02  0.7818608E-02  0.1487465E+00
          2   -1    0    0  502    0  0.00000000000E+00  0.00000000000E+00  0.58833678894E+02  0.58833678894E+02  0.00000000000E+00 0. -1.
          1   -1    0    0  501    0 -0.00000000000E+00 -0.00000000000E+00 -0.13545180598E+04  0.13545180598E+04  0.00000000000E+00 0. -1.
         25    2    1    2    0    0 -0.12254366257E+02 -0.42662356844E+01 -0.48587763305E+03  0.50186801216E+03  0.12500422823E+03 0.  0.
          2    1    1    2  501    0  0.36293340522E+02  0.35120378587E+02 -0.85226232980E+03  0.85375741657E+03  0.00000000000E+00 0. -1.
          1    1    1    2  502    0 -0.24038974265E+02 -0.30854142902E+02  0.42455581970E+02  0.57726309932E+02  0.00000000000E+00 0. -1.
         22    1    3    3    0    0  0.20915898174E+02  0.25310201771E+01 -0.76060826171E+01  0.22399405179E+02  0.00000000000E+00 0.  1.
         22    1    3    3    0    0 -0.33170264431E+02 -0.67972558615E+01 -0.47827155043E+03  0.47946860698E+03  0.00000000000E+00 0.  1.
</event>
<event>
 7    1  0.9295784E-006  0.8235375E+02  0.7818608E-02  0.1324320E+00
          2   -1    0    0  502    0  0.00000000000E+00  0.00000000000E+00  0.83516758293E+03  0.83516758293E+03  0.00000000000E+00 0. -1.
          1   -1    0    0  501    0 -0.00000000000E+00 -0.00000000000E+00 -0.23181689607E+04  0.23181689607E+04  0.00000000000E+00 0. -1.
         25    2    1    2    0    0  0.46052963658E+01 -0.70383097517E+01 -0.29496978371E+03  0.32047313791E+03  0.12500044904E+03 0.  0.
          2    1    1    2  501    0 -0.59149147170E+02 -0.55387921902E+02 -0.20075390439E+04  0.20091738243E+04  0.00000000000E+00 0. -1.
          1    1    1    2  502    0  0.54543850805E+02  0.62426231653E+02  0.81950744988E+03  0.82368958138E+03  0.00000000000E+00 0. -1.
         22    1    3    3    0    0  0.37892579883E+02  0.47650058195E+02 -0.15627617212E+03  0.16771588365E+03  0.00000000000E+00 0.  1.
         22    1    3    3    0    0 -0.33287283517E+02 -0.54688367946E+02 -0.13869361159E+03  0.15275725426E+03  0.00000000000E+00 0.  1.
</event>
<event>
 7    1  0.7457412E-006  0.1216355E+03  0.7818608E-02  0.1275528E+00
          2   -1    0    0  502    0  0.00000000000E+00  0.00000000000E+00  0.17710793377E+03  0.17710793377E+03  0.00000000000E+00 0. -1.
          1   -1    0    0  501    0 -0.00000000000E+00 -0.00000000000E+00 -0.54065578336E+03  0.54065578336E+03  0.00000000000E+00 0. -1.
         25    2    1    2    0    0 -0.53876046605E+02  0.12653322621E+03 -0.12651993992E+03  0.22482415005E+03  0.12500127004E+03 0.  0.
          2    1    1    2  501    0  0.10801285099E+03 -0.59657089303E+02 -0.33827096589E+03  0.36007359060E+03  0.00000000000E+00 0. -1.
          1    1    1    2  502    0 -0.54136804386E+02 -0.66876136910E+02  0.10124305622E+03  0.13286597649E+03  0.00000000000E+00 0. -1.
         22    1    3    3    0    0 -0.81807174021E+02  0.12649002959E+03 -0.80002629011E+02  0.17056541841E+03  0.00000000000E+00 0. -1.
         22    1    3    3    0    0  0.27931127416E+02  0.43196620208E-01 -0.46517310911E+02  0.54258731639E+02  0.00000000000E+00 0. -1.
</event>
<event>
 7    1  0.7457412E-006  0.1936288E+03  0.7818608E-02  0.1293738E+00
          2   -1    0    0  502    0  0.00000000000E+00  0.00000000000E+00  0.12998933361E+04  0.12998933361E+04  0.00000000000E+00 0. -1.
          1   -1    0    0  501    0 -0.00000000000E+00 -0.00000000000E+00 -0.16684108341E+03  0.16684108341E+03  0.00000000000E+00 0. -1.
         25    2    1    2    0    0  0.11680028185E+03  0.11405061822E+03  0.38521007962E+03  0.43665501477E+03  0.12502378624E+03 0.  0.
          2    1    1    2  501    0  0.26050649905E+02  0.37315325631E+02 -0.12486369496E+03  0.13289850340E+03  0.00000000000E+00 0. -1.
          1    1    1    2  502    0 -0.14285093175E+03 -0.15136594385E+03  0.87270586799E+03  0.89718090132E+03  0.00000000000E+00 0. -1.
         22    1    3    3    0    0 -0.62612603507E+00  0.58888558635E+02  0.50140986486E+02  0.77345800776E+02  0.00000000000E+00 0. -1.
         22    1    3    3    0    0  0.11742640788E+03  0.55162059587E+02  0.33506909314E+03  0.35930921399E+03  0.00000000000E+00 0. -1.
</event>
<event>
 7    1  0.7457412E-006  0.5788248E+02  0.7818608E-02  0.1534257E+00
          2   -1    0    0  502    0  0.00000000000E+00  0.00000000000E+00  0.64329178897E+03  0.64329178897E+03  0.00000000000E+00 0. -1.
          1   -1    0    0  501    0 -0.00000000000E+00 -0.00000000000E+00 -0.53901000292E+02  0.53901000292E+02  0.00000000000E+00 0. -1.
         25    2    1    2    0    0  0.16737650382E+02  0.45210826094E+02  0.13464202811E+03  0.18993977742E+03  0.12499790228E+03 0.  0.
          2    1    1    2  501    0  0.23137830362E+02 -0.20726005193E+01 -0.18916936150E+02  0.29958393482E+02  0.00000000000E+00 0. -1.
          1    1    1    2  502    0 -0.39875480743E+02 -0.43138225574E+02  0.47366569672E+03  0.47729461836E+03  0.00000000000E+00 0. -1.
         22    1    3    3    0    0  0.41302596664E+01 -0.73155572385E+01  0.13565223168E+03  0.13591212008E+03  0.00000000000E+00 0. -1.
         22    1    3    3    0    0  0.12607390715E+02  0.52526383332E+02 -0.10102035744E+01  0.54027657342E+02  0.00000000000E+00 0. -1.
</event>
<event>
 7    1  0.7457412E-006  0.6974123E+02  0.7818608E-02  0.1463643E+00
          2   -1    0    0  502    0  0.00000000000E+00  0.00000000000E+00  0.25581845299E+04  0.25581845299E+04  0.00000000000E+00 0. -1.
          1   -1    0    0  501    0 -0.00000000000E+00 -0.00000000000E+00 -0.30650006788E+02  0.30650006788E+02  0.00000000000E+00 0. -1.
         25    2    1    2    0    0 -0.11340915023E+00  0.39463016603E+02  0.14140774115E+04  0.14201394720E+04  0.12499540648E+03 0.  0.
          2    1    1    2  501    0 -0.30988431614E+01 -0.70649776890E+02  0.18243760324E+02  0.73033065075E+02  0.00000000000E+00 0. -1.
          1    1    1    2  502    0  0.32122523116E+01  0.31186760286E+02  0.10952133513E+04  0.10956619996E+04  0.00000000000E+00 0. -1.
         22    1    3    3    0    0  0.34323748064E+02 -0.35009075712E+02  0.52799066017E+03  0.53026209773E+03  0.00000000000E+00 0. -1.
         22    1    3    3    0    0 -0.34437157214E+02  0.74472092315E+02  0.88608675132E+03  0.88987737425E+03  0.00000000000E+00 0. -1.
</event>
<event>
 7    1  0.7457412E-006  0.4635785E+02  0.7818608E-02  0.1476029E+00
          2   -1    0    0  502    0  0.00000000000E+00  0.00000000000E+00  0.97121803266E+03  0.97121803266E+03  0.00000000000E+00 0. -1.
          1   -1    0    0  501    0 -0.00000000000E+00 -0.00000000000E+00 -0.29754218006E+03  0.29754218006E+03  0.00000000000E+00 0. -1.
         25    2    1    2    0    0  0.59828908301E+01  0.85843839435E+02  0.12650755119E+03  0.19756820790E+03  0.12499630600E+03 0.  0.
          2    1    1    2  501    0  0.81116664674E+01 -0.42391741494E+02 -0.25958386956E+03  0.26314757118E+03  0.00000000000E+00 0. -1.
          1    1    1    2  502    0 -0.14094557297E+02 -0.43452097941E+02  0.80675217097E+03  0.80804443364E+03  0.00000000000E+00 0. -1.
         22    1    3    3    0    0  0.57108485024E+01  0.11857968433E+03  0.10412955884E+03  0.15791364840E+03  0.00000000000E+00 0. -1.
         22    1    3    3    0    0  0.27204232761E+00 -0.32735844891E+02  0.22377992353E+02  0.39654559505E+02  0.00000000000E+00 0. -1.
</event>
<event>
 7    1  0.7457412E-006  0.1077645E+03  0.7818608E-02  0.1400271E+00
          2   -1    0    0  502    0  0.00000000000E+00  0.00000000000E+00  0.84025105169E+02  0.84025105169E+02  0.00000000000E+00 0. -1.
          1   -1    0    0  501    0 -0.00000000000E+00 -0.00000000000E+00 -0.47086275605E+03  0.47086275605E+03  0.00000000000E+00 0. -1.
         25    2    1    2    0    0  0.46460593780E+02 -0.83569329504E+02 -0.29753100766E+03  0.33658854615E+03  0.12499891710E+03 0.  0.
          2    1    1    2  501    0 -0.22371089751E+02 -0.23940778202E+02 -0.10224439422E+03  0.10736639450E+03  0.00000000000E+00 0. -1.
          1    1    1    2  502    0 -0.24089504029E+02  0.10751010771E+03  0.12937751003E+02  0.11093292056E+03  0.00000000000E+00 0. -1.
         22    1    3    3    0    0  0.49782812939E+02  0.13130822420E+02 -0.16256401647E+03  0.17052215813E+03  0.00000000000E+00 0.  1.
         22    1    3    3    0    0 -0.33222191589E+01 -0.96700151924E+02 -0.13496699118E+03  0.16606638802E+03  0.00000000000E+00 0.  1.
</event>
<event>
 7    1  0.7457412E-006  0.6938983E+02  0.7818608E-02  0.1466228E+00
          2   -1    0    0  502    0  0.00000000000E+00  0.00000000000E+00  0.15761320127E+04  0.15761320127E+04  0.00000000000E+00 0. -1.
          1   -1    0    0  501    0 -0.00000000000E+00 -0.00000000000E+00 -0.16476167661E+03  0.16476167661E+03  0.00000000000E+00 0. -1.
         25    2    1    2    0    0  0.67573885386E+02  0.67715545649E+02  0.11242962715E+03  0.19343477589E+03  0.12499986541E+03 0.  0.
          2    1    1    2  501    0 -0.10550464657E+02 -0.29073250374E+02 -0.12148692118E+03  0.12536202858E+03  0.00000000000E+00 0. -1.
          1    1    1    2  502    0 -0.57023420729E+02 -0.38642295274E+02  0.14204276301E+04  0.14220968848E+04  0.00000000000E+00 0. -1.
         22    1    3    3    0    0  0.10346754486E+03  0.61028687500E+02  0.77837277820E+02  0.14313865780E+03  0.00000000000E+00 0. -1.
         22    1    3    3    0    0 -0.35893659478E+02  0.66868581482E+01  0.34592349333E+02  0.50296118091E+02  0.00000000000E+00 0. -1.
</event>
<event>
 7    1  0.7457412E-006  0.2047338E+03  0.7818608E-02  0.1220955E+00
          2   -1    0    0  502    0  0.00000000000E+00  0.00000000000E+00  0.11359980352E+04  0.11359980352E+04  0.00000000000E+00 0. -1.
          1   -1    0    0  501    0 -0.00000000000E+00 -0.00000000000E+00 -0.14673875354E+04  0.14673875354E+04  0.00000000000E+00 0. -1.
         25    2    1    2    0    0 -0.18823117965E+03  0.10834811141E+03  0.16083298259E+03  0.29776265953E+03  0.12500025152E+03 0.  0.
          2    1    1    2  501    0  0.67108450760E+02  0.57440204494E+02 -0.13858748892E+04  0.13886871965E+04  0.00000000000E+00 0. -1.
          1    1    1    2  502    0  0.12112272889E+03 -0.16578831590E+03  0.89365240646E+03  0.91693571460E+03  0.00000000000E+00 0. -1.
         22    1    3    3    0    0 -0.11391725445E+03  0.25351001373E+02  0.20344838985E+02  0.11846403085E+03  0.00000000000E+00 0.  1.
         22    1    3    3    0    0 -0.74313925207E+02  0.82997110035E+02  0.14048814360E+03  0.17929862868E+03  0.00000000000E+00 0.  1.
</event>
<event>
 7    1  0.7457412E-006  0.1194615E+03  0.7818608E-02  0.1253449E+00
          2   -1    0    0  502    0  0.00000000000E+00  0.00000000000E+00  0.24951774422E+04  0.24951774422E+04  0.00000000000E+00 0. -1.
          1   -1    0    0  501    0 -0.00000000000E+00 -0.00000000000E+00 -0.55998054701E+03  0.55998054701E+03  0.00000000000E+00 0. -1.
         25    2    1    2    0    0 -0.65728171023E+02 -0.10713058403E+03  0.63434826156E+02  0.18825160530E+03  0.12497013735E+03 0.  0.
          2    1    1    2  501    0  0.10852831530E+03 -0.54981980056E+01 -0.49008504091E+03  0.50198802050E+03  0.00000000000E+00 0. -1.
          1    1    1    2  502    0 -0.42800144279E+02  0.11262878203E+03  0.23618471100E+04  0.23649183634E+04  0.00000000000E+00 0. -1.
         22    1    3    3    0    0  0.60179708198E+01 -0.58856491072E+02  0.80706113807E+02  0.10006887288E+03  0.00000000000E+00 0.  1.
         22    1    3    3    0    0 -0.71746141843E+02 -0.48274092954E+02 -0.17271287651E+02  0.88182732420E+02  0.00000000000E+00 0.  1.
</event>
<event>
 7    1  0.7457412E-006  0.5828131E+02  0.7818608E-02  0.1407661E+00
          2   -1    0    0  502    0  0.00000000000E+00  0.00000000000E+00  0.84983209932E+02  0.84983209932E+02  0.00000000000E+00 0. -1.
          1   -1    0    0  501    0 -0.00000000000E+00 -0.00000000000E+00 -0.24977507449E+03  0.24977507449E+03  0.00000000000E+00 0. -1.
         25    2    1    2    0    0  0.53953473833E+02 -0.38372894276E+02 -0.12384416114E+03  0.18800493725E+03  0.12500009531E+03 0.  0.
          2    1    1    2  501    0 -0.50637621533E+00  0.61613345412E+02 -0.59435687206E+02  0.85609939046E+02  0.00000000000E+00 0. -1.
          1    1    1    2  502    0 -0.53447097618E+02 -0.23240451136E+02  0.18487983786E+02  0.61143408126E+02  0.00000000000E+00 0. -1.
         22    1    3    3    0    0  0.11285770723E+02  0.42745145917E+02 -0.66613874225E+02  0.79949511316E+02  0.00000000000E+00 0.  1.
         22    1    3    3    0    0  0.42667703110E+02 -0.81118040193E+02 -0.57230286910E+02  0.10805542593E+03  0.00000000000E+00 0.  1.
</event>
<event>
 7    1  0.7457412E-006  0.9578756E+02  0.7818608E-02  0.1418674E+00
          2   -1    0    0  502    0  0.00000000000E+00  0.00000000000E+00  0.59877464468E+03  0.59877464468E+03  0.00000000000E+00 0. -1.
          1   -1    0    0  501    0 -0.00000000000E+00 -0.00000000000E+00 -0.21324072284E+03  0.21324072284E+03  0.00000000000E+00 0. -1.
         25    2    1    2    0    0 -0.71942843556E+00 -0.10806528952E+03  0.17434780617E+03  0.24021101882E+03  0.12500220667E+03 0.  0.
          2    1    1    2  501    0 -0.26583399290E+02  0.91512455250E+02 -0.16699809250E+03  0.19227472399E+03  0.00000000000E+00 0. -1.
          1    1    1    2  502    0  0.27302827726E+02  0.16552834269E+02  0.37818420817E+03  0.37952962471E+03  0.00000000000E+00 0. -1.
         22    1    3    3    0    0  0.71143269212E+01 -0.15912855211E+02  0.14073057922E+03  0.14180595382E+03  0.00000000000E+00 0.  1.
         22    1    3    3    0    0 -0.78337553568E+01 -0.92152434309E+02  0.33617226946E+02  0.98405065010E+02  0.00000000000E+00 0.  1.
</event>
<event>
 7    1  0.7457412E-006  0.6968750E+02  0.7818608E-02  0.1479609E+00
          2   -1    0    0  502    0  0.00000000000E+00  0.00000000000E+00  0.20946854342E+03  0.20946854342E+03  0.00000000000E+00 0. -1.
          1   -1    0    0  501    0 -0.00000000000E+00 -0.00000000000E+00 -0.68003883323E+03  0.68003883323E+03  0.00000000000E+00 0. -1.
         25    2    1    2    0    0 -0.66992378261E+02 -0.29153761997E+02  0.69674665718E+02  0.16067759304E+03  0.12499923712E+03 0.  0.
          2    1    1    2  501    0  0.48457133556E+02  0.50130605314E+02 -0.63049494869E+03  0.63433827861E+03  0.00000000000E+00 0. -1.
          1    1    1    2  502    0  0.18535244705E+02 -0.20976843317E+02  0.90249993165E+02  0.94491505005E+02  0.00000000000E+00 0. -1.
         22    1    3    3    0    0 -0.27651719698E+01  0.29869611365E+02  0.66998766529E+02  0.73407592084E+02  0.00000000000E+00 0.  1.
         22    1    3    3    0    0 -0.64227206291E+02 -0.59023373362E+02  0.26758991891E+01  0.87270000959E+02  0.00000000000E+00 0.  1.
</event>
<event>
 7    1  0.7457412E-006  0.5403087E+02  0.7818608E-02  0.1497900E+00
          2   -1    0    0  502    0  0.00000000000E+00  0.00000000000E+00  0.20421837038E+04  0.20421837038E+04  0.00000000000E+00 0. -1.
          1   -1    0    0  501    0 -0.00000000000E+00 -0.00000000000E+00 -0.10137170865E+02  0.10137170865E+02  0.00000000000E+00 0. -1.
         25    2    1    2    0    0  0.30480008166E+01 -0.76060987908E+02  0.64588797352E+03  0.66226172291E+03  0.12499900442E+03 0.  0.
          2    1    1    2  501    0 -0.69369993027E+00  0.44370765677E+02  0.28430227469E+03  0.28774472968E+03  0.00000000000E+00 0. -1.
          1    1    1    2  502    0 -0.23543008863E+01  0.31690222230E+02  0.11018562848E+04  0.11023144221E+04  0.00000000000E+00 0. -1.
         22    1    3    3    0    0  0.21894464629E+02 -0.60022684256E+02  0.12136435801E+03  0.13715464848E+03  0.00000000000E+00 0.  1.
         22    1    3    3    0    0 -0.18846463813E+02 -0.16038303652E+02  0.52452361551E+03  0.52510707442E+03  0.00000000000E+00 0.  1.
</event>
<event>
 7    1  0.7457412E-006  0.3212430E+02  0.7818608E-02  0.1616442E+00
          2   -1    0    0  502    0  0.00000000000E+00  0.00000000000E+00  0.41514417759E+02  0.41514417759E+02  0.00000000000E+00 0. -1.
          1   -1    0    0  501    0 -0.00000000000E+00 -0.00000000000E+00 -0.77052106367E+03  0.77052106367E+03  0.00000000000E+00 0. -1.
         25    2    1    2    0    0 -0.12264324597E+02  0.58920851778E-01 -0.55947858425E+03  0.57340426875E+03  0.12500300818E+03 0.  0.
          2    1    1    2  501    0  0.36539754224E+02  0.63727653062E+01 -0.19755055562E+03  0.20100245720E+03  0.00000000000E+00 0. -1.
          1    1    1    2  502    0 -0.24275429627E+02 -0.64316861579E+01  0.28022493964E+02  0.37628755472E+02  0.00000000000E+00 0. -1.
         22    1    3    3    0    0 -0.51488287531E+02 -0.12359675029E+01 -0.49673471616E+03  0.49939758670E+03  0.00000000000E+00 0.  1.
         22    1    3    3    0    0  0.39223962934E+02  0.12948883547E+01 -0.62743868098E+02  0.74006682050E+02  0.00000000000E+00 0.  1.
</event>
<event>
 7    1  0.7457412E-006  0.8397962E+02  0.7818608E-02  0.1369503E+00
          2   -1    0    0  502    0  0.00000000000E+00  0.00000000000E+00  0.43934250468E+02  0.43934250468E+02  0.00000000000E+00 0. -1.
          1   -1    0    0  501    0 -0.00000000000E+00 -0.00000000000E+00 -0.12490080886E+04  0.12490080886E+04  0.00000000000E+00 0. -1.
         25    2    1    2    0    0  0.21301848406E+02  0.58287835233E+02 -0.34100421651E+03  0.36845584617E+03  0.12499837766E+03 0.  0.
          2    1    1    2  501    0  0.25023402833E+02 -0.85923572664E+02 -0.86590080493E+03  0.87051320209E+03  0.00000000000E+00 0. -1.
          1    1    1    2  502    0 -0.46325251239E+02  0.27635737431E+02  0.18311833354E+01  0.53973290785E+02  0.00000000000E+00 0. -1.
         22    1    3    3    0    0 -0.40621164831E+02  0.65207999814E+02 -0.20242012476E+03  0.21650882009E+03  0.00000000000E+00 0.  1.
         22    1    3    3    0    0  0.61923013238E+02 -0.69201645811E+01 -0.13858409175E+03  0.15194702608E+03  0.00000000000E+00 0.  1.
</event>
<event>
 7    1  0.7457412E-006  0.5861814E+02  0.7818608E-02  0.1535709E+00
          2   -1    0    0  502    0  0.00000000000E+00  0.00000000000E+00  0.21169293641E+04  0.21169293641E+04  0.00000000000E+00 0. -1.
          1   -1    0    0  501    0 -0.00000000000E+00 -0.00000000000E+00 -0.33884835504E+03  0.33884835504E+03  0.00000000000E+00 0. -1.
         25    2    1    2    0    0 -0.71997576198E+02  0.36094654267E+02  0.16775793741E+04  0.16841570001E+04  0.12500307793E+03 0.  0.
          2    1    1    2  501    0  0.49944354367E+02 -0.30623330019E+02 -0.33270244078E+03  0.33782116716E+03  0.00000000000E+00 0. -1.
          1    1    1    2  502    0  0.22053221831E+02 -0.54713242473E+01  0.43320407578E+03  0.43379955193E+03  0.00000000000E+00 0. -1.
         22    1    3    3    0    0 -0.79012369186E+01 -0.74969276508E+01  0.12207018444E+04  0.12207504357E+04  0.00000000000E+00 0. -1.
         22    1    3    3    0    0 -0.64096339280E+02  0.43591581917E+02  0.45687752968E+03  0.46340656431E+03  0.00000000000E+00 0. -1.
</event>
<event>
 7    1  0.7457412E-006  0.6691822E+02  0.7818608E-02  0.1415245E+00
          2   -1    0    0  502    0  0.00000000000E+00  0.00000000000E+00  0.99336122591E+03  0.99336122591E+03  0.00000000000E+00 0. -1.
          1   -1    0    0  501    0 -0.00000000000E+00 -0.00000000000E+00 -0.19059925931E+02  0.19059925931E+02  0.00000000000E+00 0. -1.
         25    2    1    2    0    0 -0.26331657003E+02  0.62282386505E+02  0.62578162036E+03  0.64171686657E+03  0.12500179451E+03 0.  0.
          2    1    1    2  501    0  0.63212492872E+02 -0.33261802628E+02  0.26944476414E+03  0.27875194653E+03  0.00000000000E+00 0. -1.
          1    1    1    2  502    0 -0.36880835869E+02 -0.29020583877E+02  0.79074915485E+02  0.91952338752E+02  0.00000000000E+00 0. -1.
         22    1    3    3    0    0  0.37052056953E+02  0.11450068158E+02  0.39787598755E+03  0.39976150447E+03  0.00000000000E+00 0. -1.
         22    1    3    3    0    0 -0.63383713956E+02  0.50832318347E+02  0.22790563280E+03  0.24195536210E+03  0.00000000000E+00 0. -1.
</event>
<event>
 7    1  0.7457412E-006  0.6051167E+02  0.7818608E-02  0.1528211E+00
          2   -1    0    0  502    0  0.00000000000E+00  0.00000000000E+00  0.21835021500E+04  0.21835021500E+04  0.00000000000E+00 0. -1.
          1   -1    0    0  501    0 -0.00000000000E+00 -0.00000000000E+00 -0.27854092374E+02  0.27854092374E+02  0.00000000000E+00 0. -1.
         25    2    1    2    0    0 -0.35797883200E+02 -0.72246310482E+02  0.63705587558E+03  0.65418983058E+03  0.12499251179E+03 0.  0.
          2    1    1    2  501    0  0.16391318433E+02  0.16310659317E+02 -0.11571623091E+02  0.25857598270E+02  0.00000000000E+00 0. -1.
          1    1    1    2  502    0  0.19406564766E+02  0.55935651165E+02  0.15301638051E+04  0.15313088135E+04  0.00000000000E+00 0. -1.
         22    1    3    3    0    0 -0.72907642336E+02 -0.82630722944E+02  0.46871551850E+03  0.48149516921E+03  0.00000000000E+00 0.  1.
         22    1    3    3    0    0  0.37109759136E+02  0.10384412462E+02  0.16834035707E+03  0.17269466137E+03  0.00000000000E+00 0.  1.
</event>
<event>
 7    1  0.7457412E-006  0.8205387E+02  0.7818608E-02  0.1382201E+00
          2   -1    0    0  502    0  0.00000000000E+00  0.00000000000E+00  0.17601590817E+04  0.17601590817E+04  0.00000000000E+00 0. -1.
          1   -1    0    0  501    0 -0.00000000000E+00 -0.00000000000E+00 -0.43894336246E+03  0.43894336246E+03  0.00000000000E+00 0. -1.
         25    2    1    2    0    0  0.23835137155E+01 -0.46117384046E+02  0.53102288735E+03  0.54748737252E+03  0.12499848772E+03 0.  0.
          2    1    1    2  501    0  0.34561990166E+02 -0.35777339755E+02 -0.42761449450E+03  0.43049820570E+03  0.00000000000E+00 0. -1.
          1    1    1    2  502    0 -0.36945503881E+02  0.81894723801E+02  0.12178073264E+04  0.12211168659E+04  0.00000000000E+00 0. -1.
         22    1    3    3    0    0 -0.22618597633E+02  0.45900053108E+01  0.43816528032E+03  0.43877269969E+03  0.00000000000E+00 0.  1.
         22    1    3    3    0    0  0.25002111349E+02 -0.50707389357E+02  0.92857607026E+02  0.10871467284E+03  0.00000000000E+00 0.  1.
</event>
<event>
 7    1  0.7457412E-006  0.6950995E+02  0.7818608E-02  0.1363785E+00
          2   -1    0    0  502    0  0.00000000000E+00  0.00000000000E+00  0.11522275151E+04  0.11522275151E+04  0.00000000000E+00 0. -1.
          1   -1    0    0  501    0 -0.00000000000E+00 -0.00000000000E+00 -0.87954997159E+03  0.87954997159E+03  0.00000000000E+00 0. -1.
         25    2    1    2    0    0 -0.25508242951E+02 -0.65386777335E+02  0.26732485579E+03  0.30333793473E+03  0.12500089205E+03 0.  0.
          2    1    1    2  501    0 -0.45099011185E+02  0.51354627471E+02 -0.85868875439E+03  0.86140443201E+03  0.00000000000E+00 0. -1.
          1    1    1    2  502    0  0.70607254136E+02  0.14032149864E+02  0.86404144211E+03  0.86703511996E+03  0.00000000000E+00 0. -1.
         22    1    3    3    0    0 -0.47758587988E+02  0.22022332518E+02  0.85710231299E+02  0.10055898570E+03  0.00000000000E+00 0. -1.
         22    1    3    3    0    0  0.22250345037E+02 -0.87409109854E+02  0.18161462449E+03  0.20277894902E+03  0.00000000000E+00 0. -1.
</event>
<event>
 7    1  0.7457412E-006  0.1001506E+03  0.7818608E-02  0.1345410E+00
          2   -1    0    0  502    0  0.00000000000E+00  0.00000000000E+00  0.71614746848E+03  0.71614746848E+03  0.00000000000E+00 0. -1.
          1   -1    0    0  501    0 -0.00000000000E+00 -0.00000000000E+00 -0.15344600881E+03  0.15344600881E+03  0.00000000000E+00 0. -1.
         25    2    1    2    0    0 -0.75998718191E+02 -0.10820038173E+03 -0.18703052703E+02  0.18290714137E+03  0.12498836110E+03 0.  0.
          2    1    1    2  501    0  0.54251729800E+02  0.11352799200E+02 -0.32872342752E+02  0.64441656977E+02  0.00000000000E+00 0. -1.
          1    1    1    2  502    0  0.21746988391E+02  0.96847582526E+02  0.61427685512E+03  0.62224467895E+03  0.00000000000E+00 0. -1.
         22    1    3    3    0    0 -0.63816626138E+02 -0.90094120378E+02 -0.67532925900E+02  0.12942259609E+03  0.00000000000E+00 0.  1.
         22    1    3    3    0    0 -0.12182092053E+02 -0.18106261347E+02  0.48829873197E+02  0.53484545274E+02  0.00000000000E+00 0.  1.
</event>
<event>
 7    1  0.7457412E-006  0.1678569E+03  0.7818608E-02  0.1311733E+00
          2   -1    0    0  502    0  0.00000000000E+00  0.00000000000E+00  0.18872168303E+04  0.18872168303E+04  0.00000000000E+00 0. -1.
          1   -1    0    0  501    0 -0.00000000000E+00 -0.00000000000E+00 -0.11697631792E+04  0.11697631792E+04  0.00000000000E+00 0. -1.
         25    2    1    2    0    0  0.43469875433E+02 -0.11622363345E+03  0.10682173305E+04  0.10826410314E+04  0.12500309782E+03 0.  0.
          2    1    1    2  501    0 -0.65974545010E+02  0.15461788691E+03 -0.11558565608E+04  0.11680170036E+04  0.00000000000E+00 0. -1.
          1    1    1    2  502    0  0.22504669577E+02 -0.38394253458E+02  0.80509288139E+03  0.80632197447E+03  0.00000000000E+00 0. -1.
         22    1    3    3    0    0  0.70417406345E+02 -0.42268666082E+02  0.32298634297E+03  0.33326480312E+03  0.00000000000E+00 0. -1.
         22    1    3    3    0    0 -0.26947530912E+02 -0.73954967373E+02  0.74523098756E+03  0.74937622824E+03  0.00000000000E+00 0. -1.
</event>
<event>
 7    1  0.7457412E-006  0.9423588E+02  0.7818608E-02  0.1410939E+00
          2   -1    0    0  502    0  0.00000000000E+00  0.00000000000E+00  0.72158684548E+02  0.72158684548E+02  0.00000000000E+00 0. -1.
          1   -1    0    0  501    0 -0.00000000000E+00 -0.00000000000E+00 -0.78344593191E+03  0.78344593191E+03  0.00000000000E+00 0. -1.
         25    2    1    2    0    0 -0.44065110184E+02  0.65825265957E+02 -0.14310266090E+03  0.20585998555E+03  0.12500105007E+03 0.  0.
          2    1    1    2  501    0 -0.34354025671E+02 -0.26884622577E+01 -0.54544410892E+03  0.54653152047E+03  0.00000000000E+00 0. -1.
          1    1    1    2  502    0  0.78419135854E+02 -0.63136803699E+02 -0.22740477547E+02  0.10321311045E+03  0.00000000000E+00 0. -1.
         22    1    3    3    0    0 -0.70415160129E+02  0.61787368403E+02 -0.15131428351E+03  0.17796624979E+03  0.00000000000E+00 0. -1.
         22    1    3    3    0    0  0.26350049945E+02  0.40378975540E+01  0.82116226072E+01  0.27893735759E+02  0.00000000000E+00 0. -1.
</event>
<event>
 7    1  0.7457412E-006  0.6287744E+02  0.7818608E-02  0.1537254E+00
          2   -1    0    0  502    0  0.00000000000E+00  0.00000000000E+00  0.85030762148E+03  0.85030762148E+03  0.00000000000E+00 0. -1.
          1   -1    0    0  501    0 -0.00000000000E+00 -0.00000000000E+00 -0.50066677020E+03  0.50066677020E+03  0.00000000000E+00 0. -1.
         25    2    1    2    0    0  0.21129197970E+02 -0.75897680381E+02 -0.18794889194E+03  0.23907028073E+03  0.12499164873E+03 0.  0.
          2    1    1    2  501    0 -0.25492211423E+02  0.55386905993E+02 -0.28378533580E+03  0.29026139773E+03  0.00000000000E+00 0. -1.
          1    1    1    2  502    0  0.43630134531E+01  0.20510774388E+02  0.82137507901E+03  0.82164271321E+03  0.00000000000E+00 0. -1.
         22    1    3    3    0    0  0.15198280748E+02 -0.50252478202E+01 -0.16287473959E+03  0.16365946856E+03  0.00000000000E+00 0. -1.
         22    1    3    3    0    0  0.59309172216E+01 -0.70872432561E+02 -0.25074152354E+02  0.75410812172E+02  0.00000000000E+00 0. -1.
</event>
<event>
 7    1  0.7457412E-006  0.7490146E+02  0.7818608E-02  0.1458071E+00
          2   -1    0    0  502    0  0.00000000000E+00  0.00000000000E+00  0.33599958495E+04  0.33599958495E+04  0.00000000000E+00 0. -1.
          1   -1    0    0  501    0 -0.00000000000E+00 -0.00000000000E+00 -0.45036807559E+02  0.45036807559E+02  0.00000000000E+00 0. -1.
         25    2    1    2    0    0 -0.40621835570E+02 -0.94437469369E+02  0.90366013398E+03  0.91804011071E+03  0.12500975154E+03 0.  0.
          2    1    1    2  501    0  0.15698129296E+02  0.26028723490E+02 -0.31112535919E+02  0.43496156166E+02  0.00000000000E+00 0. -1.
          1    1    1    2  502    0  0.24923706274E+02  0.68408745878E+02  0.24424114438E+04  0.24434963901E+04  0.00000000000E+00 0. -1.
         22    1    3    3    0    0 -0.64112442090E+02 -0.46431255027E+02  0.77048707490E+03  0.77454283243E+03  0.00000000000E+00 0. -1.
         22    1    3    3    0    0  0.23490606520E+02 -0.48006214342E+02  0.13317305908E+03  0.14349727828E+03  0.00000000000E+00 0. -1.
</event>
<event>
 7    1  0.7457412E-006  0.7384092E+02  0.7818608E-02  0.1385396E+00
          2   -1    0    0  502    0  0.00000000000E+00  0.00000000000E+00  0.35428956481E+04  0.35428956481E+04  0.00000000000E+00 0. -1.
          1   -1    0    0  501    0 -0.00000000000E+00 -0.00000000000E+00 -0.12890986612E+02  0.12890986612E+02  0.00000000000E+00 0. -1.
         25    2    1    2    0    0 -0.94913351302E+02  0.74601741818E+02  0.14438715675E+04  0.14542944234E+04  0.12503280500E+03 0.  0.
          2    1    1    2  501    0  0.46830055104E+02 -0.50325137265E+02  0.15444232949E+03  0.16905060378E+03  0.00000000000E+00 0. -1.
          1    1    1    2  502    0  0.48083296197E+02 -0.24276604553E+02  0.19316907644E+04  0.19324416075E+04  0.00000000000E+00 0. -1.
         22    1    3    3    0    0 -0.85123108396E+02 -0.79137655800E+01  0.90840502278E+03  0.91241890417E+03  0.00000000000E+00 0. -1.
         22    1    3    3    0    0 -0.97902429052E+01  0.82515507399E+02  0.53546654476E+03  0.54187551926E+03  0.00000000000E+00 0. -1.
</event>
<event>
 7    1  0.7457412E-006  0.1097534E+03  0.7818608E-02  0.1362135E+00
          2   -1    0    0  502    0  0.00000000000E+00  0.00000000000E+00  0.37096567609E+03  0.37096567609E+03  0.00000000000E+00 0. -1.
          1   -1    0    0  501    0 -0.00000000000E+00 -0.00000000000E+00 -0.26962619470E+03  0.26962619470E+03  0.00000000000E+00 0. -1.
         25    2    1    2    0    0 -0.69772280623E+02 -0.40392486276E+02  0.90792371108E+01  0.14901861778E+03  0.12499756720E+03 0.  0.
          2    1    1    2  501    0 -0.41909130729E+02  0.13027396114E+02 -0.18567520924E+03  0.19079143486E+03  0.00000000000E+00 0. -1.
          1    1    1    2  502    0  0.11168141135E+03  0.27365090163E+02  0.27793545353E+03  0.30078181815E+03  0.00000000000E+00 0. -1.
         22    1    3    3    0    0 -0.12670899994E+02 -0.67219910056E+01 -0.54988771916E+02  0.56828706712E+02  0.00000000000E+00 0. -1.
         22    1    3    3    0    0 -0.57101380629E+02 -0.33670495270E+02  0.64068009027E+02  0.92189911065E+02  0.00000000000E+00 0. -1.
</event>
<event>
 7    1  0.7457412E-006  0.2176689E+03  0.7818608E-02  0.1274083E+00
          2   -1    0    0  502    0  0.00000000000E+00  0.00000000000E+00  0.41801160428E+03  0.41801160428E+03  0.00000000000E+00 0. -1.
          1   -1    0    0  501    0 -0.00000000000E+00 -0.00000000000E+00 -0.20672931750E+04  0.20672931750E+04  0.00000000000E+00 0. -1.
         25    2    1    2    0    0  0.89541995964E+01 -0.18815381959E+03 -0.56004284075E+03  0.60394915474E+03  0.12499824205E+03 0.  0.
          2    1    1    2  501    0  0.17108504981E+02  0.22935464257E+03 -0.14748498523E+04  0.14926748942E+04  0.00000000000E+00 0. -1.
          1    1    1    2  502    0 -0.26062704578E+02 -0.41200822974E+02  0.38561112238E+03  0.38868073027E+03  0.00000000000E+00 0. -1.
         22    1    3    3    0    0 -0.13990808251E+02 -0.74149181841E+01 -0.88542767434E+00  0.15858994588E+02  0.00000000000E+00 0. -1.
         22    1    3    3    0    0  0.22945007847E+02 -0.18073890141E+03 -0.55915741308E+03  0.58809016015E+03  0.00000000000E+00 0. -1.
</event>
<event>
 7    1  0.7457412E-006  0.9422708E+02  0.7818608E-02  0.1333815E+00
          2   -1    0    0  502    0  0.00000000000E+00  0.00000000000E+00  0.13551832944E+04  0.13551832944E+04  0.00000000000E+00 0. -1.
          1   -1    0    0  501    0 -0.00000000000E+00 -0.00000000000E+00 -0.29868625545E+02  0.29868625545E+02  0.00000000000E+00 0. -1.
         25    2    1    2    0    0 -0.13037392327E+03  0.23280800201E+02  0.76374609228E+03  0.78515740471E+03  0.12499880469E+03 0.  0.
          2    1    1    2  501    0  0.48493074910E+02 -0.43492731241E+02  0.51879325449E+02  0.83274608340E+02  0.00000000000E+00 0. -1.
          1    1    1    2  502    0  0.81880848362E+02  0.20211931040E+02  0.50968925115E+03  0.51661990692E+03  0.00000000000E+00 0. -1.
         22    1    3    3    0    0 -0.12690488746E+03  0.63052296882E+02  0.61841057548E+03  0.63443839927E+03  0.00000000000E+00 0. -1.
         22    1    3    3    0    0 -0.34690358082E+01 -0.39771496681E+02  0.14533551680E+03  0.15071900544E+03  0.00000000000E+00 0. -1.
</event>
<event>
 7    1  0.7457412E-006  0.3318742E+02  0.7818608E-02  0.1589884E+00
          2   -1    0    0  502    0  0.00000000000E+00  0.00000000000E+00  0.66814553500E+03  0.66814553500E+03  0.00000000000E+00 0. -1.
          1   -1    0    0  501    0 -0.00000000000E+00 -0.00000000000E+00 -0.10864214837E+03  0.10864214837E+03  0.00000000000E+00 0. -1.
         25    2    1    2    0    0  0.45387662453E+02 -0.19268354538E+02  0.22184127155E+02  0.13618895047E+03  0.12499594130E+03 0.  0.
          2    1    1    2  501    0 -0.27226362963E+02 -0.84311137840E+01 -0.47202034315E+02  0.55139736700E+02  0.00000000000E+00 0. -1.
          1    1    1    2  502    0 -0.18161299489E+02  0.27699468322E+02  0.58452129379E+03  0.58545899621E+03  0.00000000000E+00 0. -1.
         22    1    3    3    0    0 -0.26661975953E+01 -0.19928091476E+02 -0.47476973986E+02  0.51558709239E+02  0.00000000000E+00 0. -1.
         22    1    3    3    0    0  0.48053860048E+02  0.65973693832E+00  0.69661101140E+02  0.84630241229E+02  0.00000000000E+00 0. -1.
</event>
<event>
 7    1  0.7457412E-006  0.3755760E+02  0.7818608E-02  0.1535233E+00
          2   -1    0    0  502    0  0.00000000000E+00  0.00000000000E+00  0.67041344554E+03  0.67041344554E+03  0.00000000000E+00 0. -1.
          1   -1    0    0  501    0 -0.00000000000E+00 -0.00000000000E+00 -0.19493506916E+04  0.19493506916E+04  0.00000000000E+00 0. -1.
         25    2    1    2    0    0 -0.47285944901E+01 -0.19605753388E+02  0.13802577009E+02  0.12736256215E+03  0.12499586367E+03 0.  0.
          2    1    1    2  501    0  0.35486431691E+02 -0.24915077207E+01 -0.18918055059E+04  0.18921399437E+04  0.00000000000E+00 0. -1.
          1    1    1    2  502    0 -0.30757837201E+02  0.22097261109E+02  0.59906568289E+03  0.60026163122E+03  0.00000000000E+00 0. -1.
         22    1    3    3    0    0 -0.57237100172E+02 -0.13116113755E+02  0.37199598150E+02  0.69512072179E+02  0.00000000000E+00 0. -1.
         22    1    3    3    0    0  0.52508505682E+02 -0.64896396327E+01 -0.23397021140E+02  0.57850489970E+02  0.00000000000E+00 0. -1.
</event>
<event>
 7    1  0.7457412E-006  0.1766347E+03  0.7818608E-02  0.1298884E+00
          2   -1    0    0  502    0  0.00000000000E+00  0.00000000000E+00  0.40855074945E+03  0.40855074945E+03  0.00000000000E+00 0. -1.
          1   -1    0    0  501    0 -0.00000000000E+00 -0.00000000000E+00 -0.63526910959E+03  0.63526910959E+03  0.00000000000E+00 0. -1.
         25    2    1    2    0    0  0.20131868113E+03  0.18306736778E+02 -0.27538651456E+03  0.36376659808E+03  0.12499622992E+03 0.  0.
          2    1    1    2  501    0 -0.33897038730E+02  0.33365467054E+02 -0.29259632232E+03  0.29643696035E+03  0.00000000000E+00 0. -1.
          1    1    1    2  502    0 -0.16742164240E+03 -0.51672203832E+02  0.34126447675E+03  0.38361630060E+03  0.00000000000E+00 0. -1.
         22    1    3    3    0    0  0.99146805622E+02  0.62942816925E+02 -0.18985743719E+03  0.22324366447E+03  0.00000000000E+00 0. -1.
         22    1    3    3    0    0  0.10217187551E+03 -0.44636080147E+02 -0.85529077374E+02  0.14052293362E+03  0.00000000000E+00 0. -1.
</event>
<event>
 7    1  0.7457412E-006  0.9411629E+02  0.7818608E-02  0.1305834E+00
          2   -1    0    0  502    0  0.00000000000E+00  0.00000000000E+00  0.12337364146E+04  0.12337364146E+04  0.00000000000E+00 0. -1.
          1   -1    0    0  501    0 -0.00000000000E+00 -0.00000000000E+00 -0.15268288049E+04  0.15268288049E+04  0.00000000000E+00 0. -1.
         25    2    1    2    0    0  0.14549136525E+03  0.63882667811E+02  0.49217771231E+03  0.53208356822E+03  0.12500116188E+03 0.  0.
          2    1    1    2  501    0 -0.83691190592E+02 -0.30119488318E+01 -0.15030992304E+04  0.15054303649E+04  0.00000000000E+00 0. -1.
          1    1    1    2  502    0 -0.61800174659E+02 -0.60870718979E+02  0.71782912778E+03  0.72305128636E+03  0.00000000000E+00 0. -1.
         22    1    3    3    0    0  0.12176197325E+03 -0.84300064890E+01  0.35227134884E+03  0.37281650494E+03  0.00000000000E+00 0.  1.
         22    1    3    3    0    0  0.23729392002E+02  0.72312674300E+02  0.13990636347E+03  0.15926706329E+03  0.00000000000E+00 0.  1.
</event>
<event>
 7    1  0.7457412E-006  0.6478998E+02  0.7818608E-02  0.1471648E+00
          2   -1    0    0  502    0  0.00000000000E+00  0.00000000000E+00  0.33667032614E+03  0.33667032614E+03  0.00000000000E+00 0. -1.
          1   -1    0    0  501    0 -0.00000000000E+00 -0.00000000000E+00 -0.42966947843E+03  0.42966947843E+03  0.00000000000E+00 0. -1.
         25    2    1    2    0    0  0.51689764785E+02  0.79835409778E+02 -0.37953131055E+02  0.16158543975E+03  0.12499555890E+03 0.  0.
          2    1    1    2  501    0 -0.35625234279E+02 -0.52320676444E+02 -0.32592166814E+03  0.33201136165E+03  0.00000000000E+00 0. -1.
          1    1    1    2  502    0 -0.16064530506E+02 -0.27514733333E+02  0.27087564691E+03  0.27274300317E+03  0.00000000000E+00 0. -1.
         22    1    3    3    0    0 -0.20461376530E+01  0.76811921277E+02  0.23061539133E+02  0.80225261089E+02  0.00000000000E+00 0.  1.
         22    1    3    3    0    0  0.53735902438E+02  0.30234885002E+01 -0.61014670188E+02  0.81360178661E+02  0.00000000000E+00 0.  1.
</event>
<event>
 7    1  0.7457412E-006  0.4873420E+02  0.7818608E-02  0.1527839E+00
          2   -1    0    0  502    0  0.00000000000E+00  0.00000000000E+00  0.94048498156E+03  0.94048498156E+03  0.00000000000E+00 0. -1.
          1   -1    0    0  501    0 -0.00000000000E+00 -0.00000000000E+00 -0.15072008123E+04  0.15072008123E+04  0.00000000000E+00 0. -1.
         25    2    1    2    0    0  0.17298400283E+02 -0.34320256272E+02 -0.42586891960E+03  0.44550676716E+03  0.12503930686E+03 0.  0.
          2    1    1    2  501    0 -0.43911759596E+02  0.23357552725E+02 -0.10707129894E+04  0.10718675867E+04  0.00000000000E+00 0. -1.
          1    1    1    2  502    0  0.26613359313E+02  0.10962703547E+02  0.92986607826E+03  0.93031143993E+03  0.00000000000E+00 0. -1.
         22    1    3    3    0    0  0.70562517746E+02 -0.31739488597E+02 -0.26117182114E+03  0.27239160083E+03  0.00000000000E+00 0.  1.
         22    1    3    3    0    0 -0.53264117463E+02 -0.25807676748E+01 -0.16469709846E+03  0.17311516633E+03  0.00000000000E+00 0.  1.
</event>
<event>
 7    1  0.7457412E-006  0.5576187E+02  0.7818608E-02  0.1423346E+00
          2   -1    0    0  502    0  0.00000000000E+00  0.00000000000E+00  0.55884227352E+02  0.55884227352E+02  0.00000000000E+00 0. -1.
          1   -1    0    0  501    0 -0.00000000000E+00 -0.00000000000E+00 -0.38582144698E+04  0.38582144698E+04  0.00000000000E+00 0. -1.
         25    2    1    2    0    0  0.26730045327E+02  0.95075492605E+02 -0.84818034248E+03  0.86301154975E+03  0.12500078807E+03 0.  0.
          2    1    1    2  501    0 -0.34012760485E+02 -0.42665255815E+02 -0.29878531685E+04  0.29883513429E+04  0.00000000000E+00 0. -1.
          1    1    1    2  502    0  0.72827151584E+01 -0.52410236791E+02  0.33703268529E+02  0.62735804530E+02  0.00000000000E+00 0. -1.
         22    1    3    3    0    0  0.35381621487E+01  0.93385581523E+02 -0.82465557473E+03  0.82993385421E+03  0.00000000000E+00 0. -1.
         22    1    3    3    0    0  0.23191883178E+02  0.16899110820E+01 -0.23524767754E+02  0.33077695547E+02  0.00000000000E+00 0. -1.
</event>
<event>
 7    1  0.7457412E-006  0.1375326E+03  0.7818608E-02  0.1361190E+00
          2   -1    0    0  502    0  0.00000000000E+00  0.00000000000E+00  0.84673683319E+03  0.84673683319E+03  0.00000000000E+00 0. -1.
          1   -1    0    0  501    0 -0.00000000000E+00 -0.00000000000E+00 -0.69177927967E+03  0.69177927967E+03  0.00000000000E+00 0. -1.
         25    2    1    2    0    0 -0.12533624805E+03 -0.87640326563E+02  0.32781429228E+02  0.20022486588E+03  0.12500149160E+03 0.  0.
          2    1    1    2  501    0  0.12631766786E+03  0.52352579564E+02 -0.59993376277E+03  0.61531899492E+03  0.00000000000E+00 0. -1.
          1    1    1    2  502    0 -0.98141980682E+00  0.35287746998E+02  0.72210988706E+03  0.72297225207E+03  0.00000000000E+00 0. -1.
         22    1    3    3    0    0 -0.43420878379E+02 -0.34902451808E+02  0.75515118620E+02  0.93840753203E+02  0.00000000000E+00 0. -1.
         22    1    3    3    0    0 -0.81915369671E+02 -0.52737874755E+02 -0.42733689393E+02  0.10638411268E+03  0.00000000000E+00 0. -1.
</event>
<event>
 7    1  0.7457412E-006  0.1449263E+03  0.7818608E-02  0.1401082E+00
          2   -1    0    0  502    0  0.00000000000E+00  0.00000000000E+00  0.17633406258E+04  0.17633406258E+04  0.00000000000E+00 0. -1.
          1   -1    0    0  501    0 -0.00000000000E+00 -0.00000000000E+00 -0.15448764784E+03  0.15448764784E+03  0.00000000000E+00 0. -1.
         25    2    1    2    0    0 -0.15401854955E+03  0.81366817761E+01  0.28659681822E+03  0.34864165277E+03  0.12500138655E+03 0.  0.
          2    1    1    2  501    0  0.14102601030E+03 -0.28563415771E+02 -0.81402240278E+02  0.16531947563E+03  0.00000000000E+00 0. -1.
          1    1    1    2  502    0  0.12992539252E+02  0.20426733995E+02  0.14036584000E+04  0.14038671452E+04  0.00000000000E+00 0. -1.
         22    1    3    3    0    0 -0.97622384634E+02 -0.55641644585E+02  0.14532453542E+03  0.18369905603E+03  0.00000000000E+00 0. -1.
         22    1    3    3    0    0 -0.56396164918E+02  0.63778326361E+02  0.14127228280E+03  0.16494259674E+03  0.00000000000E+00 0. -1.
</event>
<event>
 7    1  0.7457412E-006  0.3349681E+03  0.7818608E-02  0.1221759E+00
          2   -1    0    0  502    0  0.00000000000E+00  0.00000000000E+00  0.17940569427E+03  0.17940569427E+03  0.00000000000E+00 0. -1.
          1   -1    0    0  501    0 -0.00000000000E+00 -0.00000000000E+00 -0.15965961346E+04  0.15965961346E+04  0.00000000000E+00 0. -1.
         25    2    1    2    0    0 -0.15520196261E+03 -0.28606323529E+03 -0.83384034377E+03  0.90378903136E+03  0.12500028213E+03 0.  0.
          2    1    1    2  501    0  0.20829560613E+03  0.27918269126E+03 -0.67869729320E+03  0.76286306139E+03  0.00000000000E+00 0. -1.
          1    1    1    2  502    0 -0.53093643525E+02  0.68805440388E+01  0.95347196676E+02  0.10934973609E+03  0.00000000000E+00 0. -1.
         22    1    3    3    0    0 -0.41273825142E+02 -0.55045856166E+02 -0.72023528332E+02  0.99604033836E+02  0.00000000000E+00 0.  1.
         22    1    3    3    0    0 -0.11392813746E+03 -0.23101737913E+03 -0.76181681544E+03  0.80418499753E+03  0.00000000000E+00 0.  1.
</event>
<event>
 7    1  0.7457412E-006  0.5893126E+02  0.7818608E-02  0.1422852E+00
          2   -1    0    0  502    0  0.00000000000E+00  0.00000000000E+00  0.10681201219E+04  0.10681201219E+04  0.00000000000E+00 0. -1.
          1   -1    0    0  501    0 -0.00000000000E+00 -0.00000000000E+00 -0.55736953516E+02  0.55736953516E+02  0.00000000000E+00 0. -1.
         25    2    1    2    0    0 -0.21575896110E+02 -0.92942272882E+02  0.59094587029E+03  0.61151163342E+03  0.12500268324E+03 0.  0.
          2    1    1    2  501    0 -0.10297111299E+02  0.49191880145E+02 -0.29429761565E+02  0.58240728353E+02  0.00000000000E+00 0. -1.
          1    1    1    2  502    0  0.31873007409E+02  0.43750392737E+02  0.45086705969E+03  0.45410471368E+03  0.00000000000E+00 0. -1.
         22    1    3    3    0    0  0.27191228411E+02 -0.16124986875E+02  0.38579328267E+03  0.38708634057E+03  0.00000000000E+00 0.  1.
         22    1    3    3    0    0 -0.48767124522E+02 -0.76817286007E+02  0.20515258762E+03  0.22442529285E+03  0.00000000000E+00 0.  1.
</event>
<event>
 7    1  0.7457412E-006  0.1663987E+03  0.7818608E-02  0.1235783E+00
          2   -1    0    0  502    0  0.00000000000E+00  0.00000000000E+00  0.66492554733E+03  0.66492554733E+03  0.00000000000E+00 0. -1.
          1   -1    0    0  501    0 -0.00000000000E+00 -0.00000000000E+00 -0.22666418426E+03  0.22666418426E+03  0.00000000000E+00 0. -1.
         25    2    1    2    0    0 -0.20350818988E+02  0.19870255116E+03 -0.61551865084E+02  0.24353714934E+03  0.12499940536E+03 0.  0.
          2    1    1    2  501    0  0.76730761624E+02 -0.12446774268E+03  0.68773300825E+01  0.14638007520E+03  0.00000000000E+00 0. -1.
          1    1    1    2  502    0 -0.56379942636E+02 -0.74234808489E+02  0.49293589807E+03  0.50167250705E+03  0.00000000000E+00 0. -1.
         22    1    3    3    0    0  0.11491080743E+02  0.19852331563E+03 -0.34649642648E+02  0.20185180088E+03  0.00000000000E+00 0.  1.
         22    1    3    3    0    0 -0.31841899732E+02  0.17923553724E+00 -0.26902222436E+02  0.41685348456E+02  0.00000000000E+00 0.  1.
</event>
<event>
 7    1  0.7457412E-006  0.3864996E+03  0.7818608E-02  0.1204046E+00
          2   -1    0    0  502    0  0.00000000000E+00  0.00000000000E+00  0.16106674912E+04  0.16106674912E+04  0.00000000000E+00 0. -1.
          1   -1    0    0  501    0 -0.00000000000E+00 -0.00000000000E+00 -0.12015243794E+04  0.12015243794E+04  0.00000000000E+00 0. -1.
         25    2    1    2    0    0  0.34515759643E+03 -0.19346009535E+03 -0.42689506847E+03  0.59533602844E+03  0.12500004961E+03 0.  0.
          2    1    1    2  501    0 -0.38193894729E+02 -0.40964696922E+02 -0.66477955165E+03  0.66713471824E+03  0.00000000000E+00 0. -1.
          1    1    1    2  502    0 -0.30696370170E+03  0.23442479227E+03  0.15008177319E+04  0.15497211239E+04  0.00000000000E+00 0. -1.
         22    1    3    3    0    0  0.16974922972E+03 -0.13053414152E+03 -0.30496976439E+03  0.37263993382E+03  0.00000000000E+00 0.  1.
         22    1    3    3    0    0  0.17540836671E+03 -0.62925953833E+02 -0.12192530409E+03  0.22269609461E+03  0.00000000000E+00 0.  1.
</event>
<event>
 7    1  0.7457412E-006  0.4454265E+02  0.7818608E-02  0.1563400E+00
          2   -1    0    0  502    0  0.00000000000E+00  0.00000000000E+00  0.18089435531E+04  0.18089435531E+04  0.00000000000E+00 0. -1.
          1   -1    0    0  501    0 -0.00000000000E+00 -0.00000000000E+00 -0.29712569817E+03  0.29712569817E+03  0.00000000000E+00 0. -1.
         25    2    1    2    0    0 -0.52943565944E+02  0.40269097826E+02  0.18149468688E+03  0.23019574587E+03  0.12500055455E+03 0.  0.
          2    1    1    2  501    0  0.24129805503E+02 -0.66399009935E+01 -0.27189453576E+03  0.27304390558E+03  0.00000000000E+00 0. -1.
          1    1    1    2  502    0  0.28813760441E+02 -0.33629196832E+02  0.16022177038E+04  0.16028295998E+04  0.00000000000E+00 0. -1.
         22    1    3    3    0    0 -0.36941188280E+02  0.43557718834E+02  0.19853654492E+03  0.20658820376E+03  0.00000000000E+00 0. -1.
         22    1    3    3    0    0 -0.16002377665E+02 -0.32886210084E+01 -0.17041858044E+02  0.23607542113E+02  0.00000000000E+00 0. -1.
</event>
<event>
 7    1  0.7457412E-006  0.1869948E+03  0.7818608E-02  0.1311542E+00
          2   -1    0    0  502    0  0.00000000000E+00  0.00000000000E+00  0.15593296100E+04  0.15593296100E+04  0.00000000000E+00 0. -1.
          1   -1    0    0  501    0 -0.00000000000E+00 -0.00000000000E+00 -0.21556629401E+03  0.21556629401E+03  0.00000000000E+00 0. -1.
         25    2    1    2    0    0  0.10021018737E+03  0.13064126209E+03 -0.42754203446E+01  0.20676677402E+03  0.12499999441E+03 0.  0.
          2    1    1    2  501    0 -0.14635060492E+02  0.37245932501E+02 -0.10008891478E+03  0.10779255701E+03  0.00000000000E+00 0. -1.
          1    1    1    2  502    0 -0.85575126882E+02 -0.16788719460E+03  0.14481276511E+04  0.14603365730E+04  0.00000000000E+00 0. -1.
         22    1    3    3    0    0  0.12456357148E+03  0.88338802602E+02 -0.23110449028E+02  0.15444714384E+03  0.00000000000E+00 0.  1.
         22    1    3    3    0    0 -0.24353384107E+02  0.42302459492E+02  0.18835028683E+02  0.52319630178E+02  0.00000000000E+00 0.  1.
</event>
<event>
 7    1  0.7457412E-006  0.8365617E+02  0.7818608E-02  0.1334462E+00
          2   -1    0    0  502    0  0.00000000000E+00  0.00000000000E+00  0.11073928815E+04  0.11073928815E+04  0.00000000000E+00 0. -1.
          1   -1    0    0  501    0 -0.00000000000E+00 -0.00000000000E+00 -0.86264737132E+03  0.86264737132E+03  0.00000000000E+00 0. -1.
         25    2    1    2    0    0  0.11408675181E+03 -0.32417346518E+02  0.14211510204E+03  0.22335652492E+03  0.12499905482E+03 0.  0.
          2    1    1    2  501    0 -0.77649034657E+02 -0.30789032809E+02 -0.81845850582E+03  0.82270995064E+03  0.00000000000E+00 0. -1.
          1    1    1    2  502    0 -0.36437717151E+02  0.63206379327E+02  0.92108891394E+03  0.92397377723E+03  0.00000000000E+00 0. -1.
         22    1    3    3    0    0  0.20180312470E+02 -0.67013506149E+02  0.76520604937E+02  0.10369888137E+03  0.00000000000E+00 0.  1.
         22    1    3    3    0    0  0.93906439337E+02  0.34596159632E+02  0.65594497105E+02  0.11965764355E+03  0.00000000000E+00 0.  1.
</event>
<event>
 7    1  0.7457412E-006  0.1131155E+03  0.7818608E-02  0.1317571E+00
          2   -1    0    0  502    0  0.00000000000E+00  0.00000000000E+00  0.81654197981E+03  0.81654197981E+03  0.00000000000E+00 0. -1.
          1   -1    0    0  501    0 -0.00000000000E+00 -0.00000000000E+00 -0.83745459853E+03  0.83745459853E+03  0.00000000000E+00 0. -1.
         25    2    1    2    0    0 -0.24356407632E+02  0.71599867912E+02 -0.19718233443E+03  0.24540979921E+03  0.12500128342E+03 0.  0.
          2    1    1    2  501    0 -0.10183402006E+02 -0.12387782491E+03 -0.60862887328E+03  0.62119121257E+03  0.00000000000E+00 0. -1.
          1    1    1    2  502    0  0.34539809638E+02  0.52277957001E+02  0.78489858900E+03  0.78739556657E+03  0.00000000000E+00 0. -1.
         22    1    3    3    0    0 -0.30195807721E+02 -0.15679881263E+02 -0.51752249451E+01  0.34415526054E+02  0.00000000000E+00 0.  1.
         22    1    3    3    0    0  0.58394000897E+01  0.87279749175E+02 -0.19200710949E+03  0.21099427315E+03  0.00000000000E+00 0.  1.
</event>
<event>
 7    1  0.7457412E-006  0.1329665E+03  0.7818608E-02  0.1359943E+00
          2   -1    0    0  502    0  0.00000000000E+00  0.00000000000E+00  0.75951974163E+03  0.75951974163E+03  0.00000000000E+00 0. -1.
          1   -1    0    0  501    0 -0.00000000000E+00 -0.00000000000E+00 -0.18013149168E+04  0.18013149168E+04  0.00000000000E+00 0. -1.
         25    2    1    2    0    0 -0.11793887269E+02  0.12814760249E+03 -0.34979714569E+03  0.39312000556E+03  0.12499756732E+03 0.  0.
          2    1    1    2  501    0  0.48568029262E+02 -0.12512763837E+03 -0.14262421268E+04  0.14325440250E+04  0.00000000000E+00 0. -1.
          1    1    1    2  502    0 -0.36774141992E+02 -0.30199641185E+01  0.73424409729E+03  0.73517062788E+03  0.00000000000E+00 0. -1.
         22    1    3    3    0    0  0.37961242877E+02  0.84936455566E+02 -0.10820374151E+03  0.14270005999E+03  0.00000000000E+00 0.  1.
         22    1    3    3    0    0 -0.49755130147E+02  0.43211146921E+02 -0.24159340418E+03  0.25041994557E+03  0.00000000000E+00 0.  1.
</event>
<event>
 7    1  0.7457412E-006  0.1275456E+03  0.7818608E-02  0.1381943E+00
          2   -1    0    0  502    0  0.00000000000E+00  0.00000000000E+00  0.78152796062E+03  0.78152796062E+03  0.00000000000E+00 0. -1.
          1   -1    0    0  501    0 -0.00000000000E+00 -0.00000000000E+00 -0.73748506420E+03  0.73748506420E+03  0.00000000000E+00 0. -1.
         25    2    1    2    0    0 -0.11408755029E+03 -0.67546662252E+02  0.87082710202E+02  0.20195627882E+03  0.12499767768E+03 0.  0.
          2    1    1    2  501    0  0.23413469908E+02 -0.21915007781E+02 -0.67329507868E+03  0.67405839592E+03  0.00000000000E+00 0. -1.
          1    1    1    2  502    0  0.90674080381E+02  0.89461670033E+02  0.63025526490E+03  0.64299835007E+03  0.00000000000E+00 0. -1.
         22    1    3    3    0    0 -0.72912930620E+02 -0.58094561012E+02  0.11743256529E+03  0.14993892377E+03  0.00000000000E+00 0. -1.
         22    1    3    3    0    0 -0.41174619669E+02 -0.94521012395E+01 -0.30349855085E+02  0.52017355050E+02  0.00000000000E+00 0. -1.
</event>
<event>
 7    1  0.7457412E-006  0.1390728E+03  0.7818608E-02  0.1228627E+00
          2   -1    0    0  502    0  0.00000000000E+00  0.00000000000E+00  0.99194762202E+03  0.99194762202E+03  0.00000000000E+00 0. -1.
          1   -1    0    0  501    0 -0.00000000000E+00 -0.00000000000E+00 -0.13317522691E+04  0.13317522691E+04  0.00000000000E+00 0. -1.
         25    2    1    2    0    0 -0.15889248973E+03  0.97702522290E+02  0.11875207594E+03  0.25400838062E+03  0.12500238289E+03 0.  0.
          2    1    1    2  501    0  0.43809533896E+02 -0.13188873878E+03 -0.12557966118E+04  0.12634631158E+04  0.00000000000E+00 0. -1.
          1    1    1    2  502    0  0.11508295583E+03  0.34186216489E+02  0.79723988881E+03  0.80622839470E+03  0.00000000000E+00 0. -1.
         22    1    3    3    0    0 -0.10304499003E+03  0.12524043088E+03  0.88985685057E+02  0.18499158803E+03  0.00000000000E+00 0.  1.
         22    1    3    3    0    0 -0.55847499697E+02 -0.27537908593E+02  0.29766390884E+02  0.69016792582E+02  0.00000000000E+00 0.  1.
</event>
<event>
 7    1  0.7457412E-006  0.6232831E+02  0.7818608E-02  0.1428282E+00
          2   -1    0    0  502    0  0.00000000000E+00  0.00000000000E+00  0.86417331383E+03  0.86417331383E+03  0.00000000000E+00 0. -1.
          1   -1    0    0  501    0 -0.00000000000E+00 -0.00000000000E+00 -0.29516858342E+04  0.29516858342E+04  0.00000000000E+00 0. -1.
         25    2    1    2    0    0  0.21629245936E+02  0.10303735474E+01  0.23357373264E+03  0.26580182623E+03  0.12500014519E+03 0.  0.
          2    1    1    2  501    0  0.44214753402E+02  0.11115280343E+02 -0.29335702794E+04  0.29339245181E+04  0.00000000000E+00 0. -1.
          1    1    1    2  502    0 -0.65843999338E+02 -0.12145653891E+02  0.61248402640E+03  0.61613280367E+03  0.00000000000E+00 0. -1.
         22    1    3    3    0    0 -0.83290555596E+01 -0.45436177548E+02  0.30541983225E+02  0.55377180644E+02  0.00000000000E+00 0. -1.
         22    1    3    3    0    0  0.29958301495E+02  0.46466551096E+02  0.20303174941E+03  0.21042464558E+03  0.00000000000E+00 0. -1.
</event>
<event>
 7    1  0.7457412E-006  0.1010169E+03  0.7818608E-02  0.1455146E+00
          2   -1    0    0  502    0  0.00000000000E+00  0.00000000000E+00  0.56451342195E+03  0.56451342195E+03  0.00000000000E+00 0. -1.
          1   -1    0    0  501    0 -0.00000000000E+00 -0.00000000000E+00 -0.64096632942E+03  0.64096632942E+03  0.00000000000E+00 0. -1.
         25    2    1    2    0    0 -0.87740801019E+02  0.21437130090E+02 -0.11787368728E+03  0.19410591766E+03  0.12499960963E+03 0.  0.
          2    1    1    2  501    0  0.10270209530E+03 -0.39363592745E+01 -0.47927404952E+03  0.49017020497E+03  0.00000000000E+00 0. -1.
          1    1    1    2  502    0 -0.14961294284E+02 -0.17500770815E+02  0.52069482933E+03  0.52120362873E+03  0.00000000000E+00 0. -1.
         22    1    3    3    0    0 -0.69531234971E+02 -0.45340483195E+02 -0.79630117965E+02  0.11502742169E+03  0.00000000000E+00 0. -1.
         22    1    3    3    0    0 -0.18209566048E+02  0.66777613285E+02 -0.38243569319E+02  0.79078495977E+02  0.00000000000E+00 0. -1.
</event>
<event>
 7    1  0.7457412E-006  0.4178859E+02  0.7818608E-02  0.1512885E+00
          2   -1    0    0  502    0  0.00000000000E+00  0.00000000000E+00  0.31407767371E+04  0.31407767371E+04  0.00000000000E+00 0. -1.
          1   -1    0    0  501    0 -0.00000000000E+00 -0.00000000000E+00 -0.48175790495E+02  0.48175790495E+02  0.00000000000E+00 0. -1.
         25    2    1    2    0    0 -0.60831785602E+02  0.37233940427E+02  0.40484013141E+03  0.42966024385E+03  0.12500208275E+03 0.  0.
          2    1    1    2  501    0  0.19760359097E+02 -0.31393892662E+02 -0.25945892862E+02  0.45268506100E+02  0.00000000000E+00 0. -1.
          1    1    1    2  502    0  0.41071426505E+02 -0.58400477645E+01  0.27137067080E+04  0.27140237776E+04  0.00000000000E+00 0. -1.
         22    1    3    3    0    0 -0.96859610529E+01 -0.39087800440E+02  0.56333665183E+02  0.69247063604E+02  0.00000000000E+00 0. -1.
         22    1    3    3    0    0 -0.51145824549E+02  0.76321740867E+02  0.34850646623E+03  0.36041318025E+03  0.00000000000E+00 0. -1.
</event>
<event>
 7    1  0.7457412E-006  0.1166005E+03  0.7818608E-02  0.1314365E+00
          2   -1    0    0  502    0  0.00000000000E+00  0.00000000000E+00  0.30305482261E+04  0.30305482261E+04  0.00000000000E+00 0. -1.
          1   -1    0    0  501    0 -0.00000000000E+00 -0.00000000000E+00 -0.11413861492E+03  0.11413861492E+03  0.00000000000E+00 0. -1.
         25    2    1    2    0    0  0.26643546675E+02 -0.74238737899E+02  0.43389407918E+03  0.45837799948E+03  0.12500019870E+03 0.  0.
          2    1    1    2  501    0 -0.88822798289E+02  0.81148114368E+02 -0.65865726509E+02  0.13715976046E+03  0.00000000000E+00 0. -1.
          1    1    1    2  502    0  0.62179251614E+02 -0.69093764682E+01  0.25483812585E+04  0.25491490810E+04  0.00000000000E+00 0. -1.
         22    1    3    3    0    0 -0.18043005777E+02  0.26933316845E+02  0.56815526542E+02  0.65413742211E+02  0.00000000000E+00 0. -1.
         22    1    3    3    0    0  0.44686552452E+02 -0.10117205474E+03  0.37707855264E+03  0.39296425727E+03  0.00000000000E+00 0. -1.
</event>
<event>
 7    1  0.7457412E-006  0.1052463E+03  0.7818608E-02  0.1345445E+00
          2   -1    0    0  502    0  0.00000000000E+00  0.00000000000E+00  0.21078916449E+04  0.21078916449E+04  0.00000000000E+00 0. -1.
          1   -1    0    0  501    0 -0.00000000000E+00 -0.00000000000E+00 -0.14016160924E+03  0.14016160924E+03  0.00000000000E+00 0. -1.
         25    2    1    2    0    0  0.60138869226E+02  0.41599466578E+02  0.79886547963E+02  0.16537460042E+03  0.12497879303E+03 0.  0.
          2    1    1    2  501    0 -0.66811445599E+02 -0.93902793784E+02 -0.62852298321E+02  0.13127039022E+03  0.00000000000E+00 0. -1.
          1    1    1    2  502    0  0.66725763732E+01  0.52303327206E+02  0.19506957860E+04  0.19514082635E+04  0.00000000000E+00 0. -1.
         22    1    3    3    0    0  0.65037473670E+02 -0.53567447342E+01  0.95484109101E+02  0.11565371929E+03  0.00000000000E+00 0.  1.
         22    1    3    3    0    0 -0.48986044442E+01  0.46956211312E+02 -0.15597561138E+02  0.49720881124E+02  0.00000000000E+00 0.  1.
</event>
<event>
 7    1  0.7457412E-006  0.5503614E+02  0.7818608E-02  0.1461998E+00
          2   -1    0    0  502    0  0.00000000000E+00  0.00000000000E+00  0.40672907367E+03  0.40672907367E+03  0.00000000000E+00 0. -1.
          1   -1    0    0  501    0 -0.00000000000E+00 -0.00000000000E+00 -0.97075991249E+02  0.97075991249E+02  0.00000000000E+00 0. -1.
         25    2    1    2    0    0 -0.15988392000E+02 -0.91699878642E+01  0.20831229579E+03  0.24363548010E+03  0.12499806890E+03 0.  0.
          2    1    1    2  501    0  0.35516399348E+02  0.44313124210E+02 -0.66576040152E+02  0.87506781007E+02  0.00000000000E+00 0. -1.
          1    1    1    2  502    0 -0.19528007348E+02 -0.35143136345E+02  0.16791682679E+03  0.17266280382E+03  0.00000000000E+00 0. -1.
         22    1    3    3    0    0 -0.41475959581E+02 -0.20164638850E+02  0.15229354707E+02  0.48567490443E+02  0.00000000000E+00 0.  1.
         22    1    3    3    0    0  0.25487567582E+02  0.10994650985E+02  0.19308294108E+03  0.19506798965E+03  0.00000000000E+00 0.  1.
</event>
<event>
 7    1  0.7457412E-006  0.1014289E+03  0.7818608E-02  0.1293435E+00
          2   -1    0    0  502    0  0.00000000000E+00  0.00000000000E+00  0.46456653934E+03  0.46456653934E+03  0.00000000000E+00 0. -1.
          1   -1    0    0  501    0 -0.00000000000E+00 -0.00000000000E+00 -0.23995252544E+03  0.23995252544E+03  0.00000000000E+00 0. -1.
         25    2    1    2    0    0 -0.16044633404E+02  0.93585700444E+02  0.69213037023E+02  0.17155287877E+03  0.12499692848E+03 0.  0.
          2    1    1    2  501    0 -0.70023504243E+02 -0.80072052863E+02 -0.16755351736E+03  0.19846663693E+03  0.00000000000E+00 0. -1.
          1    1    1    2  502    0  0.86068137646E+02 -0.13513647581E+02  0.32295449423E+03  0.33449954908E+03  0.00000000000E+00 0. -1.
         22    1    3    3    0    0 -0.41344243110E+02  0.10973220305E+03  0.27981815040E+02  0.12055490367E+03  0.00000000000E+00 0.  1.
         22    1    3    3    0    0  0.25299609706E+02 -0.16146502610E+02  0.41231221983E+02  0.50997975097E+02  0.00000000000E+00 0.  1.
</event>
<event>
 7    1  0.7457412E-006  0.7923097E+02  0.7818608E-02  0.1417626E+00
          2   -1    0    0  502    0  0.00000000000E+00  0.00000000000E+00  0.92328515979E+03  0.92328515979E+03  0.00000000000E+00 0. -1.
          1   -1    0    0  501    0 -0.00000000000E+00 -0.00000000000E+00 -0.90073575365E+03  0.90073575365E+03  0.00000000000E+00 0. -1.
         25    2    1    2    0    0 -0.75479654340E+02 -0.38816718358E+02 -0.47368185271E+02  0.15833060575E+03  0.12498367852E+03 0.  0.
          2    1    1    2  501    0 -0.38136995804E+01  0.38726538198E+02 -0.79559850705E+03  0.79654960516E+03  0.00000000000E+00 0. -1.
          1    1    1    2  502    0  0.79293353920E+02  0.90180159862E-01  0.86551609846E+03  0.86914070254E+03  0.00000000000E+00 0. -1.
         22    1    3    3    0    0 -0.23004114545E+00 -0.50488879754E+02  0.22230732400E+02  0.55166886452E+02  0.00000000000E+00 0. -1.
         22    1    3    3    0    0 -0.75249613194E+02  0.11672161396E+02 -0.69598917671E+02  0.10316371929E+03  0.00000000000E+00 0. -1.
</event>
<event>
 7    1  0.7457412E-006  0.1223083E+03  0.7818608E-02  0.1337697E+00
          2   -1    0    0  502    0  0.00000000000E+00  0.00000000000E+00  0.91145964147E+03  0.91145964147E+03  0.00000000000E+00 0. -1.
          1   -1    0    0  501    0 -0.00000000000E+00 -0.00000000000E+00 -0.24177608784E+04  0.24177608784E+04  0.00000000000E+00 0. -1.
         25    2    1    2    0    0  0.13207161503E+03 -0.10584477057E+03 -0.15148282875E+03  0.25926600266E+03  0.12500314305E+03 0.  0.
          2    1    1    2  501    0 -0.41531796785E+02  0.25073714495E+02 -0.22078270375E+04  0.22083599817E+04  0.00000000000E+00 0. -1.
          1    1    1    2  502    0 -0.90539818247E+02  0.80771056079E+02  0.85300862924E+03  0.86159453558E+03  0.00000000000E+00 0. -1.
         22    1    3    3    0    0  0.11829746579E+03 -0.41522790880E+02 -0.14718729227E+03  0.19334562726E+03  0.00000000000E+00 0.  1.
         22    1    3    3    0    0  0.13774149242E+02 -0.64321979694E+02 -0.42955364872E+01  0.65920375399E+02  0.00000000000E+00 0.  1.
</event>
<event>
 7    1  0.7457412E-006  0.9857741E+02  0.7818608E-02  0.1342675E+00
          2   -1    0    0  502    0  0.00000000000E+00  0.00000000000E+00  0.66084094652E+03  0.66084094652E+03  0.00000000000E+00 0. -1.
          1   -1    0    0  501    0 -0.00000000000E+00 -0.00000000000E+00 -0.86486872743E+03  0.86486872743E+03  0.00000000000E+00 0. -1.
         25    2    1    2    0    0  0.16152702211E+02  0.78628529285E+02  0.23599379329E+03  0.27885992842E+03  0.12500573506E+03 0.  0.
          2    1    1    2  501    0  0.40290096127E+02 -0.90379006175E+02 -0.83845139285E+03  0.84427033276E+03  0.00000000000E+00 0. -1.
          1    1    1    2  502    0 -0.56442798338E+02  0.11750476890E+02  0.39842981866E+03  0.40257941277E+03  0.00000000000E+00 0. -1.
         22    1    3    3    0    0  0.27930324917E+01  0.77928559689E+02  0.50540458453E+02  0.92924697397E+02  0.00000000000E+00 0. -1.
         22    1    3    3    0    0  0.13359669719E+02  0.69996959608E+00  0.18545333484E+03  0.18593523102E+03  0.00000000000E+00 0. -1.
</event>
<event>
 7    1  0.7457412E-006  0.2061527E+03  0.7818608E-02  0.1157647E+00
          2   -1    0    0  502    0  0.00000000000E+00  0.00000000000E+00  0.26003220996E+03  0.26003220996E+03  0.00000000000E+00 0. -1.
          1   -1    0    0  501    0 -0.00000000000E+00 -0.00000000000E+00 -0.57105896484E+03  0.57105896484E+03  0.00000000000E+00 0. -1.
         25    2    1    2    0    0  0.96879647602E+02 -0.53537855051E+02 -0.15775158960E+03  0.22969448770E+03  0.12498810189E+03 0.  0.
          2    1    1    2  501    0  0.15516588824E+03  0.84718392031E+02 -0.26933097455E+03  0.32216895051E+03  0.00000000000E+00 0. -1.
          1    1    1    2  502    0 -0.25204553584E+03 -0.31180536980E+02  0.11605580926E+03  0.27922773660E+03  0.00000000000E+00 0. -1.
         22    1    3    3    0    0  0.64637581358E+02  0.17915146445E+02 -0.17982312617E+02  0.69443019541E+02  0.00000000000E+00 0.  1.
         22    1    3    3    0    0  0.32242066244E+02 -0.71453001496E+02 -0.13976927698E+03  0.16025146816E+03  0.00000000000E+00 0.  1.
</event>
<event>
 7    1  0.7457412E-006  0.1036017E+03  0.7818608E-02  0.1422009E+00
          2   -1    0    0  502    0  0.00000000000E+00  0.00000000000E+00  0.19492163592E+04  0.19492163592E+04  0.00000000000E+00 0. -1.
          1   -1    0    0  501    0 -0.00000000000E+00 -0.00000000000E+00 -0.88065553360E+03  0.88065553360E+03  0.00000000000E+00 0. -1.
         25    2    1    2    0    0 -0.76035650110E+02  0.34805433695E+02 -0.12573866192E+02  0.15091734248E+03  0.12500041539E+03 0.  0.
          2    1    1    2  501    0  0.84010027314E+02 -0.62451468824E+02 -0.79537015807E+03  0.80222911876E+03  0.00000000000E+00 0. -1.
          1    1    1    2  502    0 -0.79743772048E+01  0.27646035129E+02  0.18765048498E+04  0.18767254315E+04  0.00000000000E+00 0. -1.
         22    1    3    3    0    0 -0.31056973834E+02 -0.46687883575E+02  0.46076307243E+01  0.56262992787E+02  0.00000000000E+00 0.  1.
         22    1    3    3    0    0 -0.44978676275E+02  0.81493317269E+02 -0.17181496916E+02  0.94654349691E+02  0.00000000000E+00 0.  1.
</event>
<event>
 7    1  0.7457412E-006  0.5312175E+02  0.7818608E-02  0.1528417E+00
          2   -1    0    0  502    0  0.00000000000E+00  0.00000000000E+00  0.17654356593E+04  0.17654356593E+04  0.00000000000E+00 0. -1.
          1   -1    0    0  501    0 -0.00000000000E+00 -0.00000000000E+00 -0.10534962466E+03  0.10534962466E+03  0.00000000000E+00 0. -1.
         25    2    1    2    0    0  0.41797367746E+02  0.66202472332E+02  0.21778656890E+03  0.26303163870E+03  0.12499946429E+03 0.  0.
          2    1    1    2  501    0 -0.25242516617E+02 -0.45760376263E+02 -0.74348011517E+02  0.90878069398E+02  0.00000000000E+00 0. -1.
          1    1    1    2  502    0 -0.16554851130E+02 -0.20442096069E+02  0.15166474773E+04  0.15168755759E+04  0.00000000000E+00 0. -1.
         22    1    3    3    0    0  0.86150767417E+02  0.50311608938E+02  0.15880705299E+03  0.18754437555E+03  0.00000000000E+00 0. -1.
         22    1    3    3    0    0 -0.44353399671E+02  0.15890863394E+02  0.58979515908E+02  0.75487263154E+02  0.00000000000E+00 0. -1.
</event>
<event>
 7    1  0.7457412E-006  0.2337383E+03  0.7818608E-02  0.1268489E+00
          2   -1    0    0  502    0  0.00000000000E+00  0.00000000000E+00  0.34930628038E+03  0.34930628038E+03  0.00000000000E+00 0. -1.
          1   -1    0    0  501    0 -0.00000000000E+00 -0.00000000000E+00 -0.59086332896E+03  0.59086332896E+03  0.00000000000E+00 0. -1.
         25    2    1    2    0    0  0.11523787177E+03  0.21284931064E+03 -0.54297039875E+02  0.27777477077E+03  0.12500423435E+03 0.  0.
          2    1    1    2  501    0 -0.14873378926E+03 -0.17858236319E+03 -0.39003915686E+03  0.45403077473E+03  0.00000000000E+00 0. -1.
          1    1    1    2  502    0  0.33495917491E+02 -0.34266947448E+02  0.20277914816E+03  0.20836406385E+03  0.00000000000E+00 0. -1.
         22    1    3    3    0    0 -0.18961412229E+02  0.47760585945E+02 -0.38929102815E+02  0.64467695550E+02  0.00000000000E+00 0.  1.
         22    1    3    3    0    0  0.13419928400E+03  0.16508872469E+03 -0.15367937060E+02  0.21330707522E+03  0.00000000000E+00 0.  1.
</event>
<event>
 7    1  0.7457412E-006  0.1475178E+03  0.7818608E-02  0.1280936E+00
          2   -1    0    0  502    0  0.00000000000E+00  0.00000000000E+00  0.17978439250E+04  0.17978439250E+04  0.00000000000E+00 0. -1.
          1   -1    0    0  501    0 -0.00000000000E+00 -0.00000000000E+00 -0.25070098092E+03  0.25070098092E+03  0.00000000000E+00 0. -1.
         25    2    1    2    0    0  0.74662924522E+02  0.55747681815E+02  0.20189508589E+03  0.25506608600E+03  0.12495889802E+03 0.  0.
          2    1    1    2  501    0  0.66698911805E+02  0.95380925093E+01 -0.21508731757E+03  0.22539359845E+03  0.00000000000E+00 0. -1.
          1    1    1    2  502    0 -0.14136183633E+03 -0.65285774325E+02  0.15603351757E+04  0.15680852215E+04  0.00000000000E+00 0. -1.
         22    1    3    3    0    0  0.33332388384E+02  0.33657667859E+02  0.20273461574E+03  0.20819512757E+03  0.00000000000E+00 0. -1.
         22    1    3    3    0    0  0.41330536139E+02  0.22090013956E+02 -0.83952985400E+00  0.46870958433E+02  0.00000000000E+00 0. -1.
</event>
<event>
 7    1  0.7457412E-006  0.1722040E+03  0.7818608E-02  0.1229990E+00
          2   -1    0    0  502    0  0.00000000000E+00  0.00000000000E+00  0.13739356666E+04  0.13739356666E+04  0.00000000000E+00 0. -1.
          1   -1    0    0  501    0 -0.00000000000E+00 -0.00000000000E+00 -0.72631042179E+03  0.72631042179E+03  0.00000000000E+00 0. -1.
         25    2    1    2    0    0  0.21086411641E+03 -0.10822065277E+03 -0.40712065488E+03  0.48738889223E+03  0.12500127747E+03 0.  0.
          2    1    1    2  501    0 -0.13220660569E+03  0.53886065679E+02 -0.25894428070E+03  0.29569314359E+03  0.00000000000E+00 0. -1.
          1    1    1    2  502    0 -0.78657510719E+02  0.54334587088E+02  0.13136901804E+04  0.13171640526E+04  0.00000000000E+00 0. -1.
         22    1    3    3    0    0  0.96846067902E+02  0.14045333852E+02 -0.11683029842E+03  0.15239997014E+03  0.00000000000E+00 0.  1.
         22    1    3    3    0    0  0.11401804850E+03 -0.12226598662E+03 -0.29029035646E+03  0.33498892209E+03  0.00000000000E+00 0.  1.
</event>
<event>
 7    1  0.7457412E-006  0.6102349E+02  0.7818608E-02  0.1467211E+00
          2   -1    0    0  502    0  0.00000000000E+00  0.00000000000E+00  0.10390107688E+02  0.10390107688E+02  0.00000000000E+00 0. -1.
          1   -1    0    0  501    0 -0.00000000000E+00 -0.00000000000E+00 -0.27348764068E+04  0.27348764068E+04  0.00000000000E+00 0. -1.
         25    2    1    2    0    0 -0.87231596546E+01  0.42658645039E+02 -0.72424990088E+03  0.73624856385E+03  0.12501270069E+03 0.  0.
          2    1    1    2  501    0  0.43515422010E+02 -0.45653553845E+02 -0.19254236174E+04  0.19264563181E+04  0.00000000000E+00 0. -1.
          1    1    1    2  502    0 -0.34792262356E+02  0.29949088066E+01 -0.74812780796E+02  0.82561632548E+02  0.00000000000E+00 0. -1.
         22    1    3    3    0    0  0.83284664601E+01  0.61652889071E+02 -0.69349983632E+03  0.69628475860E+03  0.00000000000E+00 0. -1.
         22    1    3    3    0    0 -0.17051626115E+02 -0.18994244032E+02 -0.30750064563E+02  0.39963805251E+02  0.00000000000E+00 0. -1.
</event>
<event>
 7    1  0.7457412E-006  0.1222077E+03  0.7818608E-02  0.1353148E+00
          2   -1    0    0  502    0  0.00000000000E+00  0.00000000000E+00  0.33702468256E+03  0.33702468256E+03  0.00000000000E+00 0. -1.
          1   -1    0    0  501    0 -0.00000000000E+00 -0.00000000000E+00 -0.42140481931E+03  0.42140481931E+03  0.00000000000E+00 0. -1.
         25    2    1    2    0    0  0.14593577148E+03 -0.10407829620E+02 -0.77720923529E+02  0.20753209835E+03  0.12499383016E+03 0.  0.
          2    1    1    2  501    0 -0.11240785246E+03  0.36554794218E+02 -0.26442854290E+03  0.28964501130E+03  0.00000000000E+00 0. -1.
          1    1    1    2  502    0 -0.33527919027E+02 -0.26146964599E+02  0.25776932968E+03  0.26125239221E+03  0.00000000000E+00 0. -1.
         22    1    3    3    0    0  0.14862130878E+03  0.28147130345E+01 -0.22080310774E+02  0.15027892785E+03  0.00000000000E+00 0.  1.
         22    1    3    3    0    0 -0.26855372957E+01 -0.13222542654E+02 -0.55640612755E+02  0.57253170502E+02  0.00000000000E+00 0.  1.
</event>
<event>
 7    1  0.7457412E-006  0.1078244E+03  0.7818608E-02  0.1288667E+00
          2   -1    0    0  502    0  0.00000000000E+00  0.00000000000E+00  0.13729347031E+04  0.13729347031E+04  0.00000000000E+00 0. -1.
          1   -1    0    0  501    0 -0.00000000000E+00 -0.00000000000E+00 -0.27511106595E+03  0.27511106595E+03  0.00000000000E+00 0. -1.
         25    2    1    2    0    0 -0.31107548947E+02  0.37054880165E+02  0.35231624129E+03  0.37695084988E+03  0.12499786237E+03 0.  0.
          2    1    1    2  501    0 -0.15167510394E+02 -0.10917697589E+03 -0.24931211075E+03  0.27259162497E+03  0.00000000000E+00 0. -1.
          1    1    1    2  502    0  0.46275059341E+02  0.72122095723E+02  0.99481950662E+03  0.99850329422E+03  0.00000000000E+00 0. -1.
         22    1    3    3    0    0  0.11220912776E+02  0.44217343497E+02  0.31995248186E+03  0.32318829341E+03  0.00000000000E+00 0. -1.
         22    1    3    3    0    0 -0.42328461722E+02 -0.71624633317E+01  0.32363759432E+02  0.53762556462E+02  0.00000000000E+00 0. -1.
</event>
<event>
 7    1  0.7457412E-006  0.7920811E+02  0.7818608E-02  0.1479036E+00
          2   -1    0    0  502    0  0.00000000000E+00  0.00000000000E+00  0.94733314962E+02  0.94733314962E+02  0.00000000000E+00 0. -1.
          1   -1    0    0  501    0 -0.00000000000E+00 -0.00000000000E+00 -0.88339811297E+03  0.88339811297E+03  0.00000000000E+00 0. -1.
         25    2    1    2    0    0 -0.61707595509E+02 -0.11988837976E+02 -0.75583425195E+03  0.76867531983E+03  0.12499908531E+03 0.  0.
          2    1    1    2  501    0 -0.10039329753E+02 -0.22598220593E+02 -0.10139150693E+03  0.10436333357E+03  0.00000000000E+00 0. -1.
          1    1    1    2  502    0  0.71746925261E+02  0.34587058568E+02  0.68560960864E+02  0.10509277453E+03  0.00000000000E+00 0. -1.
         22    1    3    3    0    0  0.91058601450E+01 -0.86461555377E+01 -0.56434363907E+03  0.56448331743E+03  0.00000000000E+00 0. -1.
         22    1    3    3    0    0 -0.70813455654E+02 -0.33426824379E+01 -0.19149061288E+03  0.20419200241E+03  0.00000000000E+00 0. -1.
</event>
<event>
 7    1  0.7457412E-006  0.7510449E+02  0.7818608E-02  0.1358322E+00
          2   -1    0    0  502    0  0.00000000000E+00  0.00000000000E+00  0.21614054493E+04  0.21614054493E+04  0.00000000000E+00 0. -1.
          1   -1    0    0  501    0 -0.00000000000E+00 -0.00000000000E+00 -0.94530697627E+02  0.94530697627E+02  0.00000000000E+00 0. -1.
         25    2    1    2    0    0  0.15901892288E+02 -0.16755749377E+02  0.46583455020E+03  0.48286587258E+03  0.12499598964E+03 0.  0.
          2    1    1    2  501    0 -0.12464360553E+02 -0.65038343061E+02 -0.72118302395E+02  0.97910141928E+02  0.00000000000E+00 0. -1.
          1    1    1    2  502    0 -0.34375317355E+01  0.81794092438E+02  0.16731585038E+04  0.16751601324E+04  0.00000000000E+00 0. -1.
         22    1    3    3    0    0 -0.45495483191E+02 -0.88124251617E+01  0.33422531231E+03  0.33742266850E+03  0.00000000000E+00 0.  1.
         22    1    3    3    0    0  0.61397375479E+02 -0.79433242152E+01  0.13160923789E+03  0.14544320408E+03  0.00000000000E+00 0.  1.
</event>
<event>
 7    1  0.7457412E-006  0.9784690E+02  0.7818608E-02  0.1345724E+00
          2   -1    0    0  502    0  0.00000000000E+00  0.00000000000E+00  0.31357553067E+02  0.31357553067E+02  0.00000000000E+00 0. -1.
          1   -1    0    0  501    0 -0.00000000000E+00 -0.00000000000E+00 -0.15668743851E+04  0.15668743851E+04  0.00000000000E+00 0. -1.
         25    2    1    2    0    0  0.50516422146E+02  0.43881273381E+02 -0.35689608504E+03  0.38402756469E+03  0.12499951948E+03 0.  0.
          2    1    1    2  501    0  0.56578989089E+02  0.32180461498E-01 -0.99847990275E+03  0.10000816463E+04  0.00000000000E+00 0. -1.
          1    1    1    2  502    0 -0.10709541123E+03 -0.43913453843E+02 -0.18014084428E+03  0.21412272723E+03  0.00000000000E+00 0. -1.
         22    1    3    3    0    0  0.52067631620E+02  0.58014306020E+02 -0.10026544980E+03  0.12700337944E+03  0.00000000000E+00 0. -1.
         22    1    3    3    0    0 -0.15512094743E+01 -0.14133032638E+02 -0.25663063524E+03  0.25702418526E+03  0.00000000000E+00 0. -1.
</event>
<event>
 7    1  0.7457412E-006  0.6801084E+02  0.7818608E-02  0.1426168E+00
          2   -1    0    0  502    0  0.00000000000E+00  0.00000000000E+00  0.33896212679E+03  0.33896212679E+03  0.00000000000E+00 0. -1.
          1   -1    0    0  501    0 -0.00000000000E+00 -0.00000000000E+00 -0.52099462500E+03  0.52099462500E+03  0.00000000000E+00 0. -1.
         25    2    1    2    0    0  0.82000441167E+02 -0.60113480559E+02  0.13550336036E+03  0.21053216836E+03  0.12499972140E+03 0.  0.
          2    1    1    2  501    0 -0.39903407088E+02  0.54581480655E+02 -0.47834747347E+03  0.48310218930E+03  0.00000000000E+00 0. -1.
          1    1    1    2  502    0 -0.42097034079E+02  0.55319999047E+01  0.16081161490E+03  0.16632239413E+03  0.00000000000E+00 0. -1.
         22    1    3    3    0    0  0.68191308961E+02  0.79018456706E+01  0.12176463526E+03  0.13978240298E+03  0.00000000000E+00 0.  1.
         22    1    3    3    0    0  0.13809132206E+02 -0.68015326230E+02  0.13738725104E+02  0.70749765384E+02  0.00000000000E+00 0.  1.
</event>
<event>
 7    1  0.7457412E-006  0.6391002E+02  0.7818608E-02  0.1398498E+00
          2   -1    0    0  502    0  0.00000000000E+00  0.00000000000E+00  0.37372116493E+03  0.37372116493E+03  0.00000000000E+00 0. -1.
          1   -1    0    0  501    0 -0.00000000000E+00 -0.00000000000E+00 -0.26870690464E+03  0.26870690464E+03  0.00000000000E+00 0. -1.
         25    2    1    2    0    0 -0.62505086725E+02 -0.71748545758E+02  0.16514012811E+03  0.22792324354E+03  0.12499201314E+03 0.  0.
          2    1    1    2  501    0  0.38006364970E+01  0.55902887244E+02 -0.22861401085E+03  0.23538042314E+03  0.00000000000E+00 0. -1.
          1    1    1    2  502    0  0.58704450228E+02  0.15845658514E+02  0.16848814302E+03  0.17912440289E+03  0.00000000000E+00 0. -1.
         22    1    3    3    0    0 -0.45569423421E+02  0.28336073688E+02  0.40796372660E+02  0.67408081453E+02  0.00000000000E+00 0. -1.
         22    1    3    3    0    0 -0.16935663304E+02 -0.10008461945E+03  0.12434375545E+03  0.16051516209E+03  0.00000000000E+00 0. -1.
</event>
<event>
 7    1  0.7457412E-006  0.5375840E+02  0.7818608E-02  0.1523150E+00
          2   -1    0    0  502    0  0.00000000000E+00  0.00000000000E+00  0.16722146449E+04  0.16722146449E+04  0.00000000000E+00 0. -1.
          1   -1    0    0  501    0 -0.00000000000E+00 -0.00000000000E+00 -0.36260623364E+03  0.36260623364E+03  0.00000000000E+00 0. -1.
         25    2    1    2    0    0 -0.52211700331E+02 -0.47170086143E+02  0.36368469433E+03  0.39095111135E+03  0.12500054359E+03 0.  0.
          2    1    1    2  501    0  0.25294591697E+02  0.47358312032E+02 -0.34676700533E+03  0.35089882028E+03  0.00000000000E+00 0. -1.
          1    1    1    2  502    0  0.26917108634E+02 -0.18822588831E+00  0.12926907223E+04  0.12929709470E+04  0.00000000000E+00 0. -1.
         22    1    3    3    0    0 -0.80709886288E+02 -0.46706805227E+02  0.34373965703E+03  0.35616367475E+03  0.00000000000E+00 0.  1.
         22    1    3    3    0    0  0.28498185957E+02 -0.46328091616E+00  0.19945037301E+02  0.34787436597E+02  0.00000000000E+00 0.  1.
</event>
<event>
 7    1  0.7457412E-006  0.6710937E+02  0.7818608E-02  0.1437029E+00
          2   -1    0    0  502    0  0.00000000000E+00  0.00000000000E+00  0.54185179007E+03  0.54185179007E+03  0.00000000000E+00 0. -1.
          1   -1    0    0  501    0 -0.00000000000E+00 -0.00000000000E+00 -0.28406079959E+03  0.28406079959E+03  0.00000000000E+00 0. -1.
         25    2    1    2    0    0  0.43928646863E+02 -0.19554536260E+02 -0.11918939544E+02  0.13447078744E+03  0.12501290194E+03 0.  0.
          2    1    1    2  501    0 -0.37469763955E+02  0.58660653159E+02 -0.20427189968E+03  0.21580561726E+03  0.00000000000E+00 0. -1.
          1    1    1    2  502    0 -0.64588829081E+01 -0.39106116898E+02  0.47398182971E+03  0.47563618496E+03  0.00000000000E+00 0. -1.
         22    1    3    3    0    0  0.51621835683E+02 -0.32016768145E+02 -0.59292434663E+02  0.84885099811E+02  0.00000000000E+00 0. -1.
         22    1    3    3    0    0 -0.76931888203E+01  0.12462231884E+02  0.47373495119E+02  0.49585687628E+02  0.00000000000E+00 0. -1.
</event>
<event>
 7    1  0.7457412E-006  0.6667921E+02  0.7818608E-02  0.1458995E+00
          2   -1    0    0  502    0  0.00000000000E+00  0.00000000000E+00  0.49611665459E+03  0.49611665459E+03  0.00000000000E+00 0. -1.
          1   -1    0    0  501    0 -0.00000000000E+00 -0.00000000000E+00 -0.23513301971E+03  0.23513301971E+03  0.00000000000E+00 0. -1.
         25    2    1    2    0    0 -0.61998631117E+02  0.66760946566E+02 -0.13025079390E+02  0.15522511994E+03  0.12499732366E+03 0.  0.
          2    1    1    2  501    0  0.55206613637E+02 -0.33532487558E+02 -0.14338123627E+03  0.15725894832E+03  0.00000000000E+00 0. -1.
          1    1    1    2  502    0  0.67920174802E+01 -0.33228459008E+02  0.41738995054E+03  0.41876560604E+03  0.00000000000E+00 0. -1.
         22    1    3    3    0    0  0.22312071315E+01 -0.34269405832E+02  0.28420110553E+01  0.34459359950E+02  0.00000000000E+00 0.  1.
         22    1    3    3    0    0 -0.64229838249E+02  0.10103035240E+03 -0.15867090445E+02  0.12076575999E+03  0.00000000000E+00 0.  1.
</event>
<event>
 7    1  0.7457412E-006  0.1224006E+03  0.7818608E-02  0.1277835E+00
          2   -1    0    0  502    0  0.00000000000E+00  0.00000000000E+00  0.70098506956E+03  0.70098506956E+03  0.00000000000E+00 0. -1.
          1   -1    0    0  501    0 -0.00000000000E+00 -0.00000000000E+00 -0.22504697498E+04  0.22504697498E+04  0.00000000000E+00 0. -1.
         25    2    1    2    0    0  0.69014642072E+02  0.10087761327E+03  0.13739655175E+03  0.22235687081E+03  0.12500180752E+03 0.  0.
          2    1    1    2  501    0 -0.11810343294E+03 -0.33160706458E+02 -0.22029161777E+04  0.22063290188E+04  0.00000000000E+00 0. -1.
          1    1    1    2  502    0  0.49088790867E+02 -0.67716906816E+02  0.51603494563E+03  0.52276892981E+03  0.00000000000E+00 0. -1.
         22    1    3    3    0    0  0.30505634919E+02  0.89861791301E+02  0.18222868112E+02  0.96632335271E+02  0.00000000000E+00 0. -1.
         22    1    3    3    0    0  0.38509007154E+02  0.11015821973E+02  0.11917368363E+03  0.12572453554E+03  0.00000000000E+00 0. -1.
</event>
<event>
 7    1  0.7457412E-006  0.1467411E+03  0.7818608E-02  0.1397784E+00
          2   -1    0    0  502    0  0.00000000000E+00  0.00000000000E+00  0.12350872510E+04  0.12350872510E+04  0.00000000000E+00 0. -1.
          1   -1    0    0  501    0 -0.00000000000E+00 -0.00000000000E+00 -0.11455567304E+04  0.11455567304E+04  0.00000000000E+00 0. -1.
         25    2    1    2    0    0 -0.54568387271E+02 -0.11064442882E+03 -0.50871684596E+02  0.18284676809E+03  0.12500045516E+03 0.  0.
          2    1    1    2  501    0 -0.74006999904E+01 -0.23399863934E+02 -0.10238864444E+04  0.10241805383E+04  0.00000000000E+00 0. -1.
          1    1    1    2  502    0  0.61969087261E+02  0.13404429275E+03  0.11642886497E+04  0.11736166750E+04  0.00000000000E+00 0. -1.
         22    1    3    3    0    0  0.10758161946E+02 -0.35775474283E+02  0.35244466584E+02  0.51359468780E+02  0.00000000000E+00 0. -1.
         22    1    3    3    0    0 -0.65326549217E+02 -0.74868954533E+02 -0.86116151179E+02  0.13148729931E+03  0.00000000000E+00 0. -1.
</event>
<event>
 7    1  0.7457412E-006  0.1190969E+03  0.7818608E-02  0.1414335E+00
          2   -1    0    0  502    0  0.00000000000E+00  0.00000000000E+00  0.20067107175E+04  0.20067107175E+04  0.00000000000E+00 0. -1.
          1   -1    0    0  501    0 -0.00000000000E+00 -0.00000000000E+00 -0.85858159485E+02  0.85858159485E+02  0.00000000000E+00 0. -1.
         25    2    1    2    0    0  0.72298399649E+01  0.10596926964E+03  0.44906707611E+03  0.47808831505E+03  0.12500176579E+03 0.  0.
          2    1    1    2  501    0  0.23952931962E+02  0.11465015287E+02 -0.66394996866E+02  0.71508636779E+02  0.00000000000E+00 0. -1.
          1    1    1    2  502    0 -0.31182771927E+02 -0.11743428492E+03  0.15381804788E+04  0.15429719251E+04  0.00000000000E+00 0. -1.
         22    1    3    3    0    0 -0.24404847702E+01  0.51359195979E+02  0.39643464480E+02  0.64925551623E+02  0.00000000000E+00 0.  1.
         22    1    3    3    0    0  0.96703247351E+01  0.54610073659E+02  0.40942361163E+03  0.41316276343E+03  0.00000000000E+00 0.  1.
</event>
<event>
 7    1  0.7457412E-006  0.5493433E+02  0.7818608E-02  0.1435164E+00
          2   -1    0    0  502    0  0.00000000000E+00  0.00000000000E+00  0.38671202924E+03  0.38671202924E+03  0.00000000000E+00 0. -1.
          1   -1    0    0  501    0 -0.00000000000E+00 -0.00000000000E+00 -0.12354749538E+03  0.12354749538E+03  0.00000000000E+00 0. -1.
         25    2    1    2    0    0 -0.90307843641E+01 -0.41523848586E+02 -0.11485369156E+02  0.13252313040E+03  0.12499872527E+03 0.  0.
          2    1    1    2  501    0 -0.43668537234E+02  0.22455020872E+02 -0.36750396061E+02  0.61333194252E+02  0.00000000000E+00 0. -1.
          1    1    1    2  502    0  0.52699321598E+02  0.19068827715E+02  0.31140029907E+03  0.31640319997E+03  0.00000000000E+00 0. -1.
         22    1    3    3    0    0  0.12305906199E+02 -0.37463594663E+02  0.52094373704E+02  0.65335901494E+02  0.00000000000E+00 0. -1.
         22    1    3    3    0    0 -0.21336690563E+02 -0.40602539230E+01 -0.63579742859E+02  0.67187228907E+02  0.00000000000E+00 0. -1.
</event>
<event>
 7    1  0.7457412E-006  0.5130559E+02  0.7818608E-02  0.1466500E+00
          2   -1    0    0  502    0  0.00000000000E+00  0.00000000000E+00  0.12770008931E+03  0.12770008931E+03  0.00000000000E+00 0. -1.
          1   -1    0    0  501    0 -0.00000000000E+00 -0.00000000000E+00 -0.50550765337E+03  0.50550765337E+03  0.00000000000E+00 0. -1.
         25    2    1    2    0    0  0.33445991721E+02  0.25555118782E+02 -0.45326511193E+03  0.47206699499E+03  0.12500515033E+03 0.  0.
          2    1    1    2  501    0  0.16600334470E+02 -0.38305906043E+02 -0.24660105666E+02  0.48487465945E+02  0.00000000000E+00 0. -1.
          1    1    1    2  502    0 -0.50046326190E+02  0.12750787261E+02  0.10011765353E+03  0.11265328175E+03  0.00000000000E+00 0. -1.
         22    1    3    3    0    0 -0.18164918777E+02 -0.42386453814E+02 -0.14059446569E+03  0.14796411566E+03  0.00000000000E+00 0.  1.
         22    1    3    3    0    0  0.51610910498E+02  0.67941572595E+02 -0.31267064624E+03  0.32410287933E+03  0.00000000000E+00 0.  1.
</event>
<event>
 7    1  0.7457412E-006  0.1191754E+03  0.7818608E-02  0.1432496E+00
          2   -1    0    0  502    0  0.00000000000E+00  0.00000000000E+00  0.75097435646E+03  0.75097435646E+03  0.00000000000E+00 0. -1.
          1   -1    0    0  501    0 -0.00000000000E+00 -0.00000000000E+00 -0.21941725076E+03  0.21941725076E+03  0.00000000000E+00 0. -1.
         25    2    1    2    0    0  0.99960504015E+02  0.46381623108E+02  0.15035998273E+03  0.22445197496E+03  0.12500882901E+03 0.  0.
          2    1    1    2  501    0 -0.11644595178E+03 -0.30208075981E+02 -0.16226038937E+03  0.20199163720E+03  0.00000000000E+00 0. -1.
          1    1    1    2  502    0  0.16485447762E+02 -0.16173547127E+02  0.54345751234E+03  0.54394799506E+03  0.00000000000E+00 0. -1.
         22    1    3    3    0    0  0.10277291102E+03  0.48279935036E+02  0.17004793356E+03  0.20447377111E+03  0.00000000000E+00 0. -1.
         22    1    3    3    0    0 -0.28124070007E+01 -0.18983119270E+01 -0.19687950823E+02  0.19978203846E+02  0.00000000000E+00 0. -1.
</event>
<event>
 7    1  0.8835329E-006  0.4340005E+02  0.7818608E-02  0.1543067E+00
          2   -1    0    0  502    0  0.00000000000E+00  0.00000000000E+00  0.10904825901E+04  0.10904825901E+04  0.00000000000E+00 0. -1.
          1   -1    0    0  501    0 -0.00000000000E+00 -0.00000000000E+00 -0.14146752748E+04  0.14146752748E+04  0.00000000000E+00 0. -1.
         25    2    1    2    0    0  0.40618739531E+02 -0.86085193939E+01 -0.24350555541E+03  0.27684732415E+03  0.12500198706E+03 0.  0.
          2    1    1    2  501    0 -0.23689647188E+01  0.29156748922E+02 -0.11538744646E+04  0.11542452114E+04  0.00000000000E+00 0. -1.
          1    1    1    2  502    0 -0.38249774813E+02 -0.20548229528E+02  0.10731873354E+04  0.10740653294E+04  0.00000000000E+00 0. -1.
         22    1    3    3    0    0  0.16645085300E+02 -0.42048490264E+02 -0.19762978357E+02  0.49352909861E+02  0.00000000000E+00 0.  1.
         22    1    3    3    0    0  0.23973654231E+02  0.33439970870E+02 -0.22374257705E+03  0.22749441429E+03  0.00000000000E+00 0.  1.
</event>
<event>
 7    1  0.7457412E-006  0.2087153E+03  0.7818608E-02  0.1253172E+00
          2   -1    0    0  502    0  0.00000000000E+00  0.00000000000E+00  0.15624903623E+04  0.15624903623E+04  0.00000000000E+00 0. -1.
          1   -1    0    0  501    0 -0.00000000000E+00 -0.00000000000E+00 -0.30723342416E+03  0.30723342416E+03  0.00000000000E+00 0. -1.
         25    2    1    2    0    0  0.85971385731E+02  0.22178502070E+03  0.14674360705E+03  0.30616670401E+03  0.12499875945E+03 0.  0.
          2    1    1    2  501    0 -0.26773703406E+02 -0.20215080132E+03 -0.18092640544E+03  0.27260987116E+03  0.00000000000E+00 0. -1.
          1    1    1    2  502    0 -0.59197682325E+02 -0.19634219373E+02  0.12894397366E+04  0.12909472113E+04  0.00000000000E+00 0. -1.
         22    1    3    3    0    0 -0.24733130136E+02  0.33980951659E+02  0.56031813217E+02  0.70042821862E+02  0.00000000000E+00 0. -1.
         22    1    3    3    0    0  0.11070451587E+03  0.18780406904E+03  0.90711793836E+02  0.23612388215E+03  0.00000000000E+00 0. -1.
</event>
<event>
 7    1  0.7457412E-006  0.6675555E+02  0.7818608E-02  0.1497817E+00
          2   -1    0    0  502    0  0.00000000000E+00  0.00000000000E+00  0.43527954353E+03  0.43527954353E+03  0.00000000000E+00 0. -1.
          1   -1    0    0  501    0 -0.00000000000E+00 -0.00000000000E+00 -0.99867099759E+03  0.99867099759E+03  0.00000000000E+00 0. -1.
         25    2    1    2    0    0  0.22100393314E+01 -0.57927740509E+02 -0.19778078635E+03  0.24104137905E+03  0.12499279808E+03 0.  0.
          2    1    1    2  501    0 -0.25265690310E+02 -0.48921433160E+01 -0.77633896558E+03  0.77676539422E+03  0.00000000000E+00 0. -1.
          1    1    1    2  502    0  0.23055650979E+02  0.62819883825E+02  0.41072829788E+03  0.41614376785E+03  0.00000000000E+00 0. -1.
         22    1    3    3    0    0 -0.33104170894E+02  0.89440025499E+01 -0.14455065005E+03  0.14856234968E+03  0.00000000000E+00 0.  1.
         22    1    3    3    0    0  0.35314210225E+02 -0.66871743059E+02 -0.53230136298E+02  0.92479029374E+02  0.00000000000E+00 0.  1.
</event>
<event>
 7    1  0.1480335E-005  0.5749220E+02  0.7818608E-02  0.1437921E+00
          2   -1    0    0  502    0  0.00000000000E+00  0.00000000000E+00  0.22287156065E+04  0.22287156065E+04  0.00000000000E+00 0. -1.
          1   -1    0    0  501    0 -0.00000000000E+00 -0.00000000000E+00 -0.80438056914E+03  0.80438056914E+03  0.00000000000E+00 0. -1.
         25    2    1    2    0    0 -0.25138489772E+02 -0.70599866575E+02 -0.26776585289E+03  0.30486318945E+03  0.12500690974E+03 0.  0.
          2    1    1    2  501    0 -0.17855718664E+02  0.54364017674E+02 -0.51624619347E+03  0.51940774482E+03  0.00000000000E+00 0. -1.
          1    1    1    2  502    0  0.42994208436E+02  0.16235848901E+02  0.22083470837E+04  0.22088252414E+04  0.00000000000E+00 0. -1.
         22    1    3    3    0    0 -0.49690722604E+02  0.49574618970E+01 -0.41094132546E+02  0.64672034691E+02  0.00000000000E+00 0.  1.
         22    1    3    3    0    0  0.24552232831E+02 -0.75557328472E+02 -0.22667172034E+03  0.24019115476E+03  0.00000000000E+00 0.  1.
</event>
<event>
 7    1  0.7457412E-006  0.1205958E+03  0.7818608E-02  0.1352045E+00
          2   -1    0    0  502    0  0.00000000000E+00  0.00000000000E+00  0.78045540301E+03  0.78045540301E+03  0.00000000000E+00 0. -1.
          1   -1    0    0  501    0 -0.00000000000E+00 -0.00000000000E+00 -0.83829679840E+02  0.83829679840E+02  0.00000000000E+00 0. -1.
         25    2    1    2    0    0  0.68182111813E+02 -0.46249589722E+02  0.40500374781E+03  0.43178903625E+03  0.12500364461E+03 0.  0.
          2    1    1    2  501    0 -0.10293764059E+03  0.72395305964E+02 -0.11406913180E+02  0.12636200317E+03  0.00000000000E+00 0. -1.
          1    1    1    2  502    0  0.34755528777E+02 -0.26145716241E+02  0.30302888854E+03  0.30613404344E+03  0.00000000000E+00 0. -1.
         22    1    3    3    0    0  0.86840304114E+02 -0.69966033902E+02  0.36515095510E+03  0.38180060807E+03  0.00000000000E+00 0. -1.
         22    1    3    3    0    0 -0.18658192302E+02  0.23716444179E+02  0.39852792715E+02  0.49988428178E+02  0.00000000000E+00 0. -1.
</event>
<event>
 7    1  0.7844750E-006  0.6441059E+02  0.7818608E-02  0.1410480E+00
          2   -1    0    0  502    0  0.00000000000E+00  0.00000000000E+00  0.66044536188E+03  0.66044536188E+03  0.00000000000E+00 0. -1.
          1   -1    0    0  501    0 -0.00000000000E+00 -0.00000000000E+00 -0.10828885427E+04  0.10828885427E+04  0.00000000000E+00 0. -1.
         25    2    1    2    0    0  0.24698862231E+02  0.99246587221E+02 -0.28704889372E+03  0.32936654851E+03  0.12500134808E+03 0.  0.
          2    1    1    2  501    0 -0.37299152047E+02 -0.50244730997E+02 -0.77241243301E+03  0.77494304720E+03  0.00000000000E+00 0. -1.
          1    1    1    2  502    0  0.12600289817E+02 -0.49001856224E+02  0.63701814587E+03  0.63902430892E+03  0.00000000000E+00 0. -1.
         22    1    3    3    0    0  0.81831106576E+01  0.12803674819E+03 -0.23014092506E+03  0.26348665541E+03  0.00000000000E+00 0. -1.
         22    1    3    3    0    0  0.16515751573E+02 -0.28790160974E+02 -0.56907968659E+02  0.65879893107E+02  0.00000000000E+00 0. -1.
</event>
<event>
 7    1  0.7457412E-006  0.1864200E+03  0.7818608E-02  0.1228871E+00
          2   -1    0    0  502    0  0.00000000000E+00  0.00000000000E+00  0.24245406064E+04  0.24245406064E+04  0.00000000000E+00 0. -1.
          1   -1    0    0  501    0 -0.00000000000E+00 -0.00000000000E+00 -0.42628117903E+03  0.42628117903E+03  0.00000000000E+00 0. -1.
         25    2    1    2    0    0  0.72412654526E+02  0.24309822566E+03  0.77850017127E+01  0.28288860048E+03  0.12500005669E+03 0.  0.
          2    1    1    2  501    0 -0.67652170518E+02 -0.58345326746E+02 -0.27796974297E+03  0.29197289487E+03  0.00000000000E+00 0. -1.
          1    1    1    2  502    0 -0.47604840077E+01 -0.18475289892E+03  0.22684441686E+04  0.22759602901E+04  0.00000000000E+00 0. -1.
         22    1    3    3    0    0  0.66086369847E+02  0.18611847373E+03 -0.47618387482E+02  0.20316250975E+03  0.00000000000E+00 0. -1.
         22    1    3    3    0    0  0.63262846786E+01  0.56979751934E+02  0.55403389195E+02  0.79726090727E+02  0.00000000000E+00 0. -1.
</event>
<event>
 7    1  0.7457412E-006  0.2013654E+03  0.7818608E-02  0.1273175E+00
          2   -1    0    0  502    0  0.00000000000E+00  0.00000000000E+00  0.17846588925E+04  0.17846588925E+04  0.00000000000E+00 0. -1.
          1   -1    0    0  501    0 -0.00000000000E+00 -0.00000000000E+00 -0.20083912580E+03  0.20083912580E+03  0.00000000000E+00 0. -1.
         25    2    1    2    0    0 -0.16951769741E+03 -0.18575789302E+03  0.93327163811E+03  0.97460956684E+03  0.12500245086E+03 0.  0.
          2    1    1    2  501    0  0.13649765775E+03  0.14409469318E+03 -0.12431824042E+03  0.23420058940E+03  0.00000000000E+00 0. -1.
          1    1    1    2  502    0  0.33020039660E+02  0.41663199839E+02  0.77486636903E+03  0.77668786207E+03  0.00000000000E+00 0. -1.
         22    1    3    3    0    0 -0.25188582885E+02 -0.11969484591E+02  0.31723309213E+03  0.31845654022E+03  0.00000000000E+00 0.  1.
         22    1    3    3    0    0 -0.14432911453E+03 -0.17378840843E+03  0.61603854599E+03  0.65615302662E+03  0.00000000000E+00 0.  1.
</event>
<event>
 7    1  0.7457412E-006  0.3441920E+02  0.7818608E-02  0.1616147E+00
          2   -1    0    0  502    0  0.00000000000E+00  0.00000000000E+00  0.47796551754E+03  0.47796551754E+03  0.00000000000E+00 0. -1.
          1   -1    0    0  501    0 -0.00000000000E+00 -0.00000000000E+00 -0.37580535224E+03  0.37580535224E+03  0.00000000000E+00 0. -1.
         25    2    1    2    0    0  0.54013015477E+02  0.19431325374E+01 -0.89106472837E+02  0.16274925354E+03  0.12500469760E+03 0.  0.
          2    1    1    2  501    0 -0.32853868292E+02  0.82337006126E+01 -0.24841508618E+03  0.25071343309E+03  0.00000000000E+00 0. -1.
          1    1    1    2  502    0 -0.21159147185E+02 -0.10176833150E+02  0.43968172432E+03  0.44030818315E+03  0.00000000000E+00 0. -1.
         22    1    3    3    0    0  0.72727473293E+02  0.12144528919E+02 -0.27333583747E+01  0.73785135375E+02  0.00000000000E+00 0.  1.
         22    1    3    3    0    0 -0.18714457816E+02 -0.10201396382E+02 -0.86373114462E+02  0.88964118168E+02  0.00000000000E+00 0.  1.
</event>
<event>
 7    1  0.7457412E-006  0.4451625E+02  0.7818608E-02  0.1569924E+00
          2   -1    0    0  502    0  0.00000000000E+00  0.00000000000E+00  0.27334562806E+03  0.27334562806E+03  0.00000000000E+00 0. -1.
          1   -1    0    0  501    0 -0.00000000000E+00 -0.00000000000E+00 -0.22934055061E+03  0.22934055061E+03  0.00000000000E+00 0. -1.
         25    2    1    2    0    0 -0.85387138121E+01  0.28090821068E+02  0.91301404464E+02  0.15755464643E+03  0.12500206516E+03 0.  0.
          2    1    1    2  501    0 -0.95913598202E+01 -0.43871272442E+02 -0.19264445957E+03  0.19780942984E+03  0.00000000000E+00 0. -1.
          1    1    1    2  502    0  0.18130073632E+02  0.15780451374E+02  0.14534813256E+03  0.14732210240E+03  0.00000000000E+00 0. -1.
         22    1    3    3    0    0 -0.37050464549E+02  0.57902380816E+02  0.93725931000E+02  0.11623240843E+03  0.00000000000E+00 0. -1.
         22    1    3    3    0    0  0.28511750737E+02 -0.29811559748E+02 -0.24245265364E+01  0.41322238004E+02  0.00000000000E+00 0. -1.
</event>
<event>
 7    1  0.7457412E-006  0.1186009E+03  0.7818608E-02  0.1308165E+00
          2   -1    0    0  502    0  0.00000000000E+00  0.00000000000E+00  0.12443523526E+04  0.12443523526E+04  0.00000000000E+00 0. -1.
          1   -1    0    0  501    0 -0.00000000000E+00 -0.00000000000E+00 -0.38138518651E+03  0.38138518651E+03  0.00000000000E+00 0. -1.
         25    2    1    2    0    0  0.84581071730E+01  0.14917416079E+03  0.62500322330E+03  0.65465797818E+03  0.12499427758E+03 0.  0.
          2    1    1    2  501    0 -0.46874648295E+02 -0.45116837982E+02 -0.35851715991E+03  0.36437249577E+03  0.00000000000E+00 0. -1.
          1    1    1    2  502    0  0.38416541122E+02 -0.10405732281E+03  0.59648110266E+03  0.60670706514E+03  0.00000000000E+00 0. -1.
         22    1    3    3    0    0 -0.21877977373E+02  0.89686401863E+01  0.28032456707E+03  0.28132000516E+03  0.00000000000E+00 0.  1.
         22    1    3    3    0    0  0.30336084546E+02  0.14020552060E+03  0.34467865624E+03  0.37333797302E+03  0.00000000000E+00 0.  1.
</event>
<event>
 7    1  0.7457412E-006  0.1141666E+03  0.7818608E-02  0.1296505E+00
          2   -1    0    0  502    0  0.00000000000E+00  0.00000000000E+00  0.72829406456E+03  0.72829406456E+03  0.00000000000E+00 0. -1.
          1   -1    0    0  501    0 -0.00000000000E+00 -0.00000000000E+00 -0.18910449309E+04  0.18910449309E+04  0.00000000000E+00 0. -1.
         25    2    1    2    0    0 -0.28722873864E+02 -0.55670483993E+02 -0.88920709431E+02  0.16567692014E+03  0.12497096875E+03 0.  0.
          2    1    1    2  501    0 -0.15832120382E+02  0.11628187463E+03 -0.17597353271E+04  0.17636441114E+04  0.00000000000E+00 0. -1.
          1    1    1    2  502    0  0.44554994246E+02 -0.60611390639E+02  0.68590517012E+03  0.69001796396E+03  0.00000000000E+00 0. -1.
         22    1    3    3    0    0  0.46112026850E+02 -0.21520909231E+02 -0.10360353519E+02  0.51930775841E+02  0.00000000000E+00 0.  1.
         22    1    3    3    0    0 -0.74834900715E+02 -0.34149574762E+02 -0.78560355912E+02  0.11374614430E+03  0.00000000000E+00 0.  1.
</event>
<event>
 7    1  0.9932719E-006  0.7771666E+02  0.7818608E-02  0.1341423E+00
          2   -1    0    0  502    0  0.00000000000E+00  0.00000000000E+00  0.84650644486E+03  0.84650644486E+03  0.00000000000E+00 0. -1.
          1   -1    0    0  501    0 -0.00000000000E+00 -0.00000000000E+00 -0.20142423050E+04  0.20142423050E+04  0.00000000000E+00 0. -1.
         25    2    1    2    0    0  0.28914597496E+02 -0.37101592062E+02 -0.10787220523E+04  0.10869620732E+04  0.12503079799E+03 0.  0.
          2    1    1    2  501    0 -0.67296883488E+02 -0.30589710376E+02 -0.92813042003E+03  0.93106964159E+03  0.00000000000E+00 0. -1.
          1    1    1    2  502    0  0.38382285992E+02  0.67691302438E+02  0.83911661219E+03  0.84271703504E+03  0.00000000000E+00 0. -1.
         22    1    3    3    0    0  0.33682000281E+02 -0.42402320340E+02 -0.17444147345E+03  0.18265339190E+03  0.00000000000E+00 0. -1.
         22    1    3    3    0    0 -0.47674027843E+01  0.53007282776E+01 -0.90428057884E+03  0.90430868132E+03  0.00000000000E+00 0. -1.
</event>
<event>
 7    1  0.7457412E-006  0.1885727E+03  0.7818608E-02  0.1256360E+00
          2   -1    0    0  502    0  0.00000000000E+00  0.00000000000E+00  0.19209602385E+04  0.19209602385E+04  0.00000000000E+00 0. -1.
          1   -1    0    0  501    0 -0.00000000000E+00 -0.00000000000E+00 -0.77555738437E+03  0.77555738437E+03  0.00000000000E+00 0. -1.
         25    2    1    2    0    0 -0.13832463184E+03  0.73937880294E+02 -0.17078527675E+03  0.26342665356E+03  0.12500190851E+03 0.  0.
          2    1    1    2  501    0 -0.49000693630E+02 -0.45522686450E+02 -0.55163898994E+03  0.55567882647E+03  0.00000000000E+00 0. -1.
          1    1    1    2  502    0  0.18732532547E+03 -0.28415193844E+02  0.18678271209E+04  0.18774121429E+04  0.00000000000E+00 0. -1.
         22    1    3    3    0    0 -0.65925266615E+02 -0.30653043104E+02 -0.72513558109E+02  0.10268381537E+03  0.00000000000E+00 0.  1.
         22    1    3    3    0    0 -0.72399365229E+02  0.10459092340E+03 -0.98271718644E+02  0.16074283819E+03  0.00000000000E+00 0.  1.
</event>
<event>
 7    1  0.7457412E-006  0.1507636E+03  0.7818608E-02  0.1326676E+00
          2   -1    0    0  502    0  0.00000000000E+00  0.00000000000E+00  0.80612651308E+03  0.80612651308E+03  0.00000000000E+00 0. -1.
          1   -1    0    0  501    0 -0.00000000000E+00 -0.00000000000E+00 -0.20913361198E+03  0.20913361198E+03  0.00000000000E+00 0. -1.
         25    2    1    2    0    0 -0.74766935318E+01  0.16112353506E+03  0.22636929754E+03  0.30477185031E+03  0.12500450942E+03 0.  0.
          2    1    1    2  501    0 -0.38812822924E+02 -0.19307887192E+02 -0.15663965121E+03  0.16252756708E+03  0.00000000000E+00 0. -1.
          1    1    1    2  502    0  0.46289516455E+02 -0.14181564787E+03  0.52726325477E+03  0.54796070767E+03  0.00000000000E+00 0. -1.
         22    1    3    3    0    0  0.30003674045E+01  0.14879978627E+03  0.24080899406E+03  0.28308894401E+03  0.00000000000E+00 0. -1.
         22    1    3    3    0    0 -0.10477060936E+02  0.12323748792E+02 -0.14439696521E+02  0.21682906303E+02  0.00000000000E+00 0. -1.
</event>
<event>
 7    1  0.7457412E-006  0.4955285E+02  0.7818608E-02  0.1564928E+00
          2   -1    0    0  502    0  0.00000000000E+00  0.00000000000E+00  0.66294386007E+03  0.66294386007E+03  0.00000000000E+00 0. -1.
          1   -1    0    0  501    0 -0.00000000000E+00 -0.00000000000E+00 -0.23513931506E+02  0.23513931506E+02  0.00000000000E+00 0. -1.
         25    2    1    2    0    0 -0.31785471944E+02 -0.29386607219E+02  0.23368629321E+03  0.26853028954E+03  0.12500137540E+03 0.  0.
          2    1    1    2  501    0  0.21989284621E+02  0.49398267880E+02  0.12365456060E+03  0.13495987502E+03  0.00000000000E+00 0. -1.
          1    1    1    2  502    0  0.97961873239E+01 -0.20011660662E+02  0.28208907475E+03  0.28296762702E+03  0.00000000000E+00 0. -1.
         22    1    3    3    0    0 -0.56737161166E+02  0.24112323110E+02  0.63969937512E+02  0.88840657856E+02  0.00000000000E+00 0.  1.
         22    1    3    3    0    0  0.24951689221E+02 -0.53498930329E+02  0.16971635570E+03  0.17968963168E+03  0.00000000000E+00 0.  1.
</event>
<event>
 7    1  0.7457412E-006  0.2004307E+03  0.7818608E-02  0.1237202E+00
          2   -1    0    0  502    0  0.00000000000E+00  0.00000000000E+00  0.24005378836E+04  0.24005378836E+04  0.00000000000E+00 0. -1.
          1   -1    0    0  501    0 -0.00000000000E+00 -0.00000000000E+00 -0.42852747875E+03  0.42852747875E+03  0.00000000000E+00 0. -1.
         25    2    1    2    0    0 -0.16651244952E+03 -0.62020621887E+02  0.45589706706E+03  0.50501508757E+03  0.12500059817E+03 0.  0.
          2    1    1    2  501    0  0.10590571009E+02 -0.75537526660E+02 -0.39467701443E+03  0.40198012867E+03  0.00000000000E+00 0. -1.
          1    1    1    2  502    0  0.15592187851E+03  0.13755814855E+03  0.19107903522E+04  0.19220701461E+04  0.00000000000E+00 0. -1.
         22    1    3    3    0    0 -0.72824569206E+01  0.21449974194E+02  0.11032305712E+02  0.25196177111E+02  0.00000000000E+00 0. -1.
         22    1    3    3    0    0 -0.15922999260E+03 -0.83470596080E+02  0.44486476134E+03  0.47981891046E+03  0.00000000000E+00 0. -1.
</event>
<event>
 7    1  0.7457412E-006  0.6091525E+02  0.7818608E-02  0.1459421E+00
          2   -1    0    0  502    0  0.00000000000E+00  0.00000000000E+00  0.63726588334E+03  0.63726588334E+03  0.00000000000E+00 0. -1.
          1   -1    0    0  501    0 -0.00000000000E+00 -0.00000000000E+00 -0.42734386714E+03  0.42734386714E+03  0.00000000000E+00 0. -1.
         25    2    1    2    0    0  0.17985264413E+02  0.50463817529E+02  0.28664083952E+03  0.31726146328E+03  0.12498719368E+03 0.  0.
          2    1    1    2  501    0  0.18190325113E+02 -0.58277771794E+02 -0.40873826010E+03  0.41327249108E+03  0.00000000000E+00 0. -1.
          1    1    1    2  502    0 -0.36175589526E+02  0.78139542648E+01  0.33201943677E+03  0.33407579612E+03  0.00000000000E+00 0. -1.
         22    1    3    3    0    0 -0.21630379232E+02 -0.35360795304E+02  0.88800727334E+02  0.97999124105E+02  0.00000000000E+00 0. -1.
         22    1    3    3    0    0  0.39615643645E+02  0.85824612833E+02  0.19784011219E+03  0.21926233917E+03  0.00000000000E+00 0. -1.
</event>
<event>
 7    1  0.7457412E-006  0.6294466E+02  0.7818608E-02  0.1470719E+00
          2   -1    0    0  502    0  0.00000000000E+00  0.00000000000E+00  0.11965331668E+04  0.11965331668E+04  0.00000000000E+00 0. -1.
          1   -1    0    0  501    0 -0.00000000000E+00 -0.00000000000E+00 -0.16253438791E+03  0.16253438791E+03  0.00000000000E+00 0. -1.
         25    2    1    2    0    0  0.17956954318E+02  0.84765184844E+02  0.38347892338E+03  0.41253904739E+03  0.12499916870E+03 0.  0.
          2    1    1    2  501    0 -0.30966554932E+02 -0.54422858970E+02 -0.14102207027E+03  0.15429841025E+03  0.00000000000E+00 0. -1.
          1    1    1    2  502    0  0.13009600614E+02 -0.30342325874E+02  0.79154192581E+03  0.79223009711E+03  0.00000000000E+00 0. -1.
         22    1    3    3    0    0  0.23930848241E+01  0.10311616404E+03  0.37170572686E+03  0.38575097864E+03  0.00000000000E+00 0.  1.
         22    1    3    3    0    0  0.15563869494E+02 -0.18350979198E+02  0.11773196524E+02  0.26788068753E+02  0.00000000000E+00 0.  1.
</event>
<event>
 7    1  0.7457412E-006  0.1635526E+03  0.7818608E-02  0.1290737E+00
          2   -1    0    0  502    0  0.00000000000E+00  0.00000000000E+00  0.25422649720E+04  0.25422649720E+04  0.00000000000E+00 0. -1.
          1   -1    0    0  501    0 -0.00000000000E+00 -0.00000000000E+00 -0.12688722146E+04  0.12688722146E+04  0.00000000000E+00 0. -1.
         25    2    1    2    0    0 -0.16340064516E+03  0.35248033865E+02  0.20998680898E+03  0.29607452758E+03  0.12499388468E+03 0.  0.
          2    1    1    2  501    0  0.13967514548E+03 -0.85319667933E+02 -0.12200274172E+04  0.12309571441E+04  0.00000000000E+00 0. -1.
          1    1    1    2  502    0  0.23725499686E+02  0.50071634068E+02  0.22834333656E+04  0.22841055149E+04  0.00000000000E+00 0. -1.
         22    1    3    3    0    0 -0.17461847116E+03  0.26650768197E+02  0.21739964516E+03  0.28011511853E+03  0.00000000000E+00 0. -1.
         22    1    3    3    0    0  0.11217825995E+02  0.85972656683E+01 -0.74128361780E+01  0.15959409050E+02  0.00000000000E+00 0. -1.
</event>
<event>
 7    1  0.7457412E-006  0.1090444E+03  0.7818608E-02  0.1314742E+00
          2   -1    0    0  502    0  0.00000000000E+00  0.00000000000E+00  0.46717472897E+03  0.46717472897E+03  0.00000000000E+00 0. -1.
          1   -1    0    0  501    0 -0.00000000000E+00 -0.00000000000E+00 -0.69602969931E+03  0.69602969931E+03  0.00000000000E+00 0. -1.
         25    2    1    2    0    0 -0.42457960482E+02 -0.14504985091E+03 -0.66080392666E+02  0.20696422537E+03  0.12500173851E+03 0.  0.
          2    1    1    2  501    0 -0.25248656868E+02  0.61704975928E+02 -0.55019201390E+03  0.55421679052E+03  0.00000000000E+00 0. -1.
          1    1    1    2  502    0  0.67706617349E+02  0.83344874980E+02  0.38741743623E+03  0.40202341239E+03  0.00000000000E+00 0. -1.
         22    1    3    3    0    0 -0.18680327087E+02 -0.13651854190E+02 -0.69641829802E+02  0.73384686421E+02  0.00000000000E+00 0.  1.
         22    1    3    3    0    0 -0.23777633395E+02 -0.13139799672E+03  0.35614371359E+01  0.13357953895E+03  0.00000000000E+00 0.  1.
</event>
<event>
 7    1  0.7457412E-006  0.4516822E+02  0.7818608E-02  0.1523223E+00
          2   -1    0    0  502    0  0.00000000000E+00  0.00000000000E+00  0.65141823130E+03  0.65141823130E+03  0.00000000000E+00 0. -1.
          1   -1    0    0  501    0 -0.00000000000E+00 -0.00000000000E+00 -0.23253521342E+03  0.23253521342E+03  0.00000000000E+00 0. -1.
         25    2    1    2    0    0  0.23754349385E+02 -0.34434226932E+02  0.11680093883E+03  0.17611889657E+03  0.12500168526E+03 0.  0.
          2    1    1    2  501    0  0.20781184868E+02  0.24362112066E+02 -0.20057141779E+03  0.20311145655E+03  0.00000000000E+00 0. -1.
          1    1    1    2  502    0 -0.44535534253E+02  0.10072114866E+02  0.50265349684E+03  0.50472309160E+03  0.00000000000E+00 0. -1.
         22    1    3    3    0    0 -0.17813145400E+02  0.35711000467E+02  0.73894902475E+02  0.83982380981E+02  0.00000000000E+00 0.  1.
         22    1    3    3    0    0  0.41567494785E+02 -0.70145227399E+02  0.42906036354E+02  0.92136515590E+02  0.00000000000E+00 0.  1.
</event>
<event>
 7    1  0.7457412E-006  0.6638656E+02  0.7818608E-02  0.1409267E+00
          2   -1    0    0  502    0  0.00000000000E+00  0.00000000000E+00  0.69263514998E+02  0.69263514998E+02  0.00000000000E+00 0. -1.
          1   -1    0    0  501    0 -0.00000000000E+00 -0.00000000000E+00 -0.31711330366E+03  0.31711330366E+03  0.00000000000E+00 0. -1.
         25    2    1    2    0    0 -0.15179494184E+02  0.24897026561E+02 -0.10711465270E+03  0.16717938780E+03  0.12500047963E+03 0.  0.
          2    1    1    2  501    0 -0.32327219569E+02  0.37560892999E+02 -0.13107810734E+03  0.14013329380E+03  0.00000000000E+00 0. -1.
          1    1    1    2  502    0  0.47506713753E+02 -0.62457919561E+02 -0.96570286335E+01  0.79064137063E+02  0.00000000000E+00 0. -1.
         22    1    3    3    0    0  0.36527110481E+02 -0.44741551843E+01  0.79570100349E+01  0.37650522883E+02  0.00000000000E+00 0.  1.
         22    1    3    3    0    0 -0.51706604665E+02  0.29371181746E+02 -0.11507166273E+03  0.12952886492E+03  0.00000000000E+00 0.  1.
</event>
<event>
 7    1  0.7457412E-006  0.2619615E+03  0.7818608E-02  0.1275376E+00
          2   -1    0    0  502    0  0.00000000000E+00  0.00000000000E+00  0.17616697027E+04  0.17616697027E+04  0.00000000000E+00 0. -1.
          1   -1    0    0  501    0 -0.00000000000E+00 -0.00000000000E+00 -0.15364685633E+04  0.15364685633E+04  0.00000000000E+00 0. -1.
         25    2    1    2    0    0 -0.11081135856E+03  0.28001841986E+03  0.66619074504E+03  0.74170378599E+03  0.12499969893E+03 0.  0.
          2    1    1    2  501    0  0.92774174266E+02 -0.24430533939E+03 -0.14869348571E+04  0.15097242846E+04  0.00000000000E+00 0. -1.
          1    1    1    2  502    0  0.18037184290E+02 -0.35713080466E+02  0.10459452515E+04  0.10467101954E+04  0.00000000000E+00 0. -1.
         22    1    3    3    0    0 -0.11173481661E+03  0.13078344630E+03  0.41930790283E+03  0.45321969997E+03  0.00000000000E+00 0.  1.
         22    1    3    3    0    0  0.92345805149E+00  0.14923497356E+03  0.24688284221E+03  0.28848408602E+03  0.00000000000E+00 0.  1.
</event>
<event>
 7    1  0.7457412E-006  0.9323358E+02  0.7818608E-02  0.1400746E+00
          2   -1    0    0  502    0  0.00000000000E+00  0.00000000000E+00  0.27542836606E+04  0.27542836606E+04  0.00000000000E+00 0. -1.
          1   -1    0    0  501    0 -0.00000000000E+00 -0.00000000000E+00 -0.21727859486E+04  0.21727859486E+04  0.00000000000E+00 0. -1.
         25    2    1    2    0    0  0.69434692156E+02  0.83951724950E+02 -0.66025415981E+02  0.17847516527E+03  0.12499984186E+03 0.  0.
          2    1    1    2  501    0 -0.79898370472E+02 -0.47700548631E+02 -0.20493479144E+04  0.20514594723E+04  0.00000000000E+00 0. -1.
          1    1    1    2  502    0  0.10463678316E+02 -0.36251176319E+02  0.26968710424E+04  0.26971349717E+04  0.00000000000E+00 0. -1.
         22    1    3    3    0    0 -0.63603751301E+01 -0.34997311469E+01  0.28275457794E+02  0.29192533350E+02  0.00000000000E+00 0.  1.
         22    1    3    3    0    0  0.75795067286E+02  0.87451456097E+02 -0.94300873776E+02  0.14928263192E+03  0.00000000000E+00 0.  1.
</event>
<event>
 7    1  0.7457412E-006  0.2572624E+03  0.7818608E-02  0.1284999E+00
          2   -1    0    0  502    0  0.00000000000E+00  0.00000000000E+00  0.12365052089E+04  0.12365052089E+04  0.00000000000E+00 0. -1.
          1   -1    0    0  501    0 -0.00000000000E+00 -0.00000000000E+00 -0.15933311531E+04  0.15933311531E+04  0.00000000000E+00 0. -1.
         25    2    1    2    0    0 -0.13008617979E+03  0.20932960544E+03  0.93278169219E+01  0.27650259396E+03  0.12500151365E+03 0.  0.
          2    1    1    2  501    0  0.16557585906E+03 -0.19825786587E+03 -0.14479950448E+04  0.14708539004E+04  0.00000000000E+00 0. -1.
          1    1    1    2  502    0 -0.35489679268E+02 -0.11071739563E+02  0.10818412837E+04  0.10824798676E+04  0.00000000000E+00 0. -1.
         22    1    3    3    0    0 -0.15338843986E+03  0.16537377782E+03 -0.16100137017E+01  0.22556394219E+03  0.00000000000E+00 0.  1.
         22    1    3    3    0    0  0.23302260065E+02  0.43955827617E+02  0.10937830624E+02  0.50938651773E+02  0.00000000000E+00 0.  1.
</event>
<event>
 7    1  0.7457412E-006  0.8747051E+02  0.7818608E-02  0.1424118E+00
          2   -1    0    0  502    0  0.00000000000E+00  0.00000000000E+00  0.76575806697E+03  0.76575806697E+03  0.00000000000E+00 0. -1.
          1   -1    0    0  501    0 -0.00000000000E+00 -0.00000000000E+00 -0.16322319333E+03  0.16322319333E+03  0.00000000000E+00 0. -1.
         25    2    1    2    0    0  0.50604752391E+02 -0.25223098499E+02 -0.58333197085E+02  0.14908149690E+03  0.12500194068E+03 0.  0.
          2    1    1    2  501    0  0.21518969476E+02 -0.25718629465E+02 -0.51841111146E+02  0.61741515642E+02  0.00000000000E+00 0. -1.
          1    1    1    2  502    0 -0.72123721867E+02  0.50941727964E+02  0.71270918187E+03  0.71815824776E+03  0.00000000000E+00 0. -1.
         22    1    3    3    0    0 -0.17073712860E+01 -0.46788277143E+02  0.21264252039E+02  0.51422042059E+02  0.00000000000E+00 0. -1.
         22    1    3    3    0    0  0.52312123677E+02  0.21565178645E+02 -0.79597449124E+02  0.97659454845E+02  0.00000000000E+00 0. -1.
</event>
<event>
 7    1  0.7457412E-006  0.1014855E+03  0.7818608E-02  0.1431592E+00
          2   -1    0    0  502    0  0.00000000000E+00  0.00000000000E+00  0.48613376770E+03  0.48613376770E+03  0.00000000000E+00 0. -1.
          1   -1    0    0  501    0 -0.00000000000E+00 -0.00000000000E+00 -0.27800175228E+03  0.27800175228E+03  0.00000000000E+00 0. -1.
         25    2    1    2    0    0 -0.59007361913E+02 -0.53262963979E+02  0.36031647354E+02  0.15245394895E+03  0.12500045939E+03 0.  0.
          2    1    1    2  501    0 -0.26621878769E+02 -0.60738204634E+01 -0.21197572563E+03  0.21372721863E+03  0.00000000000E+00 0. -1.
          1    1    1    2  502    0  0.85629240681E+02  0.59336784442E+02  0.38407609370E+03  0.39795435241E+03  0.00000000000E+00 0. -1.
         22    1    3    3    0    0  0.47257600551E+01 -0.69388963108E+02 -0.12597498066E+02  0.70681383453E+02  0.00000000000E+00 0. -1.
         22    1    3    3    0    0 -0.63733121968E+02  0.16125999129E+02  0.48629145420E+02  0.81772565497E+02  0.00000000000E+00 0. -1.
</event>
<event>
 7    1  0.7457412E-006  0.8443432E+02  0.7818608E-02  0.1490776E+00
          2   -1    0    0  502    0  0.00000000000E+00  0.00000000000E+00  0.14805057217E+04  0.14805057217E+04  0.00000000000E+00 0. -1.
          1   -1    0    0  501    0 -0.00000000000E+00 -0.00000000000E+00 -0.18757325915E+02  0.18757325915E+02  0.00000000000E+00 0. -1.
         25    2    1    2    0    0  0.34432275630E+02 -0.66063751080E+02  0.54236744265E+03  0.56154921226E+03  0.12500029654E+03 0.  0.
          2    1    1    2  501    0 -0.55553029617E+02  0.69273785385E+02  0.20988429486E+03  0.22789562012E+03  0.00000000000E+00 0. -1.
          1    1    1    2  502    0  0.21120753987E+02 -0.32100343052E+01  0.70949665829E+03  0.70981821524E+03  0.00000000000E+00 0. -1.
         22    1    3    3    0    0 -0.13532380460E+02 -0.72596074175E+02  0.46095255287E+03  0.46683034531E+03  0.00000000000E+00 0. -1.
         22    1    3    3    0    0  0.47964656090E+02  0.65323230948E+01  0.81414889784E+02  0.94718866956E+02  0.00000000000E+00 0. -1.
</event>
<event>
 7    1  0.7457412E-006  0.8418734E+02  0.7818608E-02  0.1321117E+00
          2   -1    0    0  502    0  0.00000000000E+00  0.00000000000E+00  0.18814130806E+03  0.18814130806E+03  0.00000000000E+00 0. -1.
          1   -1    0    0  501    0 -0.00000000000E+00 -0.00000000000E+00 -0.14163851398E+04  0.14163851398E+04  0.00000000000E+00 0. -1.
         25    2    1    2    0    0 -0.12385513893E+03  0.76195460731E+02 -0.24184685212E+03  0.30864373180E+03  0.12500083847E+03 0.  0.
          2    1    1    2  501    0  0.42511059102E+02 -0.70262602887E+02 -0.11287966288E+04  0.11317799488E+04  0.00000000000E+00 0. -1.
          1    1    1    2  502    0  0.81344079827E+02 -0.59328578439E+01  0.14239964915E+03  0.16410276720E+03  0.00000000000E+00 0. -1.
         22    1    3    3    0    0 -0.10327045205E+03  0.18375420418E+02 -0.69842873802E+02  0.12601773432E+03  0.00000000000E+00 0.  1.
         22    1    3    3    0    0 -0.20584686880E+02  0.57820040313E+02 -0.17200397832E+03  0.18262599748E+03  0.00000000000E+00 0.  1.
</event>
<event>
 7    1  0.7457412E-006  0.1259872E+03  0.7818608E-02  0.1297526E+00
          2   -1    0    0  502    0  0.00000000000E+00  0.00000000000E+00  0.14666455740E+04  0.14666455740E+04  0.00000000000E+00 0. -1.
          1   -1    0    0  501    0 -0.00000000000E+00 -0.00000000000E+00 -0.12808337499E+04  0.12808337499E+04  0.00000000000E+00 0. -1.
         25    2    1    2    0    0 -0.73268791661E+02 -0.11461535221E+03  0.11194371438E+03  0.21601368450E+03  0.12500208761E+03 0.  0.
          2    1    1    2  501    0  0.11150413733E+03  0.58957059826E+02 -0.12246824647E+04  0.12311605285E+04  0.00000000000E+00 0. -1.
          1    1    1    2  502    0 -0.38235345671E+02  0.55658292386E+02  0.12985505744E+04  0.13003051109E+04  0.00000000000E+00 0. -1.
         22    1    3    3    0    0  0.23855889774E+02 -0.55626417597E+02  0.62925510103E+01  0.60852263801E+02  0.00000000000E+00 0. -1.
         22    1    3    3    0    0 -0.97124681435E+02 -0.58988934615E+02  0.10565116337E+03  0.15516142069E+03  0.00000000000E+00 0. -1.
</event>
<event>
 7    1  0.7457412E-006  0.1277497E+03  0.7818608E-02  0.1390335E+00
          2   -1    0    0  502    0  0.00000000000E+00  0.00000000000E+00  0.29197502100E+04  0.29197502100E+04  0.00000000000E+00 0. -1.
          1   -1    0    0  501    0 -0.00000000000E+00 -0.00000000000E+00 -0.64004146843E+03  0.64004146843E+03  0.00000000000E+00 0. -1.
         25    2    1    2    0    0  0.85517507764E+02 -0.11516416513E+03 -0.53377728076E+02  0.19760497414E+03  0.12499005915E+03 0.  0.
          2    1    1    2  501    0  0.83485521001E+01  0.28730623467E+02 -0.51268437393E+03  0.51355663205E+03  0.00000000000E+00 0. -1.
          1    1    1    2  502    0 -0.93866059864E+02  0.86433541667E+02  0.28457708436E+04  0.28486300722E+04  0.00000000000E+00 0. -1.
         22    1    3    3    0    0  0.10866981719E+03 -0.69473534519E+02 -0.65950793377E+02  0.14486272230E+03  0.00000000000E+00 0.  1.
         22    1    3    3    0    0 -0.23152309425E+02 -0.45690630614E+02  0.12573065301E+02  0.52742251836E+02  0.00000000000E+00 0.  1.
</event>
<event>
 7    1  0.7457412E-006  0.6571763E+02  0.7818608E-02  0.1454499E+00
          2   -1    0    0  502    0  0.00000000000E+00  0.00000000000E+00  0.29356982716E+03  0.29356982716E+03  0.00000000000E+00 0. -1.
          1   -1    0    0  501    0 -0.00000000000E+00 -0.00000000000E+00 -0.70914086451E+03  0.70914086451E+03  0.00000000000E+00 0. -1.
         25    2    1    2    0    0  0.79615285947E+02 -0.24692696865E+02 -0.10491004321E+03  0.18324725132E+03  0.12500045966E+03 0.  0.
          2    1    1    2  501    0 -0.30422402316E+02 -0.18410661753E+02 -0.56028540815E+03  0.56141269457E+03  0.00000000000E+00 0. -1.
          1    1    1    2  502    0 -0.49192883631E+02  0.43103358618E+02  0.24962441402E+03  0.25805074578E+03  0.00000000000E+00 0. -1.
         22    1    3    3    0    0 -0.55374007948E+01  0.33560505681E+02  0.27594818531E+01  0.34126017776E+02  0.00000000000E+00 0.  1.
         22    1    3    3    0    0  0.85152686742E+02 -0.58253202546E+02 -0.10766952507E+03  0.14912123355E+03  0.00000000000E+00 0.  1.
</event>
<event>
 7    1  0.7457412E-006  0.7685807E+02  0.7818608E-02  0.1495026E+00
          2   -1    0    0  502    0  0.00000000000E+00  0.00000000000E+00  0.22769342270E+03  0.22769342270E+03  0.00000000000E+00 0. -1.
          1   -1    0    0  501    0 -0.00000000000E+00 -0.00000000000E+00 -0.13860238666E+04  0.13860238666E+04  0.00000000000E+00 0. -1.
         25    2    1    2    0    0 -0.47964869975E+02 -0.83432711544E+02 -0.40577144151E+03  0.43535835626E+03  0.12499915803E+03 0.  0.
          2    1    1    2  501    0  0.43490992324E+02  0.61088952814E+02 -0.96338796613E+03  0.96630207484E+03  0.00000000000E+00 0. -1.
          1    1    1    2  502    0  0.44738776512E+01  0.22343758730E+02  0.21082896376E+03  0.21205685817E+03  0.00000000000E+00 0. -1.
         22    1    3    3    0    0  0.13844770556E+02 -0.16985117518E+02 -0.27675624375E+03  0.27762238805E+03  0.00000000000E+00 0.  1.
         22    1    3    3    0    0 -0.61809640531E+02 -0.66447594025E+02 -0.12901519776E+03  0.15773596821E+03  0.00000000000E+00 0.  1.
</event>
<event>
 7    1  0.7457412E-006  0.3232057E+02  0.7818608E-02  0.1581519E+00
          2   -1    0    0  502    0  0.00000000000E+00  0.00000000000E+00  0.26887956808E+03  0.26887956808E+03  0.00000000000E+00 0. -1.
          1   -1    0    0  501    0 -0.00000000000E+00 -0.00000000000E+00 -0.40602365588E+03  0.40602365588E+03  0.00000000000E+00 0. -1.
         25    2    1    2    0    0  0.50531437012E+02  0.17334732951E+01  0.18629016612E+03  0.22996591802E+03  0.12499546552E+03 0.  0.
          2    1    1    2  501    0 -0.26839161328E+02  0.17955906039E+02 -0.37955037437E+03  0.38092156913E+03  0.00000000000E+00 0. -1.
          1    1    1    2  502    0 -0.23692275684E+02 -0.19689379334E+02  0.56116120449E+02  0.64015736815E+02  0.00000000000E+00 0. -1.
         22    1    3    3    0    0  0.12867585933E+02 -0.58409437737E+02  0.57759988478E+02  0.83147179468E+02  0.00000000000E+00 0.  1.
         22    1    3    3    0    0  0.37663851079E+02  0.60142911032E+02  0.12853017764E+03  0.14681873855E+03  0.00000000000E+00 0.  1.
</event>
<event>
 7    1  0.7457412E-006  0.4474877E+02  0.7818608E-02  0.1484296E+00
          2   -1    0    0  502    0  0.00000000000E+00  0.00000000000E+00  0.24275063926E+04  0.24275063926E+04  0.00000000000E+00 0. -1.
          1   -1    0    0  501    0 -0.00000000000E+00 -0.00000000000E+00 -0.14440844828E+03  0.14440844828E+03  0.00000000000E+00 0. -1.
         25    2    1    2    0    0  0.73438263506E+02 -0.21842003246E+02 -0.83428935799E+02  0.16869254559E+03  0.12500614367E+03 0.  0.
          2    1    1    2  501    0 -0.29505338436E+02  0.30138806880E+02  0.63858743894E+01  0.42657848845E+02  0.00000000000E+00 0. -1.
          1    1    1    2  502    0 -0.43932925071E+02 -0.82968036345E+01  0.23601410058E+04  0.23605644465E+04  0.00000000000E+00 0. -1.
         22    1    3    3    0    0  0.22646450230E+02 -0.59106380474E+02 -0.84634427808E+02  0.10568544030E+03  0.00000000000E+00 0. -1.
         22    1    3    3    0    0  0.50791813277E+02  0.37264377228E+02  0.12054920087E+01  0.63007105291E+02  0.00000000000E+00 0. -1.
</event>
<event>
 7    1  0.7457412E-006  0.4546737E+02  0.7818608E-02  0.1473173E+00
          2   -1    0    0  502    0  0.00000000000E+00  0.00000000000E+00  0.40180128019E+03  0.40180128019E+03  0.00000000000E+00 0. -1.
          1   -1    0    0  501    0 -0.00000000000E+00 -0.00000000000E+00 -0.39585279928E+03  0.39585279928E+03  0.00000000000E+00 0. -1.
         25    2    1    2    0    0  0.51677215012E+02  0.54511425374E+02 -0.15605378181E+02  0.14666435386E+03  0.12499949927E+03 0.  0.
          2    1    1    2  501    0 -0.77241495925E+01 -0.44240595386E+02 -0.31158604902E+03  0.31480590641E+03  0.00000000000E+00 0. -1.
          1    1    1    2  502    0 -0.43953065420E+02 -0.10270829989E+02  0.33313990812E+03  0.33618381919E+03  0.00000000000E+00 0. -1.
         22    1    3    3    0    0  0.28107817418E+02  0.90613399187E+02  0.11759337551E+02  0.95598742313E+02  0.00000000000E+00 0. -1.
         22    1    3    3    0    0  0.23569397594E+02 -0.36101973812E+02 -0.27364715732E+02  0.51065611552E+02  0.00000000000E+00 0. -1.
</event>
<event>
 7    1  0.7457412E-006  0.8110723E+02  0.7818608E-02  0.1357988E+00
          2   -1    0    0  502    0  0.00000000000E+00  0.00000000000E+00  0.59413527287E+03  0.59413527287E+03  0.00000000000E+00 0. -1.
          1   -1    0    0  501    0 -0.00000000000E+00 -0.00000000000E+00 -0.55317074408E+03  0.55317074408E+03  0.00000000000E+00 0. -1.
         25    2    1    2    0    0  0.25658523924E+02 -0.39733177819E+02  0.13801196569E+03  0.19212031584E+03  0.12500331121E+03 0.  0.
          2    1    1    2  501    0 -0.38381802556E+02 -0.48044944759E+02 -0.51970068783E+03  0.52332617402E+03  0.00000000000E+00 0. -1.
          1    1    1    2  502    0  0.12723278631E+02  0.87778122578E+02  0.42265325093E+03  0.43185952710E+03  0.00000000000E+00 0. -1.
         22    1    3    3    0    0  0.62263010920E+02 -0.40309205232E+02  0.33508453584E+02  0.81389993346E+02  0.00000000000E+00 0.  1.
         22    1    3    3    0    0 -0.36604486995E+02  0.57602741272E+00  0.10450351211E+03  0.11073032249E+03  0.00000000000E+00 0.  1.
</event>
<event>
 7    1  0.7457412E-006  0.5753410E+02  0.7818608E-02  0.1509289E+00
          2   -1    0    0  502    0  0.00000000000E+00  0.00000000000E+00  0.38319095745E+04  0.38319095745E+04  0.00000000000E+00 0. -1.
          1   -1    0    0  501    0 -0.00000000000E+00 -0.00000000000E+00 -0.10817735437E+03  0.10817735437E+03  0.00000000000E+00 0. -1.
         25    2    1    2    0    0 -0.38132734876E+02  0.71202343845E+02  0.15040799350E+04  0.15114247453E+04  0.12499772307E+03 0.  0.
          2    1    1    2  501    0  0.20419042305E+02 -0.18579729194E+02 -0.10234403939E+03  0.10600210387E+03  0.00000000000E+00 0. -1.
          1    1    1    2  502    0  0.17713692571E+02 -0.52622614652E+02  0.23219963245E+04  0.23226600796E+04  0.00000000000E+00 0. -1.
         22    1    3    3    0    0 -0.49683293645E+02  0.23690349150E+02  0.13141389071E+04  0.13152911197E+04  0.00000000000E+00 0.  1.
         22    1    3    3    0    0  0.11550558770E+02  0.47511994695E+02  0.18994102782E+03  0.19613362562E+03  0.00000000000E+00 0.  1.
</event>
<event>
 7    1  0.7457412E-006  0.9260517E+02  0.7818608E-02  0.1297662E+00
          2   -1    0    0  502    0  0.00000000000E+00  0.00000000000E+00  0.12242667637E+04  0.12242667637E+04  0.00000000000E+00 0. -1.
          1   -1    0    0  501    0 -0.00000000000E+00 -0.00000000000E+00 -0.44145898979E+03  0.44145898979E+03  0.00000000000E+00 0. -1.
         25    2    1    2    0    0 -0.52324382338E+02 -0.49910098488E+02 -0.20544240219E+02  0.14586195916E+03  0.12499914562E+03 0.  0.
          2    1    1    2  501    0 -0.29423811410E+02  0.93418137253E+02 -0.34967057766E+03  0.36312838215E+03  0.00000000000E+00 0. -1.
          1    1    1    2  502    0  0.81748193748E+02 -0.43508038765E+02  0.11530225918E+04  0.11567354122E+04  0.00000000000E+00 0. -1.
         22    1    3    3    0    0  0.15158447421E+02 -0.65421391295E+02 -0.34082378682E+02  0.75308336217E+02  0.00000000000E+00 0. -1.
         22    1    3    3    0    0 -0.67482829759E+02  0.15511292807E+02  0.13538138463E+02  0.70553622940E+02  0.00000000000E+00 0. -1.
</event>
<event>
 7    1  0.7457412E-006  0.1074595E+03  0.7818608E-02  0.1337213E+00
          2   -1    0    0  502    0  0.00000000000E+00  0.00000000000E+00  0.17049787005E+04  0.17049787005E+04  0.00000000000E+00 0. -1.
          1   -1    0    0  501    0 -0.00000000000E+00 -0.00000000000E+00 -0.65140115267E+02  0.65140115267E+02  0.00000000000E+00 0. -1.
         25    2    1    2    0    0 -0.81145435107E+02 -0.62965445019E+02  0.46464001928E+03  0.49200029820E+03  0.12499886801E+03 0.  0.
          2    1    1    2  501    0  0.10858437459E+03  0.14779858722E+02  0.82959867901E+01  0.10989919938E+03  0.00000000000E+00 0. -1.
          1    1    1    2  502    0 -0.27438939481E+02  0.48185586298E+02  0.11669025792E+04  0.11682193182E+04  0.00000000000E+00 0. -1.
         22    1    3    3    0    0 -0.80772219508E+02 -0.55212871089E+02  0.16194437507E+03  0.18920516165E+03  0.00000000000E+00 0.  1.
         22    1    3    3    0    0 -0.37321559902E+00 -0.77525739306E+01  0.30269564421E+03  0.30279513655E+03  0.00000000000E+00 0.  1.
</event>
<event>
 7    1  0.7457412E-006  0.6484617E+02  0.7818608E-02  0.1521853E+00
          2   -1    0    0  502    0  0.00000000000E+00  0.00000000000E+00  0.57615363134E+02  0.57615363134E+02  0.00000000000E+00 0. -1.
          1   -1    0    0  501    0 -0.00000000000E+00 -0.00000000000E+00 -0.63566403556E+03  0.63566403556E+03  0.00000000000E+00 0. -1.
         25    2    1    2    0    0  0.73248135415E+02  0.11259761205E+02 -0.26262158873E+03  0.30013967476E+03  0.12498661503E+03 0.  0.
          2    1    1    2  501    0 -0.96546953113E+01 -0.20333072289E+02 -0.32708025296E+03  0.32785383762E+03  0.00000000000E+00 0. -1.
          1    1    1    2  502    0 -0.63593440104E+02  0.90733110836E+01  0.11653169252E+02  0.65285886314E+02  0.00000000000E+00 0. -1.
         22    1    3    3    0    0  0.95982570328E+01 -0.30350179172E+02 -0.58763551109E+01  0.32369607091E+02  0.00000000000E+00 0. -1.
         22    1    3    3    0    0  0.63649878382E+02  0.41609940377E+02 -0.25674523361E+03  0.26777006767E+03  0.00000000000E+00 0. -1.
</event>
<event>
 7    1  0.7457412E-006  0.6668037E+02  0.7818608E-02  0.1375300E+00
          2   -1    0    0  502    0  0.00000000000E+00  0.00000000000E+00  0.25765322326E+04  0.25765322326E+04  0.00000000000E+00 0. -1.
          1   -1    0    0  501    0 -0.00000000000E+00 -0.00000000000E+00 -0.28615144711E+04  0.28615144711E+04  0.00000000000E+00 0. -1.
         25    2    1    2    0    0 -0.44806773096E+02 -0.81843483444E+02 -0.32826291672E+03  0.36343837500E+03  0.12499962891E+03 0.  0.
          2    1    1    2  501    0  0.62351925680E+02  0.17513466184E+02 -0.25148124690E+04  0.25156462864E+04  0.00000000000E+00 0. -1.
          1    1    1    2  502    0 -0.17545152585E+02  0.64330017259E+02  0.25580931473E+04  0.25589620422E+04  0.00000000000E+00 0. -1.
         22    1    3    3    0    0 -0.72879539340E+02 -0.59611541117E+01 -0.18466519118E+03  0.19861569789E+03  0.00000000000E+00 0.  1.
         22    1    3    3    0    0  0.28072766244E+02 -0.75882329332E+02 -0.14359772554E+03  0.16482267711E+03  0.00000000000E+00 0.  1.
</event>
<event>
 7    1  0.7457412E-006  0.1880499E+03  0.7818608E-02  0.1277646E+00
          2   -1    0    0  502    0  0.00000000000E+00  0.00000000000E+00  0.10871862786E+04  0.10871862786E+04  0.00000000000E+00 0. -1.
          1   -1    0    0  501    0 -0.00000000000E+00 -0.00000000000E+00 -0.12605304902E+03  0.12605304902E+03  0.00000000000E+00 0. -1.
         25    2    1    2    0    0  0.16420223961E+03 -0.11999019293E+01  0.28309464167E+03  0.35033075491E+03  0.12500098576E+03 0.  0.
          2    1    1    2  501    0 -0.19195285765E+03 -0.45749695448E+02  0.15291281674E+02  0.19792108905E+03  0.00000000000E+00 0. -1.
          1    1    1    2  502    0  0.27750618044E+02  0.46949597377E+02  0.66274730625E+03  0.66498748367E+03  0.00000000000E+00 0. -1.
         22    1    3    3    0    0  0.18247827759E+03 -0.33158681873E+01  0.27540677051E+03  0.33039098961E+03  0.00000000000E+00 0.  1.
         22    1    3    3    0    0 -0.18276037981E+02  0.21159662580E+01  0.76878711604E+01  0.19939765307E+02  0.00000000000E+00 0.  1.
</event>
<event>
 7    1  0.7457412E-006  0.2722343E+03  0.7818608E-02  0.1222611E+00
          2   -1    0    0  502    0  0.00000000000E+00  0.00000000000E+00  0.18979925340E+04  0.18979925340E+04  0.00000000000E+00 0. -1.
          1   -1    0    0  501    0 -0.00000000000E+00 -0.00000000000E+00 -0.53990052146E+03  0.53990052146E+03  0.00000000000E+00 0. -1.
         25    2    1    2    0    0  0.22690733116E+03  0.98062113625E+01  0.38207535250E+03  0.46172532942E+03  0.12500242446E+03 0.  0.
          2    1    1    2  501    0 -0.27438263691E+03  0.35014302820E+02 -0.46102741029E+03  0.53764124272E+03  0.00000000000E+00 0. -1.
          1    1    1    2  502    0  0.47475305757E+02 -0.44820514182E+02  0.14370440704E+04  0.14385264833E+04  0.00000000000E+00 0. -1.
         22    1    3    3    0    0  0.74187339834E+02 -0.54721623573E+02  0.11519623646E+03  0.14754114806E+03  0.00000000000E+00 0.  1.
         22    1    3    3    0    0  0.15271999132E+03  0.64527834936E+02  0.26687911604E+03  0.31418418135E+03  0.00000000000E+00 0.  1.
</event>
<event>
 7    1  0.7457412E-006  0.1160594E+03  0.7818608E-02  0.1392649E+00
          2   -1    0    0  502    0  0.00000000000E+00  0.00000000000E+00  0.82075514473E+03  0.82075514473E+03  0.00000000000E+00 0. -1.
          1   -1    0    0  501    0 -0.00000000000E+00 -0.00000000000E+00 -0.58625080830E+03  0.58625080830E+03  0.00000000000E+00 0. -1.
         25    2    1    2    0    0 -0.13982621568E+03 -0.74386985885E+01 -0.80258128893E+02  0.20413898331E+03  0.12499860969E+03 0.  0.
          2    1    1    2  501    0  0.25167899524E+02  0.20288682153E+02 -0.43906890698E+03  0.44025737798E+03  0.00000000000E+00 0. -1.
          1    1    1    2  502    0  0.11465831616E+03 -0.12849983564E+02  0.75383137231E+03  0.76260959174E+03  0.00000000000E+00 0. -1.
         22    1    3    3    0    0 -0.10529079636E+03 -0.12510656443E+02 -0.11393201071E+03  0.15563794970E+03  0.00000000000E+00 0. -1.
         22    1    3    3    0    0 -0.34535419321E+02  0.50719578544E+01  0.33673881818E+02  0.48501033605E+02  0.00000000000E+00 0. -1.
</event>
<event>
 7    1  0.7457412E-006  0.3952928E+02  0.7818608E-02  0.1549360E+00
          2   -1    0    0  502    0  0.00000000000E+00  0.00000000000E+00  0.16340015736E+03  0.16340015736E+03  0.00000000000E+00 0. -1.
          1   -1    0    0  501    0 -0.00000000000E+00 -0.00000000000E+00 -0.25485240689E+03  0.25485240689E+03  0.00000000000E+00 0. -1.
         25    2    1    2    0    0 -0.16338314291E+02 -0.33357410440E+02  0.39676507532E+02  0.13631382495E+03  0.12501030468E+03 0.  0.
          2    1    1    2  501    0 -0.14259940027E+02  0.37200982645E+02 -0.20134500174E+03  0.20524879713E+03  0.00000000000E+00 0. -1.
          1    1    1    2  502    0  0.30598254318E+02 -0.38435722049E+01  0.70216244668E+02  0.76689942169E+02  0.00000000000E+00 0. -1.
         22    1    3    3    0    0 -0.65082143814E+02 -0.36049040267E+02  0.45406525521E+02  0.87160606397E+02  0.00000000000E+00 0.  1.
         22    1    3    3    0    0  0.48743829523E+02  0.26916298266E+01 -0.57300179893E+01  0.49153218550E+02  0.00000000000E+00 0.  1.
</event>
<event>
 7    1  0.7457412E-006  0.4687544E+02  0.7818608E-02  0.1546512E+00
          2   -1    0    0  502    0  0.00000000000E+00  0.00000000000E+00  0.67710527170E+02  0.67710527170E+02  0.00000000000E+00 0. -1.
          1   -1    0    0  501    0 -0.00000000000E+00 -0.00000000000E+00 -0.84338056882E+03  0.84338056882E+03  0.00000000000E+00 0. -1.
         25    2    1    2    0    0 -0.16711551510E+02 -0.34335150085E+02 -0.95782510990E+02  0.16203956309E+03  0.12499740842E+03 0.  0.
          2    1    1    2  501    0 -0.66805699693E+01  0.46759922094E+02 -0.70849335242E+03  0.71006615942E+03  0.00000000000E+00 0. -1.
          1    1    1    2  502    0  0.23392121479E+02 -0.12424772009E+02  0.28605821758E+02  0.38985373478E+02  0.00000000000E+00 0. -1.
         22    1    3    3    0    0 -0.10677707825E+02 -0.80905802581E+02 -0.46324012892E+02  0.93838566198E+02  0.00000000000E+00 0. -1.
         22    1    3    3    0    0 -0.60338436849E+01  0.46570652496E+02 -0.49458498097E+02  0.68200996896E+02  0.00000000000E+00 0. -1.
</event>
<event>
 7    1  0.7457412E-006  0.9228036E+02  0.7818608E-02  0.1336361E+00
          2   -1    0    0  502    0  0.00000000000E+00  0.00000000000E+00  0.91924220390E+03  0.91924220390E+03  0.00000000000E+00 0. -1.
          1   -1    0    0  501    0 -0.00000000000E+00 -0.00000000000E+00 -0.12345781208E+03  0.12345781208E+03  0.00000000000E+00 0. -1.
         25    2    1    2    0    0 -0.53238503777E+02 -0.42754115846E+02  0.53183484574E+03  0.55057816543E+03  0.12500304158E+03 0.  0.
          2    1    1    2  501    0 -0.64250596348E+02  0.10181359746E+02 -0.93809915263E+02  0.11415822099E+03  0.00000000000E+00 0. -1.
          1    1    1    2  502    0  0.11748910013E+03  0.32572756100E+02  0.35775946135E+03  0.37796362956E+03  0.00000000000E+00 0. -1.
         22    1    3    3    0    0  0.12771719741E+02  0.36715437596E+02  0.16047768032E+03  0.16511882408E+03  0.00000000000E+00 0. -1.
         22    1    3    3    0    0 -0.66010223518E+02 -0.79469553443E+02  0.37135716542E+03  0.38545934136E+03  0.00000000000E+00 0. -1.
</event>
<event>
 7    1  0.7457412E-006  0.1311153E+03  0.7818608E-02  0.1278008E+00
          2   -1    0    0  502    0  0.00000000000E+00  0.00000000000E+00  0.19758062676E+03  0.19758062676E+03  0.00000000000E+00 0. -1.
          1   -1    0    0  501    0 -0.00000000000E+00 -0.00000000000E+00 -0.12021937830E+04  0.12021937830E+04  0.00000000000E+00 0. -1.
         25    2    1    2    0    0 -0.28220404046E+02  0.58108561560E+02 -0.67676024010E+03  0.69123243557E+03  0.12499944510E+03 0.  0.
          2    1    1    2  501    0  0.20306957156E+02  0.75258024037E+02 -0.49129675380E+03  0.49744210013E+03  0.00000000000E+00 0. -1.
          1    1    1    2  502    0  0.79134468894E+01 -0.13336658560E+03  0.16344383761E+03  0.21109987411E+03  0.00000000000E+00 0. -1.
         22    1    3    3    0    0 -0.61993047430E+02  0.13223700151E+02 -0.53510895478E+03  0.53885025532E+03  0.00000000000E+00 0. -1.
         22    1    3    3    0    0  0.33772643384E+02  0.44884861409E+02 -0.14165128531E+03  0.15238218024E+03  0.00000000000E+00 0. -1.
</event>
<event>
 7    1  0.7457412E-006  0.8506893E+02  0.7818608E-02  0.1372110E+00
          2   -1    0    0  502    0  0.00000000000E+00  0.00000000000E+00  0.33163430184E+04  0.33163430184E+04  0.00000000000E+00 0. -1.
          1   -1    0    0  501    0 -0.00000000000E+00 -0.00000000000E+00 -0.85410413273E+03  0.85410413273E+03  0.00000000000E+00 0. -1.
         25    2    1    2    0    0  0.46097221492E+02  0.12707637561E+03 -0.73296837277E+01  0.18426036637E+03  0.12499919714E+03 0.  0.
          2    1    1    2  501    0 -0.27275649800E+02 -0.44408303421E+02 -0.75685612969E+03  0.75864831084E+03  0.00000000000E+00 0. -1.
          1    1    1    2  502    0 -0.18821571692E+02 -0.82668072190E+02  0.32264246991E+04  0.32275384739E+04  0.00000000000E+00 0. -1.
         22    1    3    3    0    0 -0.42626695746E+01 -0.27304981402E+01 -0.40757294017E+02  0.41070463688E+02  0.00000000000E+00 0.  1.
         22    1    3    3    0    0  0.50359891067E+02  0.12980687375E+03  0.33427610289E+02  0.14318990269E+03  0.00000000000E+00 0.  1.
</event>
<event>
 7    1  0.7457412E-006  0.7515567E+02  0.7818608E-02  0.1425424E+00
          2   -1    0    0  502    0  0.00000000000E+00  0.00000000000E+00  0.70549337728E+03  0.70549337728E+03  0.00000000000E+00 0. -1.
          1   -1    0    0  501    0 -0.00000000000E+00 -0.00000000000E+00 -0.15781617179E+04  0.15781617179E+04  0.00000000000E+00 0. -1.
         25    2    1    2    0    0 -0.71504335585E+01 -0.41555577380E+02 -0.20886651709E+03  0.24703889609E+03  0.12499999804E+03 0.  0.
          2    1    1    2  501    0 -0.30304080295E+02 -0.23974975884E+02 -0.13478563154E+04  0.13484100948E+04  0.00000000000E+00 0. -1.
          1    1    1    2  502    0  0.37454513854E+02  0.65530553263E+02  0.68405449192E+03  0.68820610425E+03  0.00000000000E+00 0. -1.
         22    1    3    3    0    0 -0.14623363615E+02  0.37658977299E+02 -0.27171635144E+02  0.48686128323E+02  0.00000000000E+00 0. -1.
         22    1    3    3    0    0  0.74729300569E+01 -0.79214554679E+02 -0.18169488194E+03  0.19835276777E+03  0.00000000000E+00 0. -1.
</event>
<event>
 7    1  0.7457412E-006  0.8263637E+02  0.7818608E-02  0.1341710E+00
          2   -1    0    0  502    0  0.00000000000E+00  0.00000000000E+00  0.46164836307E+02  0.46164836307E+02  0.00000000000E+00 0. -1.
          1   -1    0    0  501    0 -0.00000000000E+00 -0.00000000000E+00 -0.15668772336E+04  0.15668772336E+04  0.00000000000E+00 0. -1.
         25    2    1    2    0    0 -0.97499474693E+02 -0.11101981143E+03 -0.72878881426E+03  0.75404960744E+03  0.12500451431E+03 0.  0.
          2    1    1    2  501    0  0.45085447666E+02  0.52694509040E+02 -0.77585346095E+03  0.77894672587E+03  0.00000000000E+00 0. -1.
          1    1    1    2  502    0  0.52414027026E+02  0.58325302387E+02 -0.16070122117E+02  0.80045736629E+02  0.00000000000E+00 0. -1.
         22    1    3    3    0    0 -0.10790405136E+03 -0.13119781813E+03 -0.66453528938E+03  0.68590327496E+03  0.00000000000E+00 0. -1.
         22    1    3    3    0    0  0.10404576664E+02  0.20178006703E+02 -0.64253524882E+02  0.68146332475E+02  0.00000000000E+00 0. -1.
</event>
<event>
 7    1  0.7457412E-006  0.9487199E+02  0.7818608E-02  0.1456296E+00
          2   -1    0    0  502    0  0.00000000000E+00  0.00000000000E+00  0.15465425235E+04  0.15465425235E+04  0.00000000000E+00 0. -1.
          1   -1    0    0  501    0 -0.00000000000E+00 -0.00000000000E+00 -0.50259466090E+03  0.50259466090E+03  0.00000000000E+00 0. -1.
         25    2    1    2    0    0 -0.47541071078E+02 -0.64305774586E+02 -0.18712966013E+03  0.23882276601E+03  0.12499367095E+03 0.  0.
          2    1    1    2  501    0  0.71041636184E+02  0.70528373720E+02 -0.28086749621E+03  0.29817396935E+03  0.00000000000E+00 0. -1.
          1    1    1    2  502    0 -0.23500565105E+02 -0.62225991341E+01  0.15119450189E+04  0.15121404490E+04  0.00000000000E+00 0. -1.
         22    1    3    3    0    0 -0.75889547636E+02  0.11561022285E+01 -0.81572097557E+02  0.11142067632E+03  0.00000000000E+00 0.  1.
         22    1    3    3    0    0  0.28348476558E+02 -0.65461876814E+02 -0.10555756258E+03  0.12740208969E+03  0.00000000000E+00 0.  1.
</event>
<event>
 7    1  0.7457412E-006  0.1176511E+03  0.7818608E-02  0.1339093E+00
          2   -1    0    0  502    0  0.00000000000E+00  0.00000000000E+00  0.34855708963E+03  0.34855708963E+03  0.00000000000E+00 0. -1.
          1   -1    0    0  501    0 -0.00000000000E+00 -0.00000000000E+00 -0.43461206142E+03  0.43461206142E+03  0.00000000000E+00 0. -1.
         25    2    1    2    0    0 -0.13359101698E+03 -0.55900420579E+02  0.16838768870E+03  0.25487645283E+03  0.12504469466E+03 0.  0.
          2    1    1    2  501    0  0.28734368804E+02  0.40706507047E+02 -0.36894299607E+03  0.37229238243E+03  0.00000000000E+00 0. -1.
          1    1    1    2  502    0  0.10485664818E+03  0.15193913532E+02  0.11450033558E+03  0.15600031578E+03  0.00000000000E+00 0. -1.
         22    1    3    3    0    0 -0.55810497840E+02  0.19190462303E+02  0.12528152679E+03  0.13848662920E+03  0.00000000000E+00 0. -1.
         22    1    3    3    0    0 -0.77780519143E+02 -0.75090882881E+02  0.43106161910E+02  0.11638982363E+03  0.00000000000E+00 0. -1.
</event>
<event>
 7    1  0.7457412E-006  0.6623253E+02  0.7818608E-02  0.1414434E+00
          2   -1    0    0  502    0  0.00000000000E+00  0.00000000000E+00  0.45851692900E+03  0.45851692900E+03  0.00000000000E+00 0. -1.
          1   -1    0    0  501    0 -0.00000000000E+00 -0.00000000000E+00 -0.79840765201E+03  0.79840765201E+03  0.00000000000E+00 0. -1.
         25    2    1    2    0    0 -0.27121323155E+02 -0.26790494940E+02 -0.38974390939E+03  0.41107413711E+03  0.12501333730E+03 0.  0.
          2    1    1    2  501    0  0.74562367870E+02  0.21689957086E+02 -0.39291693092E+03  0.40051681057E+03  0.00000000000E+00 0. -1.
          1    1    1    2  502    0 -0.47441044715E+02  0.51005378536E+01  0.44277011730E+03  0.44533363334E+03  0.00000000000E+00 0. -1.
         22    1    3    3    0    0 -0.68210019740E+02 -0.32258274853E+02 -0.15148320699E+03  0.16923464506E+03  0.00000000000E+00 0.  1.
         22    1    3    3    0    0  0.41088696585E+02  0.54677799133E+01 -0.23826070240E+03  0.24183949205E+03  0.00000000000E+00 0.  1.
</event>
<event>
 7    1  0.7457412E-006  0.3992665E+02  0.7818608E-02  0.1606884E+00
          2   -1    0    0  502    0  0.00000000000E+00  0.00000000000E+00  0.55975564303E+02  0.55975564303E+02  0.00000000000E+00 0. -1.
          1   -1    0    0  501    0 -0.00000000000E+00 -0.00000000000E+00 -0.17709453834E+03  0.17709453834E+03  0.00000000000E+00 0. -1.
         25    2    1    2    0    0  0.32185517558E+02 -0.14459053575E+02 -0.86169825725E+02  0.15587675411E+03  0.12500940699E+03 0.  0.
          2    1    1    2  501    0 -0.24590514781E+02  0.34447932349E+02 -0.36312274649E+02  0.55766788957E+02  0.00000000000E+00 0. -1.
          1    1    1    2  502    0 -0.75950027766E+01 -0.19988878774E+02  0.13631263368E+01  0.21426559575E+02  0.00000000000E+00 0. -1.
         22    1    3    3    0    0 -0.38105156452E+02 -0.53210717490E+01 -0.74763525999E+02  0.84082706739E+02  0.00000000000E+00 0.  1.
         22    1    3    3    0    0  0.70290674009E+02 -0.91379818260E+01 -0.11406299726E+02  0.71794047371E+02  0.00000000000E+00 0.  1.
</event>
<event>
 7    1  0.7457412E-006  0.3068911E+03  0.7818608E-02  0.1204679E+00
          2   -1    0    0  502    0  0.00000000000E+00  0.00000000000E+00  0.21306607980E+04  0.21306607980E+04  0.00000000000E+00 0. -1.
          1   -1    0    0  501    0 -0.00000000000E+00 -0.00000000000E+00 -0.45186975787E+03  0.45186975787E+03  0.00000000000E+00 0. -1.
         25    2    1    2    0    0 -0.33101654900E+03  0.15752316166E+03  0.11790480076E+03  0.40485941572E+03  0.12499640911E+03 0.  0.
          2    1    1    2  501    0  0.48818932706E+02 -0.50245422235E+02 -0.29203292600E+03  0.30031836526E+03  0.00000000000E+00 0. -1.
          1    1    1    2  502    0  0.28219761629E+03 -0.10727773942E+03  0.18529191654E+04  0.18773527749E+04  0.00000000000E+00 0. -1.
         22    1    3    3    0    0 -0.26071727771E+03  0.17415146164E+03  0.81428012470E+02  0.32393325192E+03  0.00000000000E+00 0. -1.
         22    1    3    3    0    0 -0.70299271285E+02 -0.16628299979E+02  0.36476788290E+02  0.80926163800E+02  0.00000000000E+00 0. -1.
</event>
<event>
 7    1  0.7457412E-006  0.7706724E+02  0.7818608E-02  0.1400529E+00
          2   -1    0    0  502    0  0.00000000000E+00  0.00000000000E+00  0.69978344676E+03  0.69978344676E+03  0.00000000000E+00 0. -1.
          1   -1    0    0  501    0 -0.00000000000E+00 -0.00000000000E+00 -0.26104429159E+04  0.26104429159E+04  0.00000000000E+00 0. -1.
         25    2    1    2    0    0  0.32548509026E+02 -0.55481923640E+02  0.26512517925E+02  0.14305962462E+03  0.12500197318E+03 0.  0.
          2    1    1    2  501    0  0.78825491788E+01  0.76837259555E+02 -0.25507340544E+04  0.25519032731E+04  0.00000000000E+00 0. -1.
          1    1    1    2  502    0 -0.40431058205E+02 -0.21355335915E+02  0.61356206732E+03  0.61526346494E+03  0.00000000000E+00 0. -1.
         22    1    3    3    0    0 -0.45883588786E+02 -0.39378157686E+02  0.95422581437E+01  0.61212725092E+02  0.00000000000E+00 0.  1.
         22    1    3    3    0    0  0.78432097813E+02 -0.16103765954E+02  0.16970259781E+02  0.81846899527E+02  0.00000000000E+00 0.  1.
</event>
<event>
 7    1  0.7457412E-006  0.1635703E+03  0.7818608E-02  0.1208955E+00
          2   -1    0    0  502    0  0.00000000000E+00  0.00000000000E+00  0.18896265436E+03  0.18896265436E+03  0.00000000000E+00 0. -1.
          1   -1    0    0  501    0 -0.00000000000E+00 -0.00000000000E+00 -0.51293267077E+03  0.51293267077E+03  0.00000000000E+00 0. -1.
         25    2    1    2    0    0  0.19191269168E+02 -0.99933370019E+02 -0.20303785894E+03  0.25923986512E+03  0.12500380893E+03 0.  0.
          2    1    1    2  501    0  0.12442125518E+03 -0.16748802554E+02 -0.20423082919E+03  0.23973193930E+03  0.00000000000E+00 0. -1.
          1    1    1    2  502    0 -0.14361252435E+03  0.11668217257E+03  0.83298671727E+02  0.20292352071E+03  0.00000000000E+00 0. -1.
         22    1    3    3    0    0 -0.18684300233E+02  0.68455593107E+01 -0.11240173880E+03  0.11414953194E+03  0.00000000000E+00 0.  1.
         22    1    3    3    0    0  0.37875569401E+02 -0.10677892933E+03 -0.90636120144E+02  0.14509033318E+03  0.00000000000E+00 0.  1.
</event>
<event>
 7    1  0.7457412E-006  0.1943083E+03  0.7818608E-02  0.1305172E+00
          2   -1    0    0  502    0  0.00000000000E+00  0.00000000000E+00  0.85851468044E+03  0.85851468044E+03  0.00000000000E+00 0. -1.
          1   -1    0    0  501    0 -0.00000000000E+00 -0.00000000000E+00 -0.15760123886E+03  0.15760123886E+03  0.00000000000E+00 0. -1.
         25    2    1    2    0    0  0.14121506984E+03  0.14047991249E+03  0.18168615163E+02  0.23586661334E+03  0.12500663562E+03 0.  0.
          2    1    1    2  501    0 -0.10443094002E+03 -0.15815353123E+03  0.13913650629E+03  0.23511130993E+03  0.00000000000E+00 0. -1.
          1    1    1    2  502    0 -0.36784129819E+02  0.17673618737E+02  0.54360832012E+03  0.54513799603E+03  0.00000000000E+00 0. -1.
         22    1    3    3    0    0  0.34359138011E+02  0.87182201613E+02 -0.41372329231E+02  0.10243513201E+03  0.00000000000E+00 0.  1.
         22    1    3    3    0    0  0.10685593183E+03  0.53297710881E+02  0.59540944394E+02  0.13343148134E+03  0.00000000000E+00 0.  1.
</event>
<event>
 7    1  0.7457412E-006  0.1754108E+03  0.7818608E-02  0.1319445E+00
          2   -1    0    0  502    0  0.00000000000E+00  0.00000000000E+00  0.11921896434E+04  0.11921896434E+04  0.00000000000E+00 0. -1.
          1   -1    0    0  501    0 -0.00000000000E+00 -0.00000000000E+00 -0.72551888064E+03  0.72551888064E+03  0.00000000000E+00 0. -1.
         25    2    1    2    0    0  0.44470796671E+02 -0.14371243678E+03  0.16626415602E+03  0.25669936118E+03  0.12497950318E+03 0.  0.
          2    1    1    2  501    0  0.35480292506E+02 -0.17884668703E+02 -0.67142269205E+03  0.67259731187E+03  0.00000000000E+00 0. -1.
          1    1    1    2  502    0 -0.79951089177E+02  0.16159710548E+03  0.97182929884E+03  0.98841185102E+03  0.00000000000E+00 0. -1.
         22    1    3    3    0    0 -0.32910938153E+02 -0.85608145792E+02  0.11530555994E+03  0.14733382717E+03  0.00000000000E+00 0. -1.
         22    1    3    3    0    0  0.77381734824E+02 -0.58104290984E+02  0.50958596072E+02  0.10936553401E+03  0.00000000000E+00 0. -1.
</event>
<event>
 7    1  0.7457412E-006  0.9968398E+02  0.7818608E-02  0.1366345E+00
          2   -1    0    0  502    0  0.00000000000E+00  0.00000000000E+00  0.23421943085E+03  0.23421943085E+03  0.00000000000E+00 0. -1.
          1   -1    0    0  501    0 -0.00000000000E+00 -0.00000000000E+00 -0.10444763340E+04  0.10444763340E+04  0.00000000000E+00 0. -1.
         25    2    1    2    0    0 -0.11432836689E+03  0.21619559430E+00 -0.13913075285E+03  0.21921049758E+03  0.12499941457E+03 0.  0.
          2    1    1    2  501    0  0.23643288824E+02  0.40216137468E+02 -0.85193310859E+03  0.85320944927E+03  0.00000000000E+00 0. -1.
          1    1    1    2  502    0  0.90685078063E+02 -0.40432333062E+02  0.18080695827E+03  0.20627581802E+03  0.00000000000E+00 0. -1.
         22    1    3    3    0    0 -0.50734542230E+02 -0.47757817757E+02 -0.14300949897E+02  0.71128897785E+02  0.00000000000E+00 0. -1.
         22    1    3    3    0    0 -0.63593824657E+02  0.47974013352E+02 -0.12482980295E+03  0.14808159979E+03  0.00000000000E+00 0. -1.
</event>
<event>
 7    1  0.7457412E-006  0.1166647E+03  0.7818608E-02  0.1328985E+00
          2   -1    0    0  502    0  0.00000000000E+00  0.00000000000E+00  0.88310921089E+03  0.88310921089E+03  0.00000000000E+00 0. -1.
          1   -1    0    0  501    0 -0.00000000000E+00 -0.00000000000E+00 -0.65152892202E+03  0.65152892202E+03  0.00000000000E+00 0. -1.
         25    2    1    2    0    0 -0.81386673372E+02  0.48231284375E+02  0.53194638090E+02  0.16554550794E+03  0.12500239310E+03 0.  0.
          2    1    1    2  501    0  0.11815288290E+03 -0.74737160663E+01 -0.58847723899E+03  0.60026779106E+03  0.00000000000E+00 0. -1.
          1    1    1    2  502    0 -0.36766209525E+02 -0.40757568309E+02  0.76686288977E+03  0.76882483391E+03  0.00000000000E+00 0. -1.
         22    1    3    3    0    0 -0.69068400506E+02 -0.23179343434E+02  0.57706962314E+02  0.92939869862E+02  0.00000000000E+00 0.  1.
         22    1    3    3    0    0 -0.12318272866E+02  0.71410627809E+02 -0.45123242234E+01  0.72605638076E+02  0.00000000000E+00 0.  1.
</event>
<event>
 7    1  0.7457412E-006  0.8681322E+02  0.7818608E-02  0.1389897E+00
          2   -1    0    0  502    0  0.00000000000E+00  0.00000000000E+00  0.48207435844E+03  0.48207435844E+03  0.00000000000E+00 0. -1.
          1   -1    0    0  501    0 -0.00000000000E+00 -0.00000000000E+00 -0.95962956365E+03  0.95962956365E+03  0.00000000000E+00 0. -1.
         25    2    1    2    0    0  0.12828364494E+03  0.17108784214E+02  0.12742747322E+02  0.18039016782E+03  0.12501532298E+03 0.  0.
          2    1    1    2  501    0 -0.85731042644E+02 -0.52199185792E+01 -0.87242412628E+03  0.87664183983E+03  0.00000000000E+00 0. -1.
          1    1    1    2  502    0 -0.42552602296E+02 -0.11888865635E+02  0.38212617375E+03  0.38467191443E+03  0.00000000000E+00 0. -1.
         22    1    3    3    0    0  0.55165516407E+02 -0.30331103821E+02  0.54937328464E+02  0.83554294433E+02  0.00000000000E+00 0.  1.
         22    1    3    3    0    0  0.73118128533E+02  0.47439888035E+02 -0.42194581142E+02  0.96835873388E+02  0.00000000000E+00 0.  1.
</event>
<event>
 7    1  0.7457412E-006  0.2475286E+02  0.7818608E-02  0.1702548E+00
          2   -1    0    0  502    0  0.00000000000E+00  0.00000000000E+00  0.96405099201E+03  0.96405099201E+03  0.00000000000E+00 0. -1.
          1   -1    0    0  501    0 -0.00000000000E+00 -0.00000000000E+00 -0.36293924360E+03  0.36293924360E+03  0.00000000000E+00 0. -1.
         25    2    1    2    0    0 -0.31465996359E+02 -0.25811027397E+02  0.37219818088E+02  0.13665020455E+03  0.12502657910E+03 0.  0.
          2    1    1    2  501    0  0.11737008846E+02  0.21710996427E+02 -0.31262190054E+03  0.31359460684E+03  0.00000000000E+00 0. -1.
          1    1    1    2  502    0  0.19728987512E+02  0.41000309704E+01  0.87651383086E+03  0.87674542422E+03  0.00000000000E+00 0. -1.
         22    1    3    3    0    0  0.14954646032E+02  0.44077977427E+02  0.51527214882E+01  0.46830119269E+02  0.00000000000E+00 0. -1.
         22    1    3    3    0    0 -0.46420642391E+02 -0.69889004825E+02  0.32067096600E+02  0.89820085280E+02  0.00000000000E+00 0. -1.
</event>
<event>
 7    1  0.7457412E-006  0.7318495E+02  0.7818608E-02  0.1484677E+00
          2   -1    0    0  502    0  0.00000000000E+00  0.00000000000E+00  0.59824197564E+03  0.59824197564E+03  0.00000000000E+00 0. -1.
          1   -1    0    0  501    0 -0.00000000000E+00 -0.00000000000E+00 -0.22462896743E+04  0.22462896743E+04  0.00000000000E+00 0. -1.
         25    2    1    2    0    0 -0.10470591098E+02 -0.58998513282E+02 -0.86406216074E+03  0.87511077393E+03  0.12499996470E+03 0.  0.
          2    1    1    2  501    0  0.34631668640E+02  0.67817494856E+02 -0.13753704912E+04  0.13774768794E+04  0.00000000000E+00 0. -1.
          1    1    1    2  502    0 -0.24161077542E+02 -0.88189815740E+01  0.59138495333E+03  0.59194399662E+03  0.00000000000E+00 0. -1.
         22    1    3    3    0    0  0.38543642111E+01 -0.46205061566E+02 -0.94037495140E+02  0.10484662288E+03  0.00000000000E+00 0. -1.
         22    1    3    3    0    0 -0.14324955310E+02 -0.12793451715E+02 -0.77002466560E+03  0.77026415104E+03  0.00000000000E+00 0. -1.
</event>
<event>
 7    1  0.7457412E-006  0.5565452E+02  0.7818608E-02  0.1451688E+00
          2   -1    0    0  502    0  0.00000000000E+00  0.00000000000E+00  0.23852884915E+04  0.23852884915E+04  0.00000000000E+00 0. -1.
          1   -1    0    0  501    0 -0.00000000000E+00 -0.00000000000E+00 -0.65279026902E+02  0.65279026902E+02  0.00000000000E+00 0. -1.
         25    2    1    2    0    0 -0.73189589573E+02  0.26140912188E+02  0.22759369291E+03  0.27104577892E+03  0.12500744740E+03 0.  0.
          2    1    1    2  501    0  0.33862298541E+02 -0.43190192367E+02 -0.25960115450E+02  0.60712235779E+02  0.00000000000E+00 0. -1.
          1    1    1    2  502    0  0.39327291032E+02  0.17049280178E+02  0.21183758871E+04  0.21188095037E+04  0.00000000000E+00 0. -1.
         22    1    3    3    0    0  0.60164800680E+01  0.30980821127E+02  0.17022653388E+03  0.17312735817E+03  0.00000000000E+00 0.  1.
         22    1    3    3    0    0 -0.79206069641E+02 -0.48399089384E+01  0.57367159026E+02  0.97918420745E+02  0.00000000000E+00 0.  1.
</event>
<event>
 7    1  0.7457412E-006  0.1299386E+03  0.7818608E-02  0.1264621E+00
          2   -1    0    0  502    0  0.00000000000E+00  0.00000000000E+00  0.46765641987E+03  0.46765641987E+03  0.00000000000E+00 0. -1.
          1   -1    0    0  501    0 -0.00000000000E+00 -0.00000000000E+00 -0.73117340817E+03  0.73117340817E+03  0.00000000000E+00 0. -1.
         25    2    1    2    0    0  0.29025251381E+02  0.16543310581E+02 -0.23934529347E+03  0.27207947349E+03  0.12499969618E+03 0.  0.
          2    1    1    2  501    0 -0.10125049133E+03  0.91473158050E+02 -0.45590508016E+03  0.47588700629E+03  0.00000000000E+00 0. -1.
          1    1    1    2  502    0  0.72225239954E+02 -0.10801646863E+03  0.43173338534E+03  0.45086334825E+03  0.00000000000E+00 0. -1.
         22    1    3    3    0    0 -0.39685261148E+02  0.25757432668E+02 -0.15934684216E+03  0.16622208456E+03  0.00000000000E+00 0. -1.
         22    1    3    3    0    0  0.68710512529E+02 -0.92141220874E+01 -0.79998451311E+02  0.10585738893E+03  0.00000000000E+00 0. -1.
</event>
<event>
 7    1  0.7457412E-006  0.1727366E+03  0.7818608E-02  0.1213922E+00
          2   -1    0    0  502    0  0.00000000000E+00  0.00000000000E+00  0.85569365233E+03  0.85569365233E+03  0.00000000000E+00 0. -1.
          1   -1    0    0  501    0 -0.00000000000E+00 -0.00000000000E+00 -0.91431317042E+03  0.91431317042E+03  0.00000000000E+00 0. -1.
         25    2    1    2    0    0  0.22048768137E+03  0.94478480443E+02  0.54568760628E+03  0.60904913663E+03  0.12499954511E+03 0.  0.
          2    1    1    2  501    0 -0.11246167304E+03 -0.81376119244E+01 -0.86155100369E+03  0.86889814167E+03  0.00000000000E+00 0. -1.
          1    1    1    2  502    0 -0.10802600833E+03 -0.86340868519E+02  0.25724387933E+03  0.29205954445E+03  0.00000000000E+00 0. -1.
         22    1    3    3    0    0  0.74888086968E+01 -0.17259874243E+02  0.10798597915E+03  0.10961276024E+03  0.00000000000E+00 0. -1.
         22    1    3    3    0    0  0.21299887267E+03  0.11173835469E+03  0.43770162713E+03  0.49943637639E+03  0.00000000000E+00 0. -1.
</event>
<event>
 7    1  0.7457412E-006  0.5860106E+02  0.7818608E-02  0.1483777E+00
          2   -1    0    0  502    0  0.00000000000E+00  0.00000000000E+00  0.19448480850E+04  0.19448480850E+04  0.00000000000E+00 0. -1.
          1   -1    0    0  501    0 -0.00000000000E+00 -0.00000000000E+00 -0.45661767450E+03  0.45661767450E+03  0.00000000000E+00 0. -1.
         25    2    1    2    0    0 -0.10192110678E+02 -0.34029728140E+02 -0.36931495269E+03  0.39150989024E+03  0.12499823344E+03 0.  0.
          2    1    1    2  501    0  0.22382619147E+02 -0.23322168174E+02 -0.72311929206E+02  0.79208082124E+02  0.00000000000E+00 0. -1.
          1    1    1    2  502    0 -0.12190508469E+02  0.57351896314E+02  0.19298572924E+04  0.19307477871E+04  0.00000000000E+00 0. -1.
         22    1    3    3    0    0 -0.46481081037E+02 -0.66556759518E+02 -0.22639411891E+03  0.24050902313E+03  0.00000000000E+00 0. -1.
         22    1    3    3    0    0  0.36288970359E+02  0.32527031378E+02 -0.14292083378E+03  0.15100086711E+03  0.00000000000E+00 0. -1.
</event>
<event>
 7    1  0.7457412E-006  0.6792191E+02  0.7818608E-02  0.1432002E+00
          2   -1    0    0  502    0  0.00000000000E+00  0.00000000000E+00  0.10630282521E+03  0.10630282521E+03  0.00000000000E+00 0. -1.
          1   -1    0    0  501    0 -0.00000000000E+00 -0.00000000000E+00 -0.10146138767E+04  0.10146138767E+04  0.00000000000E+00 0. -1.
         25    2    1    2    0    0 -0.74265962037E+01  0.80586508176E+02 -0.49939568320E+03  0.52112360195E+03  0.12499768188E+03 0.  0.
          2    1    1    2  501    0  0.35957317717E+02 -0.19009359470E+02 -0.49134213539E+03  0.49302269568E+03  0.00000000000E+00 0. -1.
          1    1    1    2  502    0 -0.28530721513E+02 -0.61577148706E+02  0.82426767053E+02  0.10677040432E+03  0.00000000000E+00 0. -1.
         22    1    3    3    0    0  0.18926813203E+02 -0.29755968274E+02 -0.10735972086E+03  0.11300332548E+03  0.00000000000E+00 0.  1.
         22    1    3    3    0    0 -0.26353409407E+02  0.11034247645E+03 -0.39203596234E+03  0.40812027646E+03  0.00000000000E+00 0.  1.
</event>
<event>
 7    1  0.7457412E-006  0.1242575E+03  0.7818608E-02  0.1332521E+00
          2   -1    0    0  502    0  0.00000000000E+00  0.00000000000E+00  0.92428517122E+03  0.92428517122E+03  0.00000000000E+00 0. -1.
          1   -1    0    0  501    0 -0.00000000000E+00 -0.00000000000E+00 -0.48436534422E+03  0.48436534422E+03  0.00000000000E+00 0. -1.
         25    2    1    2    0    0  0.16176300406E+03 -0.49387109081E+02  0.74661942526E+03  0.77567433808E+03  0.12499502608E+03 0.  0.
          2    1    1    2  501    0 -0.12237871235E+03  0.18648807155E+02 -0.45758533402E+03  0.47403445566E+03  0.00000000000E+00 0. -1.
          1    1    1    2  502    0 -0.39384291713E+02  0.30738301926E+02  0.15088573576E+03  0.15894172169E+03  0.00000000000E+00 0. -1.
         22    1    3    3    0    0 -0.11409768580E+02 -0.29276895957E+02  0.18399275162E+03  0.18665650833E+03  0.00000000000E+00 0. -1.
         22    1    3    3    0    0  0.17317277264E+03 -0.20110213124E+02  0.56262667365E+03  0.58901782974E+03  0.00000000000E+00 0. -1.
</event>
<event>
 7    1  0.7457412E-006  0.1645885E+03  0.7818608E-02  0.1300471E+00
          2   -1    0    0  502    0  0.00000000000E+00  0.00000000000E+00  0.14988657478E+04  0.14988657478E+04  0.00000000000E+00 0. -1.
          1   -1    0    0  501    0 -0.00000000000E+00 -0.00000000000E+00 -0.55735410857E+03  0.55735410857E+03  0.00000000000E+00 0. -1.
         25    2    1    2    0    0 -0.57379187847E+02 -0.17455417138E+03  0.14621915301E+03  0.26604462370E+03  0.12505267351E+03 0.  0.
          2    1    1    2  501    0 -0.32734455650E+02  0.38194167803E+02 -0.49098491261E+03  0.49355498523E+03  0.00000000000E+00 0. -1.
          1    1    1    2  502    0  0.90113643497E+02  0.13636000358E+03  0.12862773988E+04  0.12966202474E+04  0.00000000000E+00 0. -1.
         22    1    3    3    0    0 -0.42488882063E+02 -0.39771600684E+02 -0.10140013375E+02  0.59075419517E+02  0.00000000000E+00 0.  1.
         22    1    3    3    0    0 -0.14890305784E+02 -0.13478257069E+03  0.15635916638E+03  0.20696920419E+03  0.00000000000E+00 0.  1.
</event>
<event>
 7    1  0.7457412E-006  0.4531655E+02  0.7818608E-02  0.1478300E+00
          2   -1    0    0  502    0  0.00000000000E+00  0.00000000000E+00  0.15259194957E+04  0.15259194957E+04  0.00000000000E+00 0. -1.
          1   -1    0    0  501    0 -0.00000000000E+00 -0.00000000000E+00 -0.19891964864E+02  0.19891964864E+02  0.00000000000E+00 0. -1.
         25    2    1    2    0    0 -0.13012612075E+02  0.11259259699E+02  0.11498647965E+04  0.11567675050E+04  0.12500364594E+03 0.  0.
          2    1    1    2  501    0  0.41039712118E+02  0.21939243584E+02  0.20961837105E+02  0.51039073215E+02  0.00000000000E+00 0. -1.
          1    1    1    2  502    0 -0.28027100044E+02 -0.33198503283E+02  0.33520089732E+03  0.33800488239E+03  0.00000000000E+00 0. -1.
         22    1    3    3    0    0  0.15730833943E+02  0.59563845821E+01  0.10901837645E+04  0.10903135228E+04  0.00000000000E+00 0. -1.
         22    1    3    3    0    0 -0.28743446018E+02  0.53028751166E+01  0.59681031973E+02  0.66453982204E+02  0.00000000000E+00 0. -1.
</event>
<event>
 7    1  0.7457412E-006  0.3996885E+02  0.7818608E-02  0.1544326E+00
          2   -1    0    0  502    0  0.00000000000E+00  0.00000000000E+00  0.11246624706E+03  0.11246624706E+03  0.00000000000E+00 0. -1.
          1   -1    0    0  501    0 -0.00000000000E+00 -0.00000000000E+00 -0.37629072050E+03  0.37629072050E+03  0.00000000000E+00 0. -1.
         25    2    1    2    0    0 -0.56777873785E+02  0.28995775560E+02 -0.10521577363E+03  0.17538217444E+03  0.12499626450E+03 0.  0.
          2    1    1    2  501    0  0.31488088525E+02  0.10635797983E+01 -0.22986158142E+03  0.23201072720E+03  0.00000000000E+00 0. -1.
          1    1    1    2  502    0  0.25289785259E+02 -0.30059355358E+02  0.71252881622E+02  0.81364065917E+02  0.00000000000E+00 0. -1.
         22    1    3    3    0    0  0.60241625924E+01 -0.36742957863E+02 -0.12263816040E+01  0.37253717926E+02  0.00000000000E+00 0. -1.
         22    1    3    3    0    0 -0.62802036377E+02  0.65738733423E+02 -0.10398939203E+03  0.13812845652E+03  0.00000000000E+00 0. -1.
</event>
<event>
 7    1  0.7457412E-006  0.5186696E+02  0.7818608E-02  0.1446999E+00
          2   -1    0    0  502    0  0.00000000000E+00  0.00000000000E+00  0.88075262159E+02  0.88075262159E+02  0.00000000000E+00 0. -1.
          1   -1    0    0  501    0 -0.00000000000E+00 -0.00000000000E+00 -0.52976402005E+03  0.52976402005E+03  0.00000000000E+00 0. -1.
         25    2    1    2    0    0 -0.70369007824E+02 -0.15932585306E+02 -0.24303189766E+02  0.14635916480E+03  0.12499886220E+03 0.  0.
          2    1    1    2  501    0  0.26531380213E+02  0.39534711387E+02 -0.41897071070E+03  0.42166736175E+03  0.00000000000E+00 0. -1.
          1    1    1    2  502    0  0.43837627611E+02 -0.23602126082E+02  0.15851425701E+01  0.49812755666E+02  0.00000000000E+00 0. -1.
         22    1    3    3    0    0 -0.99253055528E+02 -0.39307841892E+02 -0.22859950233E+02  0.10917349857E+03  0.00000000000E+00 0. -1.
         22    1    3    3    0    0  0.28884047704E+02  0.23375256587E+02 -0.14432395326E+01  0.37185666225E+02  0.00000000000E+00 0. -1.
</event>
<event>
 7    1  0.7457412E-006  0.4744751E+02  0.7818608E-02  0.1506248E+00
          2   -1    0    0  502    0  0.00000000000E+00  0.00000000000E+00  0.16809917081E+02  0.16809917081E+02  0.00000000000E+00 0. -1.
          1   -1    0    0  501    0 -0.00000000000E+00 -0.00000000000E+00 -0.92352609900E+03  0.92352609900E+03  0.00000000000E+00 0. -1.
         25    2    1    2    0    0 -0.18080006143E+02 -0.21448285631E+02 -0.62091403143E+03  0.63399096913E+03  0.12499359559E+03 0.  0.
          2    1    1    2  501    0  0.18255326961E+02 -0.28890810244E+02 -0.22420499323E+03  0.22679465353E+03  0.00000000000E+00 0. -1.
          1    1    1    2  502    0 -0.17532081845E+00  0.50339095875E+02 -0.61597157260E+02  0.79550393421E+02  0.00000000000E+00 0. -1.
         22    1    3    3    0    0  0.45355542465E+02  0.12333962260E+02 -0.13863371888E+03  0.14638497145E+03  0.00000000000E+00 0.  1.
         22    1    3    3    0    0 -0.63435548608E+02 -0.33782247891E+02 -0.48228031255E+03  0.48760599768E+03  0.00000000000E+00 0.  1.
</event>
<event>
 7    1  0.7457412E-006  0.4926248E+02  0.7818608E-02  0.1494374E+00
          2   -1    0    0  502    0  0.00000000000E+00  0.00000000000E+00  0.27427532558E+02  0.27427532558E+02  0.00000000000E+00 0. -1.
          1   -1    0    0  501    0 -0.00000000000E+00 -0.00000000000E+00 -0.17972013433E+04  0.17972013433E+04  0.00000000000E+00 0. -1.
         25    2    1    2    0    0 -0.28915864434E+01 -0.81618476289E+02 -0.40766564639E+03  0.43414917284E+03  0.12499715232E+03 0.  0.
          2    1    1    2  501    0 -0.25796127184E+01  0.35619516248E+02 -0.13375926427E+04  0.13380693114E+04  0.00000000000E+00 0. -1.
          1    1    1    2  502    0  0.54711991618E+01  0.45998960041E+02 -0.24515521636E+02  0.52410391586E+02  0.00000000000E+00 0. -1.
         22    1    3    3    0    0  0.33382081879E+02 -0.51929965724E+02 -0.36681121048E+03  0.37196982252E+03  0.00000000000E+00 0. -1.
         22    1    3    3    0    0 -0.36273668322E+02 -0.29688510566E+02 -0.40854435910E+02  0.62179350324E+02  0.00000000000E+00 0. -1.
</event>
<event>
 7    1  0.7457412E-006  0.6381077E+02  0.7818608E-02  0.1412010E+00
          2   -1    0    0  502    0  0.00000000000E+00  0.00000000000E+00  0.54477746722E+03  0.54477746722E+03  0.00000000000E+00 0. -1.
          1   -1    0    0  501    0 -0.00000000000E+00 -0.00000000000E+00 -0.21005158057E+04  0.21005158057E+04  0.00000000000E+00 0. -1.
         25    2    1    2    0    0  0.32936699955E+02 -0.65337614305E+02 -0.57377688356E+02  0.15579366524E+03  0.12500254782E+03 0.  0.
          2    1    1    2  501    0 -0.59781319722E+02  0.22603267896E+02 -0.19921315110E+04  0.19931564592E+04  0.00000000000E+00 0. -1.
          1    1    1    2  502    0  0.26844619767E+02  0.42734346410E+02  0.49377086087E+03  0.49634314845E+03  0.00000000000E+00 0. -1.
         22    1    3    3    0    0  0.68736625882E+02 -0.72774056367E+02 -0.17379227550E+02  0.10160130200E+03  0.00000000000E+00 0. -1.
         22    1    3    3    0    0 -0.35799925927E+02  0.74364420619E+01 -0.39998460806E+02  0.54192363242E+02  0.00000000000E+00 0. -1.
</event>
<event>
 7    1  0.7457412E-006  0.6241311E+02  0.7818608E-02  0.1424952E+00
          2   -1    0    0  502    0  0.00000000000E+00  0.00000000000E+00  0.10582466664E+03  0.10582466664E+03  0.00000000000E+00 0. -1.
          1   -1    0    0  501    0 -0.00000000000E+00 -0.00000000000E+00 -0.24991942601E+03  0.24991942601E+03  0.00000000000E+00 0. -1.
         25    2    1    2    0    0  0.78821612064E+01  0.20379013458E+02 -0.14243161833E+03  0.19075903997E+03  0.12499925110E+03 0.  0.
          2    1    1    2  501    0  0.37625493765E+02  0.27659488364E+02 -0.60508675488E+02  0.76433139978E+02  0.00000000000E+00 0. -1.
          1    1    1    2  502    0 -0.45507654972E+02 -0.48038501823E+02  0.58845534450E+02  0.88551912702E+02  0.00000000000E+00 0. -1.
         22    1    3    3    0    0  0.47588440055E+02  0.55265517342E+02 -0.94805714960E+02  0.11961212574E+03  0.00000000000E+00 0.  1.
         22    1    3    3    0    0 -0.39706278849E+02 -0.34886503883E+02 -0.47625903373E+02  0.71146914236E+02  0.00000000000E+00 0.  1.
</event>
<event>
 7    1  0.7457412E-006  0.2988299E+02  0.7818608E-02  0.1609971E+00
          2   -1    0    0  502    0  0.00000000000E+00  0.00000000000E+00  0.16960110497E+03  0.16960110497E+03  0.00000000000E+00 0. -1.
          1   -1    0    0  501    0 -0.00000000000E+00 -0.00000000000E+00 -0.53560122466E+03  0.53560122466E+03  0.00000000000E+00 0. -1.
         25    2    1    2    0    0  0.33445579600E+01 -0.53077363802E+01 -0.27786662146E+03  0.30475482969E+03  0.12500515496E+03 0.  0.
          2    1    1    2  501    0 -0.31393625540E+02  0.55287063223E+01 -0.24197708110E+03  0.24406768343E+03  0.00000000000E+00 0. -1.
          1    1    1    2  502    0  0.28049067580E+02 -0.22096994212E+00  0.15384358288E+03  0.15637981651E+03  0.00000000000E+00 0. -1.
         22    1    3    3    0    0 -0.57870180353E+02 -0.15854422406E+02 -0.17003592026E+03  0.18031232532E+03  0.00000000000E+00 0.  1.
         22    1    3    3    0    0  0.61214738313E+02  0.10546686025E+02 -0.10783070120E+03  0.12444250437E+03  0.00000000000E+00 0.  1.
</event>
<event>
 7    1  0.7457412E-006  0.2310247E+03  0.7818608E-02  0.1207257E+00
          2   -1    0    0  502    0  0.00000000000E+00  0.00000000000E+00  0.39759886726E+03  0.39759886726E+03  0.00000000000E+00 0. -1.
          1   -1    0    0  501    0 -0.00000000000E+00 -0.00000000000E+00 -0.16221872579E+04  0.16221872579E+04  0.00000000000E+00 0. -1.
         25    2    1    2    0    0  0.26708784190E+02  0.26125827694E+03 -0.11203460373E+04  0.11574829292E+04  0.12498896619E+03 0.  0.
          2    1    1    2  501    0 -0.82355285735E+02 -0.37567429787E+02 -0.44322412293E+03  0.45237299656E+03  0.00000000000E+00 0. -1.
          1    1    1    2  502    0  0.55646501545E+02 -0.22369084715E+03  0.33898176961E+03  0.40993019938E+03  0.00000000000E+00 0. -1.
         22    1    3    3    0    0  0.20973217035E+02  0.62124061697E+02 -0.11316168548E+03  0.13078548060E+03  0.00000000000E+00 0.  1.
         22    1    3    3    0    0  0.57355671550E+01  0.19913421524E+03 -0.10071843518E+04  0.10266974486E+04  0.00000000000E+00 0.  1.
</event>
<event>
 7    1  0.7457412E-006  0.1083196E+03  0.7818608E-02  0.1437789E+00
          2   -1    0    0  502    0  0.00000000000E+00  0.00000000000E+00  0.12097347312E+03  0.12097347312E+03  0.00000000000E+00 0. -1.
          1   -1    0    0  501    0 -0.00000000000E+00 -0.00000000000E+00 -0.74733759807E+03  0.74733759807E+03  0.00000000000E+00 0. -1.
         25    2    1    2    0    0 -0.12834951246E+03 -0.49087039548E+01 -0.80737908643E+02  0.19657227592E+03  0.12499742816E+03 0.  0.
          2    1    1    2  501    0  0.10577850597E+03  0.14221768116E+02 -0.60143010264E+03  0.61082691442E+03  0.00000000000E+00 0. -1.
          1    1    1    2  502    0  0.22571006493E+02 -0.93130641616E+01  0.55803886332E+02  0.60911880844E+02  0.00000000000E+00 0. -1.
         22    1    3    3    0    0  0.19706899470E+01 -0.43259673581E+02 -0.21979079253E+02  0.48562978719E+02  0.00000000000E+00 0. -1.
         22    1    3    3    0    0 -0.13032020241E+03  0.38350969626E+02 -0.58758829390E+02  0.14800929721E+03  0.00000000000E+00 0. -1.
</event>
<event>
 7    1  0.7457412E-006  0.6375260E+02  0.7818608E-02  0.1441840E+00
          2   -1    0    0  502    0  0.00000000000E+00  0.00000000000E+00  0.14260302277E+04  0.14260302277E+04  0.00000000000E+00 0. -1.
          1   -1    0    0  501    0 -0.00000000000E+00 -0.00000000000E+00 -0.12356760623E+03  0.12356760623E+03  0.00000000000E+00 0. -1.
         25    2    1    2    0    0 -0.39311137275E+02 -0.17327675010E+02 -0.12258419777E+02  0.13274326997E+03  0.12499957212E+03 0.  0.
          2    1    1    2  501    0 -0.22756439422E+02  0.33197387627E+02 -0.42261515973E+02  0.58360584411E+02  0.00000000000E+00 0. -1.
          1    1    1    2  502    0  0.62067576697E+02 -0.15869712617E+02  0.13569825573E+04  0.13584939796E+04  0.00000000000E+00 0. -1.
         22    1    3    3    0    0 -0.65028838760E+02  0.34200465667E+02 -0.15390914470E+02  0.75068648387E+02  0.00000000000E+00 0. -1.
         22    1    3    3    0    0  0.25717701486E+02 -0.51528140677E+02  0.31324946932E+01  0.57674621580E+02  0.00000000000E+00 0. -1.
</event>
<event>
 7    1  0.7457412E-006  0.9491896E+02  0.7818608E-02  0.1346271E+00
          2   -1    0    0  502    0  0.00000000000E+00  0.00000000000E+00  0.97404942447E+02  0.97404942447E+02  0.00000000000E+00 0. -1.
          1   -1    0    0  501    0 -0.00000000000E+00 -0.00000000000E+00 -0.72012187515E+03  0.72012187515E+03  0.00000000000E+00 0. -1.
         25    2    1    2    0    0 -0.30044217836E+02 -0.38806962712E+02 -0.11757369096E+03  0.17848386229E+03  0.12499712362E+03 0.  0.
          2    1    1    2  501    0  0.33349008920E+02  0.96763949714E+02 -0.55387311259E+03  0.56325024919E+03  0.00000000000E+00 0. -1.
          1    1    1    2  502    0 -0.33047910834E+01 -0.57956987002E+02  0.48729870851E+02  0.75792706111E+02  0.00000000000E+00 0. -1.
         22    1    3    3    0    0 -0.70637197043E+02 -0.47700762960E+02 -0.49040329457E+02  0.98335803786E+02  0.00000000000E+00 0. -1.
         22    1    3    3    0    0  0.40592979206E+02  0.88938002480E+01 -0.68533361504E+02  0.80148058509E+02  0.00000000000E+00 0. -1.
</event>
<event>
 7    1  0.7457412E-006  0.9298084E+02  0.7818608E-02  0.1410278E+00
          2   -1    0    0  502    0  0.00000000000E+00  0.00000000000E+00  0.18462067034E+03  0.18462067034E+03  0.00000000000E+00 0. -1.
          1   -1    0    0  501    0 -0.00000000000E+00 -0.00000000000E+00 -0.68679202673E+03  0.68679202673E+03  0.00000000000E+00 0. -1.
         25    2    1    2    0    0  0.49804284121E+02  0.45016675513E+02  0.70141810081E+02  0.15827778187E+03  0.12500005968E+03 0.  0.
          2    1    1    2  501    0 -0.48878767117E+02 -0.80109041789E+02 -0.63467289824E+03  0.64157328514E+03  0.00000000000E+00 0. -1.
          1    1    1    2  502    0 -0.92551700427E+00  0.35092366276E+02  0.62359731761E+02  0.71561630067E+02  0.00000000000E+00 0. -1.
         22    1    3    3    0    0  0.30778873629E+02  0.82087573758E+02  0.76220024241E+02  0.11616884661E+03  0.00000000000E+00 0. -1.
         22    1    3    3    0    0  0.19025410492E+02 -0.37070898245E+02 -0.60782141594E+01  0.42108935257E+02  0.00000000000E+00 0. -1.
</event>
<event>
 7    1  0.7457412E-006  0.8912041E+02  0.7818608E-02  0.1349988E+00
          2   -1    0    0  502    0  0.00000000000E+00  0.00000000000E+00  0.97926927976E+03  0.97926927976E+03  0.00000000000E+00 0. -1.
          1   -1    0    0  501    0 -0.00000000000E+00 -0.00000000000E+00 -0.71818207660E+02  0.71818207660E+02  0.00000000000E+00 0. -1.
         25    2    1    2    0    0 -0.38277564839E+02 -0.13119917805E+03  0.29333176567E+03  0.34690972350E+03  0.12499774086E+03 0.  0.
          2    1    1    2  501    0  0.37630243640E+02  0.46595399344E+02 -0.20984922331E+02  0.63462850879E+02  0.00000000000E+00 0. -1.
          1    1    1    2  502    0  0.64732119874E+00  0.84603778706E+02  0.63510422876E+03  0.64071491304E+03  0.00000000000E+00 0. -1.
         22    1    3    3    0    0 -0.80733046636E+02 -0.61230718937E+02  0.13638032488E+03  0.16990179156E+03  0.00000000000E+00 0.  1.
         22    1    3    3    0    0  0.42455481798E+02 -0.69968459113E+02  0.15695144078E+03  0.17700793194E+03  0.00000000000E+00 0.  1.
</event>
<event>
 7    1  0.7457412E-006  0.8161258E+02  0.7818608E-02  0.1472955E+00
          2   -1    0    0  502    0  0.00000000000E+00  0.00000000000E+00  0.39707705809E+03  0.39707705809E+03  0.00000000000E+00 0. -1.
          1   -1    0    0  501    0 -0.00000000000E+00 -0.00000000000E+00 -0.11284308910E+04  0.11284308910E+04  0.00000000000E+00 0. -1.
         25    2    1    2    0    0 -0.98550875317E+02 -0.22980315079E+02  0.12518158462E+03  0.20379792374E+03  0.12499117843E+03 0.  0.
          2    1    1    2  501    0  0.81302876957E+02  0.48022119431E+01 -0.10869197672E+04  0.10899668799E+04  0.00000000000E+00 0. -1.
          1    1    1    2  502    0  0.17247998360E+02  0.18178103136E+02  0.23038434966E+03  0.23174314542E+03  0.00000000000E+00 0. -1.
         22    1    3    3    0    0  0.11583275962E+02 -0.19876404485E+01  0.83282521056E+02  0.84107676879E+02  0.00000000000E+00 0.  1.
         22    1    3    3    0    0 -0.11013415128E+03 -0.20992674630E+02  0.41899063568E+02  0.11969024686E+03  0.00000000000E+00 0.  1.
</event>
<event>
 7    1  0.7457412E-006  0.3830647E+02  0.7818608E-02  0.1620628E+00
          2   -1    0    0  502    0  0.00000000000E+00  0.00000000000E+00  0.68952831358E+03  0.68952831358E+03  0.00000000000E+00 0. -1.
          1   -1    0    0  501    0 -0.00000000000E+00 -0.00000000000E+00 -0.41621352713E+02  0.41621352713E+02  0.00000000000E+00 0. -1.
         25    2    1    2    0    0  0.32516075879E+02  0.25566052563E+02  0.26252323441E+03  0.29368671511E+03  0.12499007879E+03 0.  0.
          2    1    1    2  501    0  0.54740758694E+01 -0.19805924400E+02 -0.20933189349E+02  0.29333233103E+02  0.00000000000E+00 0. -1.
          1    1    1    2  502    0 -0.37990151749E+02 -0.57601281630E+01  0.40631691581E+03  0.40812971808E+03  0.00000000000E+00 0. -1.
         22    1    3    3    0    0 -0.37989206847E+02 -0.15334512861E+02  0.14491132140E+03  0.15059089677E+03  0.00000000000E+00 0. -1.
         22    1    3    3    0    0  0.70505282727E+02  0.40900565425E+02  0.11761191301E+03  0.14309581834E+03  0.00000000000E+00 0. -1.
</event>
<event>
 7    1  0.7457412E-006  0.2084690E+03  0.7818608E-02  0.1325059E+00
          2   -1    0    0  502    0  0.00000000000E+00  0.00000000000E+00  0.32132909616E+03  0.32132909616E+03  0.00000000000E+00 0. -1.
          1   -1    0    0  501    0 -0.00000000000E+00 -0.00000000000E+00 -0.55362917171E+03  0.55362917171E+03  0.00000000000E+00 0. -1.
         25    2    1    2    0    0 -0.12817341372E+03 -0.14456798472E+03 -0.77688961194E+02  0.24288583114E+03  0.12501850298E+03 0.  0.
          2    1    1    2  501    0  0.15991235876E+03  0.14256165279E+03 -0.36287448270E+03  0.42139491872E+03  0.00000000000E+00 0. -1.
          1    1    1    2  502    0 -0.31738945043E+02  0.20063319346E+01  0.20826336835E+03  0.21067751801E+03  0.00000000000E+00 0. -1.
         22    1    3    3    0    0  0.12740134193E+02  0.12523091357E+02  0.40290778741E+00  0.17869000282E+02  0.00000000000E+00 0.  1.
         22    1    3    3    0    0 -0.14091354791E+03 -0.15709107608E+03 -0.78091868982E+02  0.22501683086E+03  0.00000000000E+00 0.  1.
</event>
<event>
 7    1  0.7457412E-006  0.7223719E+02  0.7818608E-02  0.1429507E+00
          2   -1    0    0  502    0  0.00000000000E+00  0.00000000000E+00  0.10907434946E+04  0.10907434946E+04  0.00000000000E+00 0. -1.
          1   -1    0    0  501    0 -0.00000000000E+00 -0.00000000000E+00 -0.44396250228E+03  0.44396250228E+03  0.00000000000E+00 0. -1.
         25    2    1    2    0    0 -0.77031792220E+02  0.69236389672E+02 -0.30680497921E+03  0.34710599637E+03  0.12500281110E+03 0.  0.
          2    1    1    2  501    0  0.38020569905E+02 -0.85615209823E+01 -0.11250882725E+03  0.11906762610E+03  0.00000000000E+00 0. -1.
          1    1    1    2  502    0  0.39011222315E+02 -0.60674868690E+02  0.10660947988E+04  0.10685323744E+04  0.00000000000E+00 0. -1.
         22    1    3    3    0    0 -0.67994985697E+02  0.35096010622E+01 -0.25205012651E+03  0.26108408924E+03  0.00000000000E+00 0.  1.
         22    1    3    3    0    0 -0.90368065229E+01  0.65726788610E+02 -0.54754852699E+02  0.86021907135E+02  0.00000000000E+00 0.  1.
</event>
<event>
 7    1  0.7457412E-006  0.5232611E+02  0.7818608E-02  0.1435104E+00
          2   -1    0    0  502    0  0.00000000000E+00  0.00000000000E+00  0.56288864723E+03  0.56288864723E+03  0.00000000000E+00 0. -1.
          1   -1    0    0  501    0 -0.00000000000E+00 -0.00000000000E+00 -0.75461919771E+03  0.75461919771E+03  0.00000000000E+00 0. -1.
         25    2    1    2    0    0  0.61619986959E+02  0.38179612397E+02 -0.25330574406E+01  0.14452782582E+03  0.12500868154E+03 0.  0.
          2    1    1    2  501    0 -0.11669946689E+02 -0.51022931388E+02 -0.67872650493E+03  0.68074165120E+03  0.00000000000E+00 0. -1.
          1    1    1    2  502    0 -0.49950040271E+02  0.12843318991E+02  0.48952901190E+03  0.49223836792E+03  0.00000000000E+00 0. -1.
         22    1    3    3    0    0  0.94606598548E+02  0.50782023910E+02  0.80181424116E+01  0.10767317702E+03  0.00000000000E+00 0. -1.
         22    1    3    3    0    0 -0.32986611588E+02 -0.12602411513E+02 -0.10551199852E+02  0.36854648802E+02  0.00000000000E+00 0. -1.
</event>
<event>
 7    1  0.7457412E-006  0.5640766E+02  0.7818608E-02  0.1485954E+00
          2   -1    0    0  502    0  0.00000000000E+00  0.00000000000E+00  0.65498647806E+03  0.65498647806E+03  0.00000000000E+00 0. -1.
          1   -1    0    0  501    0 -0.00000000000E+00 -0.00000000000E+00 -0.75685039033E+03  0.75685039033E+03  0.00000000000E+00 0. -1.
         25    2    1    2    0    0  0.77211649477E+02  0.39591089361E+01 -0.16317792693E+03  0.21961179012E+03  0.12499995667E+03 0.  0.
          2    1    1    2  501    0 -0.50476331445E+02 -0.23428031350E+02 -0.56364809337E+03  0.56638847609E+03  0.00000000000E+00 0. -1.
          1    1    1    2  502    0 -0.26735318032E+02  0.19468922413E+02  0.62496210802E+03  0.62583660218E+03  0.00000000000E+00 0. -1.
         22    1    3    3    0    0  0.93707437346E+02  0.38004068585E+02 -0.14710425848E+03  0.17850785950E+03  0.00000000000E+00 0. -1.
         22    1    3    3    0    0 -0.16495787868E+02 -0.34044959649E+02 -0.16073668449E+02  0.41103930619E+02  0.00000000000E+00 0. -1.
</event>
<event>
 7    1  0.7457412E-006  0.1899870E+03  0.7818608E-02  0.1182437E+00
          2   -1    0    0  502    0  0.00000000000E+00  0.00000000000E+00  0.21252989927E+03  0.21252989927E+03  0.00000000000E+00 0. -1.
          1   -1    0    0  501    0 -0.00000000000E+00 -0.00000000000E+00 -0.47426149047E+03  0.47426149047E+03  0.00000000000E+00 0. -1.
         25    2    1    2    0    0 -0.14640554159E+03  0.19098561946E+03 -0.37552706302E+02  0.27376290261E+03  0.12500332654E+03 0.  0.
          2    1    1    2  501    0  0.17798899033E+03 -0.50009125525E+02 -0.18888740528E+03  0.26430937400E+03  0.00000000000E+00 0. -1.
          1    1    1    2  502    0 -0.31583448740E+02 -0.14097649393E+03 -0.35291479625E+02  0.14871911313E+03  0.00000000000E+00 0. -1.
         22    1    3    3    0    0 -0.32618311019E+02  0.14300590762E+02 -0.52094406162E+02  0.63105374282E+02  0.00000000000E+00 0. -1.
         22    1    3    3    0    0 -0.11378723057E+03  0.17668502869E+03  0.14541699860E+02  0.21065752832E+03  0.00000000000E+00 0. -1.
</event>
<event>
 7    1  0.7457412E-006  0.1212976E+03  0.7818608E-02  0.1296953E+00
          2   -1    0    0  502    0  0.00000000000E+00  0.00000000000E+00  0.12504113660E+04  0.12504113660E+04  0.00000000000E+00 0. -1.
          1   -1    0    0  501    0 -0.00000000000E+00 -0.00000000000E+00 -0.68143436753E+03  0.68143436753E+03  0.00000000000E+00 0. -1.
         25    2    1    2    0    0  0.50182459285E+02  0.38267989221E+02  0.14693537199E+03  0.20297312510E+03  0.12500147100E+03 0.  0.
          2    1    1    2  501    0 -0.59422030887E+02 -0.10817001134E+03 -0.64641535657E+03  0.65809159113E+03  0.00000000000E+00 0. -1.
          1    1    1    2  502    0  0.92395716011E+01  0.69902022121E+02  0.10684569830E+04  0.10707810173E+04  0.00000000000E+00 0. -1.
         22    1    3    3    0    0  0.26442571409E+02 -0.32358653959E+02  0.11416975071E+03  0.12157723490E+03  0.00000000000E+00 0. -1.
         22    1    3    3    0    0  0.23739887876E+02  0.70626643181E+02  0.32765621275E+02  0.81395890196E+02  0.00000000000E+00 0. -1.
</event>
<event>
 7    1  0.7457412E-006  0.9785761E+02  0.7818608E-02  0.1429051E+00
          2   -1    0    0  502    0  0.00000000000E+00  0.00000000000E+00  0.13137373209E+04  0.13137373209E+04  0.00000000000E+00 0. -1.
          1   -1    0    0  501    0 -0.00000000000E+00 -0.00000000000E+00 -0.10558256171E+04  0.10558256171E+04  0.00000000000E+00 0. -1.
         25    2    1    2    0    0 -0.62048906248E+02  0.60613358853E+02 -0.15179401402E+03  0.21492379665E+03  0.12500707835E+03 0.  0.
          2    1    1    2  501    0  0.14390426309E+02  0.25026428576E+02 -0.87035414447E+03  0.87083278722E+03  0.00000000000E+00 0. -1.
          1    1    1    2  502    0  0.47658479939E+02 -0.85639787430E+02  0.12800598622E+04  0.12838063541E+04  0.00000000000E+00 0. -1.
         22    1    3    3    0    0 -0.48780041100E+02 -0.14655074359E+02 -0.12321296580E+03  0.13332553602E+03  0.00000000000E+00 0. -1.
         22    1    3    3    0    0 -0.13268865148E+02  0.75268433212E+02 -0.28581048221E+02  0.81598260630E+02  0.00000000000E+00 0. -1.
</event>
<event>
 7    1  0.7457412E-006  0.9280572E+02  0.7818608E-02  0.1343361E+00
          2   -1    0    0  502    0  0.00000000000E+00  0.00000000000E+00  0.47152018335E+03  0.47152018335E+03  0.00000000000E+00 0. -1.
          1   -1    0    0  501    0 -0.00000000000E+00 -0.00000000000E+00 -0.59286311594E+03  0.59286311594E+03  0.00000000000E+00 0. -1.
         25    2    1    2    0    0  0.76401281788E+01  0.12419574944E+03  0.16333983810E+03  0.24039042879E+03  0.12499879921E+03 0.  0.
          2    1    1    2  501    0 -0.43283627837E+02 -0.42808735439E+02 -0.54527876595E+03  0.54866655890E+03  0.00000000000E+00 0. -1.
          1    1    1    2  502    0  0.35643499658E+02 -0.81387013999E+02  0.26059599526E+03  0.27532631160E+03  0.00000000000E+00 0. -1.
         22    1    3    3    0    0 -0.35656426271E+02  0.34953449139E+02  0.12401412602E+03  0.13368854773E+03  0.00000000000E+00 0.  1.
         22    1    3    3    0    0  0.43296554450E+02  0.89242300299E+02  0.39325712077E+02  0.10670188105E+03  0.00000000000E+00 0.  1.
</event>
<event>
 7    1  0.7457412E-006  0.5498829E+02  0.7818608E-02  0.1471497E+00
          2   -1    0    0  502    0  0.00000000000E+00  0.00000000000E+00  0.10564337483E+04  0.10564337483E+04  0.00000000000E+00 0. -1.
          1   -1    0    0  501    0 -0.00000000000E+00 -0.00000000000E+00 -0.66353001309E+03  0.66353001309E+03  0.00000000000E+00 0. -1.
         25    2    1    2    0    0  0.82474932965E+02  0.16636205935E+02  0.63458146694E+03  0.65222497123E+03  0.12499958803E+03 0.  0.
          2    1    1    2  501    0 -0.37210915810E+02  0.52614364178E+01 -0.65263533305E+03  0.65371646217E+03  0.00000000000E+00 0. -1.
          1    1    1    2  502    0 -0.45264017155E+02 -0.21897642353E+02  0.41095760135E+03  0.41402232801E+03  0.00000000000E+00 0. -1.
         22    1    3    3    0    0  0.82835348021E+02  0.63144587025E+02  0.44209989772E+03  0.45420397765E+03  0.00000000000E+00 0. -1.
         22    1    3    3    0    0 -0.36041505575E+00 -0.46508381090E+02  0.19248156922E+03  0.19802099358E+03  0.00000000000E+00 0. -1.
</event>
<event>
 7    1  0.7457412E-006  0.7302177E+02  0.7818608E-02  0.1441838E+00
          2   -1    0    0  502    0  0.00000000000E+00  0.00000000000E+00  0.14371700957E+04  0.14371700957E+04  0.00000000000E+00 0. -1.
          1   -1    0    0  501    0 -0.00000000000E+00 -0.00000000000E+00 -0.20367461003E+03  0.20367461003E+03  0.00000000000E+00 0. -1.
         25    2    1    2    0    0  0.60807048792E+02 -0.29173958961E+02  0.92738582879E+03  0.93819984254E+03  0.12500340815E+03 0.  0.
          2    1    1    2  501    0 -0.73024006233E+02 -0.37738820239E+01 -0.19088424272E+03  0.20441022918E+03  0.00000000000E+00 0. -1.
          1    1    1    2  502    0  0.12216957440E+02  0.32947840985E+02  0.49699389964E+03  0.49823463403E+03  0.00000000000E+00 0. -1.
         22    1    3    3    0    0  0.28886763818E+02  0.47983517509E+02  0.46201218555E+03  0.46539458815E+03  0.00000000000E+00 0. -1.
         22    1    3    3    0    0  0.31920284975E+02 -0.77157476470E+02  0.46537364323E+03  0.47280525439E+03  0.00000000000E+00 0. -1.
</event>
<event>
 7    1  0.7457412E-006  0.5917431E+02  0.7818608E-02  0.1436191E+00
          2   -1    0    0  502    0  0.00000000000E+00  0.00000000000E+00  0.73283478557E+03  0.73283478557E+03  0.00000000000E+00 0. -1.
          1   -1    0    0  501    0 -0.00000000000E+00 -0.00000000000E+00 -0.29532200305E+03  0.29532200305E+03  0.00000000000E+00 0. -1.
         25    2    1    2    0    0 -0.10626176037E+02  0.16338395181E+02 -0.62431046394E+02  0.14107795702E+03  0.12500198250E+03 0.  0.
          2    1    1    2  501    0  0.39122447945E+02 -0.51468877667E+02 -0.18740512960E+03  0.19824301729E+03  0.00000000000E+00 0. -1.
          1    1    1    2  502    0 -0.28496271909E+02  0.35130482486E+02  0.68734895851E+03  0.68883581431E+03  0.00000000000E+00 0. -1.
         22    1    3    3    0    0  0.15715596991E+02 -0.49747511839E+02 -0.42237216907E+02  0.67125087822E+02  0.00000000000E+00 0.  1.
         22    1    3    3    0    0 -0.26341773028E+02  0.66085907021E+02 -0.20193829487E+02  0.73952869196E+02  0.00000000000E+00 0.  1.
</event>
<event>
 7    1  0.7457412E-006  0.4961894E+02  0.7818608E-02  0.1510241E+00
          2   -1    0    0  502    0  0.00000000000E+00  0.00000000000E+00  0.55638815099E+03  0.55638815099E+03  0.00000000000E+00 0. -1.
          1   -1    0    0  501    0 -0.00000000000E+00 -0.00000000000E+00 -0.22921589500E+04  0.22921589500E+04  0.00000000000E+00 0. -1.
         25    2    1    2    0    0  0.25133056970E+02  0.73029139070E+02  0.21760867036E+02  0.14853474321E+03  0.12499643555E+03 0.  0.
          2    1    1    2  501    0 -0.38587102786E+01 -0.49387072712E+02 -0.22279597315E+04  0.22285103854E+04  0.00000000000E+00 0. -1.
          1    1    1    2  502    0 -0.21274346691E+02 -0.23642066358E+02  0.47042806550E+03  0.47150197236E+03  0.00000000000E+00 0. -1.
         22    1    3    3    0    0  0.34953413560E+01 -0.22130335798E+02  0.43158952155E+02  0.48627814313E+02  0.00000000000E+00 0. -1.
         22    1    3    3    0    0  0.21637715614E+02  0.95159474868E+02 -0.21398085119E+02  0.99906928893E+02  0.00000000000E+00 0. -1.
</event>
<event>
 7    1  0.7457412E-006  0.1094769E+03  0.7818608E-02  0.1312272E+00
          2   -1    0    0  502    0  0.00000000000E+00  0.00000000000E+00  0.18682969630E+03  0.18682969630E+03  0.00000000000E+00 0. -1.
          1   -1    0    0  501    0 -0.00000000000E+00 -0.00000000000E+00 -0.20473613025E+04  0.20473613025E+04  0.00000000000E+00 0. -1.
         25    2    1    2    0    0 -0.26033803550E+02  0.11527830541E+03 -0.22637628939E+03  0.28432345910E+03  0.12500703327E+03 0.  0.
          2    1    1    2  501    0 -0.40626357231E+02 -0.10234182377E+03 -0.17829311382E+04  0.17863280195E+04  0.00000000000E+00 0. -1.
          1    1    1    2  502    0  0.66660160781E+02 -0.12936481641E+02  0.14877582145E+03  0.16353952012E+03  0.00000000000E+00 0. -1.
         22    1    3    3    0    0 -0.28120083240E+01  0.11492747257E+03 -0.23330183305E+03  0.26008840160E+03  0.00000000000E+00 0. -1.
         22    1    3    3    0    0 -0.23221795226E+02  0.35083284097E+00  0.69255436522E+01  0.24235057501E+02  0.00000000000E+00 0. -1.
</event>
<event>
 7    1  0.7457412E-006  0.8550002E+02  0.7818608E-02  0.1342633E+00
          2   -1    0    0  502    0  0.00000000000E+00  0.00000000000E+00  0.61872413228E+03  0.61872413228E+03  0.00000000000E+00 0. -1.
          1   -1    0    0  501    0 -0.00000000000E+00 -0.00000000000E+00 -0.27189714400E+03  0.27189714400E+03  0.00000000000E+00 0. -1.
         25    2    1    2    0    0  0.53038772103E+02  0.62221801297E+01 -0.32371014817E+01  0.13596604764E+03  0.12499784164E+03 0.  0.
          2    1    1    2  501    0  0.12175743551E+02 -0.65370923333E+02 -0.19318979766E+03  0.20431325035E+03  0.00000000000E+00 0. -1.
          1    1    1    2  502    0 -0.65214515654E+02  0.59148743203E+02  0.54325388742E+03  0.55034197829E+03  0.00000000000E+00 0. -1.
         22    1    3    3    0    0  0.20428453595E+02 -0.56010476692E+02 -0.21490486452E+02  0.63374570795E+02  0.00000000000E+00 0.  1.
         22    1    3    3    0    0  0.32610318509E+02  0.62232656822E+02  0.18253384970E+02  0.72591476850E+02  0.00000000000E+00 0.  1.
</event>
<event>
 7    1  0.7457412E-006  0.1591880E+03  0.7818608E-02  0.1295683E+00
          2   -1    0    0  502    0  0.00000000000E+00  0.00000000000E+00  0.32479552083E+03  0.32479552083E+03  0.00000000000E+00 0. -1.
          1   -1    0    0  501    0 -0.00000000000E+00 -0.00000000000E+00 -0.59545265841E+03  0.59545265841E+03  0.00000000000E+00 0. -1.
         25    2    1    2    0    0  0.14544858747E+02 -0.13550108031E+03 -0.32331392445E+03  0.37246507022E+03  0.12500495636E+03 0.  0.
          2    1    1    2  501    0 -0.49872348052E+02 -0.21636642269E+02 -0.22245073646E+03  0.22899721732E+03  0.00000000000E+00 0. -1.
          1    1    1    2  502    0  0.35327489305E+02  0.15713772258E+03  0.27510752332E+03  0.31878589170E+03  0.00000000000E+00 0. -1.
         22    1    3    3    0    0  0.57235026789E+02 -0.51696668343E+02 -0.77786889717E+02  0.10954083267E+03  0.00000000000E+00 0. -1.
         22    1    3    3    0    0 -0.42690168042E+02 -0.83804411971E+02 -0.24552703473E+03  0.26292423756E+03  0.00000000000E+00 0. -1.
</event>
<event>
 7    1  0.7457412E-006  0.7316443E+02  0.7818608E-02  0.1429143E+00
          2   -1    0    0  502    0  0.00000000000E+00  0.00000000000E+00  0.26582895060E+03  0.26582895060E+03  0.00000000000E+00 0. -1.
          1   -1    0    0  501    0 -0.00000000000E+00 -0.00000000000E+00 -0.30889740706E+03  0.30889740706E+03  0.00000000000E+00 0. -1.
         25    2    1    2    0    0 -0.17174195078E+02 -0.96259827048E+02  0.81578758338E+02  0.17843967469E+03  0.12499886564E+03 0.  0.
          2    1    1    2  501    0  0.36225948727E+02  0.62706291829E+02 -0.25253057191E+03  0.26270913221E+03  0.00000000000E+00 0. -1.
          1    1    1    2  502    0 -0.19051753649E+02  0.33553535219E+02  0.12788335711E+03  0.13357755076E+03  0.00000000000E+00 0. -1.
         22    1    3    3    0    0  0.50276293046E+02 -0.40794653681E+02  0.99720768884E+01  0.65508409605E+02  0.00000000000E+00 0.  1.
         22    1    3    3    0    0 -0.67450488125E+02 -0.55465173367E+02  0.71606681450E+02  0.11293126508E+03  0.00000000000E+00 0.  1.
</event>
<event>
 7    1  0.7457412E-006  0.5252089E+02  0.7818608E-02  0.1503060E+00
          2   -1    0    0  502    0  0.00000000000E+00  0.00000000000E+00  0.29973536860E+04  0.29973536860E+04  0.00000000000E+00 0. -1.
          1   -1    0    0  501    0 -0.00000000000E+00 -0.00000000000E+00 -0.12282597256E+02  0.12282597256E+02  0.00000000000E+00 0. -1.
         25    2    1    2    0    0  0.12415788023E+02 -0.27524005932E+02  0.11384849404E+04  0.11457245081E+04  0.12499986534E+03 0.  0.
          2    1    1    2  501    0  0.30668220566E+02 -0.74205619046E+01  0.21960527410E+02  0.38443065120E+02  0.00000000000E+00 0. -1.
          1    1    1    2  502    0 -0.43084008589E+02  0.34944567837E+02  0.18246256209E+04  0.18254687100E+04  0.00000000000E+00 0. -1.
         22    1    3    3    0    0  0.40884511466E+02  0.18735659083E+02  0.17422451996E+03  0.17993540939E+03  0.00000000000E+00 0. -1.
         22    1    3    3    0    0 -0.28468723443E+02 -0.46259665016E+02  0.96426042043E+03  0.96578909873E+03  0.00000000000E+00 0. -1.
</event>
<event>
 7    1  0.7457412E-006  0.2130925E+03  0.7818608E-02  0.1223216E+00
          2   -1    0    0  502    0  0.00000000000E+00  0.00000000000E+00  0.58585004042E+03  0.58585004042E+03  0.00000000000E+00 0. -1.
          1   -1    0    0  501    0 -0.00000000000E+00 -0.00000000000E+00 -0.78884281861E+03  0.78884281861E+03  0.00000000000E+00 0. -1.
         25    2    1    2    0    0 -0.65898948886E+02  0.18557954448E+03  0.12144239645E+03  0.26297486503E+03  0.12500034076E+03 0.  0.
          2    1    1    2  501    0 -0.11455570235E+02 -0.21535038877E+03 -0.69723023961E+03  0.72981985932E+03  0.00000000000E+00 0. -1.
          1    1    1    2  502    0  0.77354519121E+02  0.29770844298E+02  0.37279506497E+03  0.38189813467E+03  0.00000000000E+00 0. -1.
         22    1    3    3    0    0 -0.14326386951E+02 -0.35569034774E+01  0.53491331962E+02  0.55490715624E+02  0.00000000000E+00 0.  1.
         22    1    3    3    0    0 -0.51572561935E+02  0.18913644795E+03  0.67951064486E+02  0.20748414940E+03  0.00000000000E+00 0.  1.
</event>
<event>
 7    1  0.7460321E-006  0.5752573E+02  0.7818608E-02  0.1418761E+00
          2   -1    0    0  502    0  0.00000000000E+00  0.00000000000E+00  0.62476922432E+03  0.62476922432E+03  0.00000000000E+00 0. -1.
          1   -1    0    0  501    0 -0.00000000000E+00 -0.00000000000E+00 -0.11222315774E+04  0.11222315774E+04  0.00000000000E+00 0. -1.
         25    2    1    2    0    0 -0.12290029662E+02 -0.58547619857E+02 -0.40383491846E+03  0.42695114760E+03  0.12500308973E+03 0.  0.
          2    1    1    2  501    0  0.53907368375E+02  0.25521033039E+02 -0.70442512575E+03  0.70694560277E+03  0.00000000000E+00 0. -1.
          1    1    1    2  502    0 -0.41617338713E+02  0.33026586818E+02  0.61079769113E+03  0.61310405137E+03  0.00000000000E+00 0. -1.
         22    1    3    3    0    0  0.29176200047E+02 -0.30015672050E+02 -0.35278625716E+03  0.35526093855E+03  0.00000000000E+00 0.  1.
         22    1    3    3    0    0 -0.41466229709E+02 -0.28531947807E+02 -0.51048661303E+02  0.71690209044E+02  0.00000000000E+00 0.  1.
</event>
<event>
 7    1  0.7457412E-006  0.6625273E+02  0.7818608E-02  0.1400420E+00
          2   -1    0    0  502    0  0.00000000000E+00  0.00000000000E+00  0.96717234994E+03  0.96717234994E+03  0.00000000000E+00 0. -1.
          1   -1    0    0  501    0 -0.00000000000E+00 -0.00000000000E+00 -0.23548648056E+03  0.23548648056E+03  0.00000000000E+00 0. -1.
         25    2    1    2    0    0  0.44891708323E+02  0.35750057453E+02  0.19657044456E+03  0.23991326752E+03  0.12500041668E+03 0.  0.
          2    1    1    2  501    0 -0.17447602837E+01 -0.66929604369E+02 -0.20759772842E+03  0.21812710280E+03  0.00000000000E+00 0. -1.
          1    1    1    2  502    0 -0.43146948039E+02  0.31179546916E+02  0.74271315323E+03  0.74461846019E+03  0.00000000000E+00 0. -1.
         22    1    3    3    0    0 -0.21416455211E+02  0.30320770941E+02  0.54192704078E+01  0.37515092910E+02  0.00000000000E+00 0.  1.
         22    1    3    3    0    0  0.66308163534E+02  0.54292865116E+01  0.19115117416E+03  0.20239817461E+03  0.00000000000E+00 0.  1.
</event>
<event>
 7    1  0.8017069E-006  0.6444745E+02  0.7818608E-02  0.1478479E+00
          2   -1    0    0  502    0  0.00000000000E+00  0.00000000000E+00  0.15180071150E+04  0.15180071150E+04  0.00000000000E+00 0. -1.
          1   -1    0    0  501    0 -0.00000000000E+00 -0.00000000000E+00 -0.95778131290E+03  0.95778131290E+03  0.00000000000E+00 0. -1.
         25    2    1    2    0    0  0.69781792405E+02 -0.39773328616E+02 -0.46081724816E+03  0.48417807129E+03  0.12499780916E+03 0.  0.
          2    1    1    2  501    0 -0.28835119471E+02 -0.99745165462E+01 -0.48411415112E+03  0.48507470189E+03  0.00000000000E+00 0. -1.
          1    1    1    2  502    0 -0.40946672934E+02  0.49747845162E+02  0.15051572013E+04  0.15065356547E+04  0.00000000000E+00 0. -1.
         22    1    3    3    0    0 -0.19150035701E+02 -0.47853151716E+02 -0.10032953196E+03  0.11279478259E+03  0.00000000000E+00 0.  1.
         22    1    3    3    0    0  0.88931828106E+02  0.80798230998E+01 -0.36048771620E+03  0.37138328870E+03  0.00000000000E+00 0.  1.
</event>
<event>
 7    1  0.7457412E-006  0.1862214E+03  0.7818608E-02  0.1222528E+00
          2   -1    0    0  502    0  0.00000000000E+00  0.00000000000E+00  0.37779116141E+04  0.37779116141E+04  0.00000000000E+00 0. -1.
          1   -1    0    0  501    0 -0.00000000000E+00 -0.00000000000E+00 -0.20236512860E+03  0.20236512860E+03  0.00000000000E+00 0. -1.
         25    2    1    2    0    0  0.12220441923E+03  0.27883397611E+02  0.41077250520E+03  0.44729648220E+03  0.12501475119E+03 0.  0.
          2    1    1    2  501    0  0.37803499483E+02  0.87731487536E+02 -0.16859089896E+03  0.19377515241E+03  0.00000000000E+00 0. -1.
          1    1    1    2  502    0 -0.16000791871E+03 -0.11561488515E+03  0.33333648793E+04  0.33392051081E+04  0.00000000000E+00 0. -1.
         22    1    3    3    0    0  0.10025441155E+03  0.78626792786E+01  0.40465591883E+03  0.41696424475E+03  0.00000000000E+00 0.  1.
         22    1    3    3    0    0  0.21950007675E+02  0.20020718333E+02  0.61165863738E+01  0.30332237444E+02  0.00000000000E+00 0.  1.
</event>
<event>
 7    1  0.7457412E-006  0.1115654E+03  0.7818608E-02  0.1424992E+00
          2   -1    0    0  502    0  0.00000000000E+00  0.00000000000E+00  0.12036614702E+04  0.12036614702E+04  0.00000000000E+00 0. -1.
          1   -1    0    0  501    0 -0.00000000000E+00 -0.00000000000E+00 -0.16983792257E+03  0.16983792257E+03  0.00000000000E+00 0. -1.
         25    2    1    2    0    0 -0.97104779415E+02 -0.74903536309E+02  0.12548776065E+03  0.21543493448E+03  0.12500061994E+03 0.  0.
          2    1    1    2  501    0  0.72350284632E+02  0.83226959452E+02 -0.10031329747E+03  0.14907732261E+03  0.00000000000E+00 0. -1.
          1    1    1    2  502    0  0.24754494783E+02 -0.83234231428E+01  0.10086490844E+04  0.10089871357E+04  0.00000000000E+00 0. -1.
         22    1    3    3    0    0 -0.11606344046E+03 -0.91651656498E+02  0.94796200283E+02  0.17566179988E+03  0.00000000000E+00 0. -1.
         22    1    3    3    0    0  0.18958661042E+02  0.16748120189E+02  0.30691560362E+02  0.39773134600E+02  0.00000000000E+00 0. -1.
</event>
<event>
 7    1  0.7457412E-006  0.7308279E+02  0.7818608E-02  0.1453096E+00
          2   -1    0    0  502    0  0.00000000000E+00  0.00000000000E+00  0.26154844201E+03  0.26154844201E+03  0.00000000000E+00 0. -1.
          1   -1    0    0  501    0 -0.00000000000E+00 -0.00000000000E+00 -0.37264350284E+03  0.37264350284E+03  0.00000000000E+00 0. -1.
         25    2    1    2    0    0  0.21439119334E+02  0.45366913700E+02 -0.66862867812E+02  0.15037834831E+03  0.12500084740E+03 0.  0.
          2    1    1    2  501    0 -0.51922782939E+02 -0.56064364380E+02 -0.25725029668E+03  0.26835965324E+03  0.00000000000E+00 0. -1.
          1    1    1    2  502    0  0.30483663606E+02  0.10697450680E+02  0.21301810366E+03  0.21545394330E+03  0.00000000000E+00 0. -1.
         22    1    3    3    0    0  0.64236974627E+02  0.34416419647E+01 -0.54136608938E+01  0.64556498766E+02  0.00000000000E+00 0. -1.
         22    1    3    3    0    0 -0.42797855293E+02  0.41925271735E+02 -0.61449206918E+02  0.85821849541E+02  0.00000000000E+00 0. -1.
</event>
<event>
 7    1  0.7457412E-006  0.1550644E+03  0.7818608E-02  0.1288354E+00
          2   -1    0    0  502    0  0.00000000000E+00  0.00000000000E+00  0.22130475918E+04  0.22130475918E+04  0.00000000000E+00 0. -1.
          1   -1    0    0  501    0 -0.00000000000E+00 -0.00000000000E+00 -0.49786815013E+03  0.49786815013E+03  0.00000000000E+00 0. -1.
         25    2    1    2    0    0  0.12955875249E+03 -0.32515757682E+02 -0.16606856767E+02  0.18369697003E+03  0.12500417698E+03 0.  0.
          2    1    1    2  501    0 -0.15958249145E+03 -0.19155480723E+02 -0.38103782025E+03  0.41354966386E+03  0.00000000000E+00 0. -1.
          1    1    1    2  502    0  0.30023738959E+02  0.51671238404E+02  0.21128241187E+04  0.21136691081E+04  0.00000000000E+00 0. -1.
         22    1    3    3    0    0 -0.18644711520E+02  0.18023807790E+02 -0.67857009979E+01  0.26805384775E+02  0.00000000000E+00 0. -1.
         22    1    3    3    0    0  0.14820346401E+03 -0.50539565472E+02 -0.98211557694E+01  0.15689158525E+03  0.00000000000E+00 0. -1.
</event>
<event>
 7    1  0.7457412E-006  0.6557429E+02  0.7818608E-02  0.1410381E+00
          2   -1    0    0  502    0  0.00000000000E+00  0.00000000000E+00  0.18171912265E+02  0.18171912265E+02  0.00000000000E+00 0. -1.
          1   -1    0    0  501    0 -0.00000000000E+00 -0.00000000000E+00 -0.23470742324E+04  0.23470742324E+04  0.00000000000E+00 0. -1.
         25    2    1    2    0    0  0.15181827978E+02 -0.10192426340E+03 -0.53482358832E+03  0.55881814810E+03  0.12498963416E+03 0.  0.
          2    1    1    2  501    0  0.58774769733E+01  0.49388026796E+02 -0.16618587315E+04  0.16626028285E+04  0.00000000000E+00 0. -1.
          1    1    1    2  502    0 -0.21059304951E+02  0.52536236602E+02 -0.13222000026E+03  0.14382516800E+03  0.00000000000E+00 0. -1.
         22    1    3    3    0    0 -0.30375190716E+02 -0.13757910196E+02 -0.32503028748E+03  0.32673631583E+03  0.00000000000E+00 0. -1.
         22    1    3    3    0    0  0.45557018694E+02 -0.88166353202E+02 -0.20979330085E+03  0.23208183227E+03  0.00000000000E+00 0. -1.
</event>
<event>
 7    1  0.7457412E-006  0.5459010E+02  0.7818608E-02  0.1494601E+00
          2   -1    0    0  502    0  0.00000000000E+00  0.00000000000E+00  0.90934304575E+03  0.90934304575E+03  0.00000000000E+00 0. -1.
          1   -1    0    0  501    0 -0.00000000000E+00 -0.00000000000E+00 -0.29995138956E+03  0.29995138956E+03  0.00000000000E+00 0. -1.
         25    2    1    2    0    0  0.37286884277E+02 -0.17265941526E+02  0.30535346639E+03  0.33249761271E+03  0.12500199417E+03 0.  0.
          2    1    1    2  501    0 -0.53774471218E+02 -0.10365723192E+02 -0.28331677633E+03  0.28856115075E+03  0.00000000000E+00 0. -1.
          1    1    1    2  502    0  0.16487586940E+02  0.27631664718E+02  0.58735496612E+03  0.58823567186E+03  0.00000000000E+00 0. -1.
         22    1    3    3    0    0  0.44507306051E+02  0.54077587526E+01  0.30542872704E+03  0.30870188118E+03  0.00000000000E+00 0.  1.
         22    1    3    3    0    0 -0.72204217740E+01 -0.22673700279E+02 -0.75260644313E-01  0.23795731531E+02  0.00000000000E+00 0.  1.
</event>
<event>
 7    1  0.7457412E-006  0.1279835E+03  0.7818608E-02  0.1382054E+00
          2   -1    0    0  502    0  0.00000000000E+00  0.00000000000E+00  0.98974951804E+03  0.98974951804E+03  0.00000000000E+00 0. -1.
          1   -1    0    0  501    0 -0.00000000000E+00 -0.00000000000E+00 -0.43888318368E+03  0.43888318368E+03  0.00000000000E+00 0. -1.
         25    2    1    2    0    0  0.12835818202E+03 -0.64765071840E+02  0.26362887039E+03  0.32526366981E+03  0.12500374463E+03 0.  0.
          2    1    1    2  501    0 -0.12313124087E+03  0.33264582287E+02 -0.39771832294E+03  0.41766936603E+03  0.00000000000E+00 0. -1.
          1    1    1    2  502    0 -0.52269411502E+01  0.31500489553E+02  0.68495578692E+03  0.68569966588E+03  0.00000000000E+00 0. -1.
         22    1    3    3    0    0  0.10868913944E+03 -0.27488064257E+02  0.82235835210E+02  0.13903832314E+03  0.00000000000E+00 0. -1.
         22    1    3    3    0    0  0.19669042580E+02 -0.37277007583E+02  0.18139303518E+03  0.18622534667E+03  0.00000000000E+00 0. -1.
</event>
<event>
 7    1  0.7457412E-006  0.5115949E+02  0.7818608E-02  0.1479167E+00
          2   -1    0    0  502    0  0.00000000000E+00  0.00000000000E+00  0.21487921554E+04  0.21487921554E+04  0.00000000000E+00 0. -1.
          1   -1    0    0  501    0 -0.00000000000E+00 -0.00000000000E+00 -0.15827289854E+02  0.15827289854E+02  0.00000000000E+00 0. -1.
         25    2    1    2    0    0  0.34257329532E+02  0.88935880985E+01  0.16024211669E+04  0.16076785620E+04  0.12499640807E+03 0.  0.
          2    1    1    2  501    0  0.15369543177E+02  0.35025973491E+02  0.22056652754E+02  0.44153568453E+02  0.00000000000E+00 0. -1.
          1    1    1    2  502    0 -0.49626872709E+02 -0.43919561589E+02  0.50848704588E+03  0.51278731479E+03  0.00000000000E+00 0. -1.
         22    1    3    3    0    0 -0.36380982300E+02 -0.26772348424E+02  0.82631922171E+03  0.82755289298E+03  0.00000000000E+00 0.  1.
         22    1    3    3    0    0  0.70638311832E+02  0.35665936523E+02  0.77610194523E+03  0.78012566905E+03  0.00000000000E+00 0.  1.
</event>
<event>
 7    1  0.7457412E-006  0.1242665E+03  0.7818608E-02  0.1248963E+00
          2   -1    0    0  502    0  0.00000000000E+00  0.00000000000E+00  0.68650867702E+03  0.68650867702E+03  0.00000000000E+00 0. -1.
          1   -1    0    0  501    0 -0.00000000000E+00 -0.00000000000E+00 -0.13647426250E+04  0.13647426250E+04  0.00000000000E+00 0. -1.
         25    2    1    2    0    0 -0.96320363084E+01  0.19198170686E+03 -0.35625923961E+03  0.42366867309E+03  0.12499898744E+03 0.  0.
          2    1    1    2  501    0 -0.56668889644E+02 -0.10515843676E+03 -0.96650540343E+03  0.97385951488E+03  0.00000000000E+00 0. -1.
          1    1    1    2  502    0  0.66300925952E+02 -0.86823270104E+02  0.64453069503E+03  0.65372311406E+03  0.00000000000E+00 0. -1.
         22    1    3    3    0    0  0.58220895244E+00  0.58634967527E+02 -0.20272205158E+02  0.62043216279E+02  0.00000000000E+00 0. -1.
         22    1    3    3    0    0 -0.10214245261E+02  0.13334673933E+03 -0.33598703445E+03  0.36162545681E+03  0.00000000000E+00 0. -1.
</event>
<event>
 7    1  0.7457412E-006  0.1067900E+03  0.7818608E-02  0.1341689E+00
          2   -1    0    0  502    0  0.00000000000E+00  0.00000000000E+00  0.16500872339E+04  0.16500872339E+04  0.00000000000E+00 0. -1.
          1   -1    0    0  501    0 -0.00000000000E+00 -0.00000000000E+00 -0.57289476744E+03  0.57289476744E+03  0.00000000000E+00 0. -1.
         25    2    1    2    0    0 -0.78236103496E+02 -0.26534125597E+02  0.17605487116E+02  0.15086661612E+03  0.12500333984E+03 0.  0.
          2    1    1    2  501    0 -0.27749199593E+02  0.45944777347E+02 -0.50298106190E+03  0.50583682079E+03  0.00000000000E+00 0. -1.
          1    1    1    2  502    0  0.10598530309E+03 -0.19410651750E+02  0.15625680412E+04  0.15662785644E+04  0.00000000000E+00 0. -1.
         22    1    3    3    0    0 -0.93587554298E+02  0.17511901570E+02 -0.11472775757E+02  0.95900581853E+02  0.00000000000E+00 0.  1.
         22    1    3    3    0    0  0.15351450802E+02 -0.44046027166E+02  0.29078262873E+02  0.54966034263E+02  0.00000000000E+00 0.  1.
</event>
<event>
 7    1  0.7457412E-006  0.2077089E+03  0.7818608E-02  0.1287374E+00
          2   -1    0    0  502    0  0.00000000000E+00  0.00000000000E+00  0.56305897878E+03  0.56305897878E+03  0.00000000000E+00 0. -1.
          1   -1    0    0  501    0 -0.00000000000E+00 -0.00000000000E+00 -0.12854922411E+04  0.12854922411E+04  0.00000000000E+00 0. -1.
         25    2    1    2    0    0 -0.10922268302E+03 -0.19317023019E+03 -0.13675770879E+02  0.25506051407E+03  0.12499802724E+03 0.  0.
          2    1    1    2  501    0  0.13536232428E+03  0.15650757093E+03 -0.11406451390E+04  0.11592622273E+04  0.00000000000E+00 0. -1.
          1    1    1    2  502    0 -0.26139641266E+02  0.36662659251E+02  0.43188764754E+03  0.43422847849E+03  0.00000000000E+00 0. -1.
         22    1    3    3    0    0  0.18223547845E+02 -0.80593963475E+02 -0.19558602210E+02  0.84911857623E+02  0.00000000000E+00 0.  1.
         22    1    3    3    0    0 -0.12744623086E+03 -0.11257626671E+03  0.58828313313E+01  0.17014865645E+03  0.00000000000E+00 0.  1.
</event>
<event>
 7    1  0.7457412E-006  0.5229217E+02  0.7818608E-02  0.1445656E+00
          2   -1    0    0  502    0  0.00000000000E+00  0.00000000000E+00  0.11223434345E+03  0.11223434345E+03  0.00000000000E+00 0. -1.
          1   -1    0    0  501    0 -0.00000000000E+00 -0.00000000000E+00 -0.14124303621E+04  0.14124303621E+04  0.00000000000E+00 0. -1.
         25    2    1    2    0    0  0.53368632053E+02  0.15601099162E+01 -0.49054000820E+03  0.50902355633E+03  0.12499934568E+03 0.  0.
          2    1    1    2  501    0 -0.23348971089E+02  0.41591158730E+02 -0.90527230481E+03  0.90652796139E+03  0.00000000000E+00 0. -1.
          1    1    1    2  502    0 -0.30019660964E+02 -0.43151268646E+02  0.95616294317E+02  0.10911318788E+03  0.00000000000E+00 0. -1.
         22    1    3    3    0    0  0.37478060662E+01 -0.56201721095E+02 -0.26677097101E+03  0.27265258201E+03  0.00000000000E+00 0. -1.
         22    1    3    3    0    0  0.49620825987E+02  0.57761831011E+02 -0.22376903719E+03  0.23637097432E+03  0.00000000000E+00 0. -1.
</event>
<event>
 7    1  0.7457412E-006  0.1520461E+03  0.7818608E-02  0.1210728E+00
          2   -1    0    0  502    0  0.00000000000E+00  0.00000000000E+00  0.95641190593E+03  0.95641190593E+03  0.00000000000E+00 0. -1.
          1   -1    0    0  501    0 -0.00000000000E+00 -0.00000000000E+00 -0.16044111916E+03  0.16044111916E+03  0.00000000000E+00 0. -1.
         25    2    1    2    0    0  0.71167519634E+01 -0.11044713316E+03  0.38195651530E+03  0.41684939641E+03  0.12499368913E+03 0.  0.
          2    1    1    2  501    0  0.11173778475E+03 -0.71258611292E+02 -0.83869840999E+02  0.15683517607E+03  0.00000000000E+00 0. -1.
          1    1    1    2  502    0 -0.11885453671E+03  0.18170574446E+03  0.49788411246E+03  0.54316845261E+03  0.00000000000E+00 0. -1.
         22    1    3    3    0    0 -0.86948947342E+01 -0.13616029711E+03  0.32235114544E+03  0.35003641049E+03  0.00000000000E+00 0.  1.
         22    1    3    3    0    0  0.15811646698E+02  0.25713163941E+02  0.59605369868E+02  0.66812985925E+02  0.00000000000E+00 0.  1.
</event>
<event>
 7    1  0.7457412E-006  0.6771632E+02  0.7818608E-02  0.1368720E+00
          2   -1    0    0  502    0  0.00000000000E+00  0.00000000000E+00  0.35919031693E+02  0.35919031693E+02  0.00000000000E+00 0. -1.
          1   -1    0    0  501    0 -0.00000000000E+00 -0.00000000000E+00 -0.84176633702E+03  0.84176633702E+03  0.00000000000E+00 0. -1.
         25    2    1    2    0    0  0.41869850646E+02  0.24223687194E+02 -0.37734306044E+03  0.40044073101E+03  0.12500048950E+03 0.  0.
          2    1    1    2  501    0  0.21842821053E+02 -0.63691615364E+02 -0.38446503123E+03  0.39031665470E+03  0.00000000000E+00 0. -1.
          1    1    1    2  502    0 -0.63712671699E+02  0.39467928170E+02 -0.44039213661E+02  0.86927983003E+02  0.00000000000E+00 0. -1.
         22    1    3    3    0    0  0.13340119456E+02  0.52112819955E+02 -0.59935251584E+02  0.80535328728E+02  0.00000000000E+00 0.  1.
         22    1    3    3    0    0  0.28529731190E+02 -0.27889132761E+02 -0.31740780885E+03  0.31990540228E+03  0.00000000000E+00 0.  1.
</event>
<event>
 7    1  0.7457412E-006  0.8131742E+02  0.7818608E-02  0.1463712E+00
          2   -1    0    0  502    0  0.00000000000E+00  0.00000000000E+00  0.23963277242E+03  0.23963277242E+03  0.00000000000E+00 0. -1.
          1   -1    0    0  501    0 -0.00000000000E+00 -0.00000000000E+00 -0.55098271787E+03  0.55098271787E+03  0.00000000000E+00 0. -1.
         25    2    1    2    0    0 -0.10258287014E+03 -0.13838488524E+02  0.12496237630E+03  0.20483036192E+03  0.12500053065E+03 0.  0.
          2    1    1    2  501    0  0.80883954699E+02 -0.20181335456E+01 -0.50530564787E+03  0.51174220538E+03  0.00000000000E+00 0. -1.
          1    1    1    2  502    0  0.21698915440E+02  0.15856622070E+02  0.68993326126E+02  0.74042922989E+02  0.00000000000E+00 0. -1.
         22    1    3    3    0    0 -0.40756612234E+02  0.47454440183E+01 -0.20365653602E+02  0.45808083636E+02  0.00000000000E+00 0. -1.
         22    1    3    3    0    0 -0.61826257905E+02 -0.18583932543E+02  0.14532802991E+03  0.15902227829E+03  0.00000000000E+00 0. -1.
</event>
<event>
 7    1  0.7457412E-006  0.9766857E+02  0.7818608E-02  0.1316509E+00
          2   -1    0    0  502    0  0.00000000000E+00  0.00000000000E+00  0.10756872591E+04  0.10756872591E+04  0.00000000000E+00 0. -1.
          1   -1    0    0  501    0 -0.00000000000E+00 -0.00000000000E+00 -0.13603272637E+04  0.13603272637E+04  0.00000000000E+00 0. -1.
         25    2    1    2    0    0  0.77216351202E+02  0.12364200220E+03  0.15737204122E+02  0.19266771138E+03  0.12499391111E+03 0.  0.
          2    1    1    2  501    0 -0.67975751064E+02 -0.27325142320E+02 -0.12683930772E+04  0.12705071289E+04  0.00000000000E+00 0. -1.
          1    1    1    2  502    0 -0.92406001383E+01 -0.96316859882E+02  0.96801586854E+03  0.97283968255E+03  0.00000000000E+00 0. -1.
         22    1    3    3    0    0  0.15366271442E+02 -0.22281997183E+02 -0.15409305445E+02  0.31145728291E+02  0.00000000000E+00 0. -1.
         22    1    3    3    0    0  0.61850079760E+02  0.14592399938E+03  0.31146509567E+02  0.16152198309E+03  0.00000000000E+00 0. -1.
</event>
<event>
 7    1  0.7457412E-006  0.3901288E+02  0.7818608E-02  0.1598290E+00
          2   -1    0    0  502    0  0.00000000000E+00  0.00000000000E+00  0.16171621928E+03  0.16171621928E+03  0.00000000000E+00 0. -1.
          1   -1    0    0  501    0 -0.00000000000E+00 -0.00000000000E+00 -0.18163072379E+03  0.18163072379E+03  0.00000000000E+00 0. -1.
         25    2    1    2    0    0  0.17203078973E+02 -0.17180801875E+02  0.60392402669E+02  0.14093898593E+03  0.12500171829E+03 0.  0.
          2    1    1    2  501    0 -0.86389280887E+01  0.38571412195E+02 -0.13627011130E+03  0.14188702601E+03  0.00000000000E+00 0. -1.
          1    1    1    2  502    0 -0.85641508843E+01 -0.21390610320E+02  0.55963204121E+02  0.60520931138E+02  0.00000000000E+00 0. -1.
         22    1    3    3    0    0  0.70968679292E+02 -0.48273212467E+01  0.42889377853E+02  0.83062357319E+02  0.00000000000E+00 0.  1.
         22    1    3    3    0    0 -0.53765600319E+02 -0.12353480628E+02  0.17503024816E+02  0.57876628607E+02  0.00000000000E+00 0.  1.
</event>
<event>
 7    1  0.7457412E-006  0.5986748E+02  0.7818608E-02  0.1509777E+00
          2   -1    0    0  502    0  0.00000000000E+00  0.00000000000E+00  0.46967782634E+03  0.46967782634E+03  0.00000000000E+00 0. -1.
          1   -1    0    0  501    0 -0.00000000000E+00 -0.00000000000E+00 -0.14701487764E+04  0.14701487764E+04  0.00000000000E+00 0. -1.
         25    2    1    2    0    0 -0.63810353732E+02  0.39849528525E+02 -0.43806900791E+03  0.46172343683E+03  0.12499732100E+03 0.  0.
          2    1    1    2  501    0  0.37915868552E+02 -0.45208326923E+02 -0.10190166402E+04  0.10207234292E+04  0.00000000000E+00 0. -1.
          1    1    1    2  502    0  0.25894485180E+02  0.53587983978E+01  0.45661469805E+03  0.45737973671E+03  0.00000000000E+00 0. -1.
         22    1    3    3    0    0 -0.74224515096E+02  0.33368601140E+01 -0.40379349507E+03  0.41057228345E+03  0.00000000000E+00 0. -1.
         22    1    3    3    0    0  0.10414161364E+02  0.36512668411E+02 -0.34275512840E+02  0.51151153378E+02  0.00000000000E+00 0. -1.
</event>
<event>
 7    1  0.7457412E-006  0.9347258E+02  0.7818608E-02  0.1296845E+00
          2   -1    0    0  502    0  0.00000000000E+00  0.00000000000E+00  0.35307557410E+03  0.35307557410E+03  0.00000000000E+00 0. -1.
          1   -1    0    0  501    0 -0.00000000000E+00 -0.00000000000E+00 -0.53204888603E+03  0.53204888603E+03  0.00000000000E+00 0. -1.
         25    2    1    2    0    0 -0.76098222606E+02  0.66216964891E+02  0.10141149121E+03  0.18996259490E+03  0.12500348391E+03 0.  0.
          2    1    1    2  501    0  0.87848887856E+02  0.31932685003E+02 -0.47113605604E+03  0.48031896358E+03  0.00000000000E+00 0. -1.
          1    1    1    2  502    0 -0.11750665251E+02 -0.98149649894E+02  0.19075125290E+03  0.21484290166E+03  0.00000000000E+00 0. -1.
         22    1    3    3    0    0 -0.17253305178E+02 -0.36389810474E+02  0.13102983133E+02  0.42350714431E+02  0.00000000000E+00 0. -1.
         22    1    3    3    0    0 -0.58844917428E+02  0.10260677536E+03  0.88308508073E+02  0.14761188047E+03  0.00000000000E+00 0. -1.
</event>
<event>
 7    1  0.7457412E-006  0.1264379E+03  0.7818608E-02  0.1262315E+00
          2   -1    0    0  502    0  0.00000000000E+00  0.00000000000E+00  0.77329226853E+03  0.77329226853E+03  0.00000000000E+00 0. -1.
          1   -1    0    0  501    0 -0.00000000000E+00 -0.00000000000E+00 -0.16865996939E+04  0.16865996939E+04  0.00000000000E+00 0. -1.
         25    2    1    2    0    0  0.45341351541E+02  0.25456326571E+02 -0.13114392523E+03  0.18848607045E+03  0.12499762760E+03 0.  0.
          2    1    1    2  501    0  0.82624717445E+02 -0.44982066545E+02 -0.15196932831E+04  0.15226023463E+04  0.00000000000E+00 0. -1.
          1    1    1    2  502    0 -0.12796606899E+03  0.19525739974E+02  0.73752978294E+03  0.74880354570E+03  0.00000000000E+00 0. -1.
         22    1    3    3    0    0  0.64089879687E+02 -0.33161402827E+02 -0.55904269637E+02  0.91282411665E+02  0.00000000000E+00 0. -1.
         22    1    3    3    0    0 -0.18748528146E+02  0.58617729398E+02 -0.75239655594E+02  0.97203658786E+02  0.00000000000E+00 0. -1.
</event>
<event>
 7    1  0.7457412E-006  0.3834512E+02  0.7818608E-02  0.1532745E+00
          2   -1    0    0  502    0  0.00000000000E+00  0.00000000000E+00  0.11797603579E+02  0.11797603579E+02  0.00000000000E+00 0. -1.
          1   -1    0    0  501    0 -0.00000000000E+00 -0.00000000000E+00 -0.24703524531E+04  0.24703524531E+04  0.00000000000E+00 0. -1.
         25    2    1    2    0    0  0.15071144496E+02 -0.21723549174E+02 -0.18259476758E+04  0.18304126371E+04  0.12500582155E+03 0.  0.
          2    1    1    2  501    0 -0.45921116449E+02  0.43273394680E+01 -0.60519862319E+03  0.60695374479E+03  0.00000000000E+00 0. -1.
          1    1    1    2  502    0  0.30849971953E+02  0.17396209706E+02 -0.27408550501E+02  0.44783674729E+02  0.00000000000E+00 0. -1.
         22    1    3    3    0    0 -0.21385898403E+00  0.17496350410E+02 -0.36575908480E+02  0.40545839422E+02  0.00000000000E+00 0.  1.
         22    1    3    3    0    0  0.15285003480E+02 -0.39219899584E+02 -0.17893717673E+04  0.17898667977E+04  0.00000000000E+00 0.  1.
</event>
<event>
 7    1  0.7457412E-006  0.2364126E+03  0.7818608E-02  0.1260475E+00
          2   -1    0    0  502    0  0.00000000000E+00  0.00000000000E+00  0.34251943832E+04  0.34251943832E+04  0.00000000000E+00 0. -1.
          1   -1    0    0  501    0 -0.00000000000E+00 -0.00000000000E+00 -0.81157974909E+03  0.81157974909E+03  0.00000000000E+00 0. -1.
         25    2    1    2    0    0 -0.10002283380E+03 -0.19093401773E+03 -0.22450716554E+03  0.33539381960E+03  0.12500072175E+03 0.  0.
          2    1    1    2  501    0 -0.50568799425E+02  0.82000138262E+01 -0.52622406278E+03  0.52871183829E+03  0.00000000000E+00 0. -1.
          1    1    1    2  502    0  0.15059163322E+03  0.18273400391E+03  0.33643458624E+04  0.33726684744E+04  0.00000000000E+00 0. -1.
         22    1    3    3    0    0 -0.12670596985E+03 -0.12746466407E+03 -0.15173127583E+03  0.23521059382E+03  0.00000000000E+00 0. -1.
         22    1    3    3    0    0  0.26683136050E+02 -0.63469353658E+02 -0.72775889713E+02  0.10018322578E+03  0.00000000000E+00 0. -1.
</event>
<event>
 7    1  0.7457412E-006  0.9958073E+02  0.7818608E-02  0.1361220E+00
          2   -1    0    0  502    0  0.00000000000E+00  0.00000000000E+00  0.12903895260E+04  0.12903895260E+04  0.00000000000E+00 0. -1.
          1   -1    0    0  501    0 -0.00000000000E+00 -0.00000000000E+00 -0.32540169713E+04  0.32540169713E+04  0.00000000000E+00 0. -1.
         25    2    1    2    0    0  0.11942524063E+03 -0.81258144635E+02 -0.86497480337E+02  0.20969408264E+03  0.12499808007E+03 0.  0.
          2    1    1    2  501    0 -0.72763321308E+02  0.67168181748E+02 -0.31046480783E+04  0.31062269324E+04  0.00000000000E+00 0. -1.
          1    1    1    2  502    0 -0.46661919319E+02  0.14089962886E+02  0.12275181133E+04  0.12284854823E+04  0.00000000000E+00 0. -1.
         22    1    3    3    0    0  0.70528764600E+02 -0.11114724164E+03 -0.45683096104E+02  0.13933758011E+03  0.00000000000E+00 0.  1.
         22    1    3    3    0    0  0.48896476028E+02  0.29889097008E+02 -0.40814384233E+02  0.70356502529E+02  0.00000000000E+00 0.  1.
</event>
<event>
 7    1  0.7457412E-006  0.4222623E+02  0.7818608E-02  0.1607677E+00
          2   -1    0    0  502    0  0.00000000000E+00  0.00000000000E+00  0.25101958077E+04  0.25101958077E+04  0.00000000000E+00 0. -1.
          1   -1    0    0  501    0 -0.00000000000E+00 -0.00000000000E+00 -0.49705941687E+02  0.49705941687E+02  0.00000000000E+00 0. -1.
         25    2    1    2    0    0  0.46513822895E+02  0.14755260256E+02  0.17857446237E+04  0.17907790723E+04  0.12499828528E+03 0.  0.
          2    1    1    2  501    0 -0.15532484998E+02  0.12794092954E+02 -0.44418861749E+02  0.48764558686E+02  0.00000000000E+00 0. -1.
          1    1    1    2  502    0 -0.30981337897E+02 -0.27549353210E+02  0.71916410409E+03  0.72035811842E+03  0.00000000000E+00 0. -1.
         22    1    3    3    0    0 -0.34299472917E+02  0.36208267477E+02  0.75787407439E+03  0.75951340021E+03  0.00000000000E+00 0. -1.
         22    1    3    3    0    0  0.80813295812E+02 -0.21453007221E+02  0.10278705493E+04  0.10312656721E+04  0.00000000000E+00 0. -1.
</event>
<event>
 7    1  0.7457412E-006  0.5509125E+02  0.7818608E-02  0.1489044E+00
          2   -1    0    0  502    0  0.00000000000E+00  0.00000000000E+00  0.10208928194E+04  0.10208928194E+04  0.00000000000E+00 0. -1.
          1   -1    0    0  501    0 -0.00000000000E+00 -0.00000000000E+00 -0.63265091170E+02  0.63265091170E+02  0.00000000000E+00 0. -1.
         25    2    1    2    0    0  0.39108652414E+02 -0.49543318751E+02  0.53184207970E+03  0.54996568003E+03  0.12498889686E+03 0.  0.
          2    1    1    2  501    0 -0.63806079060E+01  0.54749506768E+02 -0.39446752012E+02  0.67781021628E+02  0.00000000000E+00 0. -1.
          1    1    1    2  502    0 -0.32728044508E+02 -0.52061880173E+01  0.46523240054E+03  0.46641120892E+03  0.00000000000E+00 0. -1.
         22    1    3    3    0    0 -0.29225818558E+02  0.53168410420E+01  0.37121745889E+02  0.47544098339E+02  0.00000000000E+00 0.  1.
         22    1    3    3    0    0  0.68334470972E+02 -0.54860159793E+02  0.49472033382E+03  0.50242158169E+03  0.00000000000E+00 0.  1.
</event>
<event>
 7    1  0.7457412E-006  0.4097955E+02  0.7818608E-02  0.1516620E+00
          2   -1    0    0  502    0  0.00000000000E+00  0.00000000000E+00  0.21204828375E+04  0.21204828375E+04  0.00000000000E+00 0. -1.
          1   -1    0    0  501    0 -0.00000000000E+00 -0.00000000000E+00 -0.15730504374E+03  0.15730504374E+03  0.00000000000E+00 0. -1.
         25    2    1    2    0    0  0.56171665763E+02 -0.43677523356E+02 -0.19804297910E+02  0.14519046033E+03  0.12500030990E+03 0.  0.
          2    1    1    2  501    0 -0.16700655736E+02  0.32890703402E+02 -0.70044012237E+02  0.79163589627E+02  0.00000000000E+00 0. -1.
          1    1    1    2  502    0 -0.39471010027E+02  0.10786819954E+02  0.20530261039E+04  0.20534338313E+04  0.00000000000E+00 0. -1.
         22    1    3    3    0    0 -0.87798450626E+01  0.22610273473E+01  0.42929367011E+02  0.43876286032E+02  0.00000000000E+00 0. -1.
         22    1    3    3    0    0  0.64951510825E+02 -0.45938550704E+02 -0.62733664921E+02  0.10131417430E+03  0.00000000000E+00 0. -1.
</event>
<event>
 7    1  0.7457412E-006  0.4354270E+02  0.7818608E-02  0.1495994E+00
          2   -1    0    0  502    0  0.00000000000E+00  0.00000000000E+00  0.19041945510E+04  0.19041945510E+04  0.00000000000E+00 0. -1.
          1   -1    0    0  501    0 -0.00000000000E+00 -0.00000000000E+00 -0.11650927278E+02  0.11650927278E+02  0.00000000000E+00 0. -1.
         25    2    1    2    0    0 -0.49822147095E+02  0.34520381728E+02  0.94585877015E+03  0.95600656083E+03  0.12500331267E+03 0.  0.
          2    1    1    2  501    0  0.42992343413E+02  0.48454378644E+01  0.70317731805E+02  0.82561512016E+02  0.00000000000E+00 0. -1.
          1    1    1    2  502    0  0.68298036817E+01 -0.39365819592E+02  0.87636712172E+03  0.87727740539E+03  0.00000000000E+00 0. -1.
         22    1    3    3    0    0  0.39828796388E+01 -0.12805610880E+02  0.84238719082E+01  0.15836938408E+02  0.00000000000E+00 0.  1.
         22    1    3    3    0    0 -0.53805026734E+02  0.47325992608E+02  0.93743489824E+03  0.94016962242E+03  0.00000000000E+00 0.  1.
</event>
<event>
 7    1  0.7457412E-006  0.4619016E+02  0.7818608E-02  0.1483521E+00
          2   -1    0    0  502    0  0.00000000000E+00  0.00000000000E+00  0.19887815970E+03  0.19887815970E+03  0.00000000000E+00 0. -1.
          1   -1    0    0  501    0 -0.00000000000E+00 -0.00000000000E+00 -0.16677059410E+04  0.16677059410E+04  0.00000000000E+00 0. -1.
         25    2    1    2    0    0 -0.65684276326E+02 -0.21162026619E+02 -0.82059706397E+03  0.83292685705E+03  0.12500140909E+03 0.  0.
          2    1    1    2  501    0  0.27295739060E+02  0.35798474335E+02 -0.83814338444E+03  0.83935148836E+03  0.00000000000E+00 0. -1.
          1    1    1    2  502    0  0.38388537266E+02 -0.14636447716E+02  0.18991266713E+03  0.19430575527E+03  0.00000000000E+00 0. -1.
         22    1    3    3    0    0  0.35309601903E+02 -0.19173907080E+02 -0.18133222514E+03  0.18573040293E+03  0.00000000000E+00 0. -1.
         22    1    3    3    0    0 -0.10099387823E+03 -0.19881195392E+01 -0.63926483883E+03  0.64719645412E+03  0.00000000000E+00 0. -1.
</event>
<event>
 7    1  0.7457412E-006  0.6007764E+02  0.7818608E-02  0.1428174E+00
          2   -1    0    0  502    0  0.00000000000E+00  0.00000000000E+00  0.17151369519E+03  0.17151369519E+03  0.00000000000E+00 0. -1.
          1   -1    0    0  501    0 -0.00000000000E+00 -0.00000000000E+00 -0.25638074570E+03  0.25638074570E+03  0.00000000000E+00 0. -1.
         25    2    1    2    0    0 -0.61372467457E+01  0.53490308565E+02  0.14040475036E+02  0.13682436299E+03  0.12499956984E+03 0.  0.
          2    1    1    2  501    0 -0.44865001930E+02 -0.15097489392E+02 -0.18099432195E+03  0.18708219360E+03  0.00000000000E+00 0. -1.
          1    1    1    2  502    0  0.51002248676E+02 -0.38392819173E+02  0.82086796408E+02  0.10398788429E+03  0.00000000000E+00 0. -1.
         22    1    3    3    0    0 -0.53932632873E+02  0.61724190959E+02 -0.10209062986E+02  0.82600421338E+02  0.00000000000E+00 0. -1.
         22    1    3    3    0    0  0.47795386127E+02 -0.82338823942E+01  0.24249538023E+02  0.54223941655E+02  0.00000000000E+00 0. -1.
</event>
<event>
 7    1  0.7457412E-006  0.6280681E+02  0.7818608E-02  0.1483880E+00
          2   -1    0    0  502    0  0.00000000000E+00  0.00000000000E+00  0.45614956803E+02  0.45614956803E+02  0.00000000000E+00 0. -1.
          1   -1    0    0  501    0 -0.00000000000E+00 -0.00000000000E+00 -0.26352848449E+04  0.26352848449E+04  0.00000000000E+00 0. -1.
         25    2    1    2    0    0 -0.32788199771E+02  0.16419036547E+02 -0.89574291849E+03  0.90516566926E+03  0.12499944790E+03 0.  0.
          2    1    1    2  501    0 -0.13856985998E+02  0.26764136199E+02 -0.17099216868E+04  0.17101872734E+04  0.00000000000E+00 0. -1.
          1    1    1    2  502    0  0.46645185770E+02 -0.43183172746E+02  0.15994717137E+02  0.65546859118E+02  0.00000000000E+00 0. -1.
         22    1    3    3    0    0 -0.34377260933E+02 -0.42397829229E+02 -0.21265708207E+03  0.21955046470E+03  0.00000000000E+00 0. -1.
         22    1    3    3    0    0  0.15890611619E+01  0.58816865776E+02 -0.68308583642E+03  0.68561520456E+03  0.00000000000E+00 0. -1.
</event>
<event>
 7    1  0.7457412E-006  0.1087887E+03  0.7818608E-02  0.1311745E+00
          2   -1    0    0  502    0  0.00000000000E+00  0.00000000000E+00  0.38349715262E+03  0.38349715262E+03  0.00000000000E+00 0. -1.
          1   -1    0    0  501    0 -0.00000000000E+00 -0.00000000000E+00 -0.11588307451E+04  0.11588307451E+04  0.00000000000E+00 0. -1.
         25    2    1    2    0    0  0.45503415724E+02  0.93658947516E+02 -0.48723291770E+02  0.16982911171E+03  0.12500163491E+03 0.  0.
          2    1    1    2  501    0 -0.66967203240E+02  0.15153589617E+02 -0.10388653439E+04  0.10411318074E+04  0.00000000000E+00 0. -1.
          1    1    1    2  502    0  0.21463787516E+02 -0.10881253713E+03  0.31225504328E+03  0.33136697854E+03  0.00000000000E+00 0. -1.
         22    1    3    3    0    0  0.25867458907E+02 -0.18084726159E+02 -0.46687343139E+02  0.56355042010E+02  0.00000000000E+00 0.  1.
         22    1    3    3    0    0  0.19635956817E+02  0.11174367368E+03 -0.20359486309E+01  0.11347406970E+03  0.00000000000E+00 0.  1.
</event>
<event>
 7    1  0.7457412E-006  0.2911443E+02  0.7818608E-02  0.1662467E+00
          2   -1    0    0  502    0  0.00000000000E+00  0.00000000000E+00  0.35282082569E+03  0.35282082569E+03  0.00000000000E+00 0. -1.
          1   -1    0    0  501    0 -0.00000000000E+00 -0.00000000000E+00 -0.18700711439E+03  0.18700711439E+03  0.00000000000E+00 0. -1.
         25    2    1    2    0    0 -0.15527800096E+02  0.28456545566E+01 -0.10896951575E+02  0.12646291985E+03  0.12499966487E+03 0.  0.
          2    1    1    2  501    0 -0.85991079732E+01 -0.19479128224E+02 -0.11663326315E+03  0.11856095128E+03  0.00000000000E+00 0. -1.
          1    1    1    2  502    0  0.24126908069E+02  0.16633473667E+02  0.29334392602E+03  0.29480406896E+03  0.00000000000E+00 0. -1.
         22    1    3    3    0    0 -0.22082372674E+02  0.60208554028E+02  0.10312765421E+02  0.64954247680E+02  0.00000000000E+00 0.  1.
         22    1    3    3    0    0  0.65545725787E+01 -0.57362899471E+02 -0.21209716996E+02  0.61508672173E+02  0.00000000000E+00 0.  1.
</event>
<event>
 7    1  0.1183921E-005  0.6281043E+02  0.7818608E-02  0.1401015E+00
          2   -1    0    0  502    0  0.00000000000E+00  0.00000000000E+00  0.24675571224E+04  0.24675571224E+04  0.00000000000E+00 0. -1.
          1   -1    0    0  501    0 -0.00000000000E+00 -0.00000000000E+00 -0.21843742551E+04  0.21843742551E+04  0.00000000000E+00 0. -1.
         25    2    1    2    0    0 -0.70233346346E+02 -0.49313672766E+02 -0.40959594256E+03  0.43675781760E+03  0.12499597515E+03 0.  0.
          2    1    1    2  501    0  0.77161482908E+01  0.55352362727E+02 -0.17603519497E+04  0.17612388849E+04  0.00000000000E+00 0. -1.
          1    1    1    2  502    0  0.62517198056E+02 -0.60386899610E+01  0.24531307596E+04  0.24539346751E+04  0.00000000000E+00 0. -1.
         22    1    3    3    0    0 -0.17885405523E+02  0.36396352893E+02 -0.55777486828E+02  0.68961657981E+02  0.00000000000E+00 0. -1.
         22    1    3    3    0    0 -0.52347940824E+02 -0.85710025659E+02 -0.35381845574E+03  0.36779615961E+03  0.00000000000E+00 0. -1.
</event>
<event>
 7    1  0.7457412E-006  0.5812920E+03  0.7818608E-02  0.1233487E+00
          2   -1    0    0  502    0  0.00000000000E+00  0.00000000000E+00  0.29149815037E+03  0.29149815037E+03  0.00000000000E+00 0. -1.
          1   -1    0    0  501    0 -0.00000000000E+00 -0.00000000000E+00 -0.33178652811E+04  0.33178652811E+04  0.00000000000E+00 0. -1.
         25    2    1    2    0    0  0.27051644311E+03 -0.50476018253E+03 -0.91000655170E+03  0.10824507434E+04  0.12500279950E+03 0.  0.
          2    1    1    2  501    0 -0.16098290786E+02 -0.22072447928E+02 -0.19044848502E+04  0.19046807850E+04  0.00000000000E+00 0. -1.
          1    1    1    2  502    0 -0.25441815232E+03  0.52683263046E+03 -0.21187572877E+03  0.62223190306E+03  0.00000000000E+00 0. -1.
         22    1    3    3    0    0  0.76797690425E+02 -0.11980134710E+03 -0.33418486470E+03  0.36322138128E+03  0.00000000000E+00 0. -1.
         22    1    3    3    0    0  0.19371875268E+03 -0.38495883543E+03 -0.57582168699E+03  0.71922936211E+03  0.00000000000E+00 0. -1.
</event>
<event>
 7    1  0.7457412E-006  0.3633404E+02  0.7818608E-02  0.1546704E+00
          2   -1    0    0  502    0  0.00000000000E+00  0.00000000000E+00  0.17131714463E+04  0.17131714463E+04  0.00000000000E+00 0. -1.
          1   -1    0    0  501    0 -0.00000000000E+00 -0.00000000000E+00 -0.47940538610E+02  0.47940538610E+02  0.00000000000E+00 0. -1.
         25    2    1    2    0    0 -0.39681618057E+01  0.71954269484E+01  0.30858113437E+03  0.33303797572E+03  0.12499782520E+03 0.  0.
          2    1    1    2  501    0 -0.19943667475E+02 -0.31547997504E+02 -0.25691857781E+02  0.45311119773E+02  0.00000000000E+00 0. -1.
          1    1    1    2  502    0  0.23911829281E+02  0.24352570555E+02  0.13823416311E+04  0.13827628894E+04  0.00000000000E+00 0. -1.
         22    1    3    3    0    0 -0.31720397383E+02  0.57210629318E+02  0.19821208862E+03  0.20872774562E+03  0.00000000000E+00 0.  1.
         22    1    3    3    0    0  0.27752235577E+02 -0.50015202370E+02  0.11036904576E+03  0.12431023010E+03  0.00000000000E+00 0.  1.
</event>
<event>
 7    1  0.7457412E-006  0.1196515E+03  0.7818608E-02  0.1278010E+00
          2   -1    0    0  502    0  0.00000000000E+00  0.00000000000E+00  0.72360247093E+03  0.72360247093E+03  0.00000000000E+00 0. -1.
          1   -1    0    0  501    0 -0.00000000000E+00 -0.00000000000E+00 -0.26537837724E+04  0.26537837724E+04  0.00000000000E+00 0. -1.
         25    2    1    2    0    0 -0.91389178955E+02  0.13610845760E+03 -0.86794905856E+01  0.20634184099E+03  0.12499651006E+03 0.  0.
          2    1    1    2  501    0  0.10731573360E+03 -0.52190037700E+02 -0.25419473240E+04  0.25447468764E+04  0.00000000000E+00 0. -1.
          1    1    1    2  502    0 -0.15926554646E+02 -0.83918419898E+02  0.62044551310E+03  0.62629752599E+03  0.00000000000E+00 0. -1.
         22    1    3    3    0    0 -0.39147636960E+02 -0.10119427003E+02  0.24881696096E+02  0.47476721486E+02  0.00000000000E+00 0. -1.
         22    1    3    3    0    0 -0.52241541995E+02  0.14622788460E+03 -0.33561186682E+02  0.15886511951E+03  0.00000000000E+00 0. -1.
</event>
<event>
 7    1  0.7457412E-006  0.9692360E+02  0.7818608E-02  0.1399991E+00
          2   -1    0    0  502    0  0.00000000000E+00  0.00000000000E+00  0.24641016971E+04  0.24641016971E+04  0.00000000000E+00 0. -1.
          1   -1    0    0  501    0 -0.00000000000E+00 -0.00000000000E+00 -0.68757841581E+03  0.68757841581E+03  0.00000000000E+00 0. -1.
         25    2    1    2    0    0 -0.93763012338E+02  0.90217094719E+01 -0.50722063164E+03  0.53082073113E+03  0.12499994285E+03 0.  0.
          2    1    1    2  501    0  0.77442151766E+01  0.35681452821E+02 -0.16561033229E+03  0.16958750280E+03  0.00000000000E+00 0. -1.
          1    1    1    2  502    0  0.86018797162E+02 -0.44703162293E+02  0.24493542452E+04  0.24512718790E+04  0.00000000000E+00 0. -1.
         22    1    3    3    0    0 -0.18090131411E+02  0.25974109438E+01 -0.33639446967E+00  0.18278746109E+02  0.00000000000E+00 0.  1.
         22    1    3    3    0    0 -0.75672880927E+02  0.64242985281E+01 -0.50688423717E+03  0.51254198502E+03  0.00000000000E+00 0.  1.
</event>
<event>
 7    1  0.7457412E-006  0.1123667E+03  0.7818608E-02  0.1309822E+00
          2   -1    0    0  502    0  0.00000000000E+00  0.00000000000E+00  0.31674204090E+03  0.31674204090E+03  0.00000000000E+00 0. -1.
          1   -1    0    0  501    0 -0.00000000000E+00 -0.00000000000E+00 -0.30302810889E+03  0.30302810889E+03  0.00000000000E+00 0. -1.
         25    2    1    2    0    0  0.23560530687E+02 -0.44363841343E+02 -0.13247306128E+03  0.18893686015E+03  0.12499910454E+03 0.  0.
          2    1    1    2  501    0  0.44304670432E+02 -0.51113945663E+02 -0.12126404269E+03  0.13885426646E+03  0.00000000000E+00 0. -1.
          1    1    1    2  502    0 -0.67865201120E+02  0.95477787006E+02  0.26745103598E+03  0.29197902319E+03  0.00000000000E+00 0. -1.
         22    1    3    3    0    0  0.17869977189E+02  0.13982827664E+02  0.17017237432E+02  0.28362685416E+02  0.00000000000E+00 0. -1.
         22    1    3    3    0    0  0.56905534981E+01 -0.58346669006E+02 -0.14949029871E+03  0.16057417474E+03  0.00000000000E+00 0. -1.
</event>
<event>
 7    1  0.7457412E-006  0.1480517E+03  0.7818608E-02  0.1407403E+00
          2   -1    0    0  502    0  0.00000000000E+00  0.00000000000E+00  0.12571664625E+04  0.12571664625E+04  0.00000000000E+00 0. -1.
          1   -1    0    0  501    0 -0.00000000000E+00 -0.00000000000E+00 -0.38010385304E+03  0.38010385304E+03  0.00000000000E+00 0. -1.
         25    2    1    2    0    0 -0.12622337621E+03 -0.20599830807E+01  0.62053340574E+03  0.64546367355E+03  0.12500024797E+03 0.  0.
          2    1    1    2  501    0  0.14856685872E+03 -0.96816675728E+00 -0.35241152974E+03  0.38244860458E+03  0.00000000000E+00 0. -1.
          1    1    1    2  502    0 -0.22343482506E+02  0.30281498380E+01  0.60894073344E+03  0.60935803740E+03  0.00000000000E+00 0. -1.
         22    1    3    3    0    0 -0.85554800838E+02  0.57855341527E+02  0.41067663767E+03  0.42346447928E+03  0.00000000000E+00 0. -1.
         22    1    3    3    0    0 -0.40668575375E+02 -0.59915324608E+02  0.20985676808E+03  0.22199919426E+03  0.00000000000E+00 0. -1.
</event>
<event>
 7    1  0.7457412E-006  0.5266579E+02  0.7818608E-02  0.1443072E+00
          2   -1    0    0  502    0  0.00000000000E+00  0.00000000000E+00  0.66491905786E+03  0.66491905786E+03  0.00000000000E+00 0. -1.
          1   -1    0    0  501    0 -0.00000000000E+00 -0.00000000000E+00 -0.48061244553E+03  0.48061244553E+03  0.00000000000E+00 0. -1.
         25    2    1    2    0    0  0.83853686146E+02 -0.54577248271E+02 -0.36938363367E+03  0.40259192951E+03  0.12500350466E+03 0.  0.
          2    1    1    2  501    0 -0.36758520993E+02  0.31295191443E+02 -0.87321880940E+02  0.99778197839E+02  0.00000000000E+00 0. -1.
          1    1    1    2  502    0 -0.47095165154E+02  0.23282056828E+02  0.64101212694E+03  0.64316137604E+03  0.00000000000E+00 0. -1.
         22    1    3    3    0    0  0.55689478766E+02 -0.49854336159E+02 -0.71808250699E+02  0.10364939820E+03  0.00000000000E+00 0.  1.
         22    1    3    3    0    0  0.28164207380E+02 -0.47229121115E+01 -0.29757538297E+03  0.29894253131E+03  0.00000000000E+00 0.  1.
</event>
<event>
 7    1  0.8614419E-006  0.6243449E+02  0.7818608E-02  0.1455265E+00
          2   -1    0    0  502    0  0.00000000000E+00  0.00000000000E+00  0.12908519465E+04  0.12908519465E+04  0.00000000000E+00 0. -1.
          1   -1    0    0  501    0 -0.00000000000E+00 -0.00000000000E+00 -0.12274736167E+04  0.12274736167E+04  0.00000000000E+00 0. -1.
         25    2    1    2    0    0  0.53277320864E+02 -0.74878325538E+02 -0.13777949211E+03  0.20749333496E+03  0.12500023622E+03 0.  0.
          2    1    1    2  501    0 -0.19861155965E+02  0.58486325487E+02 -0.10536568274E+04  0.10554656914E+04  0.00000000000E+00 0. -1.
          1    1    1    2  502    0 -0.33416164899E+02  0.16392000051E+02  0.12548146493E+04  0.12553665368E+04  0.00000000000E+00 0. -1.
         22    1    3    3    0    0  0.11759103693E+02  0.31185445319E+02 -0.69791940659E+01  0.34051691136E+02  0.00000000000E+00 0.  1.
         22    1    3    3    0    0  0.41518217171E+02 -0.10606377086E+03 -0.13080029804E+03  0.17344164382E+03  0.00000000000E+00 0.  1.
</event>
<event>
 7    1  0.7457412E-006  0.2263224E+03  0.7818608E-02  0.1207916E+00
          2   -1    0    0  502    0  0.00000000000E+00  0.00000000000E+00  0.13001363937E+04  0.13001363937E+04  0.00000000000E+00 0. -1.
          1   -1    0    0  501    0 -0.00000000000E+00 -0.00000000000E+00 -0.11003715775E+04  0.11003715775E+04  0.00000000000E+00 0. -1.
         25    2    1    2    0    0 -0.16749871634E+01 -0.14633662322E+03  0.29023563017E+01  0.19248365258E+03  0.12499727982E+03 0.  0.
          2    1    1    2  501    0  0.10904112145E+02  0.23762010127E+03 -0.98971815748E+03  0.10179018830E+04  0.00000000000E+00 0. -1.
          1    1    1    2  502    0 -0.92291249814E+01 -0.91283478055E+02  0.11865806174E+04  0.11901224356E+04  0.00000000000E+00 0. -1.
         22    1    3    3    0    0  0.26881165436E+02 -0.65600766547E+02 -0.54470571692E+02  0.89404143121E+02  0.00000000000E+00 0. -1.
         22    1    3    3    0    0 -0.28556152600E+02 -0.80735856670E+02  0.57372927993E+02  0.10307950946E+03  0.00000000000E+00 0. -1.
</event>
<event>
 7    1  0.7457412E-006  0.1116226E+03  0.7818608E-02  0.1310236E+00
          2   -1    0    0  502    0  0.00000000000E+00  0.00000000000E+00  0.13155409221E+04  0.13155409221E+04  0.00000000000E+00 0. -1.
          1   -1    0    0  501    0 -0.00000000000E+00 -0.00000000000E+00 -0.70925759721E+03  0.70925759721E+03  0.00000000000E+00 0. -1.
         25    2    1    2    0    0  0.22360393282E+02  0.86363971337E+02  0.33956684457E+03  0.37267944149E+03  0.12500240575E+03 0.  0.
          2    1    1    2  501    0 -0.62495517066E+02  0.26388191322E+02 -0.68729243852E+03  0.69063226275E+03  0.00000000000E+00 0. -1.
          1    1    1    2  502    0  0.40135123785E+02 -0.11275216266E+03  0.95400891885E+03  0.96148681509E+03  0.00000000000E+00 0. -1.
         22    1    3    3    0    0 -0.31085936244E+02 -0.17617005494E+02  0.97941202303E+02  0.10425532803E+03  0.00000000000E+00 0.  1.
         22    1    3    3    0    0  0.53446329525E+02  0.10398097683E+03  0.24162564227E+03  0.26842411345E+03  0.00000000000E+00 0.  1.
</event>
<event>
 7    1  0.7457412E-006  0.6176232E+02  0.7818608E-02  0.1428872E+00
          2   -1    0    0  502    0  0.00000000000E+00  0.00000000000E+00  0.22584660842E+04  0.22584660842E+04  0.00000000000E+00 0. -1.
          1   -1    0    0  501    0 -0.00000000000E+00 -0.00000000000E+00 -0.14779039375E+03  0.14779039375E+03  0.00000000000E+00 0. -1.
         25    2    1    2    0    0 -0.55359963895E+02  0.37128425835E+02 -0.72370373837E+02  0.15907733913E+03  0.12499953283E+03 0.  0.
          2    1    1    2  501    0 -0.58876901714E+01 -0.45422658963E+02 -0.15051842466E+02  0.48212454869E+02  0.00000000000E+00 0. -1.
          1    1    1    2  502    0  0.61247654067E+02  0.82942331284E+01  0.21980979068E+04  0.21989666839E+04  0.00000000000E+00 0. -1.
         22    1    3    3    0    0 -0.33523136845E+02  0.50017546550E+02  0.19876807152E+02  0.63408541454E+02  0.00000000000E+00 0. -1.
         22    1    3    3    0    0 -0.21836827051E+02 -0.12889120715E+02 -0.92247180989E+02  0.95668797676E+02  0.00000000000E+00 0. -1.
</event>
<event>
 7    1  0.7457412E-006  0.1051734E+03  0.7818608E-02  0.1310104E+00
          2   -1    0    0  502    0  0.00000000000E+00  0.00000000000E+00  0.12483706791E+04  0.12483706791E+04  0.00000000000E+00 0. -1.
          1   -1    0    0  501    0 -0.00000000000E+00 -0.00000000000E+00 -0.10731645935E+04  0.10731645935E+04  0.00000000000E+00 0. -1.
         25    2    1    2    0    0 -0.53398970150E+02 -0.58410764510E+02  0.65030595069E+03  0.66692199979E+03  0.12499542744E+03 0.  0.
          2    1    1    2  501    0 -0.13054038005E+01  0.10535313186E+03 -0.10600324601E+04  0.10652557453E+04  0.00000000000E+00 0. -1.
          1    1    1    2  502    0  0.54704373951E+02 -0.46942367350E+02  0.58493259505E+03  0.58935752742E+03  0.00000000000E+00 0. -1.
         22    1    3    3    0    0 -0.72719482393E+02 -0.85311057838E+02  0.44167113060E+03  0.45567476045E+03  0.00000000000E+00 0.  1.
         22    1    3    3    0    0  0.19320512242E+02  0.26900293329E+02  0.20863482009E+03  0.21124723934E+03  0.00000000000E+00 0.  1.
</event>
<event>
 7    1  0.7457412E-006  0.1913216E+03  0.7818608E-02  0.1198350E+00
          2   -1    0    0  502    0  0.00000000000E+00  0.00000000000E+00  0.19845933961E+03  0.19845933961E+03  0.00000000000E+00 0. -1.
          1   -1    0    0  501    0 -0.00000000000E+00 -0.00000000000E+00 -0.35940499653E+04  0.35940499653E+04  0.00000000000E+00 0. -1.
         25    2    1    2    0    0 -0.24844493069E+03  0.53804565432E+01 -0.99377498352E+03  0.10319722407E+04  0.12499661905E+03 0.  0.
          2    1    1    2  501    0  0.16232681175E+03 -0.89448569006E+02 -0.25572498095E+04  0.25639574155E+04  0.00000000000E+00 0. -1.
          1    1    1    2  502    0  0.86118118938E+02  0.84068112463E+02  0.15543416730E+03  0.19657964876E+03  0.00000000000E+00 0. -1.
         22    1    3    3    0    0 -0.22927244273E+03 -0.11234904026E+02 -0.97137273768E+03  0.99812678132E+03  0.00000000000E+00 0. -1.
         22    1    3    3    0    0 -0.19172487957E+02  0.16615360569E+02 -0.22402245837E+02  0.33845459368E+02  0.00000000000E+00 0. -1.
</event>
<event>
 7    1  0.7457412E-006  0.8263372E+02  0.7818608E-02  0.1384866E+00
          2   -1    0    0  502    0  0.00000000000E+00  0.00000000000E+00  0.12953168517E+04  0.12953168517E+04  0.00000000000E+00 0. -1.
          1   -1    0    0  501    0 -0.00000000000E+00 -0.00000000000E+00 -0.85185339246E+02  0.85185339246E+02  0.00000000000E+00 0. -1.
         25    2    1    2    0    0 -0.21760954804E+02 -0.12314527206E+03  0.49503030260E+02  0.18360936801E+03  0.12499421120E+03 0.  0.
          2    1    1    2  501    0  0.24894523989E+02  0.41436431645E+02  0.18371623542E+02  0.51712974616E+02  0.00000000000E+00 0. -1.
          1    1    1    2  502    0 -0.31335691848E+01  0.81708840410E+02  0.11422568587E+04  0.11451798484E+04  0.00000000000E+00 0. -1.
         22    1    3    3    0    0  0.44992569631E+02 -0.45892443826E+02 -0.10595801813E+02  0.65136155385E+02  0.00000000000E+00 0. -1.
         22    1    3    3    0    0 -0.66753524434E+02 -0.77252828229E+02  0.60098832073E+02  0.11847321263E+03  0.00000000000E+00 0. -1.
</event>
<event>
 7    1  0.7457412E-006  0.6574879E+02  0.7818608E-02  0.1439013E+00
          2   -1    0    0  502    0  0.00000000000E+00  0.00000000000E+00  0.69173409104E+03  0.69173409104E+03  0.00000000000E+00 0. -1.
          1   -1    0    0  501    0 -0.00000000000E+00 -0.00000000000E+00 -0.30641466243E+03  0.30641466243E+03  0.00000000000E+00 0. -1.
         25    2    1    2    0    0  0.62695581648E+02 -0.26279961473E+02 -0.13468635321E+03  0.19592945253E+03  0.12500625702E+03 0.  0.
          2    1    1    2  501    0 -0.66312585036E+02 -0.13414548455E+02 -0.13235371832E+03  0.14864325009E+03  0.00000000000E+00 0. -1.
          1    1    1    2  502    0  0.36170033879E+01  0.39694509927E+02  0.65235950014E+03  0.65357605086E+03  0.00000000000E+00 0. -1.
         22    1    3    3    0    0  0.42175219119E+02  0.48627607242E+02 -0.55183164489E+02  0.84785464184E+02  0.00000000000E+00 0.  1.
         22    1    3    3    0    0  0.20520362529E+02 -0.74907568715E+02 -0.79503188718E+02  0.11114398835E+03  0.00000000000E+00 0.  1.
</event>
<event>
 7    1  0.1778124E-005  0.6634326E+02  0.7818608E-02  0.1489555E+00
          2   -1    0    0  502    0  0.00000000000E+00  0.00000000000E+00  0.12525066946E+04  0.12525066946E+04  0.00000000000E+00 0. -1.
          1   -1    0    0  501    0 -0.00000000000E+00 -0.00000000000E+00 -0.15632529347E+04  0.15632529347E+04  0.00000000000E+00 0. -1.
         25    2    1    2    0    0  0.11377226032E+02  0.86525748040E+02 -0.51852189979E+03  0.54046859560E+03  0.12500078369E+03 0.  0.
          2    1    1    2  501    0 -0.18144190111E+02 -0.20559730594E+02 -0.10326901023E+04  0.10330540942E+04  0.00000000000E+00 0. -1.
          1    1    1    2  502    0  0.67669640789E+01 -0.65966017446E+02  0.12404657620E+04  0.12422369395E+04  0.00000000000E+00 0. -1.
         22    1    3    3    0    0  0.24503441738E+02  0.11067470843E+03 -0.30869965389E+03  0.32885374570E+03  0.00000000000E+00 0. -1.
         22    1    3    3    0    0 -0.13126215707E+02 -0.24148960395E+02 -0.20982224590E+03  0.21161484990E+03  0.00000000000E+00 0. -1.
</event>
<event>
 7    1  0.7457412E-006  0.1189744E+03  0.7818608E-02  0.1253597E+00
          2   -1    0    0  502    0  0.00000000000E+00  0.00000000000E+00  0.21625150607E+04  0.21625150607E+04  0.00000000000E+00 0. -1.
          1   -1    0    0  501    0 -0.00000000000E+00 -0.00000000000E+00 -0.55189198946E+04  0.55189198946E+04  0.00000000000E+00 0. -1.
         25    2    1    2    0    0 -0.35312230103E+02  0.89888929943E+02 -0.44490467280E+03  0.47211416694E+03  0.12499858169E+03 0.  0.
          2    1    1    2  501    0  0.12060266799E+03 -0.22094529288E+02 -0.50582861137E+04  0.50597718901E+04  0.00000000000E+00 0. -1.
          1    1    1    2  502    0 -0.85290437886E+02 -0.67794400655E+02  0.21467859526E+04  0.21495488983E+04  0.00000000000E+00 0. -1.
         22    1    3    3    0    0 -0.89880552087E+01 -0.10850227298E+01 -0.29276949215E+03  0.29290943642E+03  0.00000000000E+00 0. -1.
         22    1    3    3    0    0 -0.26324174894E+02  0.90973952673E+02 -0.15213518065E+03  0.17920473052E+03  0.00000000000E+00 0. -1.
</event>
<event>
 7    1  0.7457412E-006  0.7553115E+02  0.7818608E-02  0.1415331E+00
          2   -1    0    0  502    0  0.00000000000E+00  0.00000000000E+00  0.11337216333E+04  0.11337216333E+04  0.00000000000E+00 0. -1.
          1   -1    0    0  501    0 -0.00000000000E+00 -0.00000000000E+00 -0.55414999836E+03  0.55414999836E+03  0.00000000000E+00 0. -1.
         25    2    1    2    0    0 -0.84993188238E+02  0.29602199159E+02  0.50591360304E+03  0.52884185901E+03  0.12500002345E+03 0.  0.
          2    1    1    2  501    0  0.11427193177E+02 -0.39948138064E+02 -0.53964574621E+03  0.54124298229E+03  0.00000000000E+00 0. -1.
          1    1    1    2  502    0  0.73565995061E+02  0.10345938905E+02  0.61330377816E+03  0.61778679040E+03  0.00000000000E+00 0. -1.
         22    1    3    3    0    0 -0.24390080042E+02 -0.24248165988E+02  0.28710454636E+02  0.44801113420E+02  0.00000000000E+00 0. -1.
         22    1    3    3    0    0 -0.60603108196E+02  0.53850365147E+02  0.47720314840E+03  0.48404074559E+03  0.00000000000E+00 0. -1.
</event>
<event>
 7    1  0.7457412E-006  0.4150263E+02  0.7818608E-02  0.1513917E+00
          2   -1    0    0  502    0  0.00000000000E+00  0.00000000000E+00  0.23308201774E+03  0.23308201774E+03  0.00000000000E+00 0. -1.
          1   -1    0    0  501    0 -0.00000000000E+00 -0.00000000000E+00 -0.72647986867E+03  0.72647986867E+03  0.00000000000E+00 0. -1.
         25    2    1    2    0    0 -0.12410727628E+02 -0.36132507355E+01 -0.12488774310E+03  0.17716989957E+03  0.12500057278E+03 0.  0.
          2    1    1    2  501    0  0.12361181051E+02  0.40704613221E+02 -0.57299417646E+03  0.57457113623E+03  0.00000000000E+00 0. -1.
          1    1    1    2  502    0  0.49546577867E-01 -0.37091362486E+02  0.20448406862E+03  0.20782085061E+03  0.00000000000E+00 0. -1.
         22    1    3    3    0    0  0.46257880464E+02  0.18221053887E+02 -0.17198599204E+02  0.52607890324E+02  0.00000000000E+00 0. -1.
         22    1    3    3    0    0 -0.58668608093E+02 -0.21834304622E+02 -0.10768914390E+03  0.12456200925E+03  0.00000000000E+00 0. -1.
</event>
<event>
 7    1  0.7457412E-006  0.6694183E+02  0.7818608E-02  0.1409594E+00
          2   -1    0    0  502    0  0.00000000000E+00  0.00000000000E+00  0.28324085164E+04  0.28324085164E+04  0.00000000000E+00 0. -1.
          1   -1    0    0  501    0 -0.00000000000E+00 -0.00000000000E+00 -0.27426868492E+03  0.27426868492E+03  0.00000000000E+00 0. -1.
         25    2    1    2    0    0  0.49882880505E+02 -0.83847347294E+02  0.48955761533E+03  0.51459714344E+03  0.12499952754E+03 0.  0.
          2    1    1    2  501    0 -0.45671750112E+02  0.17807538025E+02 -0.25897938935E+03  0.26357796053E+03  0.00000000000E+00 0. -1.
          1    1    1    2  502    0 -0.42111303921E+01  0.66039809269E+02  0.23275616055E+04  0.23285020973E+04  0.00000000000E+00 0. -1.
         22    1    3    3    0    0  0.59111199342E+02  0.12301078324E+02  0.22493019040E+03  0.23289276710E+03  0.00000000000E+00 0. -1.
         22    1    3    3    0    0 -0.92283188378E+01 -0.96148425618E+02  0.26462742493E+03  0.28170437633E+03  0.00000000000E+00 0. -1.
</event>
<event>
 7    1  0.7457412E-006  0.5984983E+02  0.7818608E-02  0.1427640E+00
          2   -1    0    0  502    0  0.00000000000E+00  0.00000000000E+00  0.58786142137E+03  0.58786142137E+03  0.00000000000E+00 0. -1.
          1   -1    0    0  501    0 -0.00000000000E+00 -0.00000000000E+00 -0.60645893887E+02  0.60645893887E+02  0.00000000000E+00 0. -1.
         25    2    1    2    0    0 -0.56299739698E+02  0.26254860543E+02  0.50678579636E+03  0.52565659647E+03  0.12499614246E+03 0.  0.
          2    1    1    2  501    0  0.19964477823E+02 -0.57175337650E+02 -0.16211922064E+02  0.62693109886E+02  0.00000000000E+00 0. -1.
          1    1    1    2  502    0  0.36335261875E+02  0.30920477107E+02  0.36641653180E+02  0.60157608893E+02  0.00000000000E+00 0. -1.
         22    1    3    3    0    0 -0.72222606382E+02  0.12569756883E+02  0.13790731376E+03  0.15618108352E+03  0.00000000000E+00 0. -1.
         22    1    3    3    0    0  0.15922866684E+02  0.13685103661E+02  0.36887848261E+03  0.36947551296E+03  0.00000000000E+00 0. -1.
</event>
<event>
 7    1  0.7457412E-006  0.1339954E+03  0.7818608E-02  0.1416947E+00
          2   -1    0    0  502    0  0.00000000000E+00  0.00000000000E+00  0.46096415095E+03  0.46096415095E+03  0.00000000000E+00 0. -1.
          1   -1    0    0  501    0 -0.00000000000E+00 -0.00000000000E+00 -0.93064773674E+02  0.93064773674E+02  0.00000000000E+00 0. -1.
         25    2    1    2    0    0  0.13648527029E+03  0.57304724141E+02  0.11612858656E+03  0.22589392125E+03  0.12502061681E+03 0.  0.
          2    1    1    2  501    0 -0.11729859471E+03 -0.44386071571E+02  0.67516259684E+02  0.14243429710E+03  0.00000000000E+00 0. -1.
          1    1    1    2  502    0 -0.19186675580E+02 -0.12918652570E+02  0.18425453103E+03  0.18570070627E+03  0.00000000000E+00 0. -1.
         22    1    3    3    0    0  0.13784411155E+03  0.20259618191E+02  0.46266711105E+02  0.14680619801E+03  0.00000000000E+00 0. -1.
         22    1    3    3    0    0 -0.13588412672E+01  0.37045105950E+02  0.69861875457E+02  0.79087723237E+02  0.00000000000E+00 0. -1.
</event>
<event>
 7    1  0.7457412E-006  0.7531055E+02  0.7818608E-02  0.1457166E+00
          2   -1    0    0  502    0  0.00000000000E+00  0.00000000000E+00  0.17778482546E+04  0.17778482546E+04  0.00000000000E+00 0. -1.
          1   -1    0    0  501    0 -0.00000000000E+00 -0.00000000000E+00 -0.28273361507E+03  0.28273361507E+03  0.00000000000E+00 0. -1.
         25    2    1    2    0    0 -0.19975998443E+02  0.44350054563E+02  0.97517261054E+03  0.98435409898E+03  0.12500161587E+03 0.  0.
          2    1    1    2  501    0  0.46336896764E+02 -0.59553947712E+02 -0.27272785613E+03  0.28297396382E+03  0.00000000000E+00 0. -1.
          1    1    1    2  502    0 -0.26360898321E+02  0.15203893149E+02  0.79266988517E+03  0.79325380691E+03  0.00000000000E+00 0. -1.
         22    1    3    3    0    0 -0.17339130062E+00  0.92541543412E+01  0.95666405606E+00  0.93050869544E+01  0.00000000000E+00 0. -1.
         22    1    3    3    0    0 -0.19802607142E+02  0.35095900222E+02  0.97421594648E+03  0.97504901202E+03  0.00000000000E+00 0. -1.
</event>
<event>
 7    1  0.7457412E-006  0.1244493E+03  0.7818608E-02  0.1308176E+00
          2   -1    0    0  502    0  0.00000000000E+00  0.00000000000E+00  0.95393188218E+03  0.95393188218E+03  0.00000000000E+00 0. -1.
          1   -1    0    0  501    0 -0.00000000000E+00 -0.00000000000E+00 -0.11544579267E+04  0.11544579267E+04  0.00000000000E+00 0. -1.
         25    2    1    2    0    0 -0.63414418993E+02  0.79016967780E+01 -0.15149480138E+03  0.20654273242E+03  0.12500160049E+03 0.  0.
          2    1    1    2  501    0 -0.61622833338E+02  0.67904379958E+01 -0.97016785837E+03  0.97214667466E+03  0.00000000000E+00 0. -1.
          1    1    1    2  502    0  0.12503725233E+03 -0.14692134774E+02  0.92113661520E+03  0.92970040182E+03  0.00000000000E+00 0. -1.
         22    1    3    3    0    0  0.32758357062E+02 -0.80398205722E+01 -0.10881914171E+02  0.35442414256E+02  0.00000000000E+00 0. -1.
         22    1    3    3    0    0 -0.96172776055E+02  0.15941517350E+02 -0.14061288720E+03  0.17110031817E+03  0.00000000000E+00 0. -1.
</event>
<event>
 7    1  0.7457412E-006  0.8484000E+02  0.7818608E-02  0.1334526E+00
          2   -1    0    0  502    0  0.00000000000E+00  0.00000000000E+00  0.52339288597E+03  0.52339288597E+03  0.00000000000E+00 0. -1.
          1   -1    0    0  501    0 -0.00000000000E+00 -0.00000000000E+00 -0.97660540328E+03  0.97660540328E+03  0.00000000000E+00 0. -1.
         25    2    1    2    0    0  0.14536214558E+02 -0.15172736007E+03 -0.22275388303E+03  0.29744941030E+03  0.12499746378E+03 0.  0.
          2    1    1    2  501    0 -0.11541754548E+02  0.79890900185E+02 -0.71155031468E+03  0.71611424951E+03  0.00000000000E+00 0. -1.
          1    1    1    2  502    0 -0.29944600101E+01  0.71836459887E+02  0.48109168041E+03  0.48643462944E+03  0.00000000000E+00 0. -1.
         22    1    3    3    0    0  0.48184782493E+02 -0.78139213372E+01 -0.46329221972E+02  0.67299535207E+02  0.00000000000E+00 0. -1.
         22    1    3    3    0    0 -0.33648567935E+02 -0.14391343874E+03 -0.17642466106E+03  0.23014987509E+03  0.00000000000E+00 0. -1.
</event>
<event>
 7    1  0.7457412E-006  0.9572620E+02  0.7818608E-02  0.1305275E+00
          2   -1    0    0  502    0  0.00000000000E+00  0.00000000000E+00  0.16655230746E+03  0.16655230746E+03  0.00000000000E+00 0. -1.
          1   -1    0    0  501    0 -0.00000000000E+00 -0.00000000000E+00 -0.85533103407E+03  0.85533103407E+03  0.00000000000E+00 0. -1.
         25    2    1    2    0    0  0.70989966922E+02 -0.88269973091E+02 -0.31209081635E+03  0.35476321296E+03  0.12500038425E+03 0.  0.
          2    1    1    2  501    0  0.25011018949E+02  0.78888912886E+02 -0.50211641239E+03  0.50889085592E+03  0.00000000000E+00 0. -1.
          1    1    1    2  502    0 -0.96000985870E+02  0.93810602047E+01  0.12542850213E+03  0.15822927266E+03  0.00000000000E+00 0. -1.
         22    1    3    3    0    0  0.67175611988E+02 -0.96199592543E+02 -0.14094539873E+03  0.18339173884E+03  0.00000000000E+00 0. -1.
         22    1    3    3    0    0  0.38143549336E+01  0.79296194525E+01 -0.17114541762E+03  0.17137147412E+03  0.00000000000E+00 0. -1.
</event>
<event>
 7    1  0.7457412E-006  0.5314449E+02  0.7818608E-02  0.1453847E+00
          2   -1    0    0  502    0  0.00000000000E+00  0.00000000000E+00  0.90635496404E+03  0.90635496404E+03  0.00000000000E+00 0. -1.
          1   -1    0    0  501    0 -0.00000000000E+00 -0.00000000000E+00 -0.76918525719E+02  0.76918525719E+02  0.00000000000E+00 0. -1.
         25    2    1    2    0    0 -0.19433360246E+02 -0.49412449424E+02  0.89400321750E+02  0.16259457685E+03  0.12500133296E+03 0.  0.
          2    1    1    2  501    0  0.44144147165E+02  0.18468100432E+01 -0.26995202146E+02  0.51776996583E+02  0.00000000000E+00 0. -1.
          1    1    1    2  502    0 -0.24710786919E+02  0.47565639381E+02  0.76703131872E+03  0.76890191633E+03  0.00000000000E+00 0. -1.
         22    1    3    3    0    0 -0.62363453429E+02 -0.63733054711E+02  0.48042523120E+02  0.10128764295E+03  0.00000000000E+00 0. -1.
         22    1    3    3    0    0  0.42930093183E+02  0.14320605287E+02  0.41357798630E+02  0.61306933899E+02  0.00000000000E+00 0. -1.
</event>
<event>
 7    1  0.7457412E-006  0.4408437E+02  0.7818608E-02  0.1592339E+00
          2   -1    0    0  502    0  0.00000000000E+00  0.00000000000E+00  0.37626470326E+04  0.37626470326E+04  0.00000000000E+00 0. -1.
          1   -1    0    0  501    0 -0.00000000000E+00 -0.00000000000E+00 -0.11852309756E+02  0.11852309756E+02  0.00000000000E+00 0. -1.
         25    2    1    2    0    0 -0.83319431784E+01 -0.55284898201E+02  0.49006677510E+03  0.50883719286E+03  0.12499601409E+03 0.  0.
          2    1    1    2  501    0  0.17230158039E+02  0.12245744266E+02  0.45897979410E+02  0.50531783193E+02  0.00000000000E+00 0. -1.
          1    1    1    2  502    0 -0.88982148610E+01  0.43039153935E+02  0.32148299683E+04  0.32151303663E+04  0.00000000000E+00 0. -1.
         22    1    3    3    0    0 -0.41119932739E+02  0.20156929970E+02  0.97153560608E+02  0.10740560988E+03  0.00000000000E+00 0.  1.
         22    1    3    3    0    0  0.32787989561E+02 -0.75441828170E+02  0.39291321449E+03  0.40143158298E+03  0.00000000000E+00 0.  1.
</event>
<event>
 7    1  0.7457412E-006  0.8242791E+02  0.7818608E-02  0.1388682E+00
          2   -1    0    0  502    0  0.00000000000E+00  0.00000000000E+00  0.18771272748E+04  0.18771272748E+04  0.00000000000E+00 0. -1.
          1   -1    0    0  501    0 -0.00000000000E+00 -0.00000000000E+00 -0.76005050663E+03  0.76005050663E+03  0.00000000000E+00 0. -1.
         25    2    1    2    0    0  0.35661644056E+02  0.48587308771E+01 -0.31389219972E+02  0.13379852225E+03  0.12498560439E+03 0.  0.
          2    1    1    2  501    0  0.46205090515E+02  0.85531588086E+01 -0.67569797283E+03  0.67732991770E+03  0.00000000000E+00 0. -1.
          1    1    1    2  502    0 -0.81866734570E+02 -0.13411889686E+02  0.18241639610E+04  0.18260493415E+04  0.00000000000E+00 0. -1.
         22    1    3    3    0    0 -0.64082369947E+01 -0.47361119036E+02  0.17408808308E+02  0.50864601684E+02  0.00000000000E+00 0. -1.
         22    1    3    3    0    0  0.42069881051E+02  0.52219849913E+02 -0.48798028280E+02  0.82933920567E+02  0.00000000000E+00 0. -1.
</event>
<event>
 7    1  0.7457412E-006  0.7625661E+02  0.7818608E-02  0.1360191E+00
          2   -1    0    0  502    0  0.00000000000E+00  0.00000000000E+00  0.90717608472E+02  0.90717608472E+02  0.00000000000E+00 0. -1.
          1   -1    0    0  501    0 -0.00000000000E+00 -0.00000000000E+00 -0.51440134368E+03  0.51440134368E+03  0.00000000000E+00 0. -1.
         25    2    1    2    0    0 -0.25796432480E+02 -0.22031551364E+02 -0.10445089622E+03  0.16638918406E+03  0.12499810265E+03 0.  0.
          2    1    1    2  501    0  0.84313873688E+02 -0.43857208976E+01 -0.35522847883E+03  0.36512372699E+03  0.00000000000E+00 0. -1.
          1    1    1    2  502    0 -0.58517441208E+02  0.26417272262E+02  0.35995639836E+02  0.73606041101E+02  0.00000000000E+00 0. -1.
         22    1    3    3    0    0 -0.75280612592E+02 -0.25389473304E+02 -0.57290321418E+02  0.97948848462E+02  0.00000000000E+00 0. -1.
         22    1    3    3    0    0  0.49484180112E+02  0.33579219391E+01 -0.47160574801E+02  0.68440335597E+02  0.00000000000E+00 0. -1.
</event>
<event>
 7    1  0.7457412E-006  0.3318188E+02  0.7818608E-02  0.1602782E+00
          2   -1    0    0  502    0  0.00000000000E+00  0.00000000000E+00  0.18285509303E+04  0.18285509303E+04  0.00000000000E+00 0. -1.
          1   -1    0    0  501    0 -0.00000000000E+00 -0.00000000000E+00 -0.49218216881E+02  0.49218216881E+02  0.00000000000E+00 0. -1.
         25    2    1    2    0    0 -0.22830741323E+01  0.68726996453E+01  0.55824972166E+03  0.57211923147E+03  0.12500086744E+03 0.  0.
          2    1    1    2  501    0  0.52615371952E+01 -0.33072415173E+02 -0.35492728127E+02  0.48797563145E+02  0.00000000000E+00 0. -1.
          1    1    1    2  502    0 -0.29784630629E+01  0.26199715527E+02  0.12565757198E+04  0.12568523525E+04  0.00000000000E+00 0. -1.
         22    1    3    3    0    0  0.12445602373E+02  0.39419241153E+02  0.51206372065E+03  0.51372952378E+03  0.00000000000E+00 0. -1.
         22    1    3    3    0    0 -0.14728676506E+02 -0.32546541508E+02  0.46186001006E+02  0.58389707695E+02  0.00000000000E+00 0. -1.
</event>
<event>
 7    1  0.7457412E-006  0.9123643E+02  0.7818608E-02  0.1385334E+00
          2   -1    0    0  502    0  0.00000000000E+00  0.00000000000E+00  0.29763435779E+04  0.29763435779E+04  0.00000000000E+00 0. -1.
          1   -1    0    0  501    0 -0.00000000000E+00 -0.00000000000E+00 -0.39317128590E+03  0.39317128590E+03  0.00000000000E+00 0. -1.
         25    2    1    2    0    0 -0.25490136992E+01 -0.48999188531E+02  0.17791675068E+03  0.22290312308E+03  0.12499605657E+03 0.  0.
          2    1    1    2  501    0 -0.13156183481E+01  0.92443730766E+02 -0.36473892249E+03  0.37627391058E+03  0.00000000000E+00 0. -1.
          1    1    1    2  502    0  0.38646320474E+01 -0.43444542235E+02  0.27699944638E+04  0.27703378302E+04  0.00000000000E+00 0. -1.
         22    1    3    3    0    0 -0.22092425477E+02 -0.87783541894E+02  0.11276274497E+03  0.14460104475E+03  0.00000000000E+00 0.  1.
         22    1    3    3    0    0  0.19543411778E+02  0.38784353363E+02  0.65154005709E+02  0.78302078323E+02  0.00000000000E+00 0.  1.
</event>
<event>
 7    1  0.7457412E-006  0.9624991E+02  0.7818608E-02  0.1402386E+00
          2   -1    0    0  502    0  0.00000000000E+00  0.00000000000E+00  0.97095740693E+03  0.97095740693E+03  0.00000000000E+00 0. -1.
          1   -1    0    0  501    0 -0.00000000000E+00 -0.00000000000E+00 -0.49056612052E+03  0.49056612052E+03  0.00000000000E+00 0. -1.
         25    2    1    2    0    0  0.79792788827E+02 -0.30475693200E+02  0.29807597424E+03  0.33431942885E+03  0.12499814824E+03 0.  0.
          2    1    1    2  501    0 -0.96501348568E+02 -0.15001278595E+01 -0.46700937729E+03  0.47687788703E+03  0.00000000000E+00 0. -1.
          1    1    1    2  502    0  0.16708559742E+02  0.31975821060E+02  0.64932468947E+03  0.65032621157E+03  0.00000000000E+00 0. -1.
         22    1    3    3    0    0  0.60660794902E+02 -0.77909529538E+02  0.17308930237E+03  0.19927251046E+03  0.00000000000E+00 0.  1.
         22    1    3    3    0    0  0.19131993925E+02  0.47433836337E+02  0.12498667186E+03  0.13504691838E+03  0.00000000000E+00 0.  1.
</event>
<event>
 7    1  0.7457412E-006  0.4182854E+02  0.7818608E-02  0.1548928E+00
          2   -1    0    0  502    0  0.00000000000E+00  0.00000000000E+00  0.67680806998E+03  0.67680806998E+03  0.00000000000E+00 0. -1.
          1   -1    0    0  501    0 -0.00000000000E+00 -0.00000000000E+00 -0.50062068866E+03  0.50062068866E+03  0.00000000000E+00 0. -1.
         25    2    1    2    0    0 -0.68564468400E+02 -0.14563021136E+02  0.22087626708E+03  0.26329490667E+03  0.12499885843E+03 0.  0.
          2    1    1    2  501    0  0.39347726390E+02  0.13881703792E+02 -0.47801038607E+03  0.47982796340E+03  0.00000000000E+00 0. -1.
          1    1    1    2  502    0  0.29216742010E+02  0.68131734390E+00  0.43332150031E+03  0.43430588856E+03  0.00000000000E+00 0. -1.
         22    1    3    3    0    0 -0.69466960459E+02 -0.34122330004E+02  0.51895066990E+02  0.93183099209E+02  0.00000000000E+00 0. -1.
         22    1    3    3    0    0  0.90249205884E+00  0.19559308868E+02  0.16898120009E+03  0.17011180746E+03  0.00000000000E+00 0. -1.
</event>
<event>
 7    1  0.7457412E-006  0.3306061E+02  0.7818608E-02  0.1628293E+00
          2   -1    0    0  502    0  0.00000000000E+00  0.00000000000E+00  0.89343412723E+02  0.89343412723E+02  0.00000000000E+00 0. -1.
          1   -1    0    0  501    0 -0.00000000000E+00 -0.00000000000E+00 -0.38173399402E+03  0.38173399402E+03  0.00000000000E+00 0. -1.
         25    2    1    2    0    0  0.39279066101E+02 -0.21012389349E+02 -0.20546907935E+03  0.24459558642E+03  0.12500037114E+03 0.  0.
          2    1    1    2  501    0 -0.17436256185E+02  0.27437416110E+02 -0.15309107389E+03  0.15650467001E+03  0.00000000000E+00 0. -1.
          1    1    1    2  502    0 -0.21842809917E+02 -0.64250267612E+01  0.66169571946E+02  0.69977150309E+02  0.00000000000E+00 0. -1.
         22    1    3    3    0    0  0.28853939273E+02 -0.71504646446E+02 -0.92538376726E+02  0.12045254436E+03  0.00000000000E+00 0.  1.
         22    1    3    3    0    0  0.10425126828E+02  0.50492257097E+02 -0.11293070263E+03  0.12414304206E+03  0.00000000000E+00 0.  1.
</event>
<event>
 7    1  0.7457412E-006  0.9608243E+02  0.7818608E-02  0.1326803E+00
          2   -1    0    0  502    0  0.00000000000E+00  0.00000000000E+00  0.25854173140E+04  0.25854173140E+04  0.00000000000E+00 0. -1.
          1   -1    0    0  501    0 -0.00000000000E+00 -0.00000000000E+00 -0.15784197404E+02  0.15784197404E+02  0.00000000000E+00 0. -1.
         25    2    1    2    0    0  0.37220360712E+02  0.22143537514E+02  0.63550962700E+03  0.64913243064E+03  0.12499893994E+03 0.  0.
          2    1    1    2  501    0  0.41153441915E+02  0.54063528985E+02  0.15081847942E+03  0.16541670013E+03  0.00000000000E+00 0. -1.
          1    1    1    2  502    0 -0.78373802626E+02 -0.76207066500E+02  0.17833050102E+04  0.17866523807E+04  0.00000000000E+00 0. -1.
         22    1    3    3    0    0 -0.17352705962E+02 -0.84735970666E+01  0.49432550566E+03  0.49470256094E+03  0.00000000000E+00 0. -1.
         22    1    3    3    0    0  0.54573066674E+02  0.30617134581E+02  0.14118412134E+03  0.15442986970E+03  0.00000000000E+00 0. -1.
</event>
<event>
 7    1  0.7457412E-006  0.5098857E+02  0.7818608E-02  0.1450940E+00
          2   -1    0    0  502    0  0.00000000000E+00  0.00000000000E+00  0.89057878754E+03  0.89057878754E+03  0.00000000000E+00 0. -1.
          1   -1    0    0  501    0 -0.00000000000E+00 -0.00000000000E+00 -0.47332783919E+03  0.47332783919E+03  0.00000000000E+00 0. -1.
         25    2    1    2    0    0  0.24432898551E+02  0.89217361735E+02  0.25003011547E+03  0.29444246223E+03  0.12499840301E+03 0.  0.
          2    1    1    2  501    0  0.10648299435E+01 -0.47032143237E+02 -0.44890819827E+03  0.45136651054E+03  0.00000000000E+00 0. -1.
          1    1    1    2  502    0 -0.25497728494E+02 -0.42185218498E+02  0.61612903115E+03  0.61809765397E+03  0.00000000000E+00 0. -1.
         22    1    3    3    0    0  0.77421073542E+01  0.11270255275E+03  0.13585087994E+03  0.17668408871E+03  0.00000000000E+00 0. -1.
         22    1    3    3    0    0  0.16690791197E+02 -0.23485191015E+02  0.11417923553E+03  0.11775837352E+03  0.00000000000E+00 0. -1.
</event>
<event>
 7    1  0.7457412E-006  0.7946412E+02  0.7818608E-02  0.1450509E+00
          2   -1    0    0  502    0  0.00000000000E+00  0.00000000000E+00  0.61771889216E+02  0.61771889216E+02  0.00000000000E+00 0. -1.
          1   -1    0    0  501    0 -0.00000000000E+00 -0.00000000000E+00 -0.28018099608E+03  0.28018099608E+03  0.00000000000E+00 0. -1.
         25    2    1    2    0    0 -0.48252135264E+02  0.39260024877E+02 -0.11806529516E+03  0.18284755029E+03  0.12499677842E+03 0.  0.
          2    1    1    2  501    0  0.78159113069E+02 -0.44012436309E+02 -0.90099683736E+02  0.12713730576E+03  0.00000000000E+00 0. -1.
          1    1    1    2  502    0 -0.29906977805E+02  0.47524114316E+01 -0.10244127962E+02  0.31968029241E+02  0.00000000000E+00 0. -1.
         22    1    3    3    0    0 -0.77781475568E+02 -0.43660470308E+01 -0.37184282216E+02  0.86323178534E+02  0.00000000000E+00 0. -1.
         22    1    3    3    0    0  0.29529340304E+02  0.43626071908E+02 -0.80881012945E+02  0.96524371761E+02  0.00000000000E+00 0. -1.
</event>
<event>
 7    1  0.7457412E-006  0.5512725E+02  0.7818608E-02  0.1419648E+00
          2   -1    0    0  502    0  0.00000000000E+00  0.00000000000E+00  0.71570028524E+03  0.71570028524E+03  0.00000000000E+00 0. -1.
          1   -1    0    0  501    0 -0.00000000000E+00 -0.00000000000E+00 -0.65431787181E+02  0.65431787181E+02  0.00000000000E+00 0. -1.
         25    2    1    2    0    0 -0.18677080556E+02 -0.84980717872E+00  0.32881275685E+03  0.35226629676E+03  0.12499663698E+03 0.  0.
          2    1    1    2  501    0 -0.23278510514E+02 -0.49971242210E+02 -0.35702357461E+02  0.65678553791E+02  0.00000000000E+00 0. -1.
          1    1    1    2  502    0  0.41955591070E+02  0.50821049389E+02  0.35715809868E+03  0.36318722187E+03  0.00000000000E+00 0. -1.
         22    1    3    3    0    0 -0.20926167533E+02 -0.33974651184E+02  0.25970056107E+02  0.47609087630E+02  0.00000000000E+00 0. -1.
         22    1    3    3    0    0  0.22490869769E+01  0.33124844006E+02  0.30284270074E+03  0.30465720913E+03  0.00000000000E+00 0. -1.
</event>
<event>
 7    1  0.7457412E-006  0.2332181E+03  0.7818608E-02  0.1201440E+00
          2   -1    0    0  502    0  0.00000000000E+00  0.00000000000E+00  0.69147865965E+03  0.69147865965E+03  0.00000000000E+00 0. -1.
          1   -1    0    0  501    0 -0.00000000000E+00 -0.00000000000E+00 -0.26872204417E+03  0.26872204417E+03  0.00000000000E+00 0. -1.
         25    2    1    2    0    0 -0.14015869464E+03 -0.15300831784E+03  0.90775646843E+02  0.25869199458E+03  0.12500129995E+03 0.  0.
          2    1    1    2  501    0  0.90386952793E+02  0.23447835548E+03 -0.91472176008E+02  0.26742673652E+03  0.00000000000E+00 0. -1.
          1    1    1    2  502    0  0.49771741849E+02 -0.81470037636E+02  0.42345314465E+03  0.43408197271E+03  0.00000000000E+00 0. -1.
         22    1    3    3    0    0 -0.14301078175E+03 -0.80179468234E+02  0.36895195569E+02  0.16805381959E+03  0.00000000000E+00 0. -1.
         22    1    3    3    0    0  0.28520871097E+01 -0.72828849608E+02  0.53880451274E+02  0.90638174990E+02  0.00000000000E+00 0. -1.
</event>
<event>
 7    1  0.7457412E-006  0.5759263E+02  0.7818608E-02  0.1496049E+00
          2   -1    0    0  502    0  0.00000000000E+00  0.00000000000E+00  0.74904673037E+02  0.74904673037E+02  0.00000000000E+00 0. -1.
          1   -1    0    0  501    0 -0.00000000000E+00 -0.00000000000E+00 -0.49034002976E+03  0.49034002976E+03  0.00000000000E+00 0. -1.
         25    2    1    2    0    0  0.15163318977E+02  0.24708053410E+02 -0.26943278664E+03  0.29843183259E+03  0.12500847187E+03 0.  0.
          2    1    1    2  501    0  0.12614453776E+02  0.27434266409E+02 -0.19048248337E+03  0.19286093406E+03  0.00000000000E+00 0. -1.
          1    1    1    2  502    0 -0.27777772753E+02 -0.52142319818E+02  0.44479913279E+02  0.73951936151E+02  0.00000000000E+00 0. -1.
         22    1    3    3    0    0 -0.81064154620E+01 -0.41953348084E+02 -0.40555257030E+02  0.58911172623E+02  0.00000000000E+00 0. -1.
         22    1    3    3    0    0  0.23269734439E+02  0.66661401493E+02 -0.22887752961E+03  0.23952065996E+03  0.00000000000E+00 0. -1.
</event>
<event>
 7    1  0.7457412E-006  0.2128915E+02  0.7818608E-02  0.1721992E+00
          2   -1    0    0  502    0  0.00000000000E+00  0.00000000000E+00  0.10184123681E+04  0.10184123681E+04  0.00000000000E+00 0. -1.
          1   -1    0    0  501    0 -0.00000000000E+00 -0.00000000000E+00 -0.27281252661E+03  0.27281252661E+03  0.00000000000E+00 0. -1.
         25    2    1    2    0    0 -0.23728241807E+01  0.38415805915E+02  0.97148311543E+02  0.16292097860E+03  0.12499618551E+03 0.  0.
          2    1    1    2  501    0  0.10068528457E+02 -0.18701553698E+02 -0.23932977689E+03  0.24027040076E+03  0.00000000000E+00 0. -1.
          1    1    1    2  502    0 -0.76957042760E+01 -0.19714252217E+02  0.88778130681E+03  0.88803351531E+03  0.00000000000E+00 0. -1.
         22    1    3    3    0    0 -0.17339738863E+02  0.16549226245E+01  0.11717584939E+03  0.11846343315E+03  0.00000000000E+00 0. -1.
         22    1    3    3    0    0  0.14966914682E+02  0.36760883291E+02 -0.20027537846E+02  0.44457545451E+02  0.00000000000E+00 0. -1.
</event>
<event>
 7    1  0.7457412E-006  0.1169966E+03  0.7818608E-02  0.1276726E+00
          2   -1    0    0  502    0  0.00000000000E+00  0.00000000000E+00  0.13400823594E+04  0.13400823594E+04  0.00000000000E+00 0. -1.
          1   -1    0    0  501    0 -0.00000000000E+00 -0.00000000000E+00 -0.19082021527E+03  0.19082021527E+03  0.00000000000E+00 0. -1.
         25    2    1    2    0    0 -0.14069057269E+03  0.99566819088E+02  0.20618854202E+03  0.29638655063E+03  0.12499553522E+03 0.  0.
          2    1    1    2  501    0  0.88404716012E+02  0.22523245334E+01 -0.12897142426E+03  0.15637805170E+03  0.00000000000E+00 0. -1.
          1    1    1    2  502    0  0.52285856682E+02 -0.10181914362E+03  0.10720450264E+04  0.10781379724E+04  0.00000000000E+00 0. -1.
         22    1    3    3    0    0 -0.16355719065E+03  0.82396233808E+02  0.16681304947E+03  0.24772300546E+03  0.00000000000E+00 0.  1.
         22    1    3    3    0    0  0.22866617951E+02  0.17170585279E+02  0.39375492549E+02  0.48663545173E+02  0.00000000000E+00 0.  1.
</event>
<event>
 7    1  0.7457412E-006  0.7336416E+02  0.7818608E-02  0.1389855E+00
          2   -1    0    0  502    0  0.00000000000E+00  0.00000000000E+00  0.34551665892E+03  0.34551665892E+03  0.00000000000E+00 0. -1.
          1   -1    0    0  501    0 -0.00000000000E+00 -0.00000000000E+00 -0.10377794739E+03  0.10377794739E+03  0.00000000000E+00 0. -1.
         25    2    1    2    0    0 -0.10731186999E+03 -0.54811605624E+02  0.14346172107E+03  0.22522627653E+03  0.12500184270E+03 0.  0.
          2    1    1    2  501    0  0.60061927721E+02  0.32390607183E+02 -0.37995783145E+02  0.78104200477E+02  0.00000000000E+00 0. -1.
          1    1    1    2  502    0  0.47249942268E+02  0.22420998440E+02  0.13627277361E+03  0.14596412930E+03  0.00000000000E+00 0. -1.
         22    1    3    3    0    0 -0.10303460060E+03 -0.83909024158E+02  0.14382707529E+03  0.19581389338E+03  0.00000000000E+00 0.  1.
         22    1    3    3    0    0 -0.42772693861E+01  0.29097418534E+02 -0.36535422008E+00  0.29412383148E+02  0.00000000000E+00 0.  1.
</event>
<event>
 7    1  0.7457412E-006  0.5412498E+02  0.7818608E-02  0.1433597E+00
          2   -1    0    0  502    0  0.00000000000E+00  0.00000000000E+00  0.31990663840E+04  0.31990663840E+04  0.00000000000E+00 0. -1.
          1   -1    0    0  501    0 -0.00000000000E+00 -0.00000000000E+00 -0.11044081711E+04  0.11044081711E+04  0.00000000000E+00 0. -1.
         25    2    1    2    0    0  0.15429632877E+02 -0.87576896189E+02 -0.16548438727E+02  0.15429444520E+03  0.12500055472E+03 0.  0.
          2    1    1    2  501    0  0.18769428088E+02  0.50514918545E+02 -0.10180709407E+04  0.10194961936E+04  0.00000000000E+00 0. -1.
          1    1    1    2  502    0 -0.34199060965E+02  0.37061977645E+02  0.31292775924E+04  0.31296839163E+04  0.00000000000E+00 0. -1.
         22    1    3    3    0    0  0.55593198231E+02 -0.72293382719E+02 -0.46054854683E+02  0.10216646473E+03  0.00000000000E+00 0.  1.
         22    1    3    3    0    0 -0.40163565355E+02 -0.15283513470E+02  0.29506415956E+02  0.52127980477E+02  0.00000000000E+00 0.  1.
</event>
<event>
 7    1  0.7457412E-006  0.2133729E+03  0.7818608E-02  0.1179248E+00
          2   -1    0    0  502    0  0.00000000000E+00  0.00000000000E+00  0.97456560613E+03  0.97456560613E+03  0.00000000000E+00 0. -1.
          1   -1    0    0  501    0 -0.00000000000E+00 -0.00000000000E+00 -0.13504337249E+04  0.13504337249E+04  0.00000000000E+00 0. -1.
         25    2    1    2    0    0 -0.35231835436E+02  0.98538544475E+02 -0.25759059002E+02  0.16505696341E+03  0.12501657920E+03 0.  0.
          2    1    1    2  501    0  0.20290367216E+02  0.13177111546E+03 -0.12366685463E+04  0.12438345627E+04  0.00000000000E+00 0. -1.
          1    1    1    2  502    0  0.14941468220E+02 -0.23030965994E+03  0.88655948658E+03  0.91610780489E+03  0.00000000000E+00 0. -1.
         22    1    3    3    0    0 -0.78374808683E+02  0.35305831713E+02 -0.20233588834E+02  0.88309175662E+02  0.00000000000E+00 0.  1.
         22    1    3    3    0    0  0.43142973247E+02  0.63232712762E+02 -0.55254701672E+01  0.76747787749E+02  0.00000000000E+00 0.  1.
</event>
<event>
 7    1  0.7457412E-006  0.1017381E+03  0.7818608E-02  0.1297324E+00
          2   -1    0    0  502    0  0.00000000000E+00  0.00000000000E+00  0.31772855353E+03  0.31772855353E+03  0.00000000000E+00 0. -1.
          1   -1    0    0  501    0 -0.00000000000E+00 -0.00000000000E+00 -0.97886189466E+03  0.97886189466E+03  0.00000000000E+00 0. -1.
         25    2    1    2    0    0 -0.14113016038E+01  0.63224375287E+02  0.11993864953E+03  0.18441515693E+03  0.12499742819E+03 0.  0.
          2    1    1    2  501    0  0.47065169565E+02  0.69307910686E+02 -0.91469006018E+03  0.91851871122E+03  0.00000000000E+00 0. -1.
          1    1    1    2  502    0 -0.45653867962E+02 -0.13253228597E+03  0.13361806953E+03  0.19365658004E+03  0.00000000000E+00 0. -1.
         22    1    3    3    0    0 -0.20749739893E+02 -0.25369640850E+02  0.77801661697E+02  0.84423154083E+02  0.00000000000E+00 0. -1.
         22    1    3    3    0    0  0.19338438289E+02  0.88594016138E+02  0.42136987830E+02  0.99992002851E+02  0.00000000000E+00 0. -1.
</event>
<event>
 7    1  0.7457412E-006  0.4349717E+02  0.7818608E-02  0.1586575E+00
          2   -1    0    0  502    0  0.00000000000E+00  0.00000000000E+00  0.23637767536E+04  0.23637767536E+04  0.00000000000E+00 0. -1.
          1   -1    0    0  501    0 -0.00000000000E+00 -0.00000000000E+00 -0.23021005268E+03  0.23021005268E+03  0.00000000000E+00 0. -1.
         25    2    1    2    0    0 -0.23786766651E+02 -0.37153193791E+02  0.11425300171E+03  0.17499976451E+03  0.12499999641E+03 0.  0.
          2    1    1    2  501    0 -0.14632232427E+02  0.16682698551E+02 -0.19900644212E+03  0.20023980289E+03  0.00000000000E+00 0. -1.
          1    1    1    2  502    0  0.38418999078E+02  0.20470495240E+02  0.22183201413E+04  0.22187472388E+04  0.00000000000E+00 0. -1.
         22    1    3    3    0    0 -0.36042409698E+02 -0.40233095747E+02  0.13794752981E+03  0.14814613823E+03  0.00000000000E+00 0.  1.
         22    1    3    3    0    0  0.12255643047E+02  0.30799019561E+01 -0.23694528101E+02  0.26853626282E+02  0.00000000000E+00 0.  1.
</event>
<event>
 7    1  0.7457412E-006  0.9499168E+02  0.7818608E-02  0.1427404E+00
          2   -1    0    0  502    0  0.00000000000E+00  0.00000000000E+00  0.10804462621E+04  0.10804462621E+04  0.00000000000E+00 0. -1.
          1   -1    0    0  501    0 -0.00000000000E+00 -0.00000000000E+00 -0.10066860761E+03  0.10066860761E+03  0.00000000000E+00 0. -1.
         25    2    1    2    0    0 -0.13922162780E+01 -0.75036728495E+02  0.53935566655E+02  0.15545485571E+03  0.12499887169E+03 0.  0.
          2    1    1    2  501    0  0.23898507094E+02 -0.18323035236E+02 -0.42764856038E+02  0.52303969003E+02  0.00000000000E+00 0. -1.
          1    1    1    2  502    0 -0.22506290816E+02  0.93359763731E+02  0.96860694391E+03  0.97335604503E+03  0.00000000000E+00 0. -1.
         22    1    3    3    0    0 -0.58297528320E+02 -0.27525454562E+02  0.49335631494E+02  0.81180397831E+02  0.00000000000E+00 0. -1.
         22    1    3    3    0    0  0.56905312042E+02 -0.47511273933E+02  0.45999351609E+01  0.74274457877E+02  0.00000000000E+00 0. -1.
</event>
<event>
 7    1  0.7457412E-006  0.8328584E+02  0.7818608E-02  0.1469390E+00
          2   -1    0    0  502    0  0.00000000000E+00  0.00000000000E+00  0.75004073699E+03  0.75004073699E+03  0.00000000000E+00 0. -1.
          1   -1    0    0  501    0 -0.00000000000E+00 -0.00000000000E+00 -0.71494880675E+03  0.71494880675E+03  0.00000000000E+00 0. -1.
         25    2    1    2    0    0  0.59668046941E+02 -0.79388951916E+02  0.81407721957E+02  0.17920819216E+03  0.12500190971E+03 0.  0.
          2    1    1    2  501    0 -0.62714477248E+02  0.54384487674E+02 -0.66320410151E+03  0.66837897814E+03  0.00000000000E+00 0. -1.
          1    1    1    2  502    0  0.30464303076E+01  0.25004464242E+02  0.61688830979E+03  0.61740237344E+03  0.00000000000E+00 0. -1.
         22    1    3    3    0    0 -0.16926148202E+02  0.91168064379E+01  0.56309206405E+02  0.59500734269E+02  0.00000000000E+00 0. -1.
         22    1    3    3    0    0  0.76594195142E+02 -0.88505758354E+02  0.25098515552E+02  0.11970745789E+03  0.00000000000E+00 0. -1.
</event>
<event>
 7    1  0.7457412E-006  0.4904960E+02  0.7818608E-02  0.1477455E+00
          2   -1    0    0  502    0  0.00000000000E+00  0.00000000000E+00  0.51444604739E+03  0.51444604739E+03  0.00000000000E+00 0. -1.
          1   -1    0    0  501    0 -0.00000000000E+00 -0.00000000000E+00 -0.28727717929E+04  0.28727717929E+04  0.00000000000E+00 0. -1.
         25    2    1    2    0    0 -0.74037787088E+01  0.26785625267E+02 -0.11460954242E+04  0.11532265419E+04  0.12499780034E+03 0.  0.
          2    1    1    2  501    0 -0.38951911371E+02 -0.10649943969E+02 -0.17216945627E+04  0.17221680638E+04  0.00000000000E+00 0. -1.
          1    1    1    2  502    0  0.46355690079E+02 -0.16135681298E+02  0.50946424136E+03  0.51182323456E+03  0.00000000000E+00 0. -1.
         22    1    3    3    0    0  0.21171151036E+02  0.35581227196E+02 -0.12470343446E+03  0.13139706211E+03  0.00000000000E+00 0.  1.
         22    1    3    3    0    0 -0.28574929745E+02 -0.87956019291E+01 -0.10213919897E+04  0.10218294798E+04  0.00000000000E+00 0.  1.
</event>
<event>
 7    1  0.7457412E-006  0.1310134E+03  0.7818608E-02  0.1323613E+00
          2   -1    0    0  502    0  0.00000000000E+00  0.00000000000E+00  0.83629182378E+03  0.83629182378E+03  0.00000000000E+00 0. -1.
          1   -1    0    0  501    0 -0.00000000000E+00 -0.00000000000E+00 -0.51270618043E+03  0.51270618043E+03  0.00000000000E+00 0. -1.
         25    2    1    2    0    0 -0.10320276340E+03 -0.70147213371E+02 -0.23824199114E+03  0.29657342464E+03  0.12500043178E+03 0.  0.
          2    1    1    2  501    0 -0.25583910056E+02  0.44416470488E+02 -0.23720031335E+03  0.24267539628E+03  0.00000000000E+00 0. -1.
          1    1    1    2  502    0  0.12878667346E+03  0.25730742883E+02  0.79902794785E+03  0.80974918329E+03  0.00000000000E+00 0. -1.
         22    1    3    3    0    0 -0.50813839431E+02 -0.10141544697E+03 -0.17622601168E+03  0.20957754258E+03  0.00000000000E+00 0.  1.
         22    1    3    3    0    0 -0.52388923968E+02  0.31268233601E+02 -0.62015979463E+02  0.86995882063E+02  0.00000000000E+00 0.  1.
</event>
<event>
 7    1  0.7457412E-006  0.1043613E+03  0.7818608E-02  0.1364191E+00
          2   -1    0    0  502    0  0.00000000000E+00  0.00000000000E+00  0.39907287707E+03  0.39907287707E+03  0.00000000000E+00 0. -1.
          1   -1    0    0  501    0 -0.00000000000E+00 -0.00000000000E+00 -0.92660728524E+03  0.92660728524E+03  0.00000000000E+00 0. -1.
         25    2    1    2    0    0 -0.65882682409E+02  0.28168989205E+01 -0.81980881008E+02  0.16338833423E+03  0.12500568047E+03 0.  0.
          2    1    1    2  501    0  0.10648529687E+03  0.17423976281E+02 -0.79884500141E+03  0.80609928029E+03  0.00000000000E+00 0. -1.
          1    1    1    2  502    0 -0.40602614465E+02 -0.20240875201E+02  0.35329147425E+03  0.35619254780E+03  0.00000000000E+00 0. -1.
         22    1    3    3    0    0 -0.57550152122E+02  0.43577491037E+01 -0.11533767302E+03  0.12897204660E+03  0.00000000000E+00 0. -1.
         22    1    3    3    0    0 -0.83325302864E+01 -0.15408501831E+01  0.33356792014E+02  0.34416287623E+02  0.00000000000E+00 0. -1.
</event>
<event>
 7    1  0.7457412E-006  0.4082571E+02  0.7818608E-02  0.1586561E+00
          2   -1    0    0  502    0  0.00000000000E+00  0.00000000000E+00  0.97120636380E+03  0.97120636380E+03  0.00000000000E+00 0. -1.
          1   -1    0    0  501    0 -0.00000000000E+00 -0.00000000000E+00 -0.38302191531E+03  0.38302191531E+03  0.00000000000E+00 0. -1.
         25    2    1    2    0    0 -0.79495674782E+01 -0.21229865111E+02 -0.45907266686E+01  0.12712193085E+03  0.12500003095E+03 0.  0.
          2    1    1    2  501    0 -0.50692541813E+01  0.40967396527E+02 -0.31566794313E+03  0.31835557988E+03  0.00000000000E+00 0. -1.
          1    1    1    2  502    0  0.13018821660E+02 -0.19737531415E+02  0.90844311829E+03  0.90875076838E+03  0.00000000000E+00 0. -1.
         22    1    3    3    0    0  0.20148829743E+02 -0.57514437395E+01 -0.59747171159E+02  0.63314918516E+02  0.00000000000E+00 0.  1.
         22    1    3    3    0    0 -0.28098397221E+02 -0.15478421372E+02  0.55156444491E+02  0.63807012337E+02  0.00000000000E+00 0.  1.
</event>
<event>
 7    1  0.7457412E-006  0.6992947E+02  0.7818608E-02  0.1376216E+00
          2   -1    0    0  502    0  0.00000000000E+00  0.00000000000E+00  0.70088199436E+03  0.70088199436E+03  0.00000000000E+00 0. -1.
          1   -1    0    0  501    0 -0.00000000000E+00 -0.00000000000E+00 -0.42351015383E+02  0.42351015383E+02  0.00000000000E+00 0. -1.
         25    2    1    2    0    0  0.10546176361E+02  0.17089382422E+02  0.16400994545E+03  0.20718195423E+03  0.12498732386E+03 0.  0.
          2    1    1    2  501    0 -0.77609246773E+02 -0.36905414297E+02  0.85963743156E+02  0.12155233411E+03  0.00000000000E+00 0. -1.
          1    1    1    2  502    0  0.67063070413E+02  0.19816031876E+02  0.40855729037E+03  0.41449872140E+03  0.00000000000E+00 0. -1.
         22    1    3    3    0    0 -0.42328449879E+02  0.19204155775E+02  0.14665820631E+02  0.48739958586E+02  0.00000000000E+00 0.  1.
         22    1    3    3    0    0  0.52874626239E+02 -0.21147733539E+01  0.14934412482E+03  0.15844199565E+03  0.00000000000E+00 0.  1.
</event>
<event>
 7    1  0.7457412E-006  0.6724197E+02  0.7818608E-02  0.1435606E+00
          2   -1    0    0  502    0  0.00000000000E+00  0.00000000000E+00  0.45451685289E+03  0.45451685289E+03  0.00000000000E+00 0. -1.
          1   -1    0    0  501    0 -0.00000000000E+00 -0.00000000000E+00 -0.28528997730E+03  0.28528997730E+03  0.00000000000E+00 0. -1.
         25    2    1    2    0    0 -0.38006296241E+02  0.31430869690E+02  0.23867371207E+03  0.27390341707E+03  0.12500225170E+03 0.  0.
          2    1    1    2  501    0  0.17089603519E+02 -0.65506120998E+02 -0.26130043779E+03  0.26992781484E+03  0.00000000000E+00 0. -1.
          1    1    1    2  502    0  0.20916692722E+02  0.34075251308E+02  0.19185360131E+03  0.19597559828E+03  0.00000000000E+00 0. -1.
         22    1    3    3    0    0  0.25365487187E+02 -0.25801476322E+02  0.13409955631E+03  0.13889497876E+03  0.00000000000E+00 0. -1.
         22    1    3    3    0    0 -0.63371783429E+02  0.57232346012E+02  0.10457415575E+03  0.13500843832E+03  0.00000000000E+00 0. -1.
</event>
<event>
 7    1  0.7457412E-006  0.5373992E+02  0.7818608E-02  0.1491566E+00
          2   -1    0    0  502    0  0.00000000000E+00  0.00000000000E+00  0.23704629563E+04  0.23704629563E+04  0.00000000000E+00 0. -1.
          1   -1    0    0  501    0 -0.00000000000E+00 -0.00000000000E+00 -0.36407146442E+03  0.36407146442E+03  0.00000000000E+00 0. -1.
         25    2    1    2    0    0  0.82382002908E+02  0.36787321384E+01  0.90678107522E+03  0.91906353405E+03  0.12500213508E+03 0.  0.
          2    1    1    2  501    0 -0.51293316093E+02 -0.15836579196E+02 -0.35572494007E+03  0.35975274079E+03  0.00000000000E+00 0. -1.
          1    1    1    2  502    0 -0.31088686815E+02  0.12157847058E+02  0.14553353567E+04  0.14557181459E+04  0.00000000000E+00 0. -1.
         22    1    3    3    0    0  0.67455467220E+02 -0.32062667922E+02  0.24455503595E+03  0.25570572997E+03  0.00000000000E+00 0.  1.
         22    1    3    3    0    0  0.14926535688E+02  0.35741400061E+02  0.66222603927E+03  0.66335780408E+03  0.00000000000E+00 0.  1.
</event>
<event>
 7    1  0.7457412E-006  0.5527750E+02  0.7818608E-02  0.1432101E+00
          2   -1    0    0  502    0  0.00000000000E+00  0.00000000000E+00  0.22964315944E+03  0.22964315944E+03  0.00000000000E+00 0. -1.
          1   -1    0    0  501    0 -0.00000000000E+00 -0.00000000000E+00 -0.11314161858E+04  0.11314161858E+04  0.00000000000E+00 0. -1.
         25    2    1    2    0    0 -0.99871075727E+02 -0.29021815228E+02 -0.11618072176E+03  0.19984781870E+03  0.12499877201E+03 0.  0.
          2    1    1    2  501    0  0.48152141279E+02  0.13239343678E+02 -0.96885329593E+03  0.97013948377E+03  0.00000000000E+00 0. -1.
          1    1    1    2  502    0  0.51718934448E+02  0.15782471550E+02  0.18326099133E+03  0.19107204278E+03  0.00000000000E+00 0. -1.
         22    1    3    3    0    0 -0.44441965772E+01  0.28615313359E+02  0.10769488223E+02  0.30896098758E+02  0.00000000000E+00 0.  1.
         22    1    3    3    0    0 -0.95426879149E+02 -0.57637128587E+02 -0.12695020998E+03  0.16895171994E+03  0.00000000000E+00 0.  1.
</event>
<event>
 7    1  0.7457412E-006  0.6819471E+02  0.7818608E-02  0.1375187E+00
          2   -1    0    0  502    0  0.00000000000E+00  0.00000000000E+00  0.58016458698E+03  0.58016458698E+03  0.00000000000E+00 0. -1.
          1   -1    0    0  501    0 -0.00000000000E+00 -0.00000000000E+00 -0.85892786847E+03  0.85892786847E+03  0.00000000000E+00 0. -1.
         25    2    1    2    0    0  0.82701992366E+02  0.70634005545E+02  0.20655323258E+03  0.26479624054E+03  0.12499611526E+03 0.  0.
          2    1    1    2  501    0 -0.67442939897E+02 -0.91130338640E+01 -0.82547847330E+03  0.82827912410E+03  0.00000000000E+00 0. -1.
          1    1    1    2  502    0 -0.15259052469E+02 -0.61520971681E+02  0.34016195923E+03  0.34601709083E+03  0.00000000000E+00 0. -1.
         22    1    3    3    0    0  0.85074927186E+01  0.42446898961E+02 -0.24352940739E+00  0.43291754069E+02  0.00000000000E+00 0. -1.
         22    1    3    3    0    0  0.74194499647E+02  0.28187106584E+02  0.20679676199E+03  0.22150448647E+03  0.00000000000E+00 0. -1.
</event>
<event>
 7    1  0.7457412E-006  0.1080444E+03  0.7818608E-02  0.1335614E+00
          2   -1    0    0  502    0  0.00000000000E+00  0.00000000000E+00  0.14025804944E+04  0.14025804944E+04  0.00000000000E+00 0. -1.
          1   -1    0    0  501    0 -0.00000000000E+00 -0.00000000000E+00 -0.27131186187E+03  0.27131186187E+03  0.00000000000E+00 0. -1.
         25    2    1    2    0    0 -0.14211856402E+03 -0.69331612727E+02  0.91497709228E+02  0.22136260180E+03  0.12500004768E+03 0.  0.
          2    1    1    2  501    0  0.87990931199E+02  0.55273122224E+02 -0.19262530956E+03  0.21886532822E+03  0.00000000000E+00 0. -1.
          1    1    1    2  502    0  0.54127632822E+02  0.14058490503E+02  0.12323962329E+04  0.12336644263E+04  0.00000000000E+00 0. -1.
         22    1    3    3    0    0 -0.12361072397E+03 -0.10197976746E+03  0.90025660970E+02  0.18380452575E+03  0.00000000000E+00 0. -1.
         22    1    3    3    0    0 -0.18507840047E+02  0.32648154732E+02  0.14720482577E+01  0.37558076052E+02  0.00000000000E+00 0. -1.
</event>
<event>
 7    1  0.7457412E-006  0.8060617E+02  0.7818608E-02  0.1370621E+00
          2   -1    0    0  502    0  0.00000000000E+00  0.00000000000E+00  0.46136884596E+03  0.46136884596E+03  0.00000000000E+00 0. -1.
          1   -1    0    0  501    0 -0.00000000000E+00 -0.00000000000E+00 -0.67625233565E+02  0.67625233565E+02  0.00000000000E+00 0. -1.
         25    2    1    2    0    0 -0.47123779944E+02 -0.34296180002E+02  0.24086520528E+03  0.27755794886E+03  0.12500195704E+03 0.  0.
          2    1    1    2  501    0  0.86002620205E+02 -0.55648387001E+01 -0.26679330532E+01  0.86223755303E+02  0.00000000000E+00 0. -1.
          1    1    1    2  502    0 -0.38878840260E+02  0.39861018702E+02  0.15554634017E+03  0.16521237536E+03  0.00000000000E+00 0. -1.
         22    1    3    3    0    0 -0.33075621146E+02 -0.41930853347E+02  0.21436520221E+02  0.57547524498E+02  0.00000000000E+00 0. -1.
         22    1    3    3    0    0 -0.14048158798E+02  0.76346733451E+01  0.21942868505E+03  0.22001042436E+03  0.00000000000E+00 0. -1.
</event>
<event>
 7    1  0.7457412E-006  0.1536985E+03  0.7818608E-02  0.1302071E+00
          2   -1    0    0  502    0  0.00000000000E+00  0.00000000000E+00  0.21442403810E+04  0.21442403810E+04  0.00000000000E+00 0. -1.
          1   -1    0    0  501    0 -0.00000000000E+00 -0.00000000000E+00 -0.23926800474E+03  0.23926800474E+03  0.00000000000E+00 0. -1.
         25    2    1    2    0    0  0.50658523802E+02 -0.18453006303E+03 -0.80068639320E+01  0.22871382048E+03  0.12501308577E+03 0.  0.
          2    1    1    2  501    0 -0.47946008514E+02  0.13151984272E+03 -0.79916397653E+02  0.16119218149E+03  0.00000000000E+00 0. -1.
          1    1    1    2  502    0 -0.27125152882E+01  0.53010220317E+02  0.19928956379E+04  0.19936023838E+04  0.00000000000E+00 0. -1.
         22    1    3    3    0    0  0.57135463871E+02 -0.16274031143E+03 -0.51188514131E+02  0.17991424117E+03  0.00000000000E+00 0. -1.
         22    1    3    3    0    0 -0.64769400693E+01 -0.21789751606E+02  0.43181650199E+02  0.48799579318E+02  0.00000000000E+00 0. -1.
</event>
<event>
 7    1  0.7457412E-006  0.9479967E+02  0.7818608E-02  0.1413730E+00
          2   -1    0    0  502    0  0.00000000000E+00  0.00000000000E+00  0.20383248845E+03  0.20383248845E+03  0.00000000000E+00 0. -1.
          1   -1    0    0  501    0 -0.00000000000E+00 -0.00000000000E+00 -0.38359703168E+03  0.38359703168E+03  0.00000000000E+00 0. -1.
         25    2    1    2    0    0  0.87958872489E+02  0.64507236627E+02 -0.13524122187E+03  0.21404083973E+03  0.12500138460E+03 0.  0.
          2    1    1    2  501    0 -0.86611748257E+02 -0.31015753055E+02 -0.19691966337E+03  0.21734977731E+03  0.00000000000E+00 0. -1.
          1    1    1    2  502    0 -0.13471242315E+01 -0.33491483571E+02  0.15239634202E+03  0.15603890309E+03  0.00000000000E+00 0. -1.
         22    1    3    3    0    0  0.59734391049E+02  0.47163171364E-02 -0.13044348043E+03  0.14347020277E+03  0.00000000000E+00 0.  1.
         22    1    3    3    0    0  0.28224481439E+02  0.64502520310E+02 -0.47977414491E+01  0.70570636966E+02  0.00000000000E+00 0.  1.
</event>
<event>
 7    1  0.7457412E-006  0.1236609E+03  0.7818608E-02  0.1303493E+00
          2   -1    0    0  502    0  0.00000000000E+00  0.00000000000E+00  0.12780577125E+04  0.12780577125E+04  0.00000000000E+00 0. -1.
          1   -1    0    0  501    0 -0.00000000000E+00 -0.00000000000E+00 -0.74149588081E+03  0.74149588081E+03  0.00000000000E+00 0. -1.
         25    2    1    2    0    0  0.11010818550E+03  0.13465481578E+03  0.22372253946E+03  0.30973028043E+03  0.12500136011E+03 0.  0.
          2    1    1    2  501    0 -0.59778936015E+02 -0.25822059770E+02 -0.69340707786E+03  0.69645794962E+03  0.00000000000E+00 0. -1.
          1    1    1    2  502    0 -0.50329249484E+02 -0.10883275601E+03  0.10062463701E+04  0.10133653633E+04  0.00000000000E+00 0. -1.
         22    1    3    3    0    0  0.13297382790E+03  0.11653718516E+03  0.15523778558E+03  0.23529072337E+03  0.00000000000E+00 0. -1.
         22    1    3    3    0    0 -0.22865642404E+02  0.18117630613E+02  0.68484753877E+02  0.74439557059E+02  0.00000000000E+00 0. -1.
</event>
<event>
 7    1  0.7457412E-006  0.9799083E+02  0.7818608E-02  0.1401747E+00
          2   -1    0    0  502    0  0.00000000000E+00  0.00000000000E+00  0.10852702869E+04  0.10852702869E+04  0.00000000000E+00 0. -1.
          1   -1    0    0  501    0 -0.00000000000E+00 -0.00000000000E+00 -0.52016041249E+03  0.52016041249E+03  0.00000000000E+00 0. -1.
         25    2    1    2    0    0 -0.11579952863E+03 -0.60736133781E+02 -0.32370933936E+03  0.37082308435E+03  0.12499445877E+03 0.  0.
          2    1    1    2  501    0  0.35211956389E+02  0.53525094903E+01 -0.16878026958E+03  0.17249727716E+03  0.00000000000E+00 0. -1.
          1    1    1    2  502    0  0.80587572245E+02  0.55383624291E+02  0.10575994834E+04  0.10621103379E+04  0.00000000000E+00 0. -1.
         22    1    3    3    0    0 -0.90168948512E+01 -0.47534175547E+02 -0.27441176315E+02  0.55622121456E+02  0.00000000000E+00 0. -1.
         22    1    3    3    0    0 -0.10678263378E+03 -0.13201958234E+02 -0.29626816304E+03  0.31520096290E+03  0.00000000000E+00 0. -1.
</event>
<event>
 7    1  0.7457412E-006  0.5983837E+02  0.7818608E-02  0.1419370E+00
          2   -1    0    0  502    0  0.00000000000E+00  0.00000000000E+00  0.72759503257E+03  0.72759503257E+03  0.00000000000E+00 0. -1.
          1   -1    0    0  501    0 -0.00000000000E+00 -0.00000000000E+00 -0.73808929518E+02  0.73808929518E+02  0.00000000000E+00 0. -1.
         25    2    1    2    0    0  0.12981028672E+02 -0.62147745078E+02  0.74992342908E+02  0.15899553186E+03  0.12499951333E+03 0.  0.
          2    1    1    2  501    0  0.36761563856E+02  0.51656306280E+02  0.20566621347E+01  0.63435135492E+02  0.00000000000E+00 0. -1.
          1    1    1    2  502    0 -0.49742592528E+02  0.10491438798E+02  0.57673709801E+03  0.57897329474E+03  0.00000000000E+00 0. -1.
         22    1    3    3    0    0  0.48359529301E+02 -0.84565107268E+02  0.60510342976E+02  0.11467956683E+03  0.00000000000E+00 0. -1.
         22    1    3    3    0    0 -0.35378500629E+02  0.22417362190E+02  0.14481999932E+02  0.44315965028E+02  0.00000000000E+00 0. -1.
</event>
<event>
 7    1  0.7457412E-006  0.7209165E+02  0.7818608E-02  0.1393298E+00
          2   -1    0    0  502    0  0.00000000000E+00  0.00000000000E+00  0.67264658941E+02  0.67264658941E+02  0.00000000000E+00 0. -1.
          1   -1    0    0  501    0 -0.00000000000E+00 -0.00000000000E+00 -0.97642832354E+03  0.97642832354E+03  0.00000000000E+00 0. -1.
         25    2    1    2    0    0 -0.21489928297E+02  0.21219937660E+02 -0.17342773581E+03  0.21591197950E+03  0.12501480140E+03 0.  0.
          2    1    1    2  501    0  0.21672036754E+02 -0.72993476857E+02 -0.76468284212E+03  0.76846442590E+03  0.00000000000E+00 0. -1.
          1    1    1    2  502    0 -0.18210845648E+00  0.51773539197E+02  0.28946913340E+02  0.59316577079E+02  0.00000000000E+00 0. -1.
         22    1    3    3    0    0 -0.93898836080E+01  0.23739242804E+02  0.13293175285E+02  0.28782461191E+02  0.00000000000E+00 0. -1.
         22    1    3    3    0    0 -0.12100044689E+02 -0.25193051437E+01 -0.18672091110E+03  0.18712951830E+03  0.00000000000E+00 0. -1.
</event>
<event>
 7    1  0.7457412E-006  0.1240470E+03  0.7818608E-02  0.1253875E+00
          2   -1    0    0  502    0  0.00000000000E+00  0.00000000000E+00  0.22200923830E+03  0.22200923830E+03  0.00000000000E+00 0. -1.
          1   -1    0    0  501    0 -0.00000000000E+00 -0.00000000000E+00 -0.44803128254E+03  0.44803128254E+03  0.00000000000E+00 0. -1.
         25    2    1    2    0    0  0.28262965454E+02 -0.93960563360E+02 -0.22239976819E+02  0.16045867690E+03  0.12499995096E+03 0.  0.
          2    1    1    2  501    0  0.74166004100E+02  0.11313762369E+03 -0.32362878434E+03  0.35076531771E+03  0.00000000000E+00 0. -1.
          1    1    1    2  502    0 -0.10242896955E+03 -0.19177060327E+02  0.11984671692E+03  0.15881652623E+03  0.00000000000E+00 0. -1.
         22    1    3    3    0    0 -0.35339797579E+02  0.81882249933E+01  0.62248482730E+01  0.36806209496E+02  0.00000000000E+00 0. -1.
         22    1    3    3    0    0  0.63602763033E+02 -0.10214878835E+03 -0.28464825092E+02  0.12365246740E+03  0.00000000000E+00 0. -1.
</event>
<event>
 7    1  0.7457412E-006  0.6803085E+02  0.7818608E-02  0.1459538E+00
          2   -1    0    0  502    0  0.00000000000E+00  0.00000000000E+00  0.60423049876E+03  0.60423049876E+03  0.00000000000E+00 0. -1.
          1   -1    0    0  501    0 -0.00000000000E+00 -0.00000000000E+00 -0.73691862487E+02  0.73691862487E+02  0.00000000000E+00 0. -1.
         25    2    1    2    0    0  0.46207447970E+02  0.99749956239E+01  0.15556992798E+03  0.20507881235E+03  0.12498275079E+03 0.  0.
          2    1    1    2  501    0 -0.58983607924E+02 -0.40521359074E+02 -0.21712504110E+02  0.74782881595E+02  0.00000000000E+00 0. -1.
          1    1    1    2  502    0  0.12776159955E+02  0.30546363450E+02  0.39668121240E+03  0.39806066731E+03  0.00000000000E+00 0. -1.
         22    1    3    3    0    0  0.35726743467E+02  0.45423044017E+02  0.15779754860E+03  0.16804677763E+03  0.00000000000E+00 0. -1.
         22    1    3    3    0    0  0.10480704502E+02 -0.35448048393E+02 -0.22276206207E+01  0.37032034718E+02  0.00000000000E+00 0. -1.
</event>
<event>
 7    1  0.7457412E-006  0.1665605E+03  0.7818608E-02  0.1327782E+00
          2   -1    0    0  502    0  0.00000000000E+00  0.00000000000E+00  0.11809142447E+04  0.11809142447E+04  0.00000000000E+00 0. -1.
          1   -1    0    0  501    0 -0.00000000000E+00 -0.00000000000E+00 -0.51362888295E+03  0.51362888295E+03  0.00000000000E+00 0. -1.
         25    2    1    2    0    0 -0.12251993162E+03 -0.57192122177E+02 -0.35694793636E+01  0.18417352858E+03  0.12500029984E+03 0.  0.
          2    1    1    2  501    0  0.15151166844E+03  0.83063754176E+02 -0.40160928936E+03  0.43720177748E+03  0.00000000000E+00 0. -1.
          1    1    1    2  502    0 -0.28991736818E+02 -0.25871631999E+02  0.10724641305E+04  0.10731678216E+04  0.00000000000E+00 0. -1.
         22    1    3    3    0    0 -0.13483901886E+03 -0.73373508793E+02 -0.23967440749E+02  0.15536946616E+03  0.00000000000E+00 0. -1.
         22    1    3    3    0    0  0.12319087232E+02  0.16181386616E+02  0.20397961386E+02  0.28804062417E+02  0.00000000000E+00 0. -1.
</event>
<event>
 7    1  0.7457412E-006  0.1557954E+03  0.7818608E-02  0.1201916E+00
          2   -1    0    0  502    0  0.00000000000E+00  0.00000000000E+00  0.35233027353E+03  0.35233027353E+03  0.00000000000E+00 0. -1.
          1   -1    0    0  501    0 -0.00000000000E+00 -0.00000000000E+00 -0.17893600561E+04  0.17893600561E+04  0.00000000000E+00 0. -1.
         25    2    1    2    0    0 -0.11499410100E+03 -0.17254430178E+03  0.30699501243E+02  0.24405344123E+03  0.12499777380E+03 0.  0.
          2    1    1    2  501    0  0.14059460620E+03  0.21163904083E+02 -0.16518196693E+04  0.16579273127E+04  0.00000000000E+00 0. -1.
          1    1    1    2  502    0 -0.25600505197E+02  0.15138039770E+03  0.18409038549E+03  0.23970957575E+03  0.00000000000E+00 0. -1.
         22    1    3    3    0    0 -0.58200735760E+02 -0.92166946669E+02  0.78805634441E+02  0.13450799129E+03  0.00000000000E+00 0.  1.
         22    1    3    3    0    0 -0.56793365242E+02 -0.80377355114E+02 -0.48106133197E+02  0.10954544994E+03  0.00000000000E+00 0.  1.
</event>
<event>
 7    1  0.7457412E-006  0.9286306E+02  0.7818608E-02  0.1443473E+00
          2   -1    0    0  502    0  0.00000000000E+00  0.00000000000E+00  0.11343813394E+04  0.11343813394E+04  0.00000000000E+00 0. -1.
          1   -1    0    0  501    0 -0.00000000000E+00 -0.00000000000E+00 -0.94248763003E+02  0.94248763003E+02  0.00000000000E+00 0. -1.
         25    2    1    2    0    0 -0.14935223489E+02 -0.69483730004E+02  0.30919155235E+03  0.34099185309E+03  0.12499991279E+03 0.  0.
          2    1    1    2  501    0  0.46256708071E+01  0.94759622206E+02 -0.49301864461E+02  0.10691799040E+03  0.00000000000E+00 0. -1.
          1    1    1    2  502    0  0.10309552682E+02 -0.25275892202E+02  0.78024288856E+03  0.78072025896E+03  0.00000000000E+00 0. -1.
         22    1    3    3    0    0  0.33602752454E+02  0.18836170837E+02  0.12786147766E+03  0.13353839813E+03  0.00000000000E+00 0.  1.
         22    1    3    3    0    0 -0.48537975943E+02 -0.88319900841E+02  0.18133007468E+03  0.20745345497E+03  0.00000000000E+00 0.  1.
</event>
<event>
 7    1  0.7457412E-006  0.1577599E+03  0.7818608E-02  0.1212326E+00
          2   -1    0    0  502    0  0.00000000000E+00  0.00000000000E+00  0.93393062637E+03  0.93393062637E+03  0.00000000000E+00 0. -1.
          1   -1    0    0  501    0 -0.00000000000E+00 -0.00000000000E+00 -0.50358794447E+03  0.50358794447E+03  0.00000000000E+00 0. -1.
         25    2    1    2    0    0  0.14314071357E+03  0.20432102816E+03  0.22600589517E+03  0.35908115741E+03  0.12499706607E+03 0.  0.
          2    1    1    2  501    0 -0.11018745528E+03 -0.60222291660E+02 -0.41920803518E+03  0.43761098760E+03  0.00000000000E+00 0. -1.
          1    1    1    2  502    0 -0.32953258286E+02 -0.14409873650E+03  0.62354482191E+03  0.64082642582E+03  0.00000000000E+00 0. -1.
         22    1    3    3    0    0  0.83434324617E+02  0.83218884391E+02  0.30924825603E+02  0.12183190913E+03  0.00000000000E+00 0. -1.
         22    1    3    3    0    0  0.59706388954E+02  0.12110214377E+03  0.19508106956E+03  0.23724924828E+03  0.00000000000E+00 0. -1.
</event>
<event>
 7    1  0.7457412E-006  0.6612189E+02  0.7818608E-02  0.1419890E+00
          2   -1    0    0  502    0  0.00000000000E+00  0.00000000000E+00  0.18021084892E+03  0.18021084892E+03  0.00000000000E+00 0. -1.
          1   -1    0    0  501    0 -0.00000000000E+00 -0.00000000000E+00 -0.25175447150E+04  0.25175447150E+04  0.00000000000E+00 0. -1.
         25    2    1    2    0    0 -0.89308279810E+02  0.47163606892E+02 -0.13341382525E+03  0.20887937874E+03  0.12502388347E+03 0.  0.
          2    1    1    2  501    0  0.45812379411E+02  0.95468699625E+00 -0.23387797456E+04  0.23392285874E+04  0.00000000000E+00 0. -1.
          1    1    1    2  502    0  0.43495900399E+02 -0.48118293888E+02  0.13485970477E+03  0.14964759781E+03  0.00000000000E+00 0. -1.
         22    1    3    3    0    0 -0.88228400673E+02 -0.18138889260E+02 -0.50273276538E+02  0.10315363456E+03  0.00000000000E+00 0.  1.
         22    1    3    3    0    0 -0.10798791367E+01  0.65302496152E+02 -0.83140548714E+02  0.10572574418E+03  0.00000000000E+00 0.  1.
</event>
<event>
 7    1  0.7457412E-006  0.7023915E+02  0.7818608E-02  0.1490226E+00
          2   -1    0    0  502    0  0.00000000000E+00  0.00000000000E+00  0.73639634673E+03  0.73639634673E+03  0.00000000000E+00 0. -1.
          1   -1    0    0  501    0 -0.00000000000E+00 -0.00000000000E+00 -0.25062733359E+03  0.25062733359E+03  0.00000000000E+00 0. -1.
         25    2    1    2    0    0 -0.45197612321E+02 -0.50530078062E+02 -0.77014972893E+02  0.16171461155E+03  0.12499678633E+03 0.  0.
          2    1    1    2  501    0  0.20673081414E+02 -0.15401167486E+02 -0.12819361313E+03  0.13075998892E+03  0.00000000000E+00 0. -1.
          1    1    1    2  502    0  0.24524530907E+02  0.65931245547E+02  0.69097759917E+03  0.69454907984E+03  0.00000000000E+00 0. -1.
         22    1    3    3    0    0 -0.68879685569E+01  0.41483342861E+02 -0.29005614952E+02  0.51084611621E+02  0.00000000000E+00 0. -1.
         22    1    3    3    0    0 -0.38309643764E+02 -0.92013420923E+02 -0.48009357941E+02  0.11062999993E+03  0.00000000000E+00 0. -1.
</event>
<event>
 7    1  0.7457412E-006  0.4944818E+02  0.7818608E-02  0.1476478E+00
          2   -1    0    0  502    0  0.00000000000E+00  0.00000000000E+00  0.20701811002E+04  0.20701811002E+04  0.00000000000E+00 0. -1.
          1   -1    0    0  501    0 -0.00000000000E+00 -0.00000000000E+00 -0.56809409502E+03  0.56809409502E+03  0.00000000000E+00 0. -1.
         25    2    1    2    0    0  0.46473089685E+02 -0.15845704241E+02  0.10568991052E+03  0.17089269225E+03  0.12499248246E+03 0.  0.
          2    1    1    2  501    0 -0.19316929646E+02  0.45669052493E+02 -0.53413367874E+03  0.53643041756E+03  0.00000000000E+00 0. -1.
          1    1    1    2  502    0 -0.27156160038E+02 -0.29823348252E+02  0.19305307734E+04  0.19309520854E+04  0.00000000000E+00 0. -1.
         22    1    3    3    0    0 -0.11298275130E+02  0.32001415555E+02  0.87291911949E+02  0.93656924518E+02  0.00000000000E+00 0.  1.
         22    1    3    3    0    0  0.57771364815E+02 -0.47847119796E+02  0.18397998568E+02  0.77235767729E+02  0.00000000000E+00 0.  1.
</event>
<event>
 7    1  0.7457412E-006  0.7689503E+02  0.7818608E-02  0.1502269E+00
          2   -1    0    0  502    0  0.00000000000E+00  0.00000000000E+00  0.10784322612E+03  0.10784322612E+03  0.00000000000E+00 0. -1.
          1   -1    0    0  501    0 -0.00000000000E+00 -0.00000000000E+00 -0.11669360179E+04  0.11669360179E+04  0.00000000000E+00 0. -1.
         25    2    1    2    0    0  0.24693899591E+02 -0.83472281301E+02 -0.70836437147E+03  0.72455754204E+03  0.12500455408E+03 0.  0.
          2    1    1    2  501    0 -0.55002882297E+01  0.73416200470E+02 -0.44624542076E+03  0.45227775450E+03  0.00000000000E+00 0. -1.
          1    1    1    2  502    0 -0.19193611361E+02  0.10056080831E+02  0.95517000432E+02  0.97943947492E+02  0.00000000000E+00 0. -1.
         22    1    3    3    0    0  0.38411812892E+02  0.21804652420E+02 -0.15858365735E+03  0.16461982449E+03  0.00000000000E+00 0. -1.
         22    1    3    3    0    0 -0.13717913301E+02 -0.10527693372E+03 -0.54978071412E+03  0.55993771755E+03  0.00000000000E+00 0. -1.
</event>
<event>
 7    1  0.7457412E-006  0.6838044E+02  0.7818608E-02  0.1399074E+00
          2   -1    0    0  502    0  0.00000000000E+00  0.00000000000E+00  0.25888441270E+03  0.25888441270E+03  0.00000000000E+00 0. -1.
          1   -1    0    0  501    0 -0.00000000000E+00 -0.00000000000E+00 -0.19044418698E+04  0.19044418698E+04  0.00000000000E+00 0. -1.
         25    2    1    2    0    0  0.20355568371E+02  0.71678483558E+02  0.14866949268E+03  0.20803813524E+03  0.12500037397E+03 0.  0.
          2    1    1    2  501    0  0.30701218313E+02 -0.61153594026E+02 -0.18656276395E+04  0.18668821110E+04  0.00000000000E+00 0. -1.
          1    1    1    2  502    0 -0.51056786684E+02 -0.10524889532E+02  0.71400689720E+02  0.88406036325E+02  0.00000000000E+00 0. -1.
         22    1    3    3    0    0  0.42349277353E+02  0.23389584487E+01 -0.12452832824E+00  0.42414001536E+02  0.00000000000E+00 0.  1.
         22    1    3    3    0    0 -0.21993708983E+02  0.69339525110E+02  0.14879402101E+03  0.16562413371E+03  0.00000000000E+00 0.  1.
</event>
<event>
 7    1  0.7457412E-006  0.1533597E+03  0.7818608E-02  0.1373685E+00
          2   -1    0    0  502    0  0.00000000000E+00  0.00000000000E+00  0.88794904316E+03  0.88794904316E+03  0.00000000000E+00 0. -1.
          1   -1    0    0  501    0 -0.00000000000E+00 -0.00000000000E+00 -0.14084106205E+04  0.14084106205E+04  0.00000000000E+00 0. -1.
         25    2    1    2    0    0  0.17808546377E+03  0.14892171055E+02 -0.24604704508E+03  0.32878028724E+03  0.12498447791E+03 0.  0.
          2    1    1    2  501    0 -0.14954989451E+03 -0.14746170214E+02 -0.11157176805E+04  0.11257924156E+04  0.00000000000E+00 0. -1.
          1    1    1    2  502    0 -0.28535569258E+02 -0.14600084096E+00  0.84130314827E+03  0.84178696077E+03  0.00000000000E+00 0. -1.
         22    1    3    3    0    0  0.91447764960E+02  0.57746657393E+02 -0.72734601825E+02  0.13033684229E+03  0.00000000000E+00 0.  1.
         22    1    3    3    0    0  0.86637698805E+02 -0.42854486338E+02 -0.17331244325E+03  0.19844344494E+03  0.00000000000E+00 0.  1.
</event>
<event>
 7    1  0.7457412E-006  0.5371207E+02  0.7818608E-02  0.1527945E+00
          2   -1    0    0  502    0  0.00000000000E+00  0.00000000000E+00  0.98160456357E+03  0.98160456357E+03  0.00000000000E+00 0. -1.
          1   -1    0    0  501    0 -0.00000000000E+00 -0.00000000000E+00 -0.10406972097E+04  0.10406972097E+04  0.00000000000E+00 0. -1.
         25    2    1    2    0    0 -0.20243095426E+02  0.24057920019E+02 -0.15160898238E+02  0.12977772180E+03  0.12499535116E+03 0.  0.
          2    1    1    2  501    0  0.30341468508E+00  0.26095283308E+02 -0.96726387612E+03  0.96761586485E+03  0.00000000000E+00 0. -1.
          1    1    1    2  502    0  0.19939680741E+02 -0.50153203327E+02  0.92333212823E+03  0.92490818663E+03  0.00000000000E+00 0. -1.
         22    1    3    3    0    0 -0.14997139250E+02 -0.14813227731E+02  0.49696420742E+02  0.53982220555E+02  0.00000000000E+00 0.  1.
         22    1    3    3    0    0 -0.52459561768E+01  0.38871147750E+02 -0.64857318980E+02  0.75795501244E+02  0.00000000000E+00 0.  1.
</event>
<event>
 7    1  0.7457412E-006  0.4975529E+02  0.7818608E-02  0.1524483E+00
          2   -1    0    0  502    0  0.00000000000E+00  0.00000000000E+00  0.30537159288E+03  0.30537159288E+03  0.00000000000E+00 0. -1.
          1   -1    0    0  501    0 -0.00000000000E+00 -0.00000000000E+00 -0.65249170573E+03  0.65249170573E+03  0.00000000000E+00 0. -1.
         25    2    1    2    0    0  0.76724878065E+02 -0.15969775339E+02  0.10456586330E+03  0.18082873583E+03  0.12499308500E+03 0.  0.
          2    1    1    2  501    0 -0.48645013835E+02  0.94506595457E+01 -0.61207393572E+03  0.61407666876E+03  0.00000000000E+00 0. -1.
          1    1    1    2  502    0 -0.28079864229E+02  0.65191157937E+01  0.16038795957E+03  0.16295789401E+03  0.00000000000E+00 0. -1.
         22    1    3    3    0    0  0.82027169418E+02  0.24241860835E+02  0.21204092401E+02  0.88123424094E+02  0.00000000000E+00 0.  1.
         22    1    3    3    0    0 -0.53022913534E+01 -0.40211636175E+02  0.83361770894E+02  0.92705311736E+02  0.00000000000E+00 0.  1.
</event>
<event>
 7    1  0.7457412E-006  0.4393503E+02  0.7818608E-02  0.1493055E+00
          2   -1    0    0  502    0  0.00000000000E+00  0.00000000000E+00  0.22881591217E+04  0.22881591217E+04  0.00000000000E+00 0. -1.
          1   -1    0    0  501    0 -0.00000000000E+00 -0.00000000000E+00 -0.69944943268E+03  0.69944943268E+03  0.00000000000E+00 0. -1.
         25    2    1    2    0    0 -0.52343768362E+02  0.45925028543E+02  0.28253310127E+03  0.31670035656E+03  0.12500073679E+03 0.  0.
          2    1    1    2  501    0  0.40220957201E+02 -0.39141772591E+01 -0.68152685748E+03  0.68272388536E+03  0.00000000000E+00 0. -1.
          1    1    1    2  502    0  0.12122811161E+02 -0.42010851284E+02  0.19877034452E+04  0.19881843124E+04  0.00000000000E+00 0. -1.
         22    1    3    3    0    0 -0.82182885639E+02  0.29311421267E+02  0.26356883882E+03  0.27763594671E+03  0.00000000000E+00 0.  1.
         22    1    3    3    0    0  0.29839117276E+02  0.16613607276E+02  0.18964262446E+02  0.39064409847E+02  0.00000000000E+00 0.  1.
</event>
<event>
 7    1  0.7457412E-006  0.5037799E+02  0.7818608E-02  0.1489081E+00
          2   -1    0    0  502    0  0.00000000000E+00  0.00000000000E+00  0.20446549838E+04  0.20446549838E+04  0.00000000000E+00 0. -1.
          1   -1    0    0  501    0 -0.00000000000E+00 -0.00000000000E+00 -0.23336959905E+03  0.23336959905E+03  0.00000000000E+00 0. -1.
         25    2    1    2    0    0 -0.39245391102E+02  0.72015487686E+02  0.98052944528E+03  0.99186361913E+03  0.12501605775E+03 0.  0.
          2    1    1    2  501    0  0.24207838862E+02 -0.26956126728E+02 -0.22572424351E+03  0.22861339930E+03  0.00000000000E+00 0. -1.
          1    1    1    2  502    0  0.15037552240E+02 -0.45059360958E+02  0.10564801829E+04  0.10575475644E+04  0.00000000000E+00 0. -1.
         22    1    3    3    0    0  0.32121298658E+02  0.70974964645E+02  0.53958274043E+03  0.54517772992E+03  0.00000000000E+00 0. -1.
         22    1    3    3    0    0 -0.71366689760E+02  0.10405230405E+01  0.44094670485E+03  0.44668588921E+03  0.00000000000E+00 0. -1.
</event>
<event>
 7    1  0.7457412E-006  0.5307470E+02  0.7818608E-02  0.1484419E+00
          2   -1    0    0  502    0  0.00000000000E+00  0.00000000000E+00  0.12049864742E+04  0.12049864742E+04  0.00000000000E+00 0. -1.
          1   -1    0    0  501    0 -0.00000000000E+00 -0.00000000000E+00 -0.17411459272E+04  0.17411459272E+04  0.00000000000E+00 0. -1.
         25    2    1    2    0    0 -0.34545434591E+02  0.67924793340E+02  0.41563328655E+03  0.44065044467E+03  0.12495847671E+03 0.  0.
          2    1    1    2  501    0  0.41485628386E+02 -0.33079029047E+02 -0.17278236295E+04  0.17286381270E+04  0.00000000000E+00 0. -1.
          1    1    1    2  502    0 -0.69401937955E+01 -0.34845764293E+02  0.77603088993E+03  0.77684382968E+03  0.00000000000E+00 0. -1.
         22    1    3    3    0    0 -0.28896204707E+02 -0.30157796139E+02  0.19032332325E+03  0.19485238178E+03  0.00000000000E+00 0.  1.
         22    1    3    3    0    0 -0.56492298839E+01  0.98082589479E+02  0.22530996330E+03  0.24579806289E+03  0.00000000000E+00 0.  1.
</event>
<event>
 7    1  0.7457412E-006  0.8085332E+02  0.7818608E-02  0.1463121E+00
          2   -1    0    0  502    0  0.00000000000E+00  0.00000000000E+00  0.66325608653E+03  0.66325608653E+03  0.00000000000E+00 0. -1.
          1   -1    0    0  501    0 -0.00000000000E+00 -0.00000000000E+00 -0.28149549212E+02  0.28149549212E+02  0.00000000000E+00 0. -1.
         25    2    1    2    0    0  0.39928803780E+02  0.86816766764E+02  0.30975684999E+03  0.34742910506E+03  0.12500486616E+03 0.  0.
          2    1    1    2  501    0 -0.17228121230E+02 -0.71932382041E+02  0.15820851373E+03  0.17464538231E+03  0.00000000000E+00 0. -1.
          1    1    1    2  502    0 -0.22700682550E+02 -0.14884384723E+02  0.16714117360E+03  0.16933114837E+03  0.00000000000E+00 0. -1.
         22    1    3    3    0    0 -0.24928750106E+02  0.89477528908E+00  0.16583125197E+03  0.16769689125E+03  0.00000000000E+00 0. -1.
         22    1    3    3    0    0  0.64857553886E+02  0.85921991475E+02  0.14392559802E+03  0.17973221381E+03  0.00000000000E+00 0. -1.
</event>
<event>
 7    1  0.7457412E-006  0.7535695E+02  0.7818608E-02  0.1389188E+00
          2   -1    0    0  502    0  0.00000000000E+00  0.00000000000E+00  0.32831713608E+04  0.32831713608E+04  0.00000000000E+00 0. -1.
          1   -1    0    0  501    0 -0.00000000000E+00 -0.00000000000E+00 -0.13647511426E+03  0.13647511426E+03  0.00000000000E+00 0. -1.
         25    2    1    2    0    0  0.95863816844E+02  0.24143833795E+02  0.52328580888E+03  0.54701567035E+03  0.12500123896E+03 0.  0.
          2    1    1    2  501    0 -0.72091441645E+02  0.21191634070E+02 -0.11302115028E+03  0.13572045433E+03  0.00000000000E+00 0. -1.
          1    1    1    2  502    0 -0.23772375199E+02 -0.45335467865E+02  0.27364315879E+04  0.27369103503E+04  0.00000000000E+00 0. -1.
         22    1    3    3    0    0  0.42972807884E+02 -0.14134460392E+02  0.43428780429E+03  0.43663754092E+03  0.00000000000E+00 0.  1.
         22    1    3    3    0    0  0.52891008959E+02  0.38278294188E+02  0.88998004590E+02  0.11037812943E+03  0.00000000000E+00 0.  1.
</event>
<event>
 7    1  0.7457412E-006  0.8478537E+02  0.7818608E-02  0.1349926E+00
          2   -1    0    0  502    0  0.00000000000E+00  0.00000000000E+00  0.47677227997E+03  0.47677227997E+03  0.00000000000E+00 0. -1.
          1   -1    0    0  501    0 -0.00000000000E+00 -0.00000000000E+00 -0.41892454600E+03  0.41892454600E+03  0.00000000000E+00 0. -1.
         25    2    1    2    0    0  0.43897934508E+02  0.35378558665E+02 -0.28192339920E+03  0.31350217788E+03  0.12499656576E+03 0.  0.
          2    1    1    2  501    0  0.19312587184E+02 -0.91885102838E+02 -0.98333804377E+02  0.13596096951E+03  0.00000000000E+00 0. -1.
          1    1    1    2  502    0 -0.63210521691E+02  0.56506544173E+02  0.43810493755E+03  0.44623367857E+03  0.00000000000E+00 0. -1.
         22    1    3    3    0    0 -0.35525609678E+02  0.40453526018E+02 -0.79685360409E+02  0.96168151557E+02  0.00000000000E+00 0.  1.
         22    1    3    3    0    0  0.79423544186E+02 -0.50749673534E+01 -0.20223803879E+03  0.21733402633E+03  0.00000000000E+00 0.  1.
</event>
<event>
 7    1  0.7457412E-006  0.6418701E+02  0.7818608E-02  0.1431273E+00
          2   -1    0    0  502    0  0.00000000000E+00  0.00000000000E+00  0.14062550011E+04  0.14062550011E+04  0.00000000000E+00 0. -1.
          1   -1    0    0  501    0 -0.00000000000E+00 -0.00000000000E+00 -0.34591715654E+03  0.34591715654E+03  0.00000000000E+00 0. -1.
         25    2    1    2    0    0 -0.18964527343E+02 -0.34121967830E+02 -0.18367391370E+02  0.13223572556E+03  0.12499985625E+03 0.  0.
          2    1    1    2  501    0 -0.41618801251E+02  0.11866607018E+02 -0.26810758614E+03  0.27157801591E+03  0.00000000000E+00 0. -1.
          1    1    1    2  502    0  0.60583328594E+02  0.22255360813E+02  0.13468128220E+04  0.13483584161E+04  0.00000000000E+00 0. -1.
         22    1    3    3    0    0 -0.41497039915E+02 -0.36927862396E+01 -0.61853595907E+02  0.74575520907E+02  0.00000000000E+00 0. -1.
         22    1    3    3    0    0  0.22532512572E+02 -0.30429181591E+02  0.43486204537E+02  0.57660204648E+02  0.00000000000E+00 0. -1.
</event>
<event>
 7    1  0.7457412E-006  0.4886245E+02  0.7818608E-02  0.1463970E+00
          2   -1    0    0  502    0  0.00000000000E+00  0.00000000000E+00  0.75502175133E+03  0.75502175133E+03  0.00000000000E+00 0. -1.
          1   -1    0    0  501    0 -0.00000000000E+00 -0.00000000000E+00 -0.38584862646E+03  0.38584862646E+03  0.00000000000E+00 0. -1.
         25    2    1    2    0    0 -0.16935190434E+02  0.19794067342E+01  0.48245823015E+03  0.49867690297E+03  0.12498796337E+03 0.  0.
          2    1    1    2  501    0  0.25513894041E+02  0.41831476333E+02 -0.37424682528E+03  0.37744074691E+03  0.00000000000E+00 0. -1.
          1    1    1    2  502    0 -0.85787036076E+01 -0.43810883068E+02  0.26096171999E+03  0.26475272790E+03  0.00000000000E+00 0. -1.
         22    1    3    3    0    0 -0.17850509327E+02 -0.41386316380E+02  0.65738440628E+02  0.79705774213E+02  0.00000000000E+00 0.  1.
         22    1    3    3    0    0  0.91531889293E+00  0.43365723114E+02  0.41671978952E+03  0.41897112875E+03  0.00000000000E+00 0.  1.
</event>
<event>
 7    1  0.7457412E-006  0.6961455E+02  0.7818608E-02  0.1463390E+00
          2   -1    0    0  502    0  0.00000000000E+00  0.00000000000E+00  0.20799779869E+04  0.20799779869E+04  0.00000000000E+00 0. -1.
          1   -1    0    0  501    0 -0.00000000000E+00 -0.00000000000E+00 -0.35011563555E+03  0.35011563555E+03  0.00000000000E+00 0. -1.
         25    2    1    2    0    0  0.76295163219E+02  0.37419505979E+02  0.64753085133E+02  0.16443565317E+03  0.12499980257E+03 0.  0.
          2    1    1    2  501    0 -0.71352705264E+01 -0.30646626335E+02 -0.29883379822E+03  0.30048588445E+03  0.00000000000E+00 0. -1.
          1    1    1    2  502    0 -0.69159892692E+02 -0.67728796447E+01  0.19639430644E+04  0.19651720848E+04  0.00000000000E+00 0. -1.
         22    1    3    3    0    0  0.76603616191E+02  0.49668658684E+02 -0.70745400138E+01  0.91570403436E+02  0.00000000000E+00 0.  1.
         22    1    3    3    0    0 -0.30845297266E+00 -0.12249152704E+02  0.71827625147E+02  0.72865249738E+02  0.00000000000E+00 0.  1.
</event>
<event>
 7    1  0.7457412E-006  0.1649685E+03  0.7818608E-02  0.1277338E+00
          2   -1    0    0  502    0  0.00000000000E+00  0.00000000000E+00  0.10626446394E+04  0.10626446394E+04  0.00000000000E+00 0. -1.
          1   -1    0    0  501    0 -0.00000000000E+00 -0.00000000000E+00 -0.86064552044E+03  0.86064552044E+03  0.00000000000E+00 0. -1.
         25    2    1    2    0    0  0.54542951617E+02  0.94546509065E+02  0.32396332798E+02  0.16908219167E+03  0.12500115685E+03 0.  0.
          2    1    1    2  501    0  0.37471523254E+02  0.49835390507E+02 -0.78343571941E+03  0.78591297715E+03  0.00000000000E+00 0. -1.
          1    1    1    2  502    0 -0.92014474870E+02 -0.14438189957E+03  0.95303850562E+03  0.96829499105E+03  0.00000000000E+00 0. -1.
         22    1    3    3    0    0 -0.16632040708E+02  0.17208008325E+02  0.56402918499E+02  0.61270135823E+02  0.00000000000E+00 0. -1.
         22    1    3    3    0    0  0.71174992325E+02  0.77338500741E+02 -0.24006585701E+02  0.10781205585E+03  0.00000000000E+00 0. -1.
</event>
<event>
 7    1  0.7457412E-006  0.1048328E+03  0.7818608E-02  0.1306547E+00
          2   -1    0    0  502    0  0.00000000000E+00  0.00000000000E+00  0.13710773975E+03  0.13710773975E+03  0.00000000000E+00 0. -1.
          1   -1    0    0  501    0 -0.00000000000E+00 -0.00000000000E+00 -0.10595534489E+04  0.10595534489E+04  0.00000000000E+00 0. -1.
         25    2    1    2    0    0 -0.40486563641E+02  0.12280043410E+03 -0.40919385596E+03  0.44697147132E+03  0.12499910386E+03 0.  0.
          2    1    1    2  501    0 -0.43726175212E+02 -0.60561166484E+02 -0.60552779806E+03  0.61011765054E+03  0.00000000000E+00 0. -1.
          1    1    1    2  502    0  0.84212738853E+02 -0.62239267612E+02  0.92275944884E+02  0.13957206677E+03  0.00000000000E+00 0. -1.
         22    1    3    3    0    0 -0.21415709660E+02  0.11518890970E+03 -0.16751618886E+03  0.20442306883E+03  0.00000000000E+00 0.  1.
         22    1    3    3    0    0 -0.19070853981E+02  0.76115243952E+01 -0.24167766710E+03  0.24254840249E+03  0.00000000000E+00 0.  1.
</event>
<event>
 7    1  0.7457412E-006  0.1082795E+03  0.7818608E-02  0.1391589E+00
          2   -1    0    0  502    0  0.00000000000E+00  0.00000000000E+00  0.56100471227E+03  0.56100471227E+03  0.00000000000E+00 0. -1.
          1   -1    0    0  501    0 -0.00000000000E+00 -0.00000000000E+00 -0.11017154701E+04  0.11017154701E+04  0.00000000000E+00 0. -1.
         25    2    1    2    0    0 -0.86599693159E+02 -0.71316328482E+02 -0.34250723703E+02  0.17142006301E+03  0.12500480136E+03 0.  0.
          2    1    1    2  501    0 -0.14324986923E+02  0.31874412750E+02 -0.99260778039E+03  0.99322272886E+03  0.00000000000E+00 0. -1.
          1    1    1    2  502    0  0.10092468008E+03  0.39441915731E+02  0.48614774624E+03  0.49807739052E+03  0.00000000000E+00 0. -1.
         22    1    3    3    0    0 -0.69472406254E+02 -0.10378133689E+03 -0.45673910415E+02  0.13297776961E+03  0.00000000000E+00 0.  1.
         22    1    3    3    0    0 -0.17127286905E+02  0.32465008405E+02  0.11423186711E+02  0.38442293403E+02  0.00000000000E+00 0.  1.
</event>
<event>
 7    1  0.7457412E-006  0.2126698E+03  0.7818608E-02  0.1257290E+00
          2   -1    0    0  502    0  0.00000000000E+00  0.00000000000E+00  0.92261484021E+02  0.92261484021E+02  0.00000000000E+00 0. -1.
          1   -1    0    0  501    0 -0.00000000000E+00 -0.00000000000E+00 -0.11135791180E+04  0.11135791180E+04  0.00000000000E+00 0. -1.
         25    2    1    2    0    0 -0.14182607992E+03 -0.90999648758E+02 -0.77169689981E+03  0.79971021664E+03  0.12499900962E+03 0.  0.
          2    1    1    2  501    0 -0.58480803191E+02 -0.57520389281E+01 -0.15245105981E+03  0.16338425852E+03  0.00000000000E+00 0. -1.
          1    1    1    2  502    0  0.20030688311E+03  0.96751687686E+02 -0.97169674360E+02  0.24274612686E+03  0.00000000000E+00 0. -1.
         22    1    3    3    0    0 -0.10978831934E+03 -0.12109366664E+03 -0.65267591244E+03  0.67283207254E+03  0.00000000000E+00 0. -1.
         22    1    3    3    0    0 -0.32037760585E+02  0.30094017883E+02 -0.11902098737E+03  0.12687814410E+03  0.00000000000E+00 0. -1.
</event>
<event>
 7    1  0.7457412E-006  0.7836034E+02  0.7818608E-02  0.1488482E+00
          2   -1    0    0  502    0  0.00000000000E+00  0.00000000000E+00  0.13031425132E+04  0.13031425132E+04  0.00000000000E+00 0. -1.
          1   -1    0    0  501    0 -0.00000000000E+00 -0.00000000000E+00 -0.58758419131E+02  0.58758419131E+02  0.00000000000E+00 0. -1.
         25    2    1    2    0    0 -0.79540611936E+02 -0.47374452535E+02  0.10440739164E+04  0.10555975413E+04  0.12499911468E+03 0.  0.
          2    1    1    2  501    0  0.74030850353E+02  0.24642307143E+02 -0.23334412078E+02  0.81438964215E+02  0.00000000000E+00 0. -1.
          1    1    1    2  502    0  0.55097615826E+01  0.22732145392E+02  0.22364458974E+03  0.22486442677E+03  0.00000000000E+00 0. -1.
         22    1    3    3    0    0 -0.92326463916E+02 -0.52228343826E+02  0.48978906726E+03  0.50114399752E+03  0.00000000000E+00 0.  1.
         22    1    3    3    0    0  0.12785851980E+02  0.48538912908E+01  0.55428484912E+03  0.55445354381E+03  0.00000000000E+00 0.  1.
</event>
<event>
 7    1  0.7457412E-006  0.1111492E+03  0.7818608E-02  0.1383758E+00
          2   -1    0    0  502    0  0.00000000000E+00  0.00000000000E+00  0.39595884986E+03  0.39595884986E+03  0.00000000000E+00 0. -1.
          1   -1    0    0  501    0 -0.00000000000E+00 -0.00000000000E+00 -0.48752880965E+03  0.48752880965E+03  0.00000000000E+00 0. -1.
         25    2    1    2    0    0  0.74989016246E+02  0.11187003255E+03  0.72069838239E+02  0.19737600256E+03  0.12499987224E+03 0.  0.
          2    1    1    2  501    0 -0.79690165625E+02 -0.75914050736E+02 -0.41643251950E+03  0.43073136511E+03  0.00000000000E+00 0. -1.
          1    1    1    2  502    0  0.47011493796E+01 -0.35955981817E+02  0.25279272147E+03  0.25538029185E+03  0.00000000000E+00 0. -1.
         22    1    3    3    0    0  0.74578834631E+02  0.35720110002E+02  0.86722725022E+02  0.11982804291E+03  0.00000000000E+00 0. -1.
         22    1    3    3    0    0  0.41018161512E+00  0.76149922552E+02 -0.14652886783E+02  0.77547959642E+02  0.00000000000E+00 0. -1.
</event>
<event>
 7    1  0.7457412E-006  0.3869137E+02  0.7818608E-02  0.1600234E+00
          2   -1    0    0  502    0  0.00000000000E+00  0.00000000000E+00  0.14050445245E+03  0.14050445245E+03  0.00000000000E+00 0. -1.
          1   -1    0    0  501    0 -0.00000000000E+00 -0.00000000000E+00 -0.10110253677E+03  0.10110253677E+03  0.00000000000E+00 0. -1.
         25    2    1    2    0    0 -0.10457364584E+02 -0.31364966560E+02  0.74427165292E+02  0.14919008059E+03  0.12500063844E+03 0.  0.
          2    1    1    2  501    0 -0.11634642951E+02  0.37627278747E+02 -0.51005083196E+02  0.64441411642E+02  0.00000000000E+00 0. -1.
          1    1    1    2  502    0  0.22092007534E+02 -0.62623121869E+01  0.15979833581E+02  0.27975496995E+02  0.00000000000E+00 0. -1.
         22    1    3    3    0    0 -0.64642462184E+02  0.36283178482E+01  0.35155518665E+02  0.73673082603E+02  0.00000000000E+00 0. -1.
         22    1    3    3    0    0  0.54185097601E+02 -0.34993284409E+02  0.39271646628E+02  0.75516997984E+02  0.00000000000E+00 0. -1.
</event>
<event>
 7    1  0.7457412E-006  0.8327170E+02  0.7818608E-02  0.1373834E+00
          2   -1    0    0  502    0  0.00000000000E+00  0.00000000000E+00  0.12035149677E+04  0.12035149677E+04  0.00000000000E+00 0. -1.
          1   -1    0    0  501    0 -0.00000000000E+00 -0.00000000000E+00 -0.41640219161E+03  0.41640219161E+03  0.00000000000E+00 0. -1.
         25    2    1    2    0    0  0.10620298600E+02  0.80746201721E+02  0.84484190101E+02  0.17145107473E+03  0.12500061126E+03 0.  0.
          2    1    1    2  501    0  0.41303410232E+02 -0.73058570159E+02 -0.36754545950E+03  0.37700555854E+03  0.00000000000E+00 0. -1.
          1    1    1    2  502    0 -0.51923708832E+02 -0.76876315619E+01  0.10701740455E+04  0.10714605260E+04  0.00000000000E+00 0. -1.
         22    1    3    3    0    0  0.44438229376E+02  0.36718458014E+01 -0.91813742530E+01  0.45525117406E+02  0.00000000000E+00 0.  1.
         22    1    3    3    0    0 -0.33817930776E+02  0.77074355920E+02  0.93665564354E+02  0.12592595732E+03  0.00000000000E+00 0.  1.
</event>
<event>
 7    1  0.7457412E-006  0.1214315E+03  0.7818608E-02  0.1323405E+00
          2   -1    0    0  502    0  0.00000000000E+00  0.00000000000E+00  0.36167733807E+03  0.36167733807E+03  0.00000000000E+00 0. -1.
          1   -1    0    0  501    0 -0.00000000000E+00 -0.00000000000E+00 -0.29251786607E+03  0.29251786607E+03  0.00000000000E+00 0. -1.
         25    2    1    2    0    0  0.69734413383E+02 -0.26610609545E+02 -0.18778220939E+02  0.14676672698E+03  0.12496734620E+03 0.  0.
          2    1    1    2  501    0  0.54447616203E+02 -0.10254122863E+02 -0.19153857790E+03  0.19939086431E+03  0.00000000000E+00 0. -1.
          1    1    1    2  502    0 -0.12418202959E+03  0.36864732408E+02  0.27947627084E+03  0.30803761285E+03  0.00000000000E+00 0. -1.
         22    1    3    3    0    0  0.68340334615E+02 -0.15545657249E+01  0.42538854296E+02  0.80513179882E+02  0.00000000000E+00 0.  1.
         22    1    3    3    0    0  0.13940787686E+01 -0.25056043820E+02 -0.61317075235E+02  0.66253547097E+02  0.00000000000E+00 0.  1.
</event>
<event>
 7    1  0.7457412E-006  0.1198921E+03  0.7818608E-02  0.1307537E+00
          2   -1    0    0  502    0  0.00000000000E+00  0.00000000000E+00  0.10471321526E+04  0.10471321526E+04  0.00000000000E+00 0. -1.
          1   -1    0    0  501    0 -0.00000000000E+00 -0.00000000000E+00 -0.88930484132E+03  0.88930484132E+03  0.00000000000E+00 0. -1.
         25    2    1    2    0    0  0.82156160010E+02 -0.91748965527E+01 -0.72873684287E+01  0.15004436695E+03  0.12500557172E+03 0.  0.
          2    1    1    2  501    0 -0.10017390569E+03  0.71344439680E+02 -0.80488966479E+03  0.81423105623E+03  0.00000000000E+00 0. -1.
          1    1    1    2  502    0  0.18017745677E+02 -0.62169543127E+02  0.97000434445E+03  0.97216157068E+03  0.00000000000E+00 0. -1.
         22    1    3    3    0    0  0.63368922087E+02 -0.52354626441E+02 -0.41265879802E+02  0.91975540401E+02  0.00000000000E+00 0. -1.
         22    1    3    3    0    0  0.18787237923E+02  0.43179729888E+02  0.33978511373E+02  0.58068826552E+02  0.00000000000E+00 0. -1.
</event>
<event>
 7    1  0.7457412E-006  0.2145927E+03  0.7818608E-02  0.1232975E+00
          2   -1    0    0  502    0  0.00000000000E+00  0.00000000000E+00  0.21970827126E+03  0.21970827126E+03  0.00000000000E+00 0. -1.
          1   -1    0    0  501    0 -0.00000000000E+00 -0.00000000000E+00 -0.11036678956E+04  0.11036678956E+04  0.00000000000E+00 0. -1.
         25    2    1    2    0    0 -0.15762460632E+03  0.14562119726E+03 -0.28694555714E+03  0.37949366444E+03  0.12500655575E+03 0.  0.
          2    1    1    2  501    0 -0.42099219618E+02 -0.61335356529E+02 -0.69995846133E+03  0.70390071590E+03  0.00000000000E+00 0. -1.
          1    1    1    2  502    0  0.19972382593E+03 -0.84285840728E+02  0.10294439411E+03  0.23998178654E+03  0.00000000000E+00 0. -1.
         22    1    3    3    0    0 -0.13557389215E+03  0.16040974614E+03 -0.20554008942E+03  0.29386781935E+03  0.00000000000E+00 0.  1.
         22    1    3    3    0    0 -0.22050714167E+02 -0.14788548883E+02 -0.81405467718E+02  0.85625845092E+02  0.00000000000E+00 0.  1.
</event>
<event>
 7    1  0.7457412E-006  0.6928388E+02  0.7818608E-02  0.1483845E+00
          2   -1    0    0  502    0  0.00000000000E+00  0.00000000000E+00  0.53234346675E+03  0.53234346675E+03  0.00000000000E+00 0. -1.
          1   -1    0    0  501    0 -0.00000000000E+00 -0.00000000000E+00 -0.60791855688E+02  0.60791855688E+02  0.00000000000E+00 0. -1.
         25    2    1    2    0    0 -0.39315828764E+02 -0.21289945458E+02  0.78505359556E+02  0.15422968869E+03  0.12499883689E+03 0.  0.
          2    1    1    2  501    0 -0.26737048321E+02 -0.56508436549E+01 -0.10371297500E+02  0.29229532989E+02  0.00000000000E+00 0. -1.
          1    1    1    2  502    0  0.66052877085E+02  0.26940789113E+02  0.40341754901E+03  0.40967610077E+03  0.00000000000E+00 0. -1.
         22    1    3    3    0    0  0.45656500112E+02 -0.93716202225E+01  0.22409548196E+02  0.51715869116E+02  0.00000000000E+00 0. -1.
         22    1    3    3    0    0 -0.84972328876E+02 -0.11918325235E+02  0.56095811359E+02  0.10251381957E+03  0.00000000000E+00 0. -1.
</event>
<event>
 7    1  0.7457412E-006  0.4549219E+02  0.7818608E-02  0.1493367E+00
          2   -1    0    0  502    0  0.00000000000E+00  0.00000000000E+00  0.22543500668E+04  0.22543500668E+04  0.00000000000E+00 0. -1.
          1   -1    0    0  501    0 -0.00000000000E+00 -0.00000000000E+00 -0.48429985814E+03  0.48429985814E+03  0.00000000000E+00 0. -1.
         25    2    1    2    0    0  0.45960071085E+02 -0.62235604372E+02  0.70571178295E+03  0.72086214465E+03  0.12501004922E+03 0.  0.
          2    1    1    2  501    0 -0.33623417921E+02  0.19648119992E+02 -0.47560974872E+03  0.47720144167E+03  0.00000000000E+00 0. -1.
          1    1    1    2  502    0 -0.12336653164E+02  0.42587484380E+02  0.15399481745E+04  0.15405863387E+04  0.00000000000E+00 0. -1.
         22    1    3    3    0    0  0.64548517863E+02 -0.71608637413E+02  0.31095778479E+03  0.32555959828E+03  0.00000000000E+00 0. -1.
         22    1    3    3    0    0 -0.18588446778E+02  0.93730330405E+01  0.39475399816E+03  0.39530254637E+03  0.00000000000E+00 0. -1.
</event>
<event>
 7    1  0.7457412E-006  0.1337143E+03  0.7818608E-02  0.1381710E+00
          2   -1    0    0  502    0  0.00000000000E+00  0.00000000000E+00  0.14747791634E+04  0.14747791634E+04  0.00000000000E+00 0. -1.
          1   -1    0    0  501    0 -0.00000000000E+00 -0.00000000000E+00 -0.15410734474E+04  0.15410734474E+04  0.00000000000E+00 0. -1.
         25    2    1    2    0    0 -0.12955519997E+03 -0.48151843925E+02 -0.12355140654E+02  0.18676286811E+03  0.12499827795E+03 0.  0.
          2    1    1    2  501    0  0.11186288432E+03  0.73177613076E+02 -0.14382455934E+04  0.14444440643E+04  0.00000000000E+00 0. -1.
          1    1    1    2  502    0  0.17692315647E+02 -0.25025769152E+02  0.13843064500E+04  0.13846456784E+04  0.00000000000E+00 0. -1.
         22    1    3    3    0    0 -0.10762720090E+03  0.12758884588E+02  0.26081074523E+02  0.11147477723E+03  0.00000000000E+00 0.  1.
         22    1    3    3    0    0 -0.21927999063E+02 -0.60910728513E+02 -0.38436215177E+02  0.75288090877E+02  0.00000000000E+00 0.  1.
</event>
<event>
 7    1  0.7457412E-006  0.2001916E+03  0.7818608E-02  0.1314441E+00
          2   -1    0    0  502    0  0.00000000000E+00  0.00000000000E+00  0.29064295198E+03  0.29064295198E+03  0.00000000000E+00 0. -1.
          1   -1    0    0  501    0 -0.00000000000E+00 -0.00000000000E+00 -0.16485684397E+04  0.16485684397E+04  0.00000000000E+00 0. -1.
         25    2    1    2    0    0 -0.89068205332E+02 -0.14406045971E+03 -0.90548460644E+03  0.92963153409E+03  0.12500342167E+03 0.  0.
          2    1    1    2  501    0 -0.43119670140E+00 -0.36411455857E+02 -0.69405213792E+03  0.69500672673E+03  0.00000000000E+00 0. -1.
          1    1    1    2  502    0  0.89499402034E+02  0.18047191557E+03  0.24161125669E+03  0.31457313081E+03  0.00000000000E+00 0. -1.
         22    1    3    3    0    0 -0.71416548594E+02 -0.15577685991E+03 -0.61658413934E+03  0.63995527530E+03  0.00000000000E+00 0. -1.
         22    1    3    3    0    0 -0.17651656739E+02  0.11716400202E+02 -0.28890046710E+03  0.28967625879E+03  0.00000000000E+00 0. -1.
</event>
<event>
 7    1  0.7457412E-006  0.1814649E+03  0.7818608E-02  0.1384093E+00
          2   -1    0    0  502    0  0.00000000000E+00  0.00000000000E+00  0.46469583557E+03  0.46469583557E+03  0.00000000000E+00 0. -1.
          1   -1    0    0  501    0 -0.00000000000E+00 -0.00000000000E+00 -0.51125295921E+03  0.51125295921E+03  0.00000000000E+00 0. -1.
         25    2    1    2    0    0 -0.81274289974E+02  0.13877299510E+03 -0.23715891844E+03  0.31261782483E+03  0.12498838916E+03 0.  0.
          2    1    1    2  501    0 -0.10061487728E+02  0.19733612763E+02 -0.21617709291E+03  0.21730896095E+03  0.00000000000E+00 0. -1.
          1    1    1    2  502    0  0.91335777702E+02 -0.15850660786E+03  0.40677888772E+03  0.44602200901E+03  0.00000000000E+00 0. -1.
         22    1    3    3    0    0 -0.79416438049E+02  0.84373396254E+02 -0.66737818412E+02  0.13371528347E+03  0.00000000000E+00 0. -1.
         22    1    3    3    0    0 -0.18578519252E+01  0.54399598846E+02 -0.17042110003E+03  0.17890254135E+03  0.00000000000E+00 0. -1.
</event>
<event>
 7    1  0.7457412E-006  0.5848433E+02  0.7818608E-02  0.1413289E+00
          2   -1    0    0  502    0  0.00000000000E+00  0.00000000000E+00  0.15641537948E+04  0.15641537948E+04  0.00000000000E+00 0. -1.
          1   -1    0    0  501    0 -0.00000000000E+00 -0.00000000000E+00 -0.57487147271E+02  0.57487147271E+02  0.00000000000E+00 0. -1.
         25    2    1    2    0    0 -0.66148518441E+02  0.45556310107E+02  0.43941036410E+03  0.46384660051E+03  0.12498478643E+03 0.  0.
          2    1    1    2  501    0  0.57823544380E+02  0.83224571842E+01 -0.25454720712E+02  0.63724158565E+02  0.00000000000E+00 0. -1.
          1    1    1    2  502    0  0.83249740605E+01 -0.53878767291E+02  0.10927110041E+04  0.10940701830E+04  0.00000000000E+00 0. -1.
         22    1    3    3    0    0 -0.65335074841E+02  0.85709576211E+02  0.30020968268E+03  0.31896811288E+03  0.00000000000E+00 0.  1.
         22    1    3    3    0    0 -0.81344359985E+00 -0.40153266104E+02  0.13920068142E+03  0.14487848762E+03  0.00000000000E+00 0.  1.
</event>
<event>
 7    1  0.7457412E-006  0.6815362E+02  0.7818608E-02  0.1400671E+00
          2   -1    0    0  502    0  0.00000000000E+00  0.00000000000E+00  0.83630562813E+03  0.83630562813E+03  0.00000000000E+00 0. -1.
          1   -1    0    0  501    0 -0.00000000000E+00 -0.00000000000E+00 -0.74872054055E+02  0.74872054055E+02  0.00000000000E+00 0. -1.
         25    2    1    2    0    0 -0.42153800411E+01 -0.30096519700E+02  0.13472938001E+03  0.18628319513E+03  0.12500341204E+03 0.  0.
          2    1    1    2  501    0  0.46151627561E+02  0.60240960398E+02 -0.18107231295E+02  0.78018061123E+02  0.00000000000E+00 0. -1.
          1    1    1    2  502    0 -0.41936247520E+02 -0.30144440699E+02  0.64481142535E+03  0.64687642593E+03  0.00000000000E+00 0. -1.
         22    1    3    3    0    0  0.17732184550E+02  0.36925186318E+02  0.99180511344E+02  0.10730644708E+03  0.00000000000E+00 0. -1.
         22    1    3    3    0    0 -0.21947564591E+02 -0.67021706018E+02  0.35548868670E+02  0.78976748051E+02  0.00000000000E+00 0. -1.
</event>
<event>
 7    1  0.7457412E-006  0.6576904E+02  0.7818608E-02  0.1382969E+00
          2   -1    0    0  502    0  0.00000000000E+00  0.00000000000E+00  0.31904150745E+04  0.31904150745E+04  0.00000000000E+00 0. -1.
          1   -1    0    0  501    0 -0.00000000000E+00 -0.00000000000E+00 -0.66870197172E+03  0.66870197172E+03  0.00000000000E+00 0. -1.
         25    2    1    2    0    0 -0.90190616135E+02  0.88700005443E+02  0.15438787549E+03  0.23550721645E+03  0.12500397872E+03 0.  0.
          2    1    1    2  501    0  0.49993121861E+02 -0.41922751091E+02 -0.62612957504E+03  0.62951971695E+03  0.00000000000E+00 0. -1.
          1    1    1    2  502    0  0.40197494274E+02 -0.46777254353E+02  0.29934548023E+04  0.29940901128E+04  0.00000000000E+00 0. -1.
         22    1    3    3    0    0 -0.11858811097E+03  0.63688949832E+02  0.14206801164E+03  0.19571086409E+03  0.00000000000E+00 0.  1.
         22    1    3    3    0    0  0.28397494831E+02  0.25011055611E+02  0.12319863856E+02  0.39796352357E+02  0.00000000000E+00 0.  1.
</event>
<event>
 7    1  0.7457412E-006  0.7918416E+02  0.7818608E-02  0.1375514E+00
          2   -1    0    0  502    0  0.00000000000E+00  0.00000000000E+00  0.11637845319E+04  0.11637845319E+04  0.00000000000E+00 0. -1.
          1   -1    0    0  501    0 -0.00000000000E+00 -0.00000000000E+00 -0.71588095439E+03  0.71588095439E+03  0.00000000000E+00 0. -1.
         25    2    1    2    0    0 -0.28633348686E+02  0.15935656431E+02 -0.56463729307E+03  0.57923580176E+03  0.12500011005E+03 0.  0.
          2    1    1    2  501    0 -0.94867533251E+01  0.53608991084E+02 -0.13738163645E+03  0.14777562873E+03  0.00000000000E+00 0. -1.
          1    1    1    2  502    0  0.38120102011E+02 -0.69544647515E+02  0.11499225070E+04  0.11526540558E+04  0.00000000000E+00 0. -1.
         22    1    3    3    0    0 -0.61760135367E+02  0.50877416756E+02 -0.31553962441E+03  0.32552738814E+03  0.00000000000E+00 0. -1.
         22    1    3    3    0    0  0.33126786681E+02 -0.34941760325E+02 -0.24909766866E+03  0.25370841362E+03  0.00000000000E+00 0. -1.
</event>
<event>
 7    1  0.7457412E-006  0.7164515E+02  0.7818608E-02  0.1469518E+00
          2   -1    0    0  502    0  0.00000000000E+00  0.00000000000E+00  0.46043233585E+03  0.46043233585E+03  0.00000000000E+00 0. -1.
          1   -1    0    0  501    0 -0.00000000000E+00 -0.00000000000E+00 -0.56904718583E+03  0.56904718583E+03  0.00000000000E+00 0. -1.
         25    2    1    2    0    0 -0.70927353482E+02 -0.16054982239E+02 -0.23030235679E+03  0.27194451552E+03  0.12500476812E+03 0.  0.
          2    1    1    2  501    0  0.71201488994E+02 -0.13198810673E+02 -0.31330251689E+03  0.32156232324E+03  0.00000000000E+00 0. -1.
          1    1    1    2  502    0 -0.27413551193E+00  0.29253792911E+02  0.43499002369E+03  0.43597268293E+03  0.00000000000E+00 0. -1.
         22    1    3    3    0    0  0.22937170264E+02 -0.21748259872E+02 -0.11233412067E+02  0.33545344443E+02  0.00000000000E+00 0. -1.
         22    1    3    3    0    0 -0.93864523746E+02  0.56932776330E+01 -0.21906894472E+03  0.23839917107E+03  0.00000000000E+00 0. -1.
</event>
<event>
 7    1  0.7457412E-006  0.4166770E+02  0.7818608E-02  0.1524872E+00
          2   -1    0    0  502    0  0.00000000000E+00  0.00000000000E+00  0.22123584339E+04  0.22123584339E+04  0.00000000000E+00 0. -1.
          1   -1    0    0  501    0 -0.00000000000E+00 -0.00000000000E+00 -0.53019093483E+03  0.53019093483E+03  0.00000000000E+00 0. -1.
         25    2    1    2    0    0 -0.16358249090E+02  0.91512946832E+01  0.31732067149E+02  0.13032954175E+03  0.12501010703E+03 0.  0.
          2    1    1    2  501    0  0.11476759970E+02  0.32357812121E+02 -0.48007418728E+03  0.48130029016E+03  0.00000000000E+00 0. -1.
          1    1    1    2  502    0  0.48814891198E+01 -0.41509106804E+02  0.21305096192E+04  0.21309195368E+04  0.00000000000E+00 0. -1.
         22    1    3    3    0    0 -0.35778675946E+02 -0.44299751183E+01  0.73749552488E+02  0.82089797321E+02  0.00000000000E+00 0.  1.
         22    1    3    3    0    0  0.19420426856E+02  0.13581269802E+02 -0.42017485340E+02  0.48239744433E+02  0.00000000000E+00 0.  1.
</event>
<event>
 7    1  0.7457412E-006  0.1410945E+03  0.7818608E-02  0.1263551E+00
          2   -1    0    0  502    0  0.00000000000E+00  0.00000000000E+00  0.46874494573E+03  0.46874494573E+03  0.00000000000E+00 0. -1.
          1   -1    0    0  501    0 -0.00000000000E+00 -0.00000000000E+00 -0.39139080711E+04  0.39139080711E+04  0.00000000000E+00 0. -1.
         25    2    1    2    0    0 -0.20194066602E+02 -0.70300040434E+02 -0.62216335193E+03  0.63879752703E+03  0.12500059220E+03 0.  0.
          2    1    1    2  501    0  0.37178552356E+02  0.15184024116E+03 -0.32777827431E+04  0.32815084054E+04  0.00000000000E+00 0. -1.
          1    1    1    2  502    0 -0.16984485754E+02 -0.81540200726E+02  0.45478296960E+03  0.46234708448E+03  0.00000000000E+00 0. -1.
         22    1    3    3    0    0  0.40594173144E+02  0.46417738397E+01 -0.29124346910E+03  0.29409554782E+03  0.00000000000E+00 0.  1.
         22    1    3    3    0    0 -0.60788239746E+02 -0.74941814274E+02 -0.33091988283E+03  0.34470197921E+03  0.00000000000E+00 0.  1.
</event>
<event>
 7    1  0.7457412E-006  0.9929252E+02  0.7818608E-02  0.1423475E+00
          2   -1    0    0  502    0  0.00000000000E+00  0.00000000000E+00  0.20624108451E+04  0.20624108451E+04  0.00000000000E+00 0. -1.
          1   -1    0    0  501    0 -0.00000000000E+00 -0.00000000000E+00 -0.47062308703E+02  0.47062308703E+02  0.00000000000E+00 0. -1.
         25    2    1    2    0    0 -0.56880097980E+01 -0.10839596066E+03  0.40707926345E+03  0.43945776122E+03  0.12501023726E+03 0.  0.
          2    1    1    2  501    0  0.27159622074E+02  0.11985844586E+02 -0.21878615025E+02  0.36877897677E+02  0.00000000000E+00 0. -1.
          1    1    1    2  502    0 -0.21471612276E+02  0.96410116073E+02  0.16301478880E+04  0.16331374949E+04  0.00000000000E+00 0. -1.
         22    1    3    3    0    0  0.79513542814E+01  0.25976572622E+02  0.10681091392E+03  0.11021151343E+03  0.00000000000E+00 0. -1.
         22    1    3    3    0    0 -0.13639364079E+02 -0.13437253328E+03  0.30026834953E+03  0.32924624779E+03  0.00000000000E+00 0. -1.
</event>
<event>
 7    1  0.7457412E-006  0.1110260E+03  0.7818608E-02  0.1297169E+00
          2   -1    0    0  502    0  0.00000000000E+00  0.00000000000E+00  0.25017233331E+04  0.25017233331E+04  0.00000000000E+00 0. -1.
          1   -1    0    0  501    0 -0.00000000000E+00 -0.00000000000E+00 -0.67505749300E+03  0.67505749300E+03  0.00000000000E+00 0. -1.
         25    2    1    2    0    0 -0.14149599590E+03  0.10077748819E+03  0.37325592274E+03  0.43025798611E+03  0.12499892707E+03 0.  0.
          2    1    1    2  501    0  0.10536747343E+03 -0.32916205801E+02 -0.64113429839E+03  0.65056818984E+03  0.00000000000E+00 0. -1.
          1    1    1    2  502    0  0.36128522468E+02 -0.67861282385E+02  0.20945442158E+04  0.20959546502E+04  0.00000000000E+00 0. -1.
         22    1    3    3    0    0 -0.18980094092E+02  0.86376326282E+02  0.12601579297E+03  0.15395159561E+03  0.00000000000E+00 0. -1.
         22    1    3    3    0    0 -0.12251590181E+03  0.14401161903E+02  0.24724012978E+03  0.27630639050E+03  0.00000000000E+00 0. -1.
</event>
<event>
 7    1  0.7457412E-006  0.9249512E+02  0.7818608E-02  0.1334494E+00
          2   -1    0    0  502    0  0.00000000000E+00  0.00000000000E+00  0.39838998496E+03  0.39838998496E+03  0.00000000000E+00 0. -1.
          1   -1    0    0  501    0 -0.00000000000E+00 -0.00000000000E+00 -0.13539231131E+03  0.13539231131E+03  0.00000000000E+00 0. -1.
         25    2    1    2    0    0  0.47528310422E+02  0.62079248834E+02  0.14307442687E+03  0.20544597760E+03  0.12499993864E+03 0.  0.
          2    1    1    2  501    0 -0.95545058676E+02 -0.16845982394E+02 -0.74951904332E+02  0.12259866771E+03  0.00000000000E+00 0. -1.
          1    1    1    2  502    0  0.48016748254E+02 -0.45233266440E+02  0.19487515111E+03  0.20573765097E+03  0.00000000000E+00 0. -1.
         22    1    3    3    0    0  0.51972881485E+01  0.64454890804E+02  0.95667589638E+01  0.65367940381E+02  0.00000000000E+00 0. -1.
         22    1    3    3    0    0  0.42331022274E+02 -0.23756419702E+01  0.13350766791E+03  0.14007803722E+03  0.00000000000E+00 0. -1.
</event>
<event>
 7    1  0.7457412E-006  0.9829742E+02  0.7818608E-02  0.1291174E+00
          2   -1    0    0  502    0  0.00000000000E+00  0.00000000000E+00  0.86900331218E+03  0.86900331218E+03  0.00000000000E+00 0. -1.
          1   -1    0    0  501    0 -0.00000000000E+00 -0.00000000000E+00 -0.32450546928E+03  0.32450546928E+03  0.00000000000E+00 0. -1.
         25    2    1    2    0    0 -0.33098587289E+02 -0.35588838586E+02  0.23677843343E+03  0.27212213232E+03  0.12499738577E+03 0.  0.
          2    1    1    2  501    0  0.38669413838E+02 -0.83274682275E+02 -0.29400563812E+03  0.30800862248E+03  0.00000000000E+00 0. -1.
          1    1    1    2  502    0 -0.55708265491E+01  0.11886352086E+03  0.60172504758E+03  0.61337802666E+03  0.00000000000E+00 0. -1.
         22    1    3    3    0    0 -0.65208401438E+02 -0.50544329138E+02  0.21561219719E+03  0.23085814780E+03  0.00000000000E+00 0.  1.
         22    1    3    3    0    0  0.32109814149E+02  0.14955490552E+02  0.21166236240E+02  0.41263984525E+02  0.00000000000E+00 0.  1.
</event>
<event>
 7    1  0.7457412E-006  0.6765191E+02  0.7818608E-02  0.1400968E+00
          2   -1    0    0  502    0  0.00000000000E+00  0.00000000000E+00  0.25709643194E+04  0.25709643194E+04  0.00000000000E+00 0. -1.
          1   -1    0    0  501    0 -0.00000000000E+00 -0.00000000000E+00 -0.48027908150E+03  0.48027908150E+03  0.00000000000E+00 0. -1.
         25    2    1    2    0    0 -0.80523404190E+02  0.85159151962E+02  0.50569583886E+03  0.53393622544E+03  0.12499404627E+03 0.  0.
          2    1    1    2  501    0  0.31482025307E+02 -0.41270483370E+02 -0.46418398284E+03  0.46707723199E+03  0.00000000000E+00 0. -1.
          1    1    1    2  502    0  0.49041378883E+02 -0.43888668592E+02  0.20491733818E+04  0.20502299434E+04  0.00000000000E+00 0. -1.
         22    1    3    3    0    0 -0.43208187137E+02  0.11545847711E+03  0.36440917978E+03  0.38469683866E+03  0.00000000000E+00 0. -1.
         22    1    3    3    0    0 -0.37315217053E+02 -0.30299325148E+02  0.14128665909E+03  0.14923938677E+03  0.00000000000E+00 0. -1.
</event>
<event>
 7    1  0.7457412E-006  0.1769215E+03  0.7818608E-02  0.1238193E+00
          2   -1    0    0  502    0  0.00000000000E+00  0.00000000000E+00  0.21813069966E+04  0.21813069966E+04  0.00000000000E+00 0. -1.
          1   -1    0    0  501    0 -0.00000000000E+00 -0.00000000000E+00 -0.84914410982E+03  0.84914410982E+03  0.00000000000E+00 0. -1.
         25    2    1    2    0    0 -0.17526895337E+03  0.18771442091E+03  0.38790897243E+03  0.48171981399E+03  0.12499879385E+03 0.  0.
          2    1    1    2  501    0  0.13413392853E+03 -0.11271043660E+03 -0.79160726173E+03  0.81076359694E+03  0.00000000000E+00 0. -1.
          1    1    1    2  502    0  0.41135024840E+02 -0.75003984315E+02  0.17358611761E+04  0.17379676955E+04  0.00000000000E+00 0. -1.
         22    1    3    3    0    0 -0.85791695333E+02  0.16967850717E+03  0.29875919907E+03  0.35413001823E+03  0.00000000000E+00 0.  1.
         22    1    3    3    0    0 -0.89477258041E+02  0.18035913739E+02  0.89149773356E+02  0.12758979575E+03  0.00000000000E+00 0.  1.
</event>
<event>
 7    1  0.7457412E-006  0.6618280E+02  0.7818608E-02  0.1436878E+00
          2   -1    0    0  502    0  0.00000000000E+00  0.00000000000E+00  0.37483562149E+04  0.37483562149E+04  0.00000000000E+00 0. -1.
          1   -1    0    0  501    0 -0.00000000000E+00 -0.00000000000E+00 -0.20593285723E+04  0.20593285723E+04  0.00000000000E+00 0. -1.
         25    2    1    2    0    0 -0.75269420486E+02  0.62495432792E+01 -0.74723507547E+02  0.16405268835E+03  0.12500055809E+03 0.  0.
          2    1    1    2  501    0  0.16500363676E+02 -0.36697545349E+02 -0.19394360786E+04  0.19398534158E+04  0.00000000000E+00 0. -1.
          1    1    1    2  502    0  0.58769056810E+02  0.30448002070E+02  0.37031872287E+04  0.37037786832E+04  0.00000000000E+00 0. -1.
         22    1    3    3    0    0 -0.57877807382E+02 -0.32661467486E+02  0.11897270671E+02  0.67514125153E+02  0.00000000000E+00 0.  1.
         22    1    3    3    0    0 -0.17391613104E+02  0.38911010765E+02 -0.86620778218E+02  0.96538563197E+02  0.00000000000E+00 0.  1.
</event>
<event>
 7    1  0.7457412E-006  0.6366181E+02  0.7818608E-02  0.1478468E+00
          2   -1    0    0  502    0  0.00000000000E+00  0.00000000000E+00  0.48464360025E+02  0.48464360025E+02  0.00000000000E+00 0. -1.
          1   -1    0    0  501    0 -0.00000000000E+00 -0.00000000000E+00 -0.88872869637E+03  0.88872869637E+03  0.00000000000E+00 0. -1.
         25    2    1    2    0    0 -0.60819783693E+02  0.24270662481E+02 -0.18918390750E+03  0.23601757884E+03  0.12500254206E+03 0.  0.
          2    1    1    2  501    0 -0.33889845421E+01 -0.30704032149E+02 -0.63355515354E+03  0.63430777654E+03  0.00000000000E+00 0. -1.
          1    1    1    2  502    0  0.64208768235E+02  0.64333696684E+01 -0.17525275309E+02  0.66867701009E+02  0.00000000000E+00 0. -1.
         22    1    3    3    0    0  0.22596456887E+02  0.49115183855E+02 -0.74150775614E+02  0.91767307213E+02  0.00000000000E+00 0. -1.
         22    1    3    3    0    0 -0.83416240580E+02 -0.24844521374E+02 -0.11503313188E+03  0.14425027163E+03  0.00000000000E+00 0. -1.
</event>
<event>
 7    1  0.7457412E-006  0.5707139E+02  0.7818608E-02  0.1495951E+00
          2   -1    0    0  502    0  0.00000000000E+00  0.00000000000E+00  0.42131483039E+03  0.42131483039E+03  0.00000000000E+00 0. -1.
          1   -1    0    0  501    0 -0.00000000000E+00 -0.00000000000E+00 -0.30821006620E+04  0.30821006620E+04  0.00000000000E+00 0. -1.
         25    2    1    2    0    0 -0.61893269664E+02  0.83298143002E+01 -0.70650717412E+03  0.72019278107E+03  0.12500036874E+03 0.  0.
          2    1    1    2  501    0  0.53220610197E+02  0.20902638716E+02 -0.23678442802E+04  0.23685345446E+04  0.00000000000E+00 0. -1.
          1    1    1    2  502    0  0.86726594672E+01 -0.29232453016E+02  0.41356562271E+03  0.41468816672E+03  0.00000000000E+00 0. -1.
         22    1    3    3    0    0 -0.26733258781E+02  0.63111060634E+02 -0.46678120862E+03  0.47178636036E+03  0.00000000000E+00 0.  1.
         22    1    3    3    0    0 -0.35160010883E+02 -0.54781246334E+02 -0.23972596551E+03  0.24840642072E+03  0.00000000000E+00 0.  1.
</event>
<event>
 7    1  0.7457412E-006  0.1061707E+03  0.7818608E-02  0.1361343E+00
          2   -1    0    0  502    0  0.00000000000E+00  0.00000000000E+00  0.13317793843E+04  0.13317793843E+04  0.00000000000E+00 0. -1.
          1   -1    0    0  501    0 -0.00000000000E+00 -0.00000000000E+00 -0.26766688714E+02  0.26766688714E+02  0.00000000000E+00 0. -1.
         25    2    1    2    0    0 -0.99050482272E+02 -0.52833682691E+02  0.64113566719E+03  0.66278475597E+03  0.12500517164E+03 0.  0.
          2    1    1    2  501    0  0.65625376711E+02  0.83955141816E+02  0.17595741006E+03  0.20570893530E+03  0.00000000000E+00 0. -1.
          1    1    1    2  502    0  0.33425105561E+02 -0.31121459124E+02  0.48791961838E+03  0.49005238179E+03  0.00000000000E+00 0. -1.
         22    1    3    3    0    0  0.36711869210E+01 -0.59085788768E+02  0.32416462680E+03  0.32952589173E+03  0.00000000000E+00 0. -1.
         22    1    3    3    0    0 -0.10272166919E+03  0.62521060768E+01  0.31697104038E+03  0.33325886424E+03  0.00000000000E+00 0. -1.
</event>
<event>
 7    1  0.7457412E-006  0.3399840E+02  0.7818608E-02  0.1565431E+00
          2   -1    0    0  502    0  0.00000000000E+00  0.00000000000E+00  0.13701830922E+04  0.13701830922E+04  0.00000000000E+00 0. -1.
          1   -1    0    0  501    0 -0.00000000000E+00 -0.00000000000E+00 -0.43637656274E+03  0.43637656274E+03  0.00000000000E+00 0. -1.
         25    2    1    2    0    0  0.40098160138E+02  0.39929511287E+02  0.16509423866E+03  0.21467472558E+03  0.12500760715E+03 0.  0.
          2    1    1    2  501    0 -0.32896061779E+02 -0.83692480205E+01 -0.41066399853E+03  0.41206445477E+03  0.00000000000E+00 0. -1.
          1    1    1    2  502    0 -0.72020983589E+01 -0.31560263266E+02  0.11793762894E+04  0.11798204746E+04  0.00000000000E+00 0. -1.
         22    1    3    3    0    0 -0.12011929518E+02  0.73106452198E+02  0.10487979771E+03  0.12840798952E+03  0.00000000000E+00 0. -1.
         22    1    3    3    0    0  0.52110089656E+02 -0.33176940912E+02  0.60214440947E+02  0.86266736061E+02  0.00000000000E+00 0. -1.
</event>
<event>
 7    1  0.1268367E-005  0.6149914E+02  0.7818608E-02  0.1415632E+00
          2   -1    0    0  502    0  0.00000000000E+00  0.00000000000E+00  0.91699167759E+03  0.91699167759E+03  0.00000000000E+00 0. -1.
          1   -1    0    0  501    0 -0.00000000000E+00 -0.00000000000E+00 -0.10446156925E+04  0.10446156925E+04  0.00000000000E+00 0. -1.
         25    2    1    2    0    0 -0.98480220789E+01 -0.10641277899E+03 -0.49673470554E+03  0.52325164494E+03  0.12500501258E+03 0.  0.
          2    1    1    2  501    0  0.10224476031E+02  0.55501995794E+02 -0.53241291505E+03  0.53539567009E+03  0.00000000000E+00 0. -1.
          1    1    1    2  502    0 -0.37645395255E+00  0.50910783194E+02  0.90152360564E+03  0.90296005509E+03  0.00000000000E+00 0. -1.
         22    1    3    3    0    0  0.28241703942E+02 -0.21154763210E+02 -0.33217299663E+03  0.33404193979E+03  0.00000000000E+00 0.  1.
         22    1    3    3    0    0 -0.38089726021E+02 -0.85258015778E+02 -0.16456170891E+03  0.18920970515E+03  0.00000000000E+00 0.  1.
</event>
<event>
 7    1  0.7457412E-006  0.7263765E+02  0.7818608E-02  0.1466416E+00
          2   -1    0    0  502    0  0.00000000000E+00  0.00000000000E+00  0.10367794784E+04  0.10367794784E+04  0.00000000000E+00 0. -1.
          1   -1    0    0  501    0 -0.00000000000E+00 -0.00000000000E+00 -0.38132683846E+03  0.38132683846E+03  0.00000000000E+00 0. -1.
         25    2    1    2    0    0  0.54391560772E+02  0.26957897175E+01  0.15991902030E+03  0.21014451601E+03  0.12498366050E+03 0.  0.
          2    1    1    2  501    0  0.16298114292E+02 -0.24595791467E+02 -0.35399169238E+03  0.35521922774E+03  0.00000000000E+00 0. -1.
          1    1    1    2  502    0 -0.70689675064E+02  0.21900001749E+02  0.84952531197E+03  0.85274257306E+03  0.00000000000E+00 0. -1.
         22    1    3    3    0    0 -0.40454909049E+02 -0.20508597412E+01  0.37414214475E+02  0.55141900009E+02  0.00000000000E+00 0. -1.
         22    1    3    3    0    0  0.94846469822E+02  0.47466494588E+01  0.12250480582E+03  0.15500261600E+03  0.00000000000E+00 0. -1.
</event>
<event>
 7    1  0.7457412E-006  0.7452199E+02  0.7818608E-02  0.1450775E+00
          2   -1    0    0  502    0  0.00000000000E+00  0.00000000000E+00  0.41737618441E+03  0.41737618441E+03  0.00000000000E+00 0. -1.
          1   -1    0    0  501    0 -0.00000000000E+00 -0.00000000000E+00 -0.44785272106E+04  0.44785272106E+04  0.00000000000E+00 0. -1.
         25    2    1    2    0    0  0.45161573191E+02 -0.24149109276E+02  0.67321841218E+01  0.13521867875E+03  0.12496408127E+03 0.  0.
          2    1    1    2  501    0 -0.49209490254E+02  0.56121134227E+02 -0.44132181451E+04  0.44138492897E+04  0.00000000000E+00 0. -1.
          1    1    1    2  502    0  0.40479170630E+01 -0.31972024952E+02  0.34533493475E+03  0.34683542664E+03  0.00000000000E+00 0. -1.
         22    1    3    3    0    0 -0.31603548501E+02 -0.85287413287E+00  0.37722326115E+02  0.49218752114E+02  0.00000000000E+00 0.  1.
         22    1    3    3    0    0  0.76765121692E+02 -0.23296235143E+02 -0.30990141993E+02  0.85999926634E+02  0.00000000000E+00 0.  1.
</event>
<event>
 7    1  0.7457412E-006  0.5953185E+02  0.7818608E-02  0.1490164E+00
          2   -1    0    0  502    0  0.00000000000E+00  0.00000000000E+00  0.14478872214E+04  0.14478872214E+04  0.00000000000E+00 0. -1.
          1   -1    0    0  501    0 -0.00000000000E+00 -0.00000000000E+00 -0.68285594583E+03  0.68285594583E+03  0.00000000000E+00 0. -1.
         25    2    1    2    0    0  0.19209490279E+02 -0.87552489743E+02  0.16071649853E+03  0.22245158101E+03  0.12498187875E+03 0.  0.
          2    1    1    2  501    0 -0.10611848714E+02  0.58363282365E+02 -0.65045427850E+03  0.65315362089E+03  0.00000000000E+00 0. -1.
          1    1    1    2  502    0 -0.85976415643E+01  0.29189207377E+02  0.12547690555E+04  0.12551379653E+04  0.00000000000E+00 0. -1.
         22    1    3    3    0    0  0.52573728872E+01  0.32858893778E+01  0.12292494942E+03  0.12308119364E+03  0.00000000000E+00 0.  1.
         22    1    3    3    0    0  0.13952117391E+02 -0.90838379121E+02  0.37791549107E+02  0.99370387364E+02  0.00000000000E+00 0.  1.
</event>
<event>
 7    1  0.7457412E-006  0.5507704E+02  0.7818608E-02  0.1424555E+00
          2   -1    0    0  502    0  0.00000000000E+00  0.00000000000E+00  0.56333559163E+03  0.56333559163E+03  0.00000000000E+00 0. -1.
          1   -1    0    0  501    0 -0.00000000000E+00 -0.00000000000E+00 -0.16335785569E+04  0.16335785569E+04  0.00000000000E+00 0. -1.
         25    2    1    2    0    0 -0.67999413813E+02 -0.62226492924E+02  0.18664584386E+03  0.24281285214E+03  0.12500141373E+03 0.  0.
          2    1    1    2  501    0  0.16108152617E+02  0.50575752812E+02 -0.16030248356E+04  0.16039033645E+04  0.00000000000E+00 0. -1.
          1    1    1    2  502    0  0.51891261196E+02  0.11650740112E+02  0.34613602639E+03  0.35019793188E+03  0.00000000000E+00 0. -1.
         22    1    3    3    0    0 -0.51823334686E+02 -0.91603089258E+02  0.18016981889E+03  0.20865748877E+03  0.00000000000E+00 0. -1.
         22    1    3    3    0    0 -0.16176079127E+02  0.29376596333E+02  0.64760249714E+01  0.34155363378E+02  0.00000000000E+00 0. -1.
</event>
<event>
 7    1  0.7457412E-006  0.2096349E+03  0.7818608E-02  0.1219465E+00
          2   -1    0    0  502    0  0.00000000000E+00  0.00000000000E+00  0.12716588809E+04  0.12716588809E+04  0.00000000000E+00 0. -1.
          1   -1    0    0  501    0 -0.00000000000E+00 -0.00000000000E+00 -0.39556366779E+03  0.39556366779E+03  0.00000000000E+00 0. -1.
         25    2    1    2    0    0  0.22615292743E+03 -0.16014735729E+03  0.16735877964E+03  0.34702331928E+03  0.12499560141E+03 0.  0.
          2    1    1    2  501    0 -0.86597513238E+02  0.13405443516E+02 -0.28906511155E+03  0.30205541533E+03  0.00000000000E+00 0. -1.
          1    1    1    2  502    0 -0.13955541419E+03  0.14674191378E+03  0.99780154502E+03  0.10181438141E+04  0.00000000000E+00 0. -1.
         22    1    3    3    0    0  0.15331411962E+02 -0.74941396548E+02  0.37967291834E+02  0.85397777246E+02  0.00000000000E+00 0.  1.
         22    1    3    3    0    0  0.21082151547E+03 -0.85205960747E+02  0.12939148781E+03  0.26162554204E+03  0.00000000000E+00 0.  1.
</event>
<event>
 7    1  0.7457412E-006  0.7967997E+02  0.7818608E-02  0.1359262E+00
          2   -1    0    0  502    0  0.00000000000E+00  0.00000000000E+00  0.58474921071E+03  0.58474921071E+03  0.00000000000E+00 0. -1.
          1   -1    0    0  501    0 -0.00000000000E+00 -0.00000000000E+00 -0.71972091341E+03  0.71972091341E+03  0.00000000000E+00 0. -1.
         25    2    1    2    0    0  0.40619755155E+02 -0.93129037920E+02 -0.24708030348E+03  0.29495203180E+03  0.12500016993E+03 0.  0.
          2    1    1    2  501    0 -0.59871823764E+02  0.15821981121E+02 -0.44371417187E+03  0.44801477285E+03  0.00000000000E+00 0. -1.
          1    1    1    2  502    0  0.19252068610E+02  0.77307056798E+02  0.55582277265E+03  0.56150331947E+03  0.00000000000E+00 0. -1.
         22    1    3    3    0    0  0.27692325610E+02 -0.67000095097E+02 -0.34332011654E+02  0.80215738262E+02  0.00000000000E+00 0.  1.
         22    1    3    3    0    0  0.12927429545E+02 -0.26128942823E+02 -0.21274829183E+03  0.21473629354E+03  0.00000000000E+00 0.  1.
</event>
<event>
 7    1  0.7457412E-006  0.2243336E+03  0.7818608E-02  0.1152136E+00
          2   -1    0    0  502    0  0.00000000000E+00  0.00000000000E+00  0.30838567376E+03  0.30838567376E+03  0.00000000000E+00 0. -1.
          1   -1    0    0  501    0 -0.00000000000E+00 -0.00000000000E+00 -0.19145650385E+04  0.19145650385E+04  0.00000000000E+00 0. -1.
         25    2    1    2    0    0  0.95210450897E+02  0.12779887016E+03 -0.56540254291E+03  0.60058481520E+03  0.12499801418E+03 0.  0.
          2    1    1    2  501    0  0.13751682207E+03 -0.10549668241E+03 -0.12777643379E+04  0.12894658311E+04  0.00000000000E+00 0. -1.
          1    1    1    2  502    0 -0.23272727297E+03 -0.22302187751E+02  0.23698751606E+03  0.33290006598E+03  0.00000000000E+00 0. -1.
         22    1    3    3    0    0  0.23662967537E+02  0.75215917641E+02 -0.43952654721E+03  0.44654334168E+03  0.00000000000E+00 0. -1.
         22    1    3    3    0    0  0.71547483360E+02  0.52582952519E+02 -0.12587599570E+03  0.15404147352E+03  0.00000000000E+00 0. -1.
</event>
<event>
 7    1  0.7457412E-006  0.1529960E+03  0.7818608E-02  0.1207638E+00
          2   -1    0    0  502    0  0.00000000000E+00  0.00000000000E+00  0.90397065123E+03  0.90397065123E+03  0.00000000000E+00 0. -1.
          1   -1    0    0  501    0 -0.00000000000E+00 -0.00000000000E+00 -0.32702669248E+03  0.32702669248E+03  0.00000000000E+00 0. -1.
         25    2    1    2    0    0  0.99646364094E+02 -0.25686003007E+03  0.22243876171E+03  0.37551421096E+03  0.12500178799E+03 0.  0.
          2    1    1    2  501    0 -0.55264317169E+02  0.12440428186E+03 -0.22303146426E+03  0.26129218157E+03  0.00000000000E+00 0. -1.
          1    1    1    2  502    0 -0.44382046925E+02  0.13245574820E+03  0.57753666129E+03  0.59419095118E+03  0.00000000000E+00 0. -1.
         22    1    3    3    0    0  0.78278032260E+02 -0.18506382893E+03  0.22356775384E+03  0.30059709192E+03  0.00000000000E+00 0. -1.
         22    1    3    3    0    0  0.21368331834E+02 -0.71796201133E+02 -0.11289921268E+01  0.74917119043E+02  0.00000000000E+00 0. -1.
</event>
<event>
 7    1  0.7457412E-006  0.7079633E+02  0.7818608E-02  0.1500133E+00
          2   -1    0    0  502    0  0.00000000000E+00  0.00000000000E+00  0.52744080640E+02  0.52744080640E+02  0.00000000000E+00 0. -1.
          1   -1    0    0  501    0 -0.00000000000E+00 -0.00000000000E+00 -0.69464734499E+03  0.69464734499E+03  0.00000000000E+00 0. -1.
         25    2    1    2    0    0  0.15555207369E+02 -0.48953753482E+02 -0.26975222100E+03  0.30171169450E+03  0.12500100560E+03 0.  0.
          2    1    1    2  501    0 -0.40977924747E+01 -0.23528311157E+02 -0.37152824729E+03  0.37229506022E+03  0.00000000000E+00 0. -1.
          1    1    1    2  502    0 -0.11457414894E+02  0.72482064639E+02 -0.62279605541E+00  0.73384670915E+02  0.00000000000E+00 0. -1.
         22    1    3    3    0    0 -0.13067284261E+02 -0.62166148652E+02 -0.53148769526E+02  0.82826177373E+02  0.00000000000E+00 0.  1.
         22    1    3    3    0    0  0.28622491629E+02  0.13212395170E+02 -0.21660345148E+03  0.21888551712E+03  0.00000000000E+00 0.  1.
</event>
<event>
 7    1  0.7457412E-006  0.8185694E+02  0.7818608E-02  0.1363741E+00
          2   -1    0    0  502    0  0.00000000000E+00  0.00000000000E+00  0.10538938880E+04  0.10538938880E+04  0.00000000000E+00 0. -1.
          1   -1    0    0  501    0 -0.00000000000E+00 -0.00000000000E+00 -0.21265923065E+04  0.21265923065E+04  0.00000000000E+00 0. -1.
         25    2    1    2    0    0  0.13545869270E+01  0.24145902603E+02  0.35868597969E+03  0.38062482751E+03  0.12503906499E+03 0.  0.
          2    1    1    2  501    0 -0.14644160487E+02 -0.80662783623E+02 -0.21135952070E+04  0.21151845393E+04  0.00000000000E+00 0. -1.
          1    1    1    2  502    0  0.13289573560E+02  0.56516881020E+02  0.68221080890E+03  0.68467682770E+03  0.00000000000E+00 0. -1.
         22    1    3    3    0    0  0.43966735000E+02  0.61898998657E+00  0.44029996804E+02  0.62226180613E+02  0.00000000000E+00 0.  1.
         22    1    3    3    0    0 -0.42612148073E+02  0.23526912616E+02  0.31465598289E+03  0.31839864690E+03  0.00000000000E+00 0.  1.
</event>
<event>
 7    1  0.7457412E-006  0.2655379E+02  0.7818608E-02  0.1660040E+00
          2   -1    0    0  502    0  0.00000000000E+00  0.00000000000E+00  0.13970213266E+04  0.13970213266E+04  0.00000000000E+00 0. -1.
          1   -1    0    0  501    0 -0.00000000000E+00 -0.00000000000E+00 -0.25729267022E+03  0.25729267022E+03  0.00000000000E+00 0. -1.
         25    2    1    2    0    0 -0.11643635404E+02 -0.24423403788E+02  0.16097321673E+03  0.20559357212E+03  0.12499705394E+03 0.  0.
          2    1    1    2  501    0  0.25996493004E+02  0.56094735882E+01 -0.23411422584E+03  0.23561993672E+03  0.00000000000E+00 0. -1.
          1    1    1    2  502    0 -0.14352857600E+02  0.18813930200E+02  0.12128696655E+04  0.12131004880E+04  0.00000000000E+00 0. -1.
         22    1    3    3    0    0  0.42590813009E+02  0.26457435577E+01  0.11346786402E+02  0.44155711674E+02  0.00000000000E+00 0.  1.
         22    1    3    3    0    0 -0.54234448413E+02 -0.27069147346E+02  0.14962643033E+03  0.16143786045E+03  0.00000000000E+00 0.  1.
</event>
<event>
 7    1  0.7457412E-006  0.3774484E+02  0.7818608E-02  0.1558556E+00
          2   -1    0    0  502    0  0.00000000000E+00  0.00000000000E+00  0.16729783468E+04  0.16729783468E+04  0.00000000000E+00 0. -1.
          1   -1    0    0  501    0 -0.00000000000E+00 -0.00000000000E+00 -0.61705994859E+03  0.61705994859E+03  0.00000000000E+00 0. -1.
         25    2    1    2    0    0  0.91363993675E+01 -0.39559144179E+02 -0.35791374079E+03  0.38128194541E+03  0.12500110548E+03 0.  0.
          2    1    1    2  501    0  0.23075008219E+02  0.19873953232E+02 -0.24630977627E+03  0.24818528544E+03  0.00000000000E+00 0. -1.
          1    1    1    2  502    0 -0.32211407586E+02  0.19685190947E+02  0.16601419152E+04  0.16605710645E+04  0.00000000000E+00 0. -1.
         22    1    3    3    0    0  0.48275046176E+02 -0.69150569994E+01 -0.52542346976E+02  0.71686793221E+02  0.00000000000E+00 0. -1.
         22    1    3    3    0    0 -0.39138646808E+02 -0.32644087179E+02 -0.30537139381E+03  0.30959515219E+03  0.00000000000E+00 0. -1.
</event>
<event>
 7    1  0.7457412E-006  0.9978426E+02  0.7818608E-02  0.1410756E+00
          2   -1    0    0  502    0  0.00000000000E+00  0.00000000000E+00  0.21429462858E+04  0.21429462858E+04  0.00000000000E+00 0. -1.
          1   -1    0    0  501    0 -0.00000000000E+00 -0.00000000000E+00 -0.20069733107E+03  0.20069733107E+03  0.00000000000E+00 0. -1.
         25    2    1    2    0    0 -0.24250896029E+02  0.83873955562E+02  0.61898707337E+03  0.63748949866E+03  0.12499967010E+03 0.  0.
          2    1    1    2  501    0  0.56809675493E+02 -0.82461830866E+02 -0.17816304594E+03  0.20437554580E+03  0.00000000000E+00 0. -1.
          1    1    1    2  502    0 -0.32558779465E+02 -0.14121246960E+01  0.15014249273E+04  0.15017785724E+04  0.00000000000E+00 0. -1.
         22    1    3    3    0    0 -0.60608351282E+02  0.96040919836E+02  0.48551624436E+03  0.49862135340E+03  0.00000000000E+00 0.  1.
         22    1    3    3    0    0  0.36357455254E+02 -0.12166964274E+02  0.13347082901E+03  0.13886814526E+03  0.00000000000E+00 0.  1.
</event>
<event>
 7    1  0.7457412E-006  0.4332808E+02  0.7818608E-02  0.1492408E+00
          2   -1    0    0  502    0  0.00000000000E+00  0.00000000000E+00  0.70543589526E+02  0.70543589526E+02  0.00000000000E+00 0. -1.
          1   -1    0    0  501    0 -0.00000000000E+00 -0.00000000000E+00 -0.20221419245E+04  0.20221419245E+04  0.00000000000E+00 0. -1.
         25    2    1    2    0    0  0.70015920060E+02 -0.19496882959E+02 -0.67913210989E+02  0.15974755914E+03  0.12499888367E+03 0.  0.
          2    1    1    2  501    0 -0.30411659830E+02  0.30711614248E+02 -0.18906906222E+04  0.18911845762E+04  0.00000000000E+00 0. -1.
          1    1    1    2  502    0 -0.39604260230E+02 -0.11214731289E+02  0.70054982341E+01  0.41753378687E+02  0.00000000000E+00 0. -1.
         22    1    3    3    0    0  0.38635248781E+02 -0.44211402970E+01  0.34247277938E+02  0.51817998573E+02  0.00000000000E+00 0. -1.
         22    1    3    3    0    0  0.31380671278E+02 -0.15075742662E+02 -0.10216048893E+03  0.10792956057E+03  0.00000000000E+00 0. -1.
</event>
<event>
 7    1  0.7457412E-006  0.5580708E+02  0.7818608E-02  0.1451172E+00
          2   -1    0    0  502    0  0.00000000000E+00  0.00000000000E+00  0.50239357846E+03  0.50239357846E+03  0.00000000000E+00 0. -1.
          1   -1    0    0  501    0 -0.00000000000E+00 -0.00000000000E+00 -0.11916589183E+03  0.11916589183E+03  0.00000000000E+00 0. -1.
         25    2    1    2    0    0 -0.26049710764E+02 -0.93692593263E+02  0.21307029645E+03  0.26548424719E+03  0.12500417918E+03 0.  0.
          2    1    1    2  501    0  0.12856734041E+02  0.52861928615E+02 -0.83036547518E+02  0.99271080032E+02  0.00000000000E+00 0. -1.
          1    1    1    2  502    0  0.13192976723E+02  0.40830664648E+02  0.25319393769E+03  0.25680414306E+03  0.00000000000E+00 0. -1.
         22    1    3    3    0    0 -0.38317589598E+01 -0.66939088793E+01  0.16200440131E+03  0.16218790595E+03  0.00000000000E+00 0. -1.
         22    1    3    3    0    0 -0.22217951804E+02 -0.86998684383E+02  0.51065895144E+02  0.10329634124E+03  0.00000000000E+00 0. -1.
</event>
<event>
 7    1  0.7457412E-006  0.4096064E+02  0.7818608E-02  0.1503576E+00
          2   -1    0    0  502    0  0.00000000000E+00  0.00000000000E+00  0.11949654638E+03  0.11949654638E+03  0.00000000000E+00 0. -1.
          1   -1    0    0  501    0 -0.00000000000E+00 -0.00000000000E+00 -0.10125979607E+03  0.10125979607E+03  0.00000000000E+00 0. -1.
         25    2    1    2    0    0 -0.15666056448E+01 -0.17119954555E+02  0.10100195622E+02  0.12657671018E+03  0.12499640999E+03 0.  0.
          2    1    1    2  501    0  0.35405921633E+02 -0.19281380948E+02 -0.95401920143E+01  0.41429050214E+02  0.00000000000E+00 0. -1.
          1    1    1    2  502    0 -0.33839315988E+02  0.36401335503E+02  0.17676746710E+02  0.52750582055E+02  0.00000000000E+00 0. -1.
         22    1    3    3    0    0  0.45377904405E+02  0.29109522674E+02 -0.15178129265E+02  0.56007982703E+02  0.00000000000E+00 0.  1.
         22    1    3    3    0    0 -0.46944510050E+02 -0.46229477229E+02  0.25278324887E+02  0.70568727477E+02  0.00000000000E+00 0.  1.
</event>
<event>
 7    1  0.7457412E-006  0.7833925E+02  0.7818608E-02  0.1451767E+00
          2   -1    0    0  502    0  0.00000000000E+00  0.00000000000E+00  0.10392853260E+04  0.10392853260E+04  0.00000000000E+00 0. -1.
          1   -1    0    0  501    0 -0.00000000000E+00 -0.00000000000E+00 -0.39459379147E+03  0.39459379147E+03  0.00000000000E+00 0. -1.
         25    2    1    2    0    0 -0.72078291047E+02 -0.60788567135E+02  0.27210532951E+02  0.15892139807E+03  0.12500027090E+03 0.  0.
          2    1    1    2  501    0  0.71574533933E+02  0.30358648885E+02 -0.32389221504E+03  0.33309267244E+03  0.00000000000E+00 0. -1.
          1    1    1    2  502    0  0.50375711381E+00  0.30429918250E+02  0.94137321664E+03  0.94186504697E+03  0.00000000000E+00 0. -1.
         22    1    3    3    0    0 -0.49699727452E+02 -0.40881483538E+02  0.77286782940E+02  0.10057139465E+03  0.00000000000E+00 0. -1.
         22    1    3    3    0    0 -0.22378563595E+02 -0.19907083597E+02 -0.50076249988E+02  0.58350003417E+02  0.00000000000E+00 0. -1.
</event>
<event>
 7    1  0.7457412E-006  0.6124457E+02  0.7818608E-02  0.1419267E+00
          2   -1    0    0  502    0  0.00000000000E+00  0.00000000000E+00  0.83541175197E+03  0.83541175197E+03  0.00000000000E+00 0. -1.
          1   -1    0    0  501    0 -0.00000000000E+00 -0.00000000000E+00 -0.33972582557E+02  0.33972582557E+02  0.00000000000E+00 0. -1.
         25    2    1    2    0    0 -0.23080769576E+02 -0.13420995734E+02  0.33134567836E+03  0.35514530520E+03  0.12500153674E+03 0.  0.
          2    1    1    2  501    0  0.66997739437E+02 -0.98668600691E+01  0.34841486275E+02  0.76157607520E+02  0.00000000000E+00 0. -1.
          1    1    1    2  502    0 -0.43916969861E+02  0.23287855804E+02  0.43525200478E+03  0.43808142181E+03  0.00000000000E+00 0. -1.
         22    1    3    3    0    0 -0.49315067040E+02  0.29292434132E+02  0.77609814313E+02  0.96505470375E+02  0.00000000000E+00 0.  1.
         22    1    3    3    0    0  0.26234297464E+02 -0.42713429867E+02  0.25373586405E+03  0.25863983482E+03  0.00000000000E+00 0.  1.
</event>
<event>
 7    1  0.7834402E-006  0.6778653E+02  0.7818608E-02  0.1416283E+00
          2   -1    0    0  502    0  0.00000000000E+00  0.00000000000E+00  0.46937294470E+03  0.46937294470E+03  0.00000000000E+00 0. -1.
          1   -1    0    0  501    0 -0.00000000000E+00 -0.00000000000E+00 -0.23159587151E+04  0.23159587151E+04  0.00000000000E+00 0. -1.
         25    2    1    2    0    0 -0.37236531319E+02 -0.12232344914E+02 -0.37042348740E+03  0.39290533368E+03  0.12499940675E+03 0.  0.
          2    1    1    2  501    0  0.38671153034E+02  0.58167900405E+02 -0.19325091726E+04  0.19337710994E+04  0.00000000000E+00 0. -1.
          1    1    1    2  502    0 -0.14346217157E+01 -0.45935555491E+02  0.45634688958E+03  0.45865522675E+03  0.00000000000E+00 0. -1.
         22    1    3    3    0    0  0.31003113930E+02  0.18916956856E+02 -0.39805175834E+02  0.53884101117E+02  0.00000000000E+00 0. -1.
         22    1    3    3    0    0 -0.68239645249E+02 -0.31149301770E+02 -0.33061831156E+03  0.33902123256E+03  0.00000000000E+00 0. -1.
</event>
<event>
 7    1  0.7457412E-006  0.5118049E+02  0.7818608E-02  0.1466025E+00
          2   -1    0    0  502    0  0.00000000000E+00  0.00000000000E+00  0.14882266866E+04  0.14882266866E+04  0.00000000000E+00 0. -1.
          1   -1    0    0  501    0 -0.00000000000E+00 -0.00000000000E+00 -0.15444238917E+03  0.15444238917E+03  0.00000000000E+00 0. -1.
         25    2    1    2    0    0  0.90159906161E+02  0.37244979245E+01  0.65265301569E+03  0.67061470446E+03  0.12500176952E+03 0.  0.
          2    1    1    2  501    0 -0.49221934722E+02 -0.13081921235E+02 -0.14045067575E+03  0.14939989236E+03  0.00000000000E+00 0. -1.
          1    1    1    2  502    0 -0.40937971439E+02  0.93574233110E+01  0.82158195752E+03  0.82265447899E+03  0.00000000000E+00 0. -1.
         22    1    3    3    0    0  0.84680436608E+02  0.38333361471E+02  0.25486780525E+03  0.27128918353E+03  0.00000000000E+00 0.  1.
         22    1    3    3    0    0  0.54794695529E+01 -0.34608863547E+02  0.39778521044E+03  0.39932552094E+03  0.00000000000E+00 0.  1.
</event>
<event>
 7    1  0.7457412E-006  0.4869987E+02  0.7818608E-02  0.1485194E+00
          2   -1    0    0  502    0  0.00000000000E+00  0.00000000000E+00  0.14427902441E+03  0.14427902441E+03  0.00000000000E+00 0. -1.
          1   -1    0    0  501    0 -0.00000000000E+00 -0.00000000000E+00 -0.64155313551E+03  0.64155313551E+03  0.00000000000E+00 0. -1.
         25    2    1    2    0    0  0.20188375020E+02 -0.21206873276E+02  0.11373197305E+02  0.12885789878E+03  0.12497082260E+03 0.  0.
          2    1    1    2  501    0  0.67996204050E+01  0.48680727091E+02 -0.57669417709E+03  0.57878512586E+03  0.00000000000E+00 0. -1.
          1    1    1    2  502    0 -0.26987995425E+02 -0.27473853815E+02  0.68046868679E+02  0.78189135291E+02  0.00000000000E+00 0. -1.
         22    1    3    3    0    0  0.31743254155E+02  0.35752543249E+02 -0.30956132131E+02  0.56957533739E+02  0.00000000000E+00 0.  1.
         22    1    3    3    0    0 -0.11554879135E+02 -0.56959416525E+02  0.42329329436E+02  0.71900365042E+02  0.00000000000E+00 0.  1.
</event>
<event>
 7    1  0.7457412E-006  0.1788539E+03  0.7818608E-02  0.1232554E+00
          2   -1    0    0  502    0  0.00000000000E+00  0.00000000000E+00  0.28873287501E+03  0.28873287501E+03  0.00000000000E+00 0. -1.
          1   -1    0    0  501    0 -0.00000000000E+00 -0.00000000000E+00 -0.52333311531E+03  0.52333311531E+03  0.00000000000E+00 0. -1.
         25    2    1    2    0    0 -0.15224907375E+03  0.30042253467E+02  0.11721961403E+03  0.23118891577E+03  0.12500223762E+03 0.  0.
          2    1    1    2  501    0  0.13970183801E+03 -0.11880544489E+03 -0.42646431842E+03  0.46422317065E+03  0.00000000000E+00 0. -1.
          1    1    1    2  502    0  0.12547235739E+02  0.88763191422E+02  0.74644464089E+02  0.11665390390E+03  0.00000000000E+00 0. -1.
         22    1    3    3    0    0 -0.16574359297E+03  0.10788268562E+02  0.12335354622E+03  0.20688988065E+03  0.00000000000E+00 0.  1.
         22    1    3    3    0    0  0.13494519221E+02  0.19253984906E+02 -0.61339321889E+01  0.24299035122E+02  0.00000000000E+00 0.  1.
</event>
<event>
 7    1  0.7457412E-006  0.1351369E+03  0.7818608E-02  0.1399105E+00
          2   -1    0    0  502    0  0.00000000000E+00  0.00000000000E+00  0.52986342841E+03  0.52986342841E+03  0.00000000000E+00 0. -1.
          1   -1    0    0  501    0 -0.00000000000E+00 -0.00000000000E+00 -0.26297173951E+03  0.26297173951E+03  0.00000000000E+00 0. -1.
         25    2    1    2    0    0 -0.90727260964E+02 -0.11830538420E+03  0.14074535251E+03  0.24012970119E+03  0.12500167731E+03 0.  0.
          2    1    1    2  501    0 -0.35329812735E+01  0.26134215282E+02 -0.19957794152E+03  0.20131277631E+03  0.00000000000E+00 0. -1.
          1    1    1    2  502    0  0.94260242237E+02  0.92171168920E+02  0.32572427792E+03  0.35139269041E+03  0.00000000000E+00 0. -1.
         22    1    3    3    0    0 -0.28298881129E+02  0.25046063346E+02  0.21381087966E+02  0.43419844367E+02  0.00000000000E+00 0.  1.
         22    1    3    3    0    0 -0.62428379835E+02 -0.14335144755E+03  0.11936426454E+03  0.19670985682E+03  0.00000000000E+00 0.  1.
</event>
<event>
 7    1  0.7457412E-006  0.1189362E+03  0.7818608E-02  0.1293050E+00
          2   -1    0    0  502    0  0.00000000000E+00  0.00000000000E+00  0.72305203719E+03  0.72305203719E+03  0.00000000000E+00 0. -1.
          1   -1    0    0  501    0 -0.00000000000E+00 -0.00000000000E+00 -0.41848865626E+03  0.41848865626E+03  0.00000000000E+00 0. -1.
         25    2    1    2    0    0  0.11887986704E+03 -0.20627459282E+02 -0.36567825299E+02  0.17753867738E+03  0.12499944502E+03 0.  0.
          2    1    1    2  501    0 -0.35438273021E+02 -0.65606066479E+02 -0.30133625442E+03  0.31042481438E+03  0.00000000000E+00 0. -1.
          1    1    1    2  502    0 -0.83441594021E+02  0.86233525761E+02  0.64246746065E+03  0.65357720169E+03  0.00000000000E+00 0. -1.
         22    1    3    3    0    0  0.73021747444E+02 -0.21598911756E+01  0.42330282218E+02  0.84431590784E+02  0.00000000000E+00 0. -1.
         22    1    3    3    0    0  0.45858119599E+02 -0.18467568106E+02 -0.78898107518E+02  0.93107086598E+02  0.00000000000E+00 0. -1.
</event>
<event>
 7    1  0.7457412E-006  0.7465017E+02  0.7818608E-02  0.1421339E+00
          2   -1    0    0  502    0  0.00000000000E+00  0.00000000000E+00  0.16236653470E+04  0.16236653470E+04  0.00000000000E+00 0. -1.
          1   -1    0    0  501    0 -0.00000000000E+00 -0.00000000000E+00 -0.25640462059E+02  0.25640462059E+02  0.00000000000E+00 0. -1.
         25    2    1    2    0    0  0.80502243166E+02  0.72521994363E+02  0.49284962145E+03  0.51987127227E+03  0.12500135819E+03 0.  0.
          2    1    1    2  501    0 -0.19063360711E+02 -0.35322041337E+02  0.25893029582E+02  0.47765126470E+02  0.00000000000E+00 0. -1.
          1    1    1    2  502    0 -0.61438882455E+02 -0.37199953026E+02  0.10792822339E+04  0.10816694103E+04  0.00000000000E+00 0. -1.
         22    1    3    3    0    0  0.98501324540E+02  0.61405226321E+02  0.48260204158E+03  0.49636462735E+03  0.00000000000E+00 0. -1.
         22    1    3    3    0    0 -0.17999081373E+02  0.11116768043E+02  0.10247579872E+02  0.23506644916E+02  0.00000000000E+00 0. -1.
</event>
<event>
 7    1  0.7457412E-006  0.6447298E+02  0.7818608E-02  0.1405855E+00
          2   -1    0    0  502    0  0.00000000000E+00  0.00000000000E+00  0.40532779531E+03  0.40532779531E+03  0.00000000000E+00 0. -1.
          1   -1    0    0  501    0 -0.00000000000E+00 -0.00000000000E+00 -0.15927703673E+04  0.15927703673E+04  0.00000000000E+00 0. -1.
         25    2    1    2    0    0 -0.76966974295E+02 -0.10515212349E+02 -0.64023139684E+03  0.65692921745E+03  0.12500108164E+03 0.  0.
          2    1    1    2  501    0  0.35310345877E+02 -0.38728696581E+02 -0.94083600256E+03  0.94229460158E+03  0.00000000000E+00 0. -1.
          1    1    1    2  502    0  0.41656628418E+02  0.49243908930E+02  0.39362482738E+03  0.39887434361E+03  0.00000000000E+00 0. -1.
         22    1    3    3    0    0 -0.38549773857E+02  0.25474096637E+02 -0.55383276395E+03  0.55575691186E+03  0.00000000000E+00 0. -1.
         22    1    3    3    0    0 -0.38417200438E+02 -0.35989308986E+02 -0.86398632895E+02  0.10117230558E+03  0.00000000000E+00 0. -1.
</event>
<event>
 7    1  0.7457412E-006  0.1294130E+03  0.7818608E-02  0.1372575E+00
          2   -1    0    0  502    0  0.00000000000E+00  0.00000000000E+00  0.27014799311E+04  0.27014799311E+04  0.00000000000E+00 0. -1.
          1   -1    0    0  501    0 -0.00000000000E+00 -0.00000000000E+00 -0.24747868338E+02  0.24747868338E+02  0.00000000000E+00 0. -1.
         25    2    1    2    0    0  0.12073685816E+02 -0.13515972379E+03  0.15193230287E+04  0.15304841043E+04  0.12500081292E+03 0.  0.
          2    1    1    2  501    0  0.30460550886E+02  0.15388335357E+02  0.28894131134E+01  0.34249010693E+02  0.00000000000E+00 0. -1.
          1    1    1    2  502    0 -0.42534236702E+02  0.11977138843E+03  0.11545196209E+04  0.11614946844E+04  0.00000000000E+00 0. -1.
         22    1    3    3    0    0 -0.15986013783E+02 -0.13326078137E+03  0.84655984378E+03  0.85713333711E+03  0.00000000000E+00 0.  1.
         22    1    3    3    0    0  0.28059699599E+02 -0.18989424239E+01  0.67276318494E+03  0.67335076723E+03  0.00000000000E+00 0.  1.
</event>
<event>
 7    1  0.7457412E-006  0.3957061E+02  0.7818608E-02  0.1527497E+00
          2   -1    0    0  502    0  0.00000000000E+00  0.00000000000E+00  0.32524674594E+03  0.32524674594E+03  0.00000000000E+00 0. -1.
          1   -1    0    0  501    0 -0.00000000000E+00 -0.00000000000E+00 -0.16380758353E+04  0.16380758353E+04  0.00000000000E+00 0. -1.
         25    2    1    2    0    0 -0.46029680256E+02  0.53500753969E+02 -0.34862894969E+03  0.37702475398E+03  0.12499783365E+03 0.  0.
          2    1    1    2  501    0  0.12038220831E+02 -0.33426881458E+02 -0.12737477651E+04  0.12742431653E+04  0.00000000000E+00 0. -1.
          1    1    1    2  502    0  0.33991459425E+02 -0.20073872511E+02  0.30954762541E+03  0.31205466199E+03  0.00000000000E+00 0. -1.
         22    1    3    3    0    0  0.43782390695E+01  0.59057291156E+02 -0.30323267421E+03  0.30896114209E+03  0.00000000000E+00 0.  1.
         22    1    3    3    0    0 -0.50407919325E+02 -0.55565371876E+01 -0.45396275482E+02  0.68063611892E+02  0.00000000000E+00 0.  1.
</event>
<event>
 7    1  0.7457412E-006  0.9765072E+02  0.7818608E-02  0.1343348E+00
          2   -1    0    0  502    0  0.00000000000E+00  0.00000000000E+00  0.11768024555E+03  0.11768024555E+03  0.00000000000E+00 0. -1.
          1   -1    0    0  501    0 -0.00000000000E+00 -0.00000000000E+00 -0.23840784425E+04  0.23840784425E+04  0.00000000000E+00 0. -1.
         25    2    1    2    0    0 -0.54006729444E+02 -0.67460174398E+01 -0.28037327243E+03  0.31176441435E+03  0.12500257033E+03 0.  0.
          2    1    1    2  501    0 -0.42472900074E+02  0.39296660342E+02 -0.20620869678E+04  0.20628986494E+04  0.00000000000E+00 0. -1.
          1    1    1    2  502    0  0.96479629518E+02 -0.32550642902E+02  0.76062043364E+02  0.12709562426E+03  0.00000000000E+00 0. -1.
         22    1    3    3    0    0 -0.68187663100E+02  0.45412676022E+02 -0.17984247748E+03  0.19762384788E+03  0.00000000000E+00 0.  1.
         22    1    3    3    0    0  0.14180933656E+02 -0.52158693462E+02 -0.10053079495E+03  0.11414056648E+03  0.00000000000E+00 0.  1.
</event>
<event>
 7    1  0.7457412E-006  0.7050251E+02  0.7818608E-02  0.1481100E+00
          2   -1    0    0  502    0  0.00000000000E+00  0.00000000000E+00  0.68275602927E+03  0.68275602927E+03  0.00000000000E+00 0. -1.
          1   -1    0    0  501    0 -0.00000000000E+00 -0.00000000000E+00 -0.14422825552E+03  0.14422825552E+03  0.00000000000E+00 0. -1.
         25    2    1    2    0    0  0.60347068691E+02 -0.41580212731E+02  0.33355283295E+03  0.36366542800E+03  0.12499747342E+03 0.  0.
          2    1    1    2  501    0  0.87610457391E+01  0.25939688556E+02 -0.12390435402E+03  0.12689331074E+03  0.00000000000E+00 0. -1.
          1    1    1    2  502    0 -0.69108114430E+02  0.15640524175E+02  0.32887929482E+03  0.33642554605E+03  0.00000000000E+00 0. -1.
         22    1    3    3    0    0  0.50334515822E+02  0.22037893468E+02  0.54924772584E+02  0.77691459472E+02  0.00000000000E+00 0. -1.
         22    1    3    3    0    0  0.10012552868E+02 -0.63618106199E+02  0.27862806037E+03  0.28597396853E+03  0.00000000000E+00 0. -1.
</event>
<event>
 7    1  0.7457412E-006  0.8002338E+02  0.7818608E-02  0.1418040E+00
          2   -1    0    0  502    0  0.00000000000E+00  0.00000000000E+00  0.10536102735E+04  0.10536102735E+04  0.00000000000E+00 0. -1.
          1   -1    0    0  501    0 -0.00000000000E+00 -0.00000000000E+00 -0.83917522850E+03  0.83917522850E+03  0.00000000000E+00 0. -1.
         25    2    1    2    0    0  0.76720365383E+02  0.96077970067E+01  0.34849517018E+03  0.37822213013E+03  0.12499908743E+03 0.  0.
          2    1    1    2  501    0 -0.96961531610E+01  0.37161559628E+02 -0.82144224630E+03  0.82233956545E+03  0.00000000000E+00 0. -1.
          1    1    1    2  502    0 -0.67024212222E+02 -0.46769356635E+02  0.68738212116E+03  0.69222380647E+03  0.00000000000E+00 0. -1.
         22    1    3    3    0    0  0.96918914136E+02  0.41303720963E+02  0.21329473938E+03  0.23789476482E+03  0.00000000000E+00 0. -1.
         22    1    3    3    0    0 -0.20198548753E+02 -0.31695923956E+02  0.13520043080E+03  0.14032736531E+03  0.00000000000E+00 0. -1.
</event>
<event>
 7    1  0.7457412E-006  0.8997853E+02  0.7818608E-02  0.1382626E+00
          2   -1    0    0  502    0  0.00000000000E+00  0.00000000000E+00  0.10698049141E+03  0.10698049141E+03  0.00000000000E+00 0. -1.
          1   -1    0    0  501    0 -0.00000000000E+00 -0.00000000000E+00 -0.22171577404E+04  0.22171577404E+04  0.00000000000E+00 0. -1.
         25    2    1    2    0    0  0.46017681249E+02 -0.15717049006E+02 -0.78210200553E+03  0.79351912635E+03  0.12499761684E+03 0.  0.
          2    1    1    2  501    0  0.31029780011E+02 -0.32876733640E+02 -0.14084272509E+04  0.14091525993E+04  0.00000000000E+00 0. -1.
          1    1    1    2  502    0 -0.77047461260E+02  0.48593782646E+02  0.80352007524E+02  0.12146650613E+03  0.00000000000E+00 0. -1.
         22    1    3    3    0    0 -0.11206290151E+02  0.47231813396E+02 -0.31817625188E+03  0.32185796929E+03  0.00000000000E+00 0.  1.
         22    1    3    3    0    0  0.57223971399E+02 -0.62948862402E+02 -0.46392575365E+03  0.47166115706E+03  0.00000000000E+00 0.  1.
</event>
<event>
 7    1  0.7457412E-006  0.1123437E+03  0.7818608E-02  0.1344867E+00
          2   -1    0    0  502    0  0.00000000000E+00  0.00000000000E+00  0.14155960487E+04  0.14155960487E+04  0.00000000000E+00 0. -1.
          1   -1    0    0  501    0 -0.00000000000E+00 -0.00000000000E+00 -0.15633216353E+04  0.15633216353E+04  0.00000000000E+00 0. -1.
         25    2    1    2    0    0 -0.77922349021E+02  0.94315457739E+02  0.20828896833E+03  0.27198688591E+03  0.12500109492E+03 0.  0.
          2    1    1    2  501    0  0.30259946271E+02 -0.10819553958E+03 -0.15288864962E+04  0.15330087597E+04  0.00000000000E+00 0. -1.
          1    1    1    2  502    0  0.47662402750E+02  0.13880081841E+02  0.11728719414E+04  0.11739220384E+04  0.00000000000E+00 0. -1.
         22    1    3    3    0    0 -0.88290510108E+01  0.79622451487E+02  0.40142239635E+02  0.89605169078E+02  0.00000000000E+00 0. -1.
         22    1    3    3    0    0 -0.69093298010E+02  0.14693006252E+02  0.16814672870E+03  0.18238171683E+03  0.00000000000E+00 0. -1.
</event>
<event>
 7    1  0.7457412E-006  0.7863641E+02  0.7818608E-02  0.1424059E+00
          2   -1    0    0  502    0  0.00000000000E+00  0.00000000000E+00  0.30040407063E+03  0.30040407063E+03  0.00000000000E+00 0. -1.
          1   -1    0    0  501    0 -0.00000000000E+00 -0.00000000000E+00 -0.22392584519E+04  0.22392584519E+04  0.00000000000E+00 0. -1.
         25    2    1    2    0    0  0.17611617185E+02 -0.63584841589E+02 -0.77627428196E+03  0.78903698366E+03  0.12499759843E+03 0.  0.
          2    1    1    2  501    0 -0.54839900435E+02  0.61003045143E+02 -0.14542582247E+04  0.14565698645E+04  0.00000000000E+00 0. -1.
          1    1    1    2  502    0  0.37228283249E+02  0.25817964467E+01  0.29167812541E+03  0.29405567430E+03  0.00000000000E+00 0. -1.
         22    1    3    3    0    0  0.14323817894E+02  0.36382813681E+02 -0.16063050056E+03  0.16532101681E+03  0.00000000000E+00 0.  1.
         22    1    3    3    0    0  0.32877992910E+01 -0.99967655270E+02 -0.61564378140E+03  0.62371596685E+03  0.00000000000E+00 0.  1.
</event>
<event>
 7    1  0.7457412E-006  0.1511734E+03  0.7818608E-02  0.1263191E+00
          2   -1    0    0  502    0  0.00000000000E+00  0.00000000000E+00  0.97698641437E+03  0.97698641437E+03  0.00000000000E+00 0. -1.
          1   -1    0    0  501    0 -0.00000000000E+00 -0.00000000000E+00 -0.16648647219E+04  0.16648647219E+04  0.00000000000E+00 0. -1.
         25    2    1    2    0    0  0.99949815471E+02 -0.55365459244E+02  0.17666389522E+03  0.24472603681E+03  0.12500160610E+03 0.  0.
          2    1    1    2  501    0 -0.15202567411E+03 -0.27193377239E+01 -0.16252905456E+04  0.16323873798E+04  0.00000000000E+00 0. -1.
          1    1    1    2  502    0  0.52075858637E+02  0.58084796968E+02  0.76074834283E+03  0.76473771962E+03  0.00000000000E+00 0. -1.
         22    1    3    3    0    0  0.24452461845E+02 -0.81905669706E+02  0.65183110505E+02  0.10749557905E+03  0.00000000000E+00 0. -1.
         22    1    3    3    0    0  0.75497353626E+02  0.26540210462E+02  0.11148078471E+03  0.13723045776E+03  0.00000000000E+00 0. -1.
</event>
<event>
 7    1  0.7457412E-006  0.7763902E+02  0.7818608E-02  0.1461050E+00
          2   -1    0    0  502    0  0.00000000000E+00  0.00000000000E+00  0.90636271641E+02  0.90636271641E+02  0.00000000000E+00 0. -1.
          1   -1    0    0  501    0 -0.00000000000E+00 -0.00000000000E+00 -0.36940389715E+03  0.36940389715E+03  0.00000000000E+00 0. -1.
         25    2    1    2    0    0  0.72656318173E+02 -0.29000711437E+01 -0.94973855244E+02  0.17301123319E+03  0.12500201057E+03 0.  0.
          2    1    1    2  501    0  0.55396124153E+00 -0.28690990370E+02 -0.20299568928E+03  0.20501397433E+03  0.00000000000E+00 0. -1.
          1    1    1    2  502    0 -0.73210279415E+02  0.31591061514E+02  0.19201919016E+02  0.82014961278E+02  0.00000000000E+00 0. -1.
         22    1    3    3    0    0 -0.11410991880E+02 -0.49078698815E+01 -0.87733866932E+02  0.88608855817E+02  0.00000000000E+00 0.  1.
         22    1    3    3    0    0  0.84067310053E+02  0.20077987379E+01 -0.72399883119E+01  0.84402377372E+02  0.00000000000E+00 0.  1.
</event>
<event>
 7    1  0.7457412E-006  0.3340636E+02  0.7818608E-02  0.1600632E+00
          2   -1    0    0  502    0  0.00000000000E+00  0.00000000000E+00  0.10337603974E+04  0.10337603974E+04  0.00000000000E+00 0. -1.
          1   -1    0    0  501    0 -0.00000000000E+00 -0.00000000000E+00 -0.21587210688E+03  0.21587210688E+03  0.00000000000E+00 0. -1.
         25    2    1    2    0    0  0.43608354314E+02  0.20255796134E+02  0.91352485578E+03  0.92329101732E+03  0.12500661858E+03 0.  0.
          2    1    1    2  501    0 -0.14455134373E+02 -0.22247942519E+02 -0.20828333092E+03  0.20996634919E+03  0.00000000000E+00 0. -1.
          1    1    1    2  502    0 -0.29153219941E+02  0.19921463852E+01  0.11264676568E+03  0.11637513780E+03  0.00000000000E+00 0. -1.
         22    1    3    3    0    0  0.79825521662E+01  0.57167546076E+02  0.74244175393E+03  0.74468221910E+03  0.00000000000E+00 0. -1.
         22    1    3    3    0    0  0.35625802147E+02 -0.36911749942E+02  0.17108310185E+03  0.17860879822E+03  0.00000000000E+00 0. -1.
</event>
<event>
 7    1  0.7457412E-006  0.5215195E+02  0.7818608E-02  0.1445866E+00
          2   -1    0    0  502    0  0.00000000000E+00  0.00000000000E+00  0.26208035304E+03  0.26208035304E+03  0.00000000000E+00 0. -1.
          1   -1    0    0  501    0 -0.00000000000E+00 -0.00000000000E+00 -0.97060558058E+03  0.97060558058E+03  0.00000000000E+00 0. -1.
         25    2    1    2    0    0 -0.25822838167E+02  0.63831342893E+02 -0.29900810800E+03  0.33131263255E+03  0.12498380909E+03 0.  0.
          2    1    1    2  501    0  0.47656586244E+02 -0.21364661031E+02 -0.65207337437E+03  0.65416151256E+03  0.00000000000E+00 0. -1.
          1    1    1    2  502    0 -0.21833748077E+02 -0.42466681862E+02  0.24255625482E+03  0.24721178851E+03  0.00000000000E+00 0. -1.
         22    1    3    3    0    0 -0.41368266046E+02  0.91223409875E+02 -0.27188015348E+03  0.28974447674E+03  0.00000000000E+00 0. -1.
         22    1    3    3    0    0  0.15545427879E+02 -0.27392066982E+02 -0.27127954518E+02  0.41568155814E+02  0.00000000000E+00 0. -1.
</event>
<event>
 7    1  0.7457412E-006  0.2200821E+03  0.7818608E-02  0.1350134E+00
          2   -1    0    0  502    0  0.00000000000E+00  0.00000000000E+00  0.11656294014E+04  0.11656294014E+04  0.00000000000E+00 0. -1.
          1   -1    0    0  501    0 -0.00000000000E+00 -0.00000000000E+00 -0.18282609284E+03  0.18282609284E+03  0.00000000000E+00 0. -1.
         25    2    1    2    0    0  0.63072183484E+02 -0.20676729810E+03  0.12455532379E+03  0.27906103452E+03  0.12502086390E+03 0.  0.
          2    1    1    2  501    0  0.23935582126E+02  0.37195487544E+01 -0.91315781050E+02  0.94473906469E+02  0.00000000000E+00 0. -1.
          1    1    1    2  502    0 -0.87007765610E+02  0.20304774935E+03  0.94956376587E+03  0.97492055330E+03  0.00000000000E+00 0. -1.
         22    1    3    3    0    0  0.79125968275E+02 -0.13970216982E+03  0.32118298840E+02  0.16373515269E+03  0.00000000000E+00 0.  1.
         22    1    3    3    0    0 -0.16053784791E+02 -0.67065128285E+02  0.92437024949E+02  0.11532588183E+03  0.00000000000E+00 0.  1.
</event>
<event>
 7    1  0.7457412E-006  0.4647334E+02  0.7818608E-02  0.1495207E+00
          2   -1    0    0  502    0  0.00000000000E+00  0.00000000000E+00  0.13771283712E+04  0.13771283712E+04  0.00000000000E+00 0. -1.
          1   -1    0    0  501    0 -0.00000000000E+00 -0.00000000000E+00 -0.99747205202E+03  0.99747205202E+03  0.00000000000E+00 0. -1.
         25    2    1    2    0    0 -0.61435776362E+02 -0.56953176985E+02 -0.10986115975E+02  0.15087854611E+03  0.12500248776E+03 0.  0.
          2    1    1    2  501    0  0.33107858844E+02  0.32170396780E+02 -0.91568721127E+03  0.91685011514E+03  0.00000000000E+00 0. -1.
          1    1    1    2  502    0  0.28327917518E+02  0.24782780205E+02  0.13063296464E+04  0.13068717620E+04  0.00000000000E+00 0. -1.
         22    1    3    3    0    0 -0.88929147198E+02 -0.10374624824E+02 -0.28609904056E+02  0.93992301130E+02  0.00000000000E+00 0.  1.
         22    1    3    3    0    0  0.27493370835E+02 -0.46578552161E+02  0.17623788081E+02  0.56886244977E+02  0.00000000000E+00 0.  1.
</event>
<event>
 7    1  0.7457412E-006  0.1328586E+03  0.7818608E-02  0.1271882E+00
          2   -1    0    0  502    0  0.00000000000E+00  0.00000000000E+00  0.30147826666E+04  0.30147826666E+04  0.00000000000E+00 0. -1.
          1   -1    0    0  501    0 -0.00000000000E+00 -0.00000000000E+00 -0.45984351324E+02  0.45984351324E+02  0.00000000000E+00 0. -1.
         25    2    1    2    0    0 -0.63378602859E+02  0.37738411562E+02  0.75195035680E+03  0.76582969664E+03  0.12499900059E+03 0.  0.
          2    1    1    2  501    0  0.85782657326E+02 -0.11618507188E+03  0.98030379867E+02  0.17454967947E+03  0.00000000000E+00 0. -1.
          1    1    1    2  502    0 -0.22404054467E+02  0.78446660316E+02  0.21188175786E+04  0.21203876418E+04  0.00000000000E+00 0. -1.
         22    1    3    3    0    0 -0.67314182482E+02 -0.10117865144E+02  0.18989179312E+03  0.20172373052E+03  0.00000000000E+00 0.  1.
         22    1    3    3    0    0  0.39355796225E+01  0.47856276706E+02  0.56205856368E+03  0.56410596612E+03  0.00000000000E+00 0.  1.
</event>
<event>
 7    1  0.1001656E-005  0.9712443E+02  0.7818608E-02  0.1307323E+00
          2   -1    0    0  502    0  0.00000000000E+00  0.00000000000E+00  0.27350807491E+04  0.27350807491E+04  0.00000000000E+00 0. -1.
          1   -1    0    0  501    0 -0.00000000000E+00 -0.00000000000E+00 -0.11390030009E+04  0.11390030009E+04  0.00000000000E+00 0. -1.
         25    2    1    2    0    0  0.14993809916E+03  0.83677070031E+02 -0.33468565115E+03  0.39638752577E+03  0.12500119948E+03 0.  0.
          2    1    1    2  501    0 -0.56931051360E+02 -0.56284546663E+02 -0.77052279419E+03  0.77467055653E+03  0.00000000000E+00 0. -1.
          1    1    1    2  502    0 -0.93007047804E+02 -0.27392523368E+02  0.27012861935E+04  0.27030256677E+04  0.00000000000E+00 0. -1.
         22    1    3    3    0    0  0.23243424431E+02  0.47505360756E+02 -0.22381758580E+02  0.57427860808E+02  0.00000000000E+00 0.  1.
         22    1    3    3    0    0  0.12669467473E+03  0.36171709275E+02 -0.31230389257E+03  0.33895966497E+03  0.00000000000E+00 0.  1.
</event>
<event>
 7    1  0.7457412E-006  0.4810571E+02  0.7818608E-02  0.1532115E+00
          2   -1    0    0  502    0  0.00000000000E+00  0.00000000000E+00  0.60193195487E+03  0.60193195487E+03  0.00000000000E+00 0. -1.
          1   -1    0    0  501    0 -0.00000000000E+00 -0.00000000000E+00 -0.18426559731E+04  0.18426559731E+04  0.00000000000E+00 0. -1.
         25    2    1    2    0    0 -0.51254802644E+02 -0.44839588412E+02  0.36270362896E+02  0.14689185438E+03  0.12499613665E+03 0.  0.
          2    1    1    2  501    0  0.23032893920E+02  0.42169589202E+02 -0.17866283182E+04  0.17872743315E+04  0.00000000000E+00 0. -1.
          1    1    1    2  502    0  0.28221908724E+02  0.26699992091E+01  0.50963393708E+03  0.51042174214E+03  0.00000000000E+00 0. -1.
         22    1    3    3    0    0  0.42760646338E+01  0.12839611492E+02 -0.36356575419E+02  0.38793568130E+02  0.00000000000E+00 0. -1.
         22    1    3    3    0    0 -0.55530867277E+02 -0.57679199904E+02  0.72626938315E+02  0.10809828625E+03  0.00000000000E+00 0. -1.
</event>
<event>
 7    1  0.7457412E-006  0.3586191E+02  0.7818608E-02  0.1626919E+00
          2   -1    0    0  502    0  0.00000000000E+00  0.00000000000E+00  0.20167871947E+04  0.20167871947E+04  0.00000000000E+00 0. -1.
          1   -1    0    0  501    0 -0.00000000000E+00 -0.00000000000E+00 -0.31249847688E+03  0.31249847688E+03  0.00000000000E+00 0. -1.
         25    2    1    2    0    0 -0.72971391592E+01  0.48168105798E+02  0.17938389078E+04  0.17988486461E+04  0.12500003911E+03 0.  0.
          2    1    1    2  501    0 -0.59462179112E+01 -0.20305077792E+02 -0.30855020763E+03  0.30927477155E+03  0.00000000000E+00 0. -1.
          1    1    1    2  502    0  0.13243357070E+02 -0.27863028005E+02  0.21900001761E+03  0.22116225390E+03  0.00000000000E+00 0. -1.
         22    1    3    3    0    0 -0.17758911484E+01 -0.18095138144E+02  0.13439056716E+04  0.13440286612E+04  0.00000000000E+00 0.  1.
         22    1    3    3    0    0 -0.55212480108E+01  0.66263243942E+02  0.44993323615E+03  0.45481998490E+03  0.00000000000E+00 0.  1.
</event>
<event>
 7    1  0.7457412E-006  0.7016964E+02  0.7818608E-02  0.1410358E+00
          2   -1    0    0  502    0  0.00000000000E+00  0.00000000000E+00  0.86255722909E+03  0.86255722909E+03  0.00000000000E+00 0. -1.
          1   -1    0    0  501    0 -0.00000000000E+00 -0.00000000000E+00 -0.65637188482E+03  0.65637188482E+03  0.00000000000E+00 0. -1.
         25    2    1    2    0    0 -0.56910561920E+02  0.79830753933E+01 -0.23703359751E+03  0.27405797433E+03  0.12498122017E+03 0.  0.
          2    1    1    2  501    0  0.64287983864E+02  0.37915157540E+02 -0.39670338459E+03  0.40366332431E+03  0.00000000000E+00 0. -1.
          1    1    1    2  502    0 -0.73774219435E+01 -0.45898232934E+02  0.83992232638E+03  0.84120781528E+03  0.00000000000E+00 0. -1.
         22    1    3    3    0    0 -0.81063091881E+02  0.14276061439E+02 -0.79075337960E+02  0.11414000118E+03  0.00000000000E+00 0.  1.
         22    1    3    3    0    0  0.24152529961E+02 -0.62929860461E+01 -0.15795825955E+03  0.15991797315E+03  0.00000000000E+00 0.  1.
</event>
<event>
 7    1  0.7457412E-006  0.3645575E+02  0.7818608E-02  0.1596261E+00
          2   -1    0    0  502    0  0.00000000000E+00  0.00000000000E+00  0.91304841596E+03  0.91304841596E+03  0.00000000000E+00 0. -1.
          1   -1    0    0  501    0 -0.00000000000E+00 -0.00000000000E+00 -0.16267693741E+03  0.16267693741E+03  0.00000000000E+00 0. -1.
         25    2    1    2    0    0  0.12097197729E+02 -0.15405612285E+02  0.20959811032E+03  0.24482558007E+03  0.12499808689E+03 0.  0.
          2    1    1    2  501    0  0.99087220676E+00  0.36660623053E+02 -0.14251373633E+03  0.14715688279E+03  0.00000000000E+00 0. -1.
          1    1    1    2  502    0 -0.13088069936E+02 -0.21255010768E+02  0.68328710456E+03  0.68374289050E+03  0.00000000000E+00 0. -1.
         22    1    3    3    0    0 -0.38962245342E+02 -0.39955324631E+02  0.16025995660E+03  0.16969896351E+03  0.00000000000E+00 0.  1.
         22    1    3    3    0    0  0.51059443071E+02  0.24549712346E+02  0.49338153723E+02  0.75126616561E+02  0.00000000000E+00 0.  1.
</event>
<event>
 7    1  0.7457412E-006  0.1233509E+03  0.7818608E-02  0.1365432E+00
          2   -1    0    0  502    0  0.00000000000E+00  0.00000000000E+00  0.10316547637E+04  0.10316547637E+04  0.00000000000E+00 0. -1.
          1   -1    0    0  501    0 -0.00000000000E+00 -0.00000000000E+00 -0.37234477500E+03  0.37234477500E+03  0.00000000000E+00 0. -1.
         25    2    1    2    0    0  0.30600018453E+02  0.87497600846E+02 -0.21046350921E+02  0.15703459917E+03  0.12499890066E+03 0.  0.
          2    1    1    2  501    0 -0.35653902470E+02 -0.12514810593E+03 -0.26796129682E+03  0.29788673312E+03  0.00000000000E+00 0. -1.
          1    1    1    2  502    0  0.50538840168E+01  0.37650505081E+02  0.94831763649E+03  0.94907820645E+03  0.00000000000E+00 0. -1.
         22    1    3    3    0    0 -0.32284498832E+02 -0.12059552310E+02  0.87746918678E+01  0.35562858211E+02  0.00000000000E+00 0.  1.
         22    1    3    3    0    0  0.62884517285E+02  0.99557153157E+02 -0.29821042789E+02  0.12147174096E+03  0.00000000000E+00 0.  1.
</event>
<event>
 7    1  0.7457412E-006  0.9632615E+02  0.7818608E-02  0.1417725E+00
          2   -1    0    0  502    0  0.00000000000E+00  0.00000000000E+00  0.62028439113E+02  0.62028439113E+02  0.00000000000E+00 0. -1.
          1   -1    0    0  501    0 -0.00000000000E+00 -0.00000000000E+00 -0.23060716862E+04  0.23060716862E+04  0.00000000000E+00 0. -1.
         25    2    1    2    0    0  0.65885372666E+02 -0.92161143075E+02 -0.58182358739E+03  0.60578562031E+03  0.12499188896E+03 0.  0.
          2    1    1    2  501    0  0.72959900986E+01  0.31139911626E+02 -0.16666216922E+04  0.16669285499E+04  0.00000000000E+00 0. -1.
          1    1    1    2  502    0 -0.73181362765E+02  0.61021231449E+02  0.44020324885E+01  0.95385955118E+02  0.00000000000E+00 0. -1.
         22    1    3    3    0    0  0.58753463426E+02 -0.24695220406E+02 -0.47488742314E+03  0.47914495513E+03  0.00000000000E+00 0.  1.
         22    1    3    3    0    0  0.71319092396E+01 -0.67465922669E+02 -0.10693616425E+03  0.12664066518E+03  0.00000000000E+00 0.  1.
</event>
<event>
 7    1  0.7457412E-006  0.2172095E+03  0.7818608E-02  0.1358341E+00
          2   -1    0    0  502    0  0.00000000000E+00  0.00000000000E+00  0.80552157864E+03  0.80552157864E+03  0.00000000000E+00 0. -1.
          1   -1    0    0  501    0 -0.00000000000E+00 -0.00000000000E+00 -0.43721905922E+03  0.43721905922E+03  0.00000000000E+00 0. -1.
         25    2    1    2    0    0 -0.23604519997E+03 -0.24071119566E+02  0.19682587922E+02  0.26888472311E+03  0.12495933269E+03 0.  0.
          2    1    1    2  501    0  0.22624183050E+02  0.35031449212E+01 -0.29478160833E+03  0.29566927857E+03  0.00000000000E+00 0. -1.
          1    1    1    2  502    0  0.21342101692E+03  0.20567974644E+02  0.64340153983E+03  0.67818663618E+03  0.00000000000E+00 0. -1.
         22    1    3    3    0    0 -0.20075348930E+02 -0.15501156984E+02  0.44605897009E+02  0.51312684109E+02  0.00000000000E+00 0. -1.
         22    1    3    3    0    0 -0.21596985104E+03 -0.85699625813E+01 -0.24923309087E+02  0.21757203900E+03  0.00000000000E+00 0. -1.
</event>
<event>
 7    1  0.7457412E-006  0.2285953E+03  0.7818608E-02  0.1204667E+00
          2   -1    0    0  502    0  0.00000000000E+00  0.00000000000E+00  0.90972371596E+03  0.90972371596E+03  0.00000000000E+00 0. -1.
          1   -1    0    0  501    0 -0.00000000000E+00 -0.00000000000E+00 -0.30609338303E+03  0.30609338303E+03  0.00000000000E+00 0. -1.
         25    2    1    2    0    0 -0.27914478303E+03 -0.71264800757E+02  0.49634817821E+03  0.58735356600E+03  0.12498886253E+03 0.  0.
          2    1    1    2  501    0  0.89825588276E+02  0.27916461442E+02 -0.22483939886E+03  0.24372263007E+03  0.00000000000E+00 0. -1.
          1    1    1    2  502    0  0.18931919476E+03  0.43348339315E+02  0.33212155358E+03  0.38474090291E+03  0.00000000000E+00 0. -1.
         22    1    3    3    0    0 -0.17905341254E+03 -0.10090477157E+03  0.37197346457E+03  0.42497782979E+03  0.00000000000E+00 0. -1.
         22    1    3    3    0    0 -0.10009137050E+03  0.29639970808E+02  0.12437471364E+03  0.16237573621E+03  0.00000000000E+00 0. -1.
</event>
<event>
 7    1  0.7457412E-006  0.1077462E+03  0.7818608E-02  0.1286916E+00
          2   -1    0    0  502    0  0.00000000000E+00  0.00000000000E+00  0.17854641894E+03  0.17854641894E+03  0.00000000000E+00 0. -1.
          1   -1    0    0  501    0 -0.00000000000E+00 -0.00000000000E+00 -0.26686298659E+03  0.26686298659E+03  0.00000000000E+00 0. -1.
         25    2    1    2    0    0 -0.23963813968E+02  0.30539939741E+02  0.24488003418E+01  0.13090839776E+03  0.12499623867E+03 0.  0.
          2    1    1    2  501    0  0.50454505021E+02  0.95202907089E+02 -0.14019771058E+03  0.17681812308E+03  0.00000000000E+00 0. -1.
          1    1    1    2  502    0 -0.26490691052E+02 -0.12574284683E+03  0.49432342592E+02  0.13768288469E+03  0.00000000000E+00 0. -1.
         22    1    3    3    0    0 -0.49171075935E+02 -0.28852517519E+02 -0.23100810925E+02  0.61513493976E+02  0.00000000000E+00 0.  1.
         22    1    3    3    0    0  0.25207261967E+02  0.59392457260E+02  0.25549611267E+02  0.69394903783E+02  0.00000000000E+00 0.  1.
</event>
<event>
 7    1  0.7457412E-006  0.1599989E+03  0.7818608E-02  0.1261196E+00
          2   -1    0    0  502    0  0.00000000000E+00  0.00000000000E+00  0.22186733468E+04  0.22186733468E+04  0.00000000000E+00 0. -1.
          1   -1    0    0  501    0 -0.00000000000E+00 -0.00000000000E+00 -0.28922935470E+03  0.28922935470E+03  0.00000000000E+00 0. -1.
         25    2    1    2    0    0  0.15945067298E+03 -0.94306349224E+02  0.19351578658E+02  0.22431546638E+03  0.12499896096E+03 0.  0.
          2    1    1    2  501    0 -0.15516906683E+03  0.19266008437E+02 -0.15321323477E+03  0.21891302769E+03  0.00000000000E+00 0. -1.
          1    1    1    2  502    0 -0.42816061480E+01  0.75040340787E+02  0.20633056483E+04  0.20646742075E+04  0.00000000000E+00 0. -1.
         22    1    3    3    0    0  0.14160739364E+03 -0.82470993883E+02 -0.33526606044E+02  0.16726670942E+03  0.00000000000E+00 0.  1.
         22    1    3    3    0    0  0.17843279341E+02 -0.11835355341E+02  0.52878184702E+02  0.57048756963E+02  0.00000000000E+00 0.  1.
</event>
<event>
 7    1  0.7457412E-006  0.6337769E+02  0.7818608E-02  0.1423089E+00
          2   -1    0    0  502    0  0.00000000000E+00  0.00000000000E+00  0.10821984579E+03  0.10821984579E+03  0.00000000000E+00 0. -1.
          1   -1    0    0  501    0 -0.00000000000E+00 -0.00000000000E+00 -0.24158240535E+03  0.24158240535E+03  0.00000000000E+00 0. -1.
         25    2    1    2    0    0  0.24028496744E+02 -0.58294797933E+02 -0.74516790250E+02  0.15861020305E+03  0.12501516852E+03 0.  0.
          2    1    1    2  501    0  0.22412579416E+02  0.62675153404E+02 -0.10580574142E+03  0.12500141394E+03  0.00000000000E+00 0. -1.
          1    1    1    2  502    0 -0.46441076161E+02 -0.43803554706E+01  0.46959972110E+02  0.66190634153E+02  0.00000000000E+00 0. -1.
         22    1    3    3    0    0  0.45870350300E+02 -0.39014539297E+02  0.16996885884E+02  0.62570899330E+02  0.00000000000E+00 0. -1.
         22    1    3    3    0    0 -0.21841853556E+02 -0.19280258636E+02 -0.91513676134E+02  0.96039303722E+02  0.00000000000E+00 0. -1.
</event>
<event>
 7    1  0.7457412E-006  0.4197897E+02  0.7818608E-02  0.1509846E+00
          2   -1    0    0  502    0  0.00000000000E+00  0.00000000000E+00  0.42759857796E+03  0.42759857796E+03  0.00000000000E+00 0. -1.
          1   -1    0    0  501    0 -0.00000000000E+00 -0.00000000000E+00 -0.16855336535E+03  0.16855336535E+03  0.00000000000E+00 0. -1.
         25    2    1    2    0    0 -0.68140005248E+02  0.31061024864E+02  0.13959809193E+03  0.20179402842E+03  0.12500142021E+03 0.  0.
          2    1    1    2  501    0  0.28175601267E+02 -0.25039144235E+02 -0.13323482277E+03  0.13846422372E+03  0.00000000000E+00 0. -1.
          1    1    1    2  502    0  0.39964403981E+02 -0.60218806290E+01  0.25268194346E+03  0.25589369117E+03  0.00000000000E+00 0. -1.
         22    1    3    3    0    0 -0.21856665769E+02  0.40772630686E+02 -0.78722389058E+01  0.46926467979E+02  0.00000000000E+00 0.  1.
         22    1    3    3    0    0 -0.46283339479E+02 -0.97116058214E+01  0.14747033084E+03  0.15486756044E+03  0.00000000000E+00 0.  1.
</event>
<event>
 7    1  0.7457412E-006  0.1230423E+03  0.7818608E-02  0.1252881E+00
          2   -1    0    0  502    0  0.00000000000E+00  0.00000000000E+00  0.59725829511E+03  0.59725829511E+03  0.00000000000E+00 0. -1.
          1   -1    0    0  501    0 -0.00000000000E+00 -0.00000000000E+00 -0.50162107302E+03  0.50162107302E+03  0.00000000000E+00 0. -1.
         25    2    1    2    0    0 -0.12398327684E+02  0.52596355865E+02 -0.44073798580E+03  0.46129744456E+03  0.12500106019E+03 0.  0.
          2    1    1    2  501    0 -0.10541436944E+03 -0.12053437319E+02  0.22033851006E+02  0.10836496309E+03  0.00000000000E+00 0. -1.
          1    1    1    2  502    0  0.11781269712E+03 -0.40542918546E+02  0.51434135689E+03  0.52921696047E+03  0.00000000000E+00 0. -1.
         22    1    3    3    0    0  0.15109579289E+02  0.47131819043E+02 -0.42737444784E+03  0.43023089896E+03  0.00000000000E+00 0. -1.
         22    1    3    3    0    0 -0.27507906973E+02  0.54645368220E+01 -0.13363537963E+02  0.31066545601E+02  0.00000000000E+00 0. -1.
</event>
<event>
 7    1  0.7457412E-006  0.2878601E+03  0.7818608E-02  0.1217677E+00
          2   -1    0    0  502    0  0.00000000000E+00  0.00000000000E+00  0.93170886957E+03  0.93170886957E+03  0.00000000000E+00 0. -1.
          1   -1    0    0  501    0 -0.00000000000E+00 -0.00000000000E+00 -0.13309991603E+04  0.13309991603E+04  0.00000000000E+00 0. -1.
         25    2    1    2    0    0 -0.27224962688E+03  0.40127955386E+02  0.41461238927E+03  0.51308758559E+03  0.12500130007E+03 0.  0.
          2    1    1    2  501    0 -0.12949937814E+02  0.63725539318E+02 -0.12315868044E+04  0.12333023563E+04  0.00000000000E+00 0. -1.
          1    1    1    2  502    0  0.28519956469E+03 -0.10385349470E+03  0.41768412448E+03  0.51631808791E+03  0.00000000000E+00 0. -1.
         22    1    3    3    0    0 -0.44106203930E+02  0.58619017718E+02  0.10050738151E+03  0.12443182953E+03  0.00000000000E+00 0. -1.
         22    1    3    3    0    0 -0.22814342295E+03 -0.18491062332E+02  0.31410500776E+03  0.38865575606E+03  0.00000000000E+00 0. -1.
</event>
<event>
 7    1  0.7457412E-006  0.6837441E+02  0.7818608E-02  0.1434556E+00
          2   -1    0    0  502    0  0.00000000000E+00  0.00000000000E+00  0.18282536554E+04  0.18282536554E+04  0.00000000000E+00 0. -1.
          1   -1    0    0  501    0 -0.00000000000E+00 -0.00000000000E+00 -0.77103759474E+03  0.77103759474E+03  0.00000000000E+00 0. -1.
         25    2    1    2    0    0  0.23786301391E+02 -0.68113495882E+02  0.63582950240E+03  0.65200472397E+03  0.12500306996E+03 0.  0.
          2    1    1    2  501    0 -0.39624705631E+02  0.79049198264E+00 -0.76142448028E+03  0.76245523235E+03  0.00000000000E+00 0. -1.
          1    1    1    2  502    0  0.15838404241E+02  0.67323003899E+02  0.11828110385E+04  0.11848312938E+04  0.00000000000E+00 0. -1.
         22    1    3    3    0    0 -0.19543543046E+02 -0.20445661112E+02  0.50870223016E+03  0.50948791360E+03  0.00000000000E+00 0.  1.
         22    1    3    3    0    0  0.43329844437E+02 -0.47667834770E+02  0.12712727224E+03  0.14251681037E+03  0.00000000000E+00 0.  1.
</event>
<event>
 7    1  0.7457412E-006  0.4728757E+02  0.7818608E-02  0.1494470E+00
          2   -1    0    0  502    0  0.00000000000E+00  0.00000000000E+00  0.29901011048E+03  0.29901011048E+03  0.00000000000E+00 0. -1.
          1   -1    0    0  501    0 -0.00000000000E+00 -0.00000000000E+00 -0.16195188855E+04  0.16195188855E+04  0.00000000000E+00 0. -1.
         25    2    1    2    0    0 -0.57310130152E+02 -0.35452373576E+01 -0.18687778732E+03  0.23204421987E+03  0.12499677139E+03 0.  0.
          2    1    1    2  501    0  0.34236463190E+02  0.32698901733E+02 -0.14084081634E+04  0.14092036434E+04  0.00000000000E+00 0. -1.
          1    1    1    2  502    0  0.23073666962E+02 -0.29153664375E+02  0.27477717576E+03  0.27728113274E+03  0.00000000000E+00 0. -1.
         22    1    3    3    0    0 -0.33018638755E+02 -0.58143530791E+02 -0.52616807909E+02  0.85084835033E+02  0.00000000000E+00 0.  1.
         22    1    3    3    0    0 -0.24291491397E+02  0.54598293434E+02 -0.13426097941E+03  0.14695938484E+03  0.00000000000E+00 0.  1.
</event>
<event>
 7    1  0.7457412E-006  0.1448836E+03  0.7818608E-02  0.1305757E+00
          2   -1    0    0  502    0  0.00000000000E+00  0.00000000000E+00  0.67610310920E+03  0.67610310920E+03  0.00000000000E+00 0. -1.
          1   -1    0    0  501    0 -0.00000000000E+00 -0.00000000000E+00 -0.21209573272E+03  0.21209573272E+03  0.00000000000E+00 0. -1.
         25    2    1    2    0    0  0.17685123376E+02 -0.18161219790E+03  0.19993269847E+02  0.22208222595E+03  0.12500012091E+03 0.  0.
          2    1    1    2  501    0  0.61631451588E+01  0.13267449274E+03 -0.69378195579E+02  0.14984605235E+03  0.00000000000E+00 0. -1.
          1    1    1    2  502    0 -0.23848268535E+02  0.48937705160E+02  0.51339230221E+03  0.51627056363E+03  0.00000000000E+00 0. -1.
         22    1    3    3    0    0  0.51075767355E+02 -0.15123407064E+03  0.50702878008E+02  0.16748510373E+03  0.00000000000E+00 0. -1.
         22    1    3    3    0    0 -0.33390643979E+02 -0.30378127261E+02 -0.30709608161E+02  0.54597122219E+02  0.00000000000E+00 0. -1.
</event>
<event>
 7    1  0.7457412E-006  0.1046515E+03  0.7818608E-02  0.1304220E+00
          2   -1    0    0  502    0  0.00000000000E+00  0.00000000000E+00  0.25183961566E+03  0.25183961566E+03  0.00000000000E+00 0. -1.
          1   -1    0    0  501    0 -0.00000000000E+00 -0.00000000000E+00 -0.14428978593E+04  0.14428978593E+04  0.00000000000E+00 0. -1.
         25    2    1    2    0    0  0.74511304725E+02  0.12978072819E+03 -0.12732033525E+04  0.12880475796E+04  0.12499927484E+03 0.  0.
          2    1    1    2  501    0 -0.72090749482E+02 -0.25402440357E+02 -0.14096776857E+03  0.16035670211E+03  0.00000000000E+00 0. -1.
          1    1    1    2  502    0 -0.24205552431E+01 -0.10437828783E+03  0.22311287736E+03  0.24633319326E+03  0.00000000000E+00 0. -1.
         22    1    3    3    0    0 -0.52207857557E+01  0.89576213621E+02 -0.89311117495E+03  0.89760722227E+03  0.00000000000E+00 0. -1.
         22    1    3    3    0    0  0.79732090481E+02  0.40204514570E+02 -0.38009217753E+03  0.39044035737E+03  0.00000000000E+00 0. -1.
</event>
<event>
 7    1  0.7457412E-006  0.1738801E+03  0.7818608E-02  0.1230513E+00
          2   -1    0    0  502    0  0.00000000000E+00  0.00000000000E+00  0.24017994783E+04  0.24017994783E+04  0.00000000000E+00 0. -1.
          1   -1    0    0  501    0 -0.00000000000E+00 -0.00000000000E+00 -0.39268580738E+04  0.39268580738E+04  0.00000000000E+00 0. -1.
         25    2    1    2    0    0 -0.16107848843E+03 -0.17732918917E+01  0.13790733851E+04  0.13940651442E+04  0.12499920311E+03 0.  0.
          2    1    1    2  501    0 -0.18557841360E+02 -0.92322009846E+02 -0.39086628767E+04  0.39097970830E+04  0.00000000000E+00 0. -1.
          1    1    1    2  502    0  0.17963632979E+03  0.94095301737E+02  0.10045308961E+04  0.10247953249E+04  0.00000000000E+00 0. -1.
         22    1    3    3    0    0 -0.10697262546E+03 -0.48410514017E+02  0.10896158763E+04  0.10959240295E+04  0.00000000000E+00 0. -1.
         22    1    3    3    0    0 -0.54105862975E+02  0.46637222126E+02  0.28945750877E+03  0.29814111471E+03  0.00000000000E+00 0. -1.
</event>
<event>
 7    1  0.7457412E-006  0.9802841E+02  0.7818608E-02  0.1311322E+00
          2   -1    0    0  502    0  0.00000000000E+00  0.00000000000E+00  0.16471291705E+04  0.16471291705E+04  0.00000000000E+00 0. -1.
          1   -1    0    0  501    0 -0.00000000000E+00 -0.00000000000E+00 -0.87058437270E+03  0.87058437270E+03  0.00000000000E+00 0. -1.
         25    2    1    2    0    0  0.14050301667E+02 -0.46340006499E+02  0.88139675086E+02  0.16043183477E+03  0.12499985642E+03 0.  0.
          2    1    1    2  501    0  0.51968650203E+02  0.84967963182E+02 -0.83050035656E+03  0.83645151541E+03  0.00000000000E+00 0. -1.
          1    1    1    2  502    0 -0.66018951870E+02 -0.38627956683E+02  0.15189054792E+04  0.15208301930E+04  0.00000000000E+00 0. -1.
         22    1    3    3    0    0  0.42404057443E+02 -0.20730597701E+02  0.10764159765E+03  0.11753542153E+03  0.00000000000E+00 0.  1.
         22    1    3    3    0    0 -0.28353755776E+02 -0.25609408797E+02 -0.19501922567E+02  0.42896413246E+02  0.00000000000E+00 0.  1.
</event>
<event>
 7    1  0.7457412E-006  0.6899449E+02  0.7818608E-02  0.1464564E+00
          2   -1    0    0  502    0  0.00000000000E+00  0.00000000000E+00  0.14052977944E+03  0.14052977944E+03  0.00000000000E+00 0. -1.
          1   -1    0    0  501    0 -0.00000000000E+00 -0.00000000000E+00 -0.18252374107E+03  0.18252374107E+03  0.00000000000E+00 0. -1.
         25    2    1    2    0    0 -0.76900500169E+02  0.29134494977E+02 -0.64065343382E+02  0.16276587406E+03  0.12500342320E+03 0.  0.
          2    1    1    2  501    0  0.49103471952E+02 -0.43912147160E+02 -0.49301445943E+02  0.82280375533E+02  0.00000000000E+00 0. -1.
          1    1    1    2  502    0  0.27797028218E+02  0.14777652183E+02  0.71372827699E+02  0.78007270914E+02  0.00000000000E+00 0. -1.
         22    1    3    3    0    0 -0.56289217576E+02  0.35176867964E+02  0.25164827278E+02  0.70987017031E+02  0.00000000000E+00 0.  1.
         22    1    3    3    0    0 -0.20611282593E+02 -0.60423729869E+01 -0.89230170660E+02  0.91778857029E+02  0.00000000000E+00 0.  1.
</event>
<event>
 7    1  0.7457412E-006  0.1417124E+03  0.7818608E-02  0.1319229E+00
          2   -1    0    0  502    0  0.00000000000E+00  0.00000000000E+00  0.23549981135E+04  0.23549981135E+04  0.00000000000E+00 0. -1.
          1   -1    0    0  501    0 -0.00000000000E+00 -0.00000000000E+00 -0.37746690090E+03  0.37746690090E+03  0.00000000000E+00 0. -1.
         25    2    1    2    0    0  0.13155522927E+03  0.30924618958E+02 -0.11536192623E+03  0.21724881238E+03  0.12500224819E+03 0.  0.
          2    1    1    2  501    0  0.92730950641E+01 -0.48395870620E+02 -0.20606887582E+03  0.21187857883E+03  0.00000000000E+00 0. -1.
          1    1    1    2  502    0 -0.14082832433E+03  0.17471251662E+02  0.22989620147E+04  0.23033376232E+04  0.00000000000E+00 0. -1.
         22    1    3    3    0    0  0.12309519228E+03  0.41262979474E+02 -0.13893573147E+03  0.19015308916E+03  0.00000000000E+00 0. -1.
         22    1    3    3    0    0  0.84600369823E+01 -0.10338360516E+02  0.23573805233E+02  0.27095723225E+02  0.00000000000E+00 0. -1.
</event>
<event>
 7    1  0.7457412E-006  0.1179317E+03  0.7818608E-02  0.1335911E+00
          2   -1    0    0  502    0  0.00000000000E+00  0.00000000000E+00  0.19551132384E+04  0.19551132384E+04  0.00000000000E+00 0. -1.
          1   -1    0    0  501    0 -0.00000000000E+00 -0.00000000000E+00 -0.18574842835E+03  0.18574842835E+03  0.00000000000E+00 0. -1.
         25    2    1    2    0    0  0.72055692118E+02  0.11886164473E+03  0.12913600602E+04  0.13048192615E+04  0.12498954690E+03 0.  0.
          2    1    1    2  501    0  0.98000811502E+01 -0.50154128952E+02 -0.17090999348E+03  0.17838638993E+03  0.00000000000E+00 0. -1.
          1    1    1    2  502    0 -0.81855773268E+02 -0.68707515774E+02  0.64891474337E+03  0.65765601533E+03  0.00000000000E+00 0. -1.
         22    1    3    3    0    0  0.50567158859E+02  0.10275818696E+02  0.77560414795E+03  0.77731874049E+03  0.00000000000E+00 0.  1.
         22    1    3    3    0    0  0.21488533258E+02  0.10858582603E+03  0.51575591223E+03  0.52750052102E+03  0.00000000000E+00 0.  1.
</event>
<event>
 7    1  0.7457412E-006  0.2532563E+02  0.7818608E-02  0.1681563E+00
          2   -1    0    0  502    0  0.00000000000E+00  0.00000000000E+00  0.33305398060E+03  0.33305398060E+03  0.00000000000E+00 0. -1.
          1   -1    0    0  501    0 -0.00000000000E+00 -0.00000000000E+00 -0.24235244118E+03  0.24235244118E+03  0.00000000000E+00 0. -1.
         25    2    1    2    0    0  0.10726150320E+02 -0.26464702608E+02 -0.34302074367E+02  0.13273019194E+03  0.12500096304E+03 0.  0.
          2    1    1    2  501    0  0.13090175103E+02  0.17731500937E+02 -0.15750069898E+03  0.15903530736E+03  0.00000000000E+00 0. -1.
          1    1    1    2  502    0 -0.23816325423E+02  0.87332016707E+01  0.28250431277E+03  0.28364092247E+03  0.00000000000E+00 0. -1.
         22    1    3    3    0    0 -0.51143046951E+02 -0.39308171605E+02 -0.23348878667E+02  0.68599662837E+02  0.00000000000E+00 0. -1.
         22    1    3    3    0    0  0.61869197271E+02  0.12843468996E+02 -0.10953195700E+02  0.64130529102E+02  0.00000000000E+00 0. -1.
</event>
<event>
 7    1  0.7457412E-006  0.1641189E+03  0.7818608E-02  0.1285061E+00
          2   -1    0    0  502    0  0.00000000000E+00  0.00000000000E+00  0.36759630919E+03  0.36759630919E+03  0.00000000000E+00 0. -1.
          1   -1    0    0  501    0 -0.00000000000E+00 -0.00000000000E+00 -0.10259331174E+04  0.10259331174E+04  0.00000000000E+00 0. -1.
         25    2    1    2    0    0 -0.78551334871E+02 -0.11668320083E+03 -0.57168076967E+03  0.60185426819E+03  0.12499750464E+03 0.  0.
          2    1    1    2  501    0 -0.54920134183E+02  0.19387908949E+02 -0.41768582717E+03  0.42172688125E+03  0.00000000000E+00 0. -1.
          1    1    1    2  502    0  0.13347146905E+03  0.97295291878E+02  0.33102978858E+03  0.36994827720E+03  0.00000000000E+00 0. -1.
         22    1    3    3    0    0 -0.45714734625E+02  0.16826278982E+02 -0.19072768789E+03  0.19685022619E+03  0.00000000000E+00 0. -1.
         22    1    3    3    0    0 -0.32836600246E+02 -0.13350947981E+03 -0.38095308178E+03  0.40500404200E+03  0.00000000000E+00 0. -1.
</event>
<event>
 7    1  0.7457412E-006  0.7229155E+02  0.7818608E-02  0.1442723E+00
          2   -1    0    0  502    0  0.00000000000E+00  0.00000000000E+00  0.30222346064E+04  0.30222346064E+04  0.00000000000E+00 0. -1.
          1   -1    0    0  501    0 -0.00000000000E+00 -0.00000000000E+00 -0.82669052865E+02  0.82669052865E+02  0.00000000000E+00 0. -1.
         25    2    1    2    0    0  0.27808370594E+01 -0.79706679161E+02  0.15964308129E+03  0.21788846497E+03  0.12501432720E+03 0.  0.
          2    1    1    2  501    0 -0.32458732308E+02  0.13777133960E+02 -0.47228486058E+02  0.58939872909E+02  0.00000000000E+00 0. -1.
          1    1    1    2  502    0  0.29677895248E+02  0.65929545200E+02  0.28271509583E+04  0.28280753214E+04  0.00000000000E+00 0. -1.
         22    1    3    3    0    0 -0.56541813732E+02 -0.47625348054E+02  0.50288562869E+02  0.89409675275E+02  0.00000000000E+00 0. -1.
         22    1    3    3    0    0  0.59322650792E+02 -0.32081331107E+02  0.10935451842E+03  0.12847878970E+03  0.00000000000E+00 0. -1.
</event>
<event>
 7    1  0.7457412E-006  0.9579528E+02  0.7818608E-02  0.1396697E+00
          2   -1    0    0  502    0  0.00000000000E+00  0.00000000000E+00  0.12080773502E+04  0.12080773502E+04  0.00000000000E+00 0. -1.
          1   -1    0    0  501    0 -0.00000000000E+00 -0.00000000000E+00 -0.38104344690E+03  0.38104344690E+03  0.00000000000E+00 0. -1.
         25    2    1    2    0    0  0.57901454965E+02  0.83383115930E+02  0.47429263903E+03  0.50088299183E+03  0.12499976621E+03 0.  0.
          2    1    1    2  501    0 -0.21330592311E+02 -0.93410248124E+02 -0.36099539424E+03  0.37349450235E+03  0.00000000000E+00 0. -1.
          1    1    1    2  502    0 -0.36570862655E+02  0.10027132194E+02  0.71373665848E+03  0.71474330289E+03  0.00000000000E+00 0. -1.
         22    1    3    3    0    0 -0.33059974165E+02  0.36263189438E+02  0.24321622401E+03  0.24811713448E+03  0.00000000000E+00 0.  1.
         22    1    3    3    0    0  0.90961429131E+02  0.47119926492E+02  0.23107641502E+03  0.25276585735E+03  0.00000000000E+00 0.  1.
</event>
<event>
 7    1  0.7457412E-006  0.7969841E+02  0.7818608E-02  0.1381843E+00
          2   -1    0    0  502    0  0.00000000000E+00  0.00000000000E+00  0.17235985032E+03  0.17235985032E+03  0.00000000000E+00 0. -1.
          1   -1    0    0  501    0 -0.00000000000E+00 -0.00000000000E+00 -0.48185171407E+03  0.48185171407E+03  0.00000000000E+00 0. -1.
         25    2    1    2    0    0 -0.51204911006E+01 -0.67632425033E+02  0.47241397911E+02  0.14985422021E+03  0.12499669313E+03 0.  0.
          2    1    1    2  501    0  0.50069192479E+02 -0.11461842330E+02 -0.40023496160E+03  0.40351743748E+03  0.00000000000E+00 0. -1.
          1    1    1    2  502    0 -0.44948701378E+02  0.79094267364E+02  0.43501699932E+02  0.10083990670E+03  0.00000000000E+00 0. -1.
         22    1    3    3    0    0 -0.55679265078E+02 -0.54607026124E+02 -0.21027867613E+01  0.78016213532E+02  0.00000000000E+00 0.  1.
         22    1    3    3    0    0  0.50558773977E+02 -0.13025398909E+02  0.49344184672E+02  0.71838006680E+02  0.00000000000E+00 0.  1.
</event>
<event>
 7    1  0.7457412E-006  0.4134417E+03  0.7818608E-02  0.1158483E+00
          2   -1    0    0  502    0  0.00000000000E+00  0.00000000000E+00  0.27061478616E+04  0.27061478616E+04  0.00000000000E+00 0. -1.
          1   -1    0    0  501    0 -0.00000000000E+00 -0.00000000000E+00 -0.67496572607E+03  0.67496572607E+03  0.00000000000E+00 0. -1.
         25    2    1    2    0    0 -0.43021743529E+03 -0.18568942458E+03  0.66182528629E+03  0.82049060238E+03  0.12499805995E+03 0.  0.
          2    1    1    2  501    0  0.39466175779E+03  0.10596529756E+03 -0.52442130833E+03  0.66483400634E+03  0.00000000000E+00 0. -1.
          1    1    1    2  502    0  0.35555677505E+02  0.79724127013E+02  0.18937781575E+04  0.18957889789E+04  0.00000000000E+00 0. -1.
         22    1    3    3    0    0 -0.41814637360E+03 -0.19680020129E+03  0.65724009556E+03  0.80345581845E+03  0.00000000000E+00 0.  1.
         22    1    3    3    0    0 -0.12071061691E+02  0.11110776715E+02  0.45851907280E+01  0.17034783931E+02  0.00000000000E+00 0.  1.
</event>
<event>
 7    1  0.7457412E-006  0.8826099E+02  0.7818608E-02  0.1354595E+00
          2   -1    0    0  502    0  0.00000000000E+00  0.00000000000E+00  0.18904570459E+04  0.18904570459E+04  0.00000000000E+00 0. -1.
          1   -1    0    0  501    0 -0.00000000000E+00 -0.00000000000E+00 -0.65736127766E+03  0.65736127766E+03  0.00000000000E+00 0. -1.
         25    2    1    2    0    0  0.11798839577E+03 -0.42871674217E+02 -0.14039009319E+03  0.22604353543E+03  0.12500823836E+03 0.  0.
          2    1    1    2  501    0 -0.62134529508E+02  0.59062657010E+02 -0.46980723805E+03  0.47756459054E+03  0.00000000000E+00 0. -1.
          1    1    1    2  502    0 -0.55853866260E+02 -0.16190982792E+02  0.18432930995E+04  0.18442101976E+04  0.00000000000E+00 0. -1.
         22    1    3    3    0    0  0.57949454829E+02  0.17513316518E+02  0.15071759799E+01  0.60556809278E+02  0.00000000000E+00 0.  1.
         22    1    3    3    0    0  0.60038940938E+02 -0.60384990736E+02 -0.14189726917E+03  0.16548672615E+03  0.00000000000E+00 0.  1.
</event>
<event>
 7    1  0.7457412E-006  0.4329473E+02  0.7818608E-02  0.1590442E+00
          2   -1    0    0  502    0  0.00000000000E+00  0.00000000000E+00  0.13141484412E+04  0.13141484412E+04  0.00000000000E+00 0. -1.
          1   -1    0    0  501    0 -0.00000000000E+00 -0.00000000000E+00 -0.16775559706E+03  0.16775559706E+03  0.00000000000E+00 0. -1.
         25    2    1    2    0    0 -0.29031281333E+02 -0.87887092184E+00 -0.17186191816E+02  0.12947864564E+03  0.12500306707E+03 0.  0.
          2    1    1    2  501    0  0.41555394454E+02 -0.16932609882E+02 -0.88991989017E+02  0.99665130286E+02  0.00000000000E+00 0. -1.
          1    1    1    2  502    0 -0.12524113121E+02  0.17811480804E+02  0.12525710250E+04  0.12527602624E+04  0.00000000000E+00 0. -1.
         22    1    3    3    0    0  0.14011992157E+02  0.51013954479E+01  0.48487635201E+02  0.50728797808E+02  0.00000000000E+00 0.  1.
         22    1    3    3    0    0 -0.43043273489E+02 -0.59802663697E+01 -0.65673827017E+02  0.78749847832E+02  0.00000000000E+00 0.  1.
</event>
<event>
 7    1  0.7457412E-006  0.6138866E+02  0.7818608E-02  0.1533789E+00
          2   -1    0    0  502    0  0.00000000000E+00  0.00000000000E+00  0.82457617172E+03  0.82457617172E+03  0.00000000000E+00 0. -1.
          1   -1    0    0  501    0 -0.00000000000E+00 -0.00000000000E+00 -0.27818512854E+03  0.27818512854E+03  0.00000000000E+00 0. -1.
         25    2    1    2    0    0 -0.58431389138E+02  0.49053506939E+01  0.17533388326E+03  0.22317282348E+03  0.12500339523E+03 0.  0.
          2    1    1    2  501    0 -0.96670556266E+00 -0.21949775046E+02 -0.25226032396E+03  0.25321531981E+03  0.00000000000E+00 0. -1.
          1    1    1    2  502    0  0.59398094701E+02  0.17044424352E+02  0.62331748388E+03  0.62637315696E+03  0.00000000000E+00 0. -1.
         22    1    3    3    0    0 -0.25882335008E+02  0.56140173581E+02  0.36847031666E+02  0.71967479445E+02  0.00000000000E+00 0.  1.
         22    1    3    3    0    0 -0.32549054131E+02 -0.51234822887E+02  0.13848685159E+03  0.15120534404E+03  0.00000000000E+00 0.  1.
</event>
<event>
 7    1  0.7457412E-006  0.1298566E+03  0.7818608E-02  0.1316316E+00
          2   -1    0    0  502    0  0.00000000000E+00  0.00000000000E+00  0.22136937776E+03  0.22136937776E+03  0.00000000000E+00 0. -1.
          1   -1    0    0  501    0 -0.00000000000E+00 -0.00000000000E+00 -0.40457714288E+03  0.40457714288E+03  0.00000000000E+00 0. -1.
         25    2    1    2    0    0  0.13763701583E+03  0.13698376363E+02  0.10435769124E+02  0.18672295700E+03  0.12499985501E+03 0.  0.
          2    1    1    2  501    0 -0.11358670382E+03 -0.63381590967E+02 -0.29578456125E+03  0.32312176039E+03  0.00000000000E+00 0. -1.
          1    1    1    2  502    0 -0.24050312002E+02  0.49683214604E+02  0.10214102701E+03  0.11610180326E+03  0.00000000000E+00 0. -1.
         22    1    3    3    0    0  0.41984664266E+02 -0.49709781620E+02  0.27612803805E+02  0.70684095497E+02  0.00000000000E+00 0.  1.
         22    1    3    3    0    0  0.95652351560E+02  0.63408157983E+02 -0.17177034680E+02  0.11603886150E+03  0.00000000000E+00 0.  1.
</event>
<event>
 7    1  0.7457412E-006  0.1159656E+03  0.7818608E-02  0.1408628E+00
          2   -1    0    0  502    0  0.00000000000E+00  0.00000000000E+00  0.11076383709E+04  0.11076383709E+04  0.00000000000E+00 0. -1.
          1   -1    0    0  501    0 -0.00000000000E+00 -0.00000000000E+00 -0.48169435955E+03  0.48169435955E+03  0.00000000000E+00 0. -1.
         25    2    1    2    0    0 -0.12674355785E+03  0.25154542267E+02 -0.12892273118E+03  0.22122847950E+03  0.12499715625E+03 0.  0.
          2    1    1    2  501    0  0.20192268129E+02  0.20129405487E+02 -0.30279019849E+03  0.30412961868E+03  0.00000000000E+00 0. -1.
          1    1    1    2  502    0  0.10655128972E+03 -0.45283947754E+02  0.10576569411E+04  0.10639746323E+04  0.00000000000E+00 0. -1.
         22    1    3    3    0    0 -0.54887553796E+02 -0.28671789049E+01  0.15842083861E+02  0.57199964140E+02  0.00000000000E+00 0.  1.
         22    1    3    3    0    0 -0.71856004058E+02  0.28021721172E+02 -0.14476481504E+03  0.16402851536E+03  0.00000000000E+00 0.  1.
</event>
<event>
 7    1  0.7457412E-006  0.1935223E+03  0.7818608E-02  0.1194049E+00
          2   -1    0    0  502    0  0.00000000000E+00  0.00000000000E+00  0.25926617340E+04  0.25926617340E+04  0.00000000000E+00 0. -1.
          1   -1    0    0  501    0 -0.00000000000E+00 -0.00000000000E+00 -0.99729301900E+03  0.99729301900E+03  0.00000000000E+00 0. -1.
         25    2    1    2    0    0 -0.15226907361E+03  0.10781132587E+03 -0.12652797339E+03  0.25776547501E+03  0.12499823717E+03 0.  0.
          2    1    1    2  501    0 -0.41913568187E+02 -0.11745257815E+03 -0.79654810047E+03  0.80625103515E+03  0.00000000000E+00 0. -1.
          1    1    1    2  502    0  0.19418264180E+03  0.96412522829E+01  0.25184447889E+04  0.25259382429E+04  0.00000000000E+00 0. -1.
         22    1    3    3    0    0 -0.15553870504E+03  0.89494358065E+02 -0.14562553796E+03  0.23110241495E+03  0.00000000000E+00 0. -1.
         22    1    3    3    0    0  0.32696314310E+01  0.18316967802E+02  0.19097564570E+02  0.26663060059E+02  0.00000000000E+00 0. -1.
</event>
<event>
 7    1  0.7457412E-006  0.6723187E+02  0.7818608E-02  0.1462328E+00
          2   -1    0    0  502    0  0.00000000000E+00  0.00000000000E+00  0.16828048348E+04  0.16828048348E+04  0.00000000000E+00 0. -1.
          1   -1    0    0  501    0 -0.00000000000E+00 -0.00000000000E+00 -0.31023284647E+03  0.31023284647E+03  0.00000000000E+00 0. -1.
         25    2    1    2    0    0  0.43625061767E+02  0.44762485253E+02  0.15792595908E+03  0.21088413829E+03  0.12499874052E+03 0.  0.
          2    1    1    2  501    0  0.21064169932E+02 -0.25185206634E+02 -0.28203881009E+03  0.28394345262E+03  0.00000000000E+00 0. -1.
          1    1    1    2  502    0 -0.64689231698E+02 -0.19577278620E+02  0.14966848393E+04  0.14982100903E+04  0.00000000000E+00 0. -1.
         22    1    3    3    0    0  0.62749687948E+02 -0.23232774710E+02  0.58226900908E+02  0.88699814812E+02  0.00000000000E+00 0.  1.
         22    1    3    3    0    0 -0.19124626181E+02  0.67995259963E+02  0.99699058170E+02  0.12218432348E+03  0.00000000000E+00 0.  1.
</event>
<event>
 7    1  0.7457412E-006  0.2285518E+03  0.7818608E-02  0.1173428E+00
          2   -1    0    0  502    0  0.00000000000E+00  0.00000000000E+00  0.68021955860E+03  0.68021955860E+03  0.00000000000E+00 0. -1.
          1   -1    0    0  501    0 -0.00000000000E+00 -0.00000000000E+00 -0.61007524102E+03  0.61007524102E+03  0.00000000000E+00 0. -1.
         25    2    1    2    0    0  0.19206970964E+03 -0.18993324839E+03 -0.16580698239E+03  0.34070869746E+03  0.12500019565E+03 0.  0.
          2    1    1    2  501    0 -0.21337937663E+03  0.58713891396E+02 -0.31379977461E+03  0.38399007534E+03  0.00000000000E+00 0. -1.
          1    1    1    2  502    0  0.21309666996E+02  0.13121935699E+03  0.54975107457E+03  0.56559602682E+03  0.00000000000E+00 0. -1.
         22    1    3    3    0    0  0.18388082683E+02 -0.97651932693E+02 -0.39284609621E+02  0.10685177629E+03  0.00000000000E+00 0.  1.
         22    1    3    3    0    0  0.17368162696E+03 -0.92281315695E+02 -0.12652237277E+03  0.23385692117E+03  0.00000000000E+00 0.  1.
</event>
<event>
 7    1  0.7457412E-006  0.1473465E+03  0.7818608E-02  0.1415918E+00
          2   -1    0    0  502    0  0.00000000000E+00  0.00000000000E+00  0.16656473125E+04  0.16656473125E+04  0.00000000000E+00 0. -1.
          1   -1    0    0  501    0 -0.00000000000E+00 -0.00000000000E+00 -0.26301517881E+03  0.26301517881E+03  0.00000000000E+00 0. -1.
         25    2    1    2    0    0  0.26707370668E+02 -0.16080084248E+03  0.70226421260E+03  0.73168984372E+03  0.12499923410E+03 0.  0.
          2    1    1    2  501    0 -0.36864903487E+02  0.14218959667E+03 -0.22644607929E+03  0.26991615242E+03  0.00000000000E+00 0. -1.
          1    1    1    2  502    0  0.10157532820E+02  0.18611245806E+02  0.92681400033E+03  0.92705649513E+03  0.00000000000E+00 0. -1.
         22    1    3    3    0    0  0.76159244419E+02 -0.78551470254E+02  0.38065184911E+03  0.39606362396E+03  0.00000000000E+00 0. -1.
         22    1    3    3    0    0 -0.49451873752E+02 -0.82249372222E+02  0.32161236349E+03  0.33562621977E+03  0.00000000000E+00 0. -1.
</event>
<event>
 7    1  0.7457412E-006  0.8268627E+02  0.7818608E-02  0.1380348E+00
          2   -1    0    0  502    0  0.00000000000E+00  0.00000000000E+00  0.13959736742E+04  0.13959736742E+04  0.00000000000E+00 0. -1.
          1   -1    0    0  501    0 -0.00000000000E+00 -0.00000000000E+00 -0.44637576590E+03  0.44637576590E+03  0.00000000000E+00 0. -1.
         25    2    1    2    0    0  0.12485062605E+03 -0.17611323063E+02 -0.47519084354E+02  0.18379742284E+03  0.12500236693E+03 0.  0.
          2    1    1    2  501    0 -0.43005700756E+02  0.25729379426E+02 -0.32753621941E+03  0.33134795350E+03  0.00000000000E+00 0. -1.
          1    1    1    2  502    0 -0.81844925298E+02 -0.81180563635E+01  0.13246532121E+04  0.13272040638E+04  0.00000000000E+00 0. -1.
         22    1    3    3    0    0  0.47122324228E+02 -0.69283819936E+02 -0.16163930349E+02  0.85334833391E+02  0.00000000000E+00 0. -1.
         22    1    3    3    0    0  0.77728301826E+02  0.51672496873E+02 -0.31355154004E+02  0.98462589446E+02  0.00000000000E+00 0. -1.
</event>
<event>
 7    1  0.7457412E-006  0.6861386E+02  0.7818608E-02  0.1385442E+00
          2   -1    0    0  502    0  0.00000000000E+00  0.00000000000E+00  0.37336872603E+03  0.37336872603E+03  0.00000000000E+00 0. -1.
          1   -1    0    0  501    0 -0.00000000000E+00 -0.00000000000E+00 -0.36364796480E+03  0.36364796480E+03  0.00000000000E+00 0. -1.
         25    2    1    2    0    0  0.21938988257E+02 -0.65554050388E+02 -0.15842658554E+03  0.21329633751E+03  0.12497076402E+03 0.  0.
          2    1    1    2  501    0 -0.67430407860E+02  0.29661455264E+02 -0.16756548060E+03  0.18304330669E+03  0.00000000000E+00 0. -1.
          1    1    1    2  502    0  0.45491419603E+02  0.35892595123E+02  0.33571282737E+03  0.34067704664E+03  0.00000000000E+00 0. -1.
         22    1    3    3    0    0  0.42812416774E+02 -0.24160986082E+02 -0.15952226197E+03  0.16692515791E+03  0.00000000000E+00 0. -1.
         22    1    3    3    0    0 -0.20873428517E+02 -0.41393064306E+02  0.10956764283E+01  0.46371179601E+02  0.00000000000E+00 0. -1.
</event>
<event>
 7    1  0.7457412E-006  0.8959471E+02  0.7818608E-02  0.1482212E+00
          2   -1    0    0  502    0  0.00000000000E+00  0.00000000000E+00  0.43810298712E+03  0.43810298712E+03  0.00000000000E+00 0. -1.
          1   -1    0    0  501    0 -0.00000000000E+00 -0.00000000000E+00 -0.22147794675E+03  0.22147794675E+03  0.00000000000E+00 0. -1.
         25    2    1    2    0    0  0.10197302953E+03 -0.55142441168E+01  0.33226956656E+03  0.36940069748E+03  0.12499961919E+03 0.  0.
          2    1    1    2  501    0 -0.88586904791E+02 -0.11152400944E+02 -0.19154191042E+03  0.21132988240E+03  0.00000000000E+00 0. -1.
          1    1    1    2  502    0 -0.13386124737E+02  0.16666645061E+02  0.75897384231E+02  0.78850354002E+02  0.00000000000E+00 0. -1.
         22    1    3    3    0    0  0.19481535545E+02 -0.55515368343E+02  0.17784418621E+03  0.18732335925E+03  0.00000000000E+00 0. -1.
         22    1    3    3    0    0  0.82491493982E+02  0.50001124226E+02  0.15442538035E+03  0.18207733823E+03  0.00000000000E+00 0. -1.
</event>
<event>
 7    1  0.7457412E-006  0.2178816E+03  0.7818608E-02  0.1287032E+00
          2   -1    0    0  502    0  0.00000000000E+00  0.00000000000E+00  0.14079775183E+04  0.14079775183E+04  0.00000000000E+00 0. -1.
          1   -1    0    0  501    0 -0.00000000000E+00 -0.00000000000E+00 -0.11191528185E+03  0.11191528185E+03  0.00000000000E+00 0. -1.
         25    2    1    2    0    0  0.14609095199E+03 -0.12863784752E+03  0.47706687072E+03  0.53019710640E+03  0.12500364167E+03 0.  0.
          2    1    1    2  501    0 -0.14582509757E+03  0.17170013493E+03  0.64982162283E+02  0.23445378399E+03  0.00000000000E+00 0. -1.
          1    1    1    2  502    0 -0.26585442187E+00 -0.43062287403E+02  0.75401320347E+03  0.75524190978E+03  0.00000000000E+00 0. -1.
         22    1    3    3    0    0  0.14884272356E+03 -0.13747267042E+03  0.47956643741E+03  0.52061200463E+03  0.00000000000E+00 0. -1.
         22    1    3    3    0    0 -0.27517715698E+01  0.88348228937E+01 -0.24995666966E+01  0.95851017734E+01  0.00000000000E+00 0. -1.
</event>
<event>
 7    1  0.7457412E-006  0.4284155E+02  0.7818608E-02  0.1496615E+00
          2   -1    0    0  502    0  0.00000000000E+00  0.00000000000E+00  0.60018799578E+03  0.60018799578E+03  0.00000000000E+00 0. -1.
          1   -1    0    0  501    0 -0.00000000000E+00 -0.00000000000E+00 -0.55975685106E+02  0.55975685106E+02  0.00000000000E+00 0. -1.
         25    2    1    2    0    0 -0.27676679397E+02  0.54652935409E+02  0.17457893981E+03  0.22328472508E+03  0.12500128117E+03 0.  0.
          2    1    1    2  501    0  0.39389566900E+02 -0.15952491358E+02 -0.15793388847E+02  0.45337082971E+02  0.00000000000E+00 0. -1.
          1    1    1    2  502    0 -0.11712887503E+02 -0.38700444052E+02  0.38542675971E+03  0.38754187284E+03  0.00000000000E+00 0. -1.
         22    1    3    3    0    0  0.14537300313E+02 -0.18136282726E+02  0.12171006658E+03  0.12390963707E+03  0.00000000000E+00 0.  1.
         22    1    3    3    0    0 -0.42213979710E+02  0.72789218135E+02  0.52868873231E+02  0.99375088007E+02  0.00000000000E+00 0.  1.
</event>
<event>
 7    1  0.7457412E-006  0.3764893E+02  0.7818608E-02  0.1575911E+00
          2   -1    0    0  502    0  0.00000000000E+00  0.00000000000E+00  0.10599678526E+04  0.10599678526E+04  0.00000000000E+00 0. -1.
          1   -1    0    0  501    0 -0.00000000000E+00 -0.00000000000E+00 -0.28478032724E+03  0.28478032724E+03  0.00000000000E+00 0. -1.
         25    2    1    2    0    0 -0.13964616058E+02 -0.62729713985E+02 -0.24561032585E+02  0.14267611599E+03  0.12499280873E+03 0.  0.
          2    1    1    2  501    0  0.81018744520E+01  0.35985381805E+02 -0.19928170750E+03  0.20266668946E+03  0.00000000000E+00 0. -1.
          1    1    1    2  502    0  0.58627416060E+01  0.26744332180E+02  0.99903026541E+03  0.99940537434E+03  0.00000000000E+00 0. -1.
         22    1    3    3    0    0  0.54522748569E+02 -0.13414212423E+02 -0.94039102490E+01  0.56930701159E+02  0.00000000000E+00 0. -1.
         22    1    3    3    0    0 -0.68487364627E+02 -0.49315501562E+02 -0.15157122335E+02  0.85745414836E+02  0.00000000000E+00 0. -1.
</event>
<event>
 7    1  0.7457412E-006  0.1690413E+03  0.7818608E-02  0.1249308E+00
          2   -1    0    0  502    0  0.00000000000E+00  0.00000000000E+00  0.21308140301E+04  0.21308140301E+04  0.00000000000E+00 0. -1.
          1   -1    0    0  501    0 -0.00000000000E+00 -0.00000000000E+00 -0.77703864525E+03  0.77703864525E+03  0.00000000000E+00 0. -1.
         25    2    1    2    0    0  0.89656084551E+02 -0.22857041996E+03  0.42557364376E+03  0.50697193777E+03  0.12499987617E+03 0.  0.
          2    1    1    2  501    0 -0.47265946912E+02  0.16068818438E+03 -0.72583438043E+03  0.74490959865E+03  0.00000000000E+00 0. -1.
          1    1    1    2  502    0 -0.42390137639E+02  0.67882235582E+02  0.16540361215E+04  0.16559711389E+04  0.00000000000E+00 0. -1.
         22    1    3    3    0    0  0.26989618305E+00 -0.76923202564E+02  0.23624389788E+03  0.24845207028E+03  0.00000000000E+00 0.  1.
         22    1    3    3    0    0  0.89386188368E+02 -0.15164721740E+03  0.18932974588E+03  0.25851986749E+03  0.00000000000E+00 0.  1.
</event>
<event>
 7    1  0.7457412E-006  0.2159536E+03  0.7818608E-02  0.1368733E+00
          2   -1    0    0  502    0  0.00000000000E+00  0.00000000000E+00  0.55884049882E+03  0.55884049882E+03  0.00000000000E+00 0. -1.
          1   -1    0    0  501    0 -0.00000000000E+00 -0.00000000000E+00 -0.21879228167E+04  0.21879228167E+04  0.00000000000E+00 0. -1.
         25    2    1    2    0    0  0.15806439578E+02  0.19483710065E+03 -0.13175728093E+04  0.13378471411E+04  0.12500210311E+03 0.  0.
          2    1    1    2  501    0 -0.20731202040E+01  0.21009248161E+02 -0.83876177334E+03  0.83902741240E+03  0.00000000000E+00 0. -1.
          1    1    1    2  502    0 -0.13733319374E+02 -0.21584634881E+03  0.52725226479E+03  0.56988876202E+03  0.00000000000E+00 0. -1.
         22    1    3    3    0    0  0.26710133384E+02  0.30521217776E+02 -0.61071512306E+03  0.61206040347E+03  0.00000000000E+00 0.  1.
         22    1    3    3    0    0 -0.10903693807E+02  0.16431588288E+03 -0.70685768622E+03  0.72578673759E+03  0.00000000000E+00 0.  1.
</event>
<event>
 7    1  0.7457412E-006  0.5532647E+02  0.7818608E-02  0.1450453E+00
          2   -1    0    0  502    0  0.00000000000E+00  0.00000000000E+00  0.62076425671E+03  0.62076425671E+03  0.00000000000E+00 0. -1.
          1   -1    0    0  501    0 -0.00000000000E+00 -0.00000000000E+00 -0.52227871319E+02  0.52227871319E+02  0.00000000000E+00 0. -1.
         25    2    1    2    0    0  0.86021308856E+02  0.37344049426E+02  0.43534041401E+03  0.46253679320E+03  0.12499906153E+03 0.  0.
          2    1    1    2  501    0 -0.52923011336E+02 -0.90993979697E+01 -0.15201986522E+02  0.55809896671E+02  0.00000000000E+00 0. -1.
          1    1    1    2  502    0 -0.33098297520E+02 -0.28244651456E+02  0.14839795790E+03  0.15464543816E+03  0.00000000000E+00 0. -1.
         22    1    3    3    0    0  0.86077094042E+02  0.73665528363E+02  0.37841243914E+03  0.39500867115E+03  0.00000000000E+00 0.  1.
         22    1    3    3    0    0 -0.55785186920E-01 -0.36321478938E+02  0.56927974877E+02  0.67528122051E+02  0.00000000000E+00 0.  1.
</event>
<event>
 7    1  0.7457412E-006  0.3850250E+02  0.7818608E-02  0.1537197E+00
          2   -1    0    0  502    0  0.00000000000E+00  0.00000000000E+00  0.94336449488E+03  0.94336449488E+03  0.00000000000E+00 0. -1.
          1   -1    0    0  501    0 -0.00000000000E+00 -0.00000000000E+00 -0.18891900221E+02  0.18891900221E+02  0.00000000000E+00 0. -1.
         25    2    1    2    0    0 -0.15213103791E+02 -0.28445446325E+02  0.47343449377E+03  0.49071967423E+03  0.12499998737E+03 0.  0.
          2    1    1    2  501    0 -0.25070051441E+02  0.23347118068E+02  0.22291819540E+02  0.40872002884E+02  0.00000000000E+00 0. -1.
          1    1    1    2  502    0  0.40283155232E+02  0.50983282569E+01  0.42874628134E+03  0.43066471798E+03  0.00000000000E+00 0. -1.
         22    1    3    3    0    0 -0.19114911925E+02 -0.11290205464E+01  0.45933229223E+03  0.45973123587E+03  0.00000000000E+00 0. -1.
         22    1    3    3    0    0  0.39018081341E+01 -0.27316425779E+02  0.14102201539E+02  0.30988438365E+02  0.00000000000E+00 0. -1.
</event>
<event>
 7    1  0.7457412E-006  0.7913300E+02  0.7818608E-02  0.1358355E+00
          2   -1    0    0  502    0  0.00000000000E+00  0.00000000000E+00  0.14133213688E+04  0.14133213688E+04  0.00000000000E+00 0. -1.
          1   -1    0    0  501    0 -0.00000000000E+00 -0.00000000000E+00 -0.37812603226E+03  0.37812603226E+03  0.00000000000E+00 0. -1.
         25    2    1    2    0    0  0.70060973302E+02 -0.63126371563E+02 -0.34599944639E+02  0.16036109770E+03  0.12500018688E+03 0.  0.
          2    1    1    2  501    0 -0.93056219813E+01  0.79150071361E+02 -0.27423894020E+03  0.28558418149E+03  0.00000000000E+00 0. -1.
          1    1    1    2  502    0 -0.60755351321E+02 -0.16023699798E+02  0.13440342213E+04  0.13455021218E+04  0.00000000000E+00 0. -1.
         22    1    3    3    0    0  0.93691532050E+02 -0.49038521265E+02  0.11813229233E+02  0.10640691768E+03  0.00000000000E+00 0.  1.
         22    1    3    3    0    0 -0.23630558748E+02 -0.14087850299E+02 -0.46413173873E+02  0.53954180021E+02  0.00000000000E+00 0.  1.
</event>
<event>
 7    1  0.7457412E-006  0.4955153E+03  0.7818608E-02  0.1040224E+00
          2   -1    0    0  502    0  0.00000000000E+00  0.00000000000E+00  0.88628635327E+03  0.88628635327E+03  0.00000000000E+00 0. -1.
          1   -1    0    0  501    0 -0.00000000000E+00 -0.00000000000E+00 -0.13935857852E+04  0.13935857852E+04  0.00000000000E+00 0. -1.
         25    2    1    2    0    0  0.34675665868E+03  0.36885275946E+03  0.27016943345E+02  0.52215909538E+03  0.12501066823E+03 0.  0.
          2    1    1    2  501    0 -0.38558691952E+02 -0.51235710219E+03 -0.10332571017E+04  0.11539570231E+04  0.00000000000E+00 0. -1.
          1    1    1    2  502    0 -0.30819796672E+03  0.14350434273E+03  0.49894072650E+03  0.60375601995E+03  0.00000000000E+00 0. -1.
         22    1    3    3    0    0  0.22911822490E+03  0.25473520213E+03 -0.40301319583E+02  0.34497736237E+03  0.00000000000E+00 0. -1.
         22    1    3    3    0    0  0.11763843377E+03  0.11411755732E+03  0.67318262928E+02  0.17718173301E+03  0.00000000000E+00 0. -1.
</event>
<event>
 7    1  0.7457412E-006  0.7603151E+02  0.7818608E-02  0.1419675E+00
          2   -1    0    0  502    0  0.00000000000E+00  0.00000000000E+00  0.11657775801E+03  0.11657775801E+03  0.00000000000E+00 0. -1.
          1   -1    0    0  501    0 -0.00000000000E+00 -0.00000000000E+00 -0.65539597040E+03  0.65539597040E+03  0.00000000000E+00 0. -1.
         25    2    1    2    0    0 -0.74219770708E+02 -0.25082300510E+02 -0.34848666056E+03  0.37842539267E+03  0.12500051626E+03 0.  0.
          2    1    1    2  501    0  0.51856985103E+02  0.58146015963E+02 -0.28253241579E+03  0.29307792829E+03  0.00000000000E+00 0. -1.
          1    1    1    2  502    0  0.22362785604E+02 -0.33063715453E+02  0.92200863959E+02  0.10047040746E+03  0.00000000000E+00 0. -1.
         22    1    3    3    0    0 -0.78854788168E+01 -0.50226514747E+02 -0.48854208158E+02  0.70509695891E+02  0.00000000000E+00 0. -1.
         22    1    3    3    0    0 -0.66334291891E+02  0.25144214238E+02 -0.29963245240E+03  0.30791569677E+03  0.00000000000E+00 0. -1.
</event>
<event>
 7    1  0.7457412E-006  0.1590201E+03  0.7818608E-02  0.1324094E+00
          2   -1    0    0  502    0  0.00000000000E+00  0.00000000000E+00  0.12224190464E+04  0.12224190464E+04  0.00000000000E+00 0. -1.
          1   -1    0    0  501    0 -0.00000000000E+00 -0.00000000000E+00 -0.79616581905E+03  0.79616581905E+03  0.00000000000E+00 0. -1.
         25    2    1    2    0    0 -0.50964747355E+02  0.17258437788E+03  0.47713358437E+03  0.52503595829E+03  0.12499410867E+03 0.  0.
          2    1    1    2  501    0  0.76440018528E+02 -0.13912962382E+03 -0.76342984073E+03  0.77975973888E+03  0.00000000000E+00 0. -1.
          1    1    1    2  502    0 -0.25475271173E+02 -0.33454754067E+02  0.71254948368E+03  0.71378916824E+03  0.00000000000E+00 0. -1.
         22    1    3    3    0    0  0.27721013819E+02  0.69206238041E+02  0.27358078013E+03  0.28355669847E+03  0.00000000000E+00 0.  1.
         22    1    3    3    0    0 -0.78685761174E+02  0.10337813984E+03  0.20355280424E+03  0.24147925982E+03  0.00000000000E+00 0.  1.
</event>
<event>
 7    1  0.7457412E-006  0.1386442E+03  0.7818608E-02  0.1415222E+00
          2   -1    0    0  502    0  0.00000000000E+00  0.00000000000E+00  0.14669691347E+03  0.14669691347E+03  0.00000000000E+00 0. -1.
          1   -1    0    0  501    0 -0.00000000000E+00 -0.00000000000E+00 -0.18050912720E+04  0.18050912720E+04  0.00000000000E+00 0. -1.
         25    2    1    2    0    0  0.13224298214E+03 -0.50265549000E+02 -0.32376842633E+03  0.37478860978E+03  0.12500270555E+03 0.  0.
          2    1    1    2  501    0  0.34322679548E+01  0.22393647553E+02 -0.14161160072E+04  0.14162972152E+04  0.00000000000E+00 0. -1.
          1    1    1    2  502    0 -0.13567525010E+03  0.27871901447E+02  0.81490074928E+02  0.16070236056E+03  0.00000000000E+00 0. -1.
         22    1    3    3    0    0  0.18366538169E+02  0.22625664931E+02 -0.15898976731E+03  0.16163847483E+03  0.00000000000E+00 0. -1.
         22    1    3    3    0    0  0.11387644397E+03 -0.72891213931E+02 -0.16477865902E+03  0.21315013495E+03  0.00000000000E+00 0. -1.
</event>
<event>
 7    1  0.7457412E-006  0.6457136E+02  0.7818608E-02  0.1432608E+00
          2   -1    0    0  502    0  0.00000000000E+00  0.00000000000E+00  0.14484280908E+03  0.14484280908E+03  0.00000000000E+00 0. -1.
          1   -1    0    0  501    0 -0.00000000000E+00 -0.00000000000E+00 -0.67843486363E+03  0.67843486363E+03  0.00000000000E+00 0. -1.
         25    2    1    2    0    0 -0.44151071174E+02  0.38922382022E+02 -0.47424968464E+03  0.49396551526E+03  0.12499959194E+03 0.  0.
          2    1    1    2  501    0  0.73335960074E+02 -0.79067940918E+01 -0.18365133629E+03  0.19791031745E+03  0.00000000000E+00 0. -1.
          1    1    1    2  502    0 -0.29184888900E+02 -0.31015587930E+02  0.12430896638E+03  0.13140184000E+03  0.00000000000E+00 0. -1.
         22    1    3    3    0    0  0.29158604066E+02 -0.26581117568E+02 -0.15332520813E+03  0.15832055916E+03  0.00000000000E+00 0.  1.
         22    1    3    3    0    0 -0.73309675240E+02  0.65503499589E+02 -0.32092447650E+03  0.33564495611E+03  0.00000000000E+00 0.  1.
</event>
<event>
 7    1  0.7457412E-006  0.6589399E+02  0.7818608E-02  0.1536556E+00
          2   -1    0    0  502    0  0.00000000000E+00  0.00000000000E+00  0.16334222919E+04  0.16334222919E+04  0.00000000000E+00 0. -1.
          1   -1    0    0  501    0 -0.00000000000E+00 -0.00000000000E+00 -0.55723183331E+02  0.55723183331E+02  0.00000000000E+00 0. -1.
         25    2    1    2    0    0 -0.65396911119E+01  0.56917799839E+02  0.69220965276E+03  0.70573425125E+03  0.12499690600E+03 0.  0.
          2    1    1    2  501    0 -0.19248868685E+02  0.57913876365E+01 -0.45611629119E+02  0.49844556646E+02  0.00000000000E+00 0. -1.
          1    1    1    2  502    0  0.25788559797E+02 -0.62709187475E+02  0.93110108497E+03  0.93356666738E+03  0.00000000000E+00 0. -1.
         22    1    3    3    0    0  0.52415773506E+02  0.39390804456E+02  0.49029428409E+03  0.49465900760E+03  0.00000000000E+00 0.  1.
         22    1    3    3    0    0 -0.58955464618E+02  0.17526995382E+02  0.20191536867E+03  0.21107524365E+03  0.00000000000E+00 0.  1.
</event>
<event>
 7    1  0.7457412E-006  0.5567358E+02  0.7818608E-02  0.1480422E+00
          2   -1    0    0  502    0  0.00000000000E+00  0.00000000000E+00  0.47551759073E+03  0.47551759073E+03  0.00000000000E+00 0. -1.
          1   -1    0    0  501    0 -0.00000000000E+00 -0.00000000000E+00 -0.29788383613E+03  0.29788383613E+03  0.00000000000E+00 0. -1.
         25    2    1    2    0    0  0.71712400642E+02  0.26382961255E+02  0.78680838501E+02  0.16629668216E+03  0.12500073240E+03 0.  0.
          2    1    1    2  501    0 -0.39240837931E+02 -0.39004388427E+02 -0.25018660939E+03  0.25623138995E+03  0.00000000000E+00 0. -1.
          1    1    1    2  502    0 -0.32471562711E+02  0.12621427172E+02  0.34913952549E+03  0.35087335475E+03  0.00000000000E+00 0. -1.
         22    1    3    3    0    0  0.35259651641E+02 -0.43885461947E+02  0.64953622990E+02  0.85954348021E+02  0.00000000000E+00 0.  1.
         22    1    3    3    0    0  0.36452749001E+02  0.70268423202E+02  0.13727215511E+02  0.80342334138E+02  0.00000000000E+00 0.  1.
</event>
<event>
 7    1  0.9848935E-006  0.7038585E+02  0.7818608E-02  0.1375204E+00
          2   -1    0    0  502    0  0.00000000000E+00  0.00000000000E+00  0.78004695746E+03  0.78004695746E+03  0.00000000000E+00 0. -1.
          1   -1    0    0  501    0 -0.00000000000E+00 -0.00000000000E+00 -0.22401716977E+04  0.22401716977E+04  0.00000000000E+00 0. -1.
         25    2    1    2    0    0 -0.69664730370E+02  0.38032511232E+02 -0.23497144175E+03  0.27773537136E+03  0.12500284596E+03 0.  0.
          2    1    1    2  501    0  0.31288475176E+01 -0.61323958008E+02 -0.19817041392E+04  0.19826552178E+04  0.00000000000E+00 0. -1.
          1    1    1    2  502    0  0.66535882852E+02  0.23291446776E+02  0.75655084072E+03  0.75982806594E+03  0.00000000000E+00 0. -1.
         22    1    3    3    0    0  0.26987525147E+01 -0.76870689874E+01  0.13035860140E+02  0.15372310963E+02  0.00000000000E+00 0. -1.
         22    1    3    3    0    0 -0.72363482885E+02  0.45719580219E+02 -0.24800730189E+03  0.26236306040E+03  0.00000000000E+00 0. -1.
</event>
<event>
 7    1  0.7457412E-006  0.3337198E+02  0.7818608E-02  0.1607883E+00
          2   -1    0    0  502    0  0.00000000000E+00  0.00000000000E+00  0.46296606622E+03  0.46296606622E+03  0.00000000000E+00 0. -1.
          1   -1    0    0  501    0 -0.00000000000E+00 -0.00000000000E+00 -0.11298083831E+04  0.11298083831E+04  0.00000000000E+00 0. -1.
         25    2    1    2    0    0  0.90432626945E+01 -0.52817176502E+02 -0.55724138430E+03  0.57359903900E+03  0.12500584959E+03 0.  0.
          2    1    1    2  501    0  0.79932304628E+01  0.24142384709E+02 -0.56348945150E+03  0.56406303586E+03  0.00000000000E+00 0. -1.
          1    1    1    2  502    0 -0.17036493157E+02  0.28674791793E+02  0.45388851892E+03  0.45511237446E+03  0.00000000000E+00 0. -1.
         22    1    3    3    0    0 -0.55314168640E+02 -0.14371816922E+02 -0.31068424262E+03  0.31589698477E+03  0.00000000000E+00 0. -1.
         22    1    3    3    0    0  0.64357431334E+02 -0.38445359580E+02 -0.24655714168E+03  0.25770205423E+03  0.00000000000E+00 0. -1.
</event>
<event>
 7    1  0.7457412E-006  0.1073669E+03  0.7818608E-02  0.1308017E+00
          2   -1    0    0  502    0  0.00000000000E+00  0.00000000000E+00  0.12332656735E+04  0.12332656735E+04  0.00000000000E+00 0. -1.
          1   -1    0    0  501    0 -0.00000000000E+00 -0.00000000000E+00 -0.15038732218E+03  0.15038732218E+03  0.00000000000E+00 0. -1.
         25    2    1    2    0    0 -0.63454972986E+02  0.16142570363E+03  0.62081576429E+03  0.65659782708E+03  0.12499480769E+03 0.  0.
          2    1    1    2  501    0  0.21364165693E+02 -0.10305482070E+03 -0.10897547616E+03  0.15150042261E+03  0.00000000000E+00 0. -1.
          1    1    1    2  502    0  0.42090807294E+02 -0.58370882923E+02  0.57103806323E+03  0.57555474604E+03  0.00000000000E+00 0. -1.
         22    1    3    3    0    0 -0.23786811360E+02  0.37423570385E+02  0.35007223106E+02  0.56496386474E+02  0.00000000000E+00 0. -1.
         22    1    3    3    0    0 -0.39668161626E+02  0.12400213324E+03  0.58580854118E+03  0.60010144060E+03  0.00000000000E+00 0. -1.
</event>
<event>
 7    1  0.7457412E-006  0.5091184E+02  0.7818608E-02  0.1473386E+00
          2   -1    0    0  502    0  0.00000000000E+00  0.00000000000E+00  0.41671995523E+03  0.41671995523E+03  0.00000000000E+00 0. -1.
          1   -1    0    0  501    0 -0.00000000000E+00 -0.00000000000E+00 -0.24858787717E+03  0.24858787717E+03  0.00000000000E+00 0. -1.
         25    2    1    2    0    0  0.24361482717E+02 -0.81749677162E+02 -0.14458091258E+03  0.20929565267E+03  0.12499815353E+03 0.  0.
          2    1    1    2  501    0  0.40326137195E+01  0.39842796545E+02 -0.64226705017E+02  0.75688704885E+02  0.00000000000E+00 0. -1.
          1    1    1    2  502    0 -0.28394096437E+02  0.41906880617E+02  0.37693969566E+03  0.38032347485E+03  0.00000000000E+00 0. -1.
         22    1    3    3    0    0 -0.42716224340E+02  0.24026503762E+01 -0.51989068518E+02  0.67329872984E+02  0.00000000000E+00 0.  1.
         22    1    3    3    0    0  0.67077707057E+02 -0.84152327538E+02 -0.92591844062E+02  0.14196577968E+03  0.00000000000E+00 0.  1.
</event>
<event>
 7    1  0.7457412E-006  0.8814140E+02  0.7818608E-02  0.1403856E+00
          2   -1    0    0  502    0  0.00000000000E+00  0.00000000000E+00  0.19110423439E+04  0.19110423439E+04  0.00000000000E+00 0. -1.
          1   -1    0    0  501    0 -0.00000000000E+00 -0.00000000000E+00 -0.97639547747E+02  0.97639547747E+02  0.00000000000E+00 0. -1.
         25    2    1    2    0    0 -0.58999022040E+02  0.36064396997E+02  0.19065701152E+03  0.23823565834E+03  0.12499843010E+03 0.  0.
          2    1    1    2  501    0  0.90392658668E+02 -0.13020411739E+02 -0.45301748839E+02  0.10194416271E+03  0.00000000000E+00 0. -1.
          1    1    1    2  502    0 -0.31393636628E+02 -0.23043985258E+02  0.16680475335E+04  0.16685020706E+04  0.00000000000E+00 0. -1.
         22    1    3    3    0    0 -0.76156310536E+02  0.70110085482E+02  0.15235710198E+03  0.18419526119E+03  0.00000000000E+00 0.  1.
         22    1    3    3    0    0  0.17157288496E+02 -0.34045688485E+02  0.38299909538E+02  0.54040397145E+02  0.00000000000E+00 0.  1.
</event>
<event>
 7    1  0.7457412E-006  0.6996321E+02  0.7818608E-02  0.1369340E+00
          2   -1    0    0  502    0  0.00000000000E+00  0.00000000000E+00  0.18900779162E+03  0.18900779162E+03  0.00000000000E+00 0. -1.
          1   -1    0    0  501    0 -0.00000000000E+00 -0.00000000000E+00 -0.48173004096E+03  0.48173004096E+03  0.00000000000E+00 0. -1.
         25    2    1    2    0    0 -0.97826933139E+02 -0.22563805598E+02 -0.36467360500E+01  0.16036671259E+03  0.12499979861E+03 0.  0.
          2    1    1    2  501    0  0.42005257398E+02  0.55543993332E+02 -0.38684157098E+03  0.39305976375E+03  0.00000000000E+00 0. -1.
          1    1    1    2  502    0  0.55821675741E+02 -0.32980187734E+02  0.97766057691E+02  0.11731135624E+03  0.00000000000E+00 0. -1.
         22    1    3    3    0    0 -0.10013385519E+03 -0.14511708100E+02  0.45192811662E+02  0.11081411847E+03  0.00000000000E+00 0.  1.
         22    1    3    3    0    0  0.23069220464E+01 -0.80520974979E+01 -0.48839547712E+02  0.49552594121E+02  0.00000000000E+00 0.  1.
</event>
<event>
 7    1  0.7457412E-006  0.6038226E+02  0.7818608E-02  0.1413535E+00
          2   -1    0    0  502    0  0.00000000000E+00  0.00000000000E+00  0.23064560211E+04  0.23064560211E+04  0.00000000000E+00 0. -1.
          1   -1    0    0  501    0 -0.00000000000E+00 -0.00000000000E+00 -0.29708680309E+03  0.29708680309E+03  0.00000000000E+00 0. -1.
         25    2    1    2    0    0 -0.10012210688E+03  0.38852213750E+02  0.17495686630E+03  0.24035272972E+03  0.12500239525E+03 0.  0.
          2    1    1    2  501    0  0.40520933064E+02 -0.33700341010E+02 -0.26133130328E+03  0.26659277761E+03  0.00000000000E+00 0. -1.
          1    1    1    2  502    0  0.59601173815E+02 -0.51518727391E+01  0.20957436550E+04  0.20965973169E+04  0.00000000000E+00 0. -1.
         22    1    3    3    0    0 -0.89710579523E+02  0.55971556575E+02  0.18852529741E+03  0.21615409084E+03  0.00000000000E+00 0. -1.
         22    1    3    3    0    0 -0.10411527356E+02 -0.17119342825E+02 -0.13568431111E+02  0.24198638877E+02  0.00000000000E+00 0. -1.
</event>
<event>
 7    1  0.7457412E-006  0.4803061E+02  0.7818608E-02  0.1500915E+00
          2   -1    0    0  502    0  0.00000000000E+00  0.00000000000E+00  0.13637836806E+04  0.13637836806E+04  0.00000000000E+00 0. -1.
          1   -1    0    0  501    0 -0.00000000000E+00 -0.00000000000E+00 -0.18472547297E+02  0.18472547297E+02  0.00000000000E+00 0. -1.
         25    2    1    2    0    0  0.30230292082E+02 -0.44867114681E+02  0.56158816375E+03  0.57786966489E+03  0.12500062160E+03 0.  0.
          2    1    1    2  501    0 -0.34845067566E+02 -0.34346625537E+01  0.22502809690E+02  0.41621533904E+02  0.00000000000E+00 0. -1.
          1    1    1    2  502    0  0.46147754841E+01  0.48301777235E+02  0.76122015988E+03  0.76276502912E+03  0.00000000000E+00 0. -1.
         22    1    3    3    0    0  0.18367653125E+02  0.44441638155E+01  0.57936048694E+01  0.19765807111E+02  0.00000000000E+00 0. -1.
         22    1    3    3    0    0  0.11862638957E+02 -0.49311278496E+02  0.55579455888E+03  0.55810385778E+03  0.00000000000E+00 0. -1.
</event>
<event>
 7    1  0.7457412E-006  0.1774015E+03  0.7818608E-02  0.1305576E+00
          2   -1    0    0  502    0  0.00000000000E+00  0.00000000000E+00  0.60737907466E+03  0.60737907466E+03  0.00000000000E+00 0. -1.
          1   -1    0    0  501    0 -0.00000000000E+00 -0.00000000000E+00 -0.86452846208E+03  0.86452846208E+03  0.00000000000E+00 0. -1.
         25    2    1    2    0    0 -0.78148630746E+02 -0.20189579503E+03 -0.25697885955E+01  0.25000162209E+03  0.12500034678E+03 0.  0.
          2    1    1    2  501    0  0.93971522494E+01  0.43531331649E+02 -0.72212849780E+03  0.72350041509E+03  0.00000000000E+00 0. -1.
          1    1    1    2  502    0  0.68751478497E+02  0.15836446339E+03  0.46754889897E+03  0.49840549955E+03  0.00000000000E+00 0. -1.
         22    1    3    3    0    0 -0.79634639785E+02 -0.18455310809E+03 -0.43384637319E+02  0.20563013474E+03  0.00000000000E+00 0.  1.
         22    1    3    3    0    0  0.14860090390E+01 -0.17342686947E+02  0.40814848724E+02  0.44371487351E+02  0.00000000000E+00 0.  1.
</event>
<event>
 7    1  0.7457412E-006  0.9647878E+02  0.7818608E-02  0.1469844E+00
          2   -1    0    0  502    0  0.00000000000E+00  0.00000000000E+00  0.29429550329E+03  0.29429550329E+03  0.00000000000E+00 0. -1.
          1   -1    0    0  501    0 -0.00000000000E+00 -0.00000000000E+00 -0.16143492500E+04  0.16143492500E+04  0.00000000000E+00 0. -1.
         25    2    1    2    0    0  0.22746712002E+02 -0.11384404420E+03  0.12439061649E+03  0.21112956855E+03  0.12499915975E+03 0.  0.
          2    1    1    2  501    0 -0.10905873762E+02  0.95690154834E+02 -0.15685637156E+04  0.15715176339E+04  0.00000000000E+00 0. -1.
          1    1    1    2  502    0 -0.11840838240E+02  0.18153889362E+02  0.12411935245E+03  0.12599755078E+03  0.00000000000E+00 0. -1.
         22    1    3    3    0    0 -0.46414990430E+02 -0.31232418872E+02  0.72412533791E+02  0.91506231346E+02  0.00000000000E+00 0. -1.
         22    1    3    3    0    0  0.69161702432E+02 -0.82611625324E+02  0.51978082701E+02  0.11962333720E+03  0.00000000000E+00 0. -1.
</event>
<event>
 7    1  0.7457412E-006  0.1037795E+03  0.7818608E-02  0.1378465E+00
          2   -1    0    0  502    0  0.00000000000E+00  0.00000000000E+00  0.21924322270E+04  0.21924322270E+04  0.00000000000E+00 0. -1.
          1   -1    0    0  501    0 -0.00000000000E+00 -0.00000000000E+00 -0.20103516371E+02  0.20103516371E+02  0.00000000000E+00 0. -1.
         25    2    1    2    0    0 -0.11456212429E+03 -0.58392797479E+01  0.12333820087E+04  0.12449960503E+04  0.12500163371E+03 0.  0.
          2    1    1    2  501    0  0.94509752844E+02  0.41081239649E+02  0.17924868318E+03  0.20676037351E+03  0.00000000000E+00 0. -1.
          1    1    1    2  502    0  0.20052371445E+02 -0.35241959901E+02  0.75969801872E+03  0.76077931950E+03  0.00000000000E+00 0. -1.
         22    1    3    3    0    0 -0.13893917898E+03  0.11005822467E+02  0.97245017298E+03  0.98238717546E+03  0.00000000000E+00 0.  1.
         22    1    3    3    0    0  0.24377054696E+02 -0.16845102214E+02  0.26093183574E+03  0.26260887488E+03  0.00000000000E+00 0.  1.
</event>
<event>
 7    1  0.7457412E-006  0.6208939E+02  0.7818608E-02  0.1440819E+00
          2   -1    0    0  502    0  0.00000000000E+00  0.00000000000E+00  0.55778355821E+03  0.55778355821E+03  0.00000000000E+00 0. -1.
          1   -1    0    0  501    0 -0.00000000000E+00 -0.00000000000E+00 -0.86439183707E+03  0.86439183707E+03  0.00000000000E+00 0. -1.
         25    2    1    2    0    0  0.54726480841E+02 -0.79661988333E+01 -0.11835594292E+03  0.18081096510E+03  0.12500411132E+03 0.  0.
          2    1    1    2  501    0 -0.41415810828E+02  0.47424011875E+02 -0.71259479291E+03  0.71537098429E+03  0.00000000000E+00 0. -1.
          1    1    1    2  502    0 -0.13310670012E+02 -0.39457813042E+02  0.52434245696E+03  0.52599344589E+03  0.00000000000E+00 0. -1.
         22    1    3    3    0    0  0.53782313040E+02 -0.25456075077E+02 -0.14049807358E+03  0.15257869325E+03  0.00000000000E+00 0. -1.
         22    1    3    3    0    0  0.94416780035E+00  0.17489876244E+02  0.22142130658E+02  0.28232271853E+02  0.00000000000E+00 0. -1.
</event>
<event>
 7    1  0.7457412E-006  0.6688090E+02  0.7818608E-02  0.1407485E+00
          2   -1    0    0  502    0  0.00000000000E+00  0.00000000000E+00  0.90836709084E+03  0.90836709084E+03  0.00000000000E+00 0. -1.
          1   -1    0    0  501    0 -0.00000000000E+00 -0.00000000000E+00 -0.27763701057E+02  0.27763701057E+02  0.00000000000E+00 0. -1.
         25    2    1    2    0    0  0.56237605653E+02 -0.44325825255E+02  0.43981759871E+03  0.46280900491E+03  0.12500083126E+03 0.  0.
          2    1    1    2  501    0 -0.68690414227E+02 -0.39755697172E+01  0.66373225770E+02  0.95601167673E+02  0.00000000000E+00 0. -1.
          1    1    1    2  502    0  0.12452808574E+02  0.48301394972E+02  0.37441256531E+03  0.37772061932E+03  0.00000000000E+00 0. -1.
         22    1    3    3    0    0  0.42343221269E+01 -0.70784712182E+02  0.13534548082E+03  0.15279661037E+03  0.00000000000E+00 0. -1.
         22    1    3    3    0    0  0.52003283526E+02  0.26458886928E+02  0.30447211789E+03  0.31001239454E+03  0.00000000000E+00 0. -1.
</event>
<event>
 7    1  0.7457412E-006  0.2171288E+03  0.7818608E-02  0.1144763E+00
          2   -1    0    0  502    0  0.00000000000E+00  0.00000000000E+00  0.10783280964E+04  0.10783280964E+04  0.00000000000E+00 0. -1.
          1   -1    0    0  501    0 -0.00000000000E+00 -0.00000000000E+00 -0.17540634979E+03  0.17540634979E+03  0.00000000000E+00 0. -1.
         25    2    1    2    0    0 -0.68191229661E+02  0.11215951895E+03  0.12201405383E+03  0.21850024366E+03  0.12500050260E+03 0.  0.
          2    1    1    2  501    0 -0.53070412940E+02 -0.29227211725E+03  0.89059904656E+02  0.31011469793E+03  0.00000000000E+00 0. -1.
          1    1    1    2  502    0  0.12126164260E+03  0.18011259830E+03  0.69184778816E+03  0.72511950464E+03  0.00000000000E+00 0. -1.
         22    1    3    3    0    0 -0.19722952428E+02 -0.22265776914E+02  0.50738288643E+02  0.58814399670E+02  0.00000000000E+00 0.  1.
         22    1    3    3    0    0 -0.48468277233E+02  0.13442529586E+03  0.71275765189E+02  0.15968584399E+03  0.00000000000E+00 0.  1.
</event>
<event>
 7    1  0.7457412E-006  0.1041587E+03  0.7818608E-02  0.1385888E+00
          2   -1    0    0  502    0  0.00000000000E+00  0.00000000000E+00  0.11422675912E+04  0.11422675912E+04  0.00000000000E+00 0. -1.
          1   -1    0    0  501    0 -0.00000000000E+00 -0.00000000000E+00 -0.13385508050E+03  0.13385508050E+03  0.00000000000E+00 0. -1.
         25    2    1    2    0    0 -0.10961330857E+03  0.21239939318E+02  0.56401759886E+01  0.16769944166E+03  0.12500031484E+03 0.  0.
          2    1    1    2  501    0  0.20245630126E+02  0.32197774997E+02 -0.43041683426E+02  0.57438391047E+02  0.00000000000E+00 0. -1.
          1    1    1    2  502    0  0.89367678444E+02 -0.53437714315E+02  0.10458140181E+04  0.10509848390E+04  0.00000000000E+00 0. -1.
         22    1    3    3    0    0 -0.12711102210E+03 -0.14367656953E+02  0.35436098535E+01  0.12796952245E+03  0.00000000000E+00 0.  1.
         22    1    3    3    0    0  0.17497713527E+02  0.35607596270E+02  0.20965661351E+01  0.39729919209E+02  0.00000000000E+00 0.  1.
</event>
<event>
 7    1  0.7457412E-006  0.6981636E+02  0.7818608E-02  0.1440733E+00
          2   -1    0    0  502    0  0.00000000000E+00  0.00000000000E+00  0.10892385769E+03  0.10892385769E+03  0.00000000000E+00 0. -1.
          1   -1    0    0  501    0 -0.00000000000E+00 -0.00000000000E+00 -0.11062623290E+04  0.11062623290E+04  0.00000000000E+00 0. -1.
         25    2    1    2    0    0 -0.49864850756E+02 -0.30620084348E+02  0.61172542568E+01  0.13815766467E+03  0.12500410634E+03 0.  0.
          2    1    1    2  501    0 -0.29600372463E+02  0.22294823673E+02 -0.99610158728E+03  0.99679065675E+03  0.00000000000E+00 0. -1.
          1    1    1    2  502    0  0.79465223218E+02  0.83252606755E+01 -0.73541382563E+01  0.80237865226E+02  0.00000000000E+00 0. -1.
         22    1    3    3    0    0  0.40028065364E+02 -0.25840547176E+02 -0.26098588549E+01  0.47715733866E+02  0.00000000000E+00 0. -1.
         22    1    3    3    0    0 -0.89892916120E+02 -0.47795371721E+01  0.87271131116E+01  0.90441930803E+02  0.00000000000E+00 0. -1.
</event>
<event>
 7    1  0.7457412E-006  0.4927921E+02  0.7818608E-02  0.1479036E+00
          2   -1    0    0  502    0  0.00000000000E+00  0.00000000000E+00  0.42466275339E+02  0.42466275339E+02  0.00000000000E+00 0. -1.
          1   -1    0    0  501    0 -0.00000000000E+00 -0.00000000000E+00 -0.18447260223E+04  0.18447260223E+04  0.00000000000E+00 0. -1.
         25    2    1    2    0    0  0.17216789041E+02 -0.46535783143E+01 -0.13285769718E+04  0.13345636042E+04  0.12500068043E+03 0.  0.
          2    1    1    2  501    0  0.25033763723E+02  0.30871775409E+02 -0.49638028542E+03  0.49796901871E+03  0.00000000000E+00 0. -1.
          1    1    1    2  502    0 -0.42250552764E+02 -0.26218197095E+02  0.22697510252E+02  0.54659674710E+02  0.00000000000E+00 0. -1.
         22    1    3    3    0    0 -0.22660105404E+02  0.16623618449E+02 -0.11504009215E+04  0.11507441529E+04  0.00000000000E+00 0.  1.
         22    1    3    3    0    0  0.39876894445E+02 -0.21277196764E+02 -0.17817605024E+03  0.18381945135E+03  0.00000000000E+00 0.  1.
</event>
<event>
 7    1  0.7457412E-006  0.2695359E+03  0.7818608E-02  0.1283140E+00
          2   -1    0    0  502    0  0.00000000000E+00  0.00000000000E+00  0.63283587645E+03  0.63283587645E+03  0.00000000000E+00 0. -1.
          1   -1    0    0  501    0 -0.00000000000E+00 -0.00000000000E+00 -0.18678264795E+03  0.18678264795E+03  0.00000000000E+00 0. -1.
         25    2    1    2    0    0 -0.26174079169E+03  0.86808915018E+01  0.22562699543E+03  0.36758197424E+03  0.12500146721E+03 0.  0.
          2    1    1    2  501    0 -0.11595500287E+02  0.34200608853E+02 -0.52287852793E+02  0.63546493393E+02  0.00000000000E+00 0. -1.
          1    1    1    2  502    0  0.27333629198E+03 -0.42881500355E+02  0.27271408586E+03  0.38849005677E+03  0.00000000000E+00 0. -1.
         22    1    3    3    0    0 -0.36646342018E+02 -0.11694915018E+02  0.10407119702E+03  0.11095287049E+03  0.00000000000E+00 0. -1.
         22    1    3    3    0    0 -0.22509444967E+03  0.20375806520E+02  0.12155579842E+03  0.25662910376E+03  0.00000000000E+00 0. -1.
</event>
<event>
 7    1  0.7457412E-006  0.8752838E+02  0.7818608E-02  0.1319785E+00
          2   -1    0    0  502    0  0.00000000000E+00  0.00000000000E+00  0.24378592450E+03  0.24378592450E+03  0.00000000000E+00 0. -1.
          1   -1    0    0  501    0 -0.00000000000E+00 -0.00000000000E+00 -0.49790650363E+03  0.49790650363E+03  0.00000000000E+00 0. -1.
         25    2    1    2    0    0  0.71665036620E+02  0.12260351057E+03  0.93373079618E+01  0.18942062203E+03  0.12500195380E+03 0.  0.
          2    1    1    2  501    0 -0.19054309390E+01 -0.79361995582E+02 -0.39189266356E+03  0.39985224367E+03  0.00000000000E+00 0. -1.
          1    1    1    2  502    0 -0.69759605681E+02 -0.43241514987E+02  0.12843477648E+03  0.15241956243E+03  0.00000000000E+00 0. -1.
         22    1    3    3    0    0  0.65893178460E+01  0.55248643247E+02  0.60914808697E+02  0.82501185500E+02  0.00000000000E+00 0. -1.
         22    1    3    3    0    0  0.65075718773E+02  0.67354867322E+02 -0.51577500735E+02  0.10691943653E+03  0.00000000000E+00 0. -1.
</event>
<event>
 7    1  0.7457412E-006  0.9472836E+02  0.7818608E-02  0.1330455E+00
          2   -1    0    0  502    0  0.00000000000E+00  0.00000000000E+00  0.98592845105E+02  0.98592845105E+02  0.00000000000E+00 0. -1.
          1   -1    0    0  501    0 -0.00000000000E+00 -0.00000000000E+00 -0.48900933914E+03  0.48900933914E+03  0.00000000000E+00 0. -1.
         25    2    1    2    0    0  0.89247615109E+02  0.12189883522E+02 -0.11434718627E+03  0.19186938724E+03  0.12499941075E+03 0.  0.
          2    1    1    2  501    0 -0.83383607418E+02  0.54283983481E+02 -0.30660599940E+03  0.32234580146E+03  0.00000000000E+00 0. -1.
          1    1    1    2  502    0 -0.58640076915E+01 -0.66473867003E+02  0.30536691630E+02  0.73386995553E+02  0.00000000000E+00 0. -1.
         22    1    3    3    0    0  0.25180587098E+02  0.30879334070E+02  0.17943209432E+02  0.43698443953E+02  0.00000000000E+00 0. -1.
         22    1    3    3    0    0  0.64067028011E+02 -0.18689450548E+02 -0.13229039570E+03  0.14817094328E+03  0.00000000000E+00 0. -1.
</event>
<event>
 7    1  0.7457412E-006  0.6310944E+02  0.7818608E-02  0.1475234E+00
          2   -1    0    0  502    0  0.00000000000E+00  0.00000000000E+00  0.23756578520E+04  0.23756578520E+04  0.00000000000E+00 0. -1.
          1   -1    0    0  501    0 -0.00000000000E+00 -0.00000000000E+00 -0.39008658874E+02  0.39008658874E+02  0.00000000000E+00 0. -1.
         25    2    1    2    0    0 -0.13286856081E+02  0.34315926901E+02  0.48714724544E+03  0.50427325010E+03  0.12499979457E+03 0.  0.
          2    1    1    2  501    0  0.92605262329E+01  0.30509689418E+02 -0.21377035140E+02  0.38387187002E+02  0.00000000000E+00 0. -1.
          1    1    1    2  502    0  0.40263298476E+01 -0.64825616319E+02  0.18708789829E+04  0.18720060738E+04  0.00000000000E+00 0. -1.
         22    1    3    3    0    0 -0.26024626951E+02  0.40337144361E+02  0.48781211052E+03  0.49016836045E+03  0.00000000000E+00 0. -1.
         22    1    3    3    0    0  0.12737770871E+02 -0.60212174608E+01 -0.66486507352E+00  0.14104889650E+02  0.00000000000E+00 0. -1.
</event>
<event>
 7    1  0.7457412E-006  0.8765536E+02  0.7818608E-02  0.1313969E+00
          2   -1    0    0  502    0  0.00000000000E+00  0.00000000000E+00  0.18048601119E+04  0.18048601119E+04  0.00000000000E+00 0. -1.
          1   -1    0    0  501    0 -0.00000000000E+00 -0.00000000000E+00 -0.38493639646E+03  0.38493639646E+03  0.00000000000E+00 0. -1.
         25    2    1    2    0    0 -0.28287519104E+01 -0.74398501359E+01  0.99671643898E+02  0.16007534379E+03  0.12500530343E+03 0.  0.
          2    1    1    2  501    0 -0.56891581618E+02 -0.61145850709E+02 -0.34856329072E+03  0.35842967895E+03  0.00000000000E+00 0. -1.
          1    1    1    2  502    0  0.59720333529E+02  0.68585700845E+02  0.16688153623E+04  0.16712914857E+04  0.00000000000E+00 0. -1.
         22    1    3    3    0    0  0.34896995372E+02  0.47020865139E+02  0.40006371041E+02  0.70917358723E+02  0.00000000000E+00 0.  1.
         22    1    3    3    0    0 -0.37725747282E+02 -0.54460715275E+02  0.59665272857E+02  0.89157985068E+02  0.00000000000E+00 0.  1.
</event>
<event>
 7    1  0.7457412E-006  0.7073616E+02  0.7818608E-02  0.1384018E+00
          2   -1    0    0  502    0  0.00000000000E+00  0.00000000000E+00  0.31263132514E+03  0.31263132514E+03  0.00000000000E+00 0. -1.
          1   -1    0    0  501    0 -0.00000000000E+00 -0.00000000000E+00 -0.69216992136E+03  0.69216992136E+03  0.00000000000E+00 0. -1.
         25    2    1    2    0    0 -0.67347238496E+01  0.88564827652E+02  0.21490719301E+02  0.15484640649E+03  0.12500589340E+03 0.  0.
          2    1    1    2  501    0  0.49262520146E+02 -0.50824172192E+02 -0.61984460868E+03  0.62387276850E+03  0.00000000000E+00 0. -1.
          1    1    1    2  502    0 -0.42527796297E+02 -0.37740655460E+02  0.21881529317E+03  0.22608207150E+03  0.00000000000E+00 0. -1.
         22    1    3    3    0    0 -0.37130750592E+02 -0.18284841044E+02  0.13225000207E+02  0.43450301288E+02  0.00000000000E+00 0. -1.
         22    1    3    3    0    0  0.30396026743E+02  0.10684966870E+03  0.82657190947E+01  0.11139610520E+03  0.00000000000E+00 0. -1.
</event>
<event>
 7    1  0.7457412E-006  0.7643815E+02  0.7818608E-02  0.1396716E+00
          2   -1    0    0  502    0  0.00000000000E+00  0.00000000000E+00  0.85760689989E+02  0.85760689989E+02  0.00000000000E+00 0. -1.
          1   -1    0    0  501    0 -0.00000000000E+00 -0.00000000000E+00 -0.16798617900E+04  0.16798617900E+04  0.00000000000E+00 0. -1.
         25    2    1    2    0    0 -0.94764601936E+01 -0.34972246401E+02 -0.12061126966E+04  0.12131140819E+04  0.12500031023E+03 0.  0.
          2    1    1    2  501    0  0.24643276684E+02 -0.40626703408E+02 -0.45065232350E+03  0.45315045712E+03  0.00000000000E+00 0. -1.
          1    1    1    2  502    0 -0.15166816490E+02  0.75598949809E+02  0.62663920125E+02  0.99357940901E+02  0.00000000000E+00 0. -1.
         22    1    3    3    0    0 -0.57303704105E+02  0.15275729272E+02 -0.64758328004E+03  0.65029313928E+03  0.00000000000E+00 0.  1.
         22    1    3    3    0    0  0.47827243911E+02 -0.50247975674E+02 -0.55852941658E+03  0.56282094266E+03  0.00000000000E+00 0.  1.
</event>
<event>
 7    1  0.7457412E-006  0.9737001E+02  0.7818608E-02  0.1463668E+00
          2   -1    0    0  502    0  0.00000000000E+00  0.00000000000E+00  0.12002791091E+04  0.12002791091E+04  0.00000000000E+00 0. -1.
          1   -1    0    0  501    0 -0.00000000000E+00 -0.00000000000E+00 -0.42960701374E+02  0.42960701374E+02  0.00000000000E+00 0. -1.
         25    2    1    2    0    0 -0.18131740709E+02 -0.91439241804E+02  0.39277221374E+03  0.42259712065E+03  0.12501367737E+03 0.  0.
          2    1    1    2  501    0  0.40535901355E+02  0.89979072363E+02  0.59496326356E+02  0.11523543557E+03  0.00000000000E+00 0. -1.
          1    1    1    2  502    0 -0.22404160646E+02  0.14601694410E+01  0.70504986765E+03  0.70540725428E+03  0.00000000000E+00 0. -1.
         22    1    3    3    0    0  0.29735934375E+02 -0.10220922275E+03  0.28306542036E+03  0.30241855633E+03  0.00000000000E+00 0. -1.
         22    1    3    3    0    0 -0.47867675084E+02  0.10769980949E+02  0.10970679339E+03  0.12017856432E+03  0.00000000000E+00 0. -1.
</event>
<event>
 7    1  0.7457412E-006  0.1554012E+03  0.7818608E-02  0.1208992E+00
          2   -1    0    0  502    0  0.00000000000E+00  0.00000000000E+00  0.78893684456E+03  0.78893684456E+03  0.00000000000E+00 0. -1.
          1   -1    0    0  501    0 -0.00000000000E+00 -0.00000000000E+00 -0.86719104186E+03  0.86719104186E+03  0.00000000000E+00 0. -1.
         25    2    1    2    0    0 -0.19716767113E+03  0.29677721077E+02 -0.88357128003E+02  0.25137704093E+03  0.12501030746E+03 0.  0.
          2    1    1    2  501    0  0.97163707087E+02  0.89483699038E+02 -0.68236072569E+03  0.69502825722E+03  0.00000000000E+00 0. -1.
          1    1    1    2  502    0  0.10000396404E+03 -0.11916142011E+03  0.69246365640E+03  0.70972258827E+03  0.00000000000E+00 0. -1.
         22    1    3    3    0    0  0.64009943315E+01  0.16128369241E+02  0.14758836503E+02  0.22779821723E+02  0.00000000000E+00 0.  1.
         22    1    3    3    0    0 -0.20356866546E+03  0.13549351836E+02 -0.10311596451E+03  0.22859721921E+03  0.00000000000E+00 0.  1.
</event>
<event>
 7    1  0.7457412E-006  0.4396902E+02  0.7818608E-02  0.1576261E+00
          2   -1    0    0  502    0  0.00000000000E+00  0.00000000000E+00  0.86422457726E+03  0.86422457726E+03  0.00000000000E+00 0. -1.
          1   -1    0    0  501    0 -0.00000000000E+00 -0.00000000000E+00 -0.87339800023E+02  0.87339800023E+02  0.00000000000E+00 0. -1.
         25    2    1    2    0    0 -0.24471118573E+02  0.13850964392E+02  0.71847448923E+03  0.72980683811E+03  0.12498697697E+03 0.  0.
          2    1    1    2  501    0  0.23689383361E+02 -0.37230842731E+02 -0.74616928248E+02  0.86689148777E+02  0.00000000000E+00 0. -1.
          1    1    1    2  502    0  0.78173521238E+00  0.23379878339E+02  0.13302721625E+03  0.13506839040E+03  0.00000000000E+00 0. -1.
         22    1    3    3    0    0  0.12521050792E+02 -0.43953873888E+02  0.46384495664E+03  0.46609104641E+03  0.00000000000E+00 0.  1.
         22    1    3    3    0    0 -0.36992169365E+02  0.57804838280E+02  0.25462953259E+03  0.26371579169E+03  0.00000000000E+00 0.  1.
</event>
<event>
 7    1  0.7457412E-006  0.5326668E+02  0.7818608E-02  0.1466776E+00
          2   -1    0    0  502    0  0.00000000000E+00  0.00000000000E+00  0.30887774134E+04  0.30887774134E+04  0.00000000000E+00 0. -1.
          1   -1    0    0  501    0 -0.00000000000E+00 -0.00000000000E+00 -0.90036532818E+02  0.90036532818E+02  0.00000000000E+00 0. -1.
         25    2    1    2    0    0  0.56221000020E+02 -0.70873879895E+01  0.26363966686E+03  0.29722239947E+03  0.12499699552E+03 0.  0.
          2    1    1    2  501    0 -0.12683311090E+02  0.38074579604E+02 -0.67474177754E+02  0.78506717265E+02  0.00000000000E+00 0. -1.
          1    1    1    2  502    0 -0.43537688930E+02 -0.30987191615E+02  0.28025753915E+04  0.28030848295E+04  0.00000000000E+00 0. -1.
         22    1    3    3    0    0  0.53950764925E+02 -0.36232186458E+02  0.51073903365E+02  0.82655913136E+02  0.00000000000E+00 0.  1.
         22    1    3    3    0    0  0.22702350950E+01  0.29144798468E+02  0.21256576350E+03  0.21456648633E+03  0.00000000000E+00 0.  1.
</event>
<event>
 7    1  0.7457412E-006  0.3048104E+03  0.7818608E-02  0.1252226E+00
          2   -1    0    0  502    0  0.00000000000E+00  0.00000000000E+00  0.52931266576E+03  0.52931266576E+03  0.00000000000E+00 0. -1.
          1   -1    0    0  501    0 -0.00000000000E+00 -0.00000000000E+00 -0.32883740467E+03  0.32883740467E+03  0.00000000000E+00 0. -1.
         25    2    1    2    0    0  0.22717542327E+03  0.16363166285E+03  0.71994788783E+02  0.31494725345E+03  0.12499811527E+03 0.  0.
          2    1    1    2  501    0  0.41538704594E+02  0.11532038903E+02 -0.12637070876E+03  0.13352156355E+03  0.00000000000E+00 0. -1.
          1    1    1    2  502    0 -0.26871412786E+03 -0.17516370175E+03  0.25485118106E+03  0.40968125343E+03  0.00000000000E+00 0. -1.
         22    1    3    3    0    0  0.10246633393E+02 -0.97973314076E+01 -0.18077494889E+02  0.22973398096E+02  0.00000000000E+00 0.  1.
         22    1    3    3    0    0  0.21692878987E+03  0.17342899426E+03  0.90072283672E+02  0.29197385536E+03  0.00000000000E+00 0.  1.
</event>
<event>
 7    1  0.7457412E-006  0.1875528E+03  0.7818608E-02  0.1223245E+00
          2   -1    0    0  502    0  0.00000000000E+00  0.00000000000E+00  0.64344856232E+03  0.64344856232E+03  0.00000000000E+00 0. -1.
          1   -1    0    0  501    0 -0.00000000000E+00 -0.00000000000E+00 -0.30500771509E+03  0.30500771509E+03  0.00000000000E+00 0. -1.
         25    2    1    2    0    0  0.36003909392E+02 -0.12113685741E+03  0.72011669977E+02  0.19178544667E+03  0.12500222889E+03 0.  0.
          2    1    1    2  501    0  0.71923534104E+02 -0.60746198060E+02 -0.21288365271E+03  0.23277144354E+03  0.00000000000E+00 0. -1.
          1    1    1    2  502    0 -0.10792744350E+03  0.18188305547E+03  0.47931282997E+03  0.52389938719E+03  0.00000000000E+00 0. -1.
         22    1    3    3    0    0  0.65792648860E+02 -0.12737808703E+03  0.73899114847E+02  0.16129144080E+03  0.00000000000E+00 0. -1.
         22    1    3    3    0    0 -0.29788739469E+02  0.62412296187E+01 -0.18874448703E+01  0.30494005877E+02  0.00000000000E+00 0. -1.
</event>
<event>
 7    1  0.7457412E-006  0.1124086E+03  0.7818608E-02  0.1260676E+00
          2   -1    0    0  502    0  0.00000000000E+00  0.00000000000E+00  0.14901919951E+04  0.14901919951E+04  0.00000000000E+00 0. -1.
          1   -1    0    0  501    0 -0.00000000000E+00 -0.00000000000E+00 -0.45607392664E+03  0.45607392664E+03  0.00000000000E+00 0. -1.
         25    2    1    2    0    0  0.56077141981E+01  0.82185981251E+02  0.92923540282E+03  0.94121634576E+03  0.12499517467E+03 0.  0.
          2    1    1    2  501    0  0.85869498442E+02  0.72540425221E+02 -0.42808016495E+03  0.44259271535E+03  0.00000000000E+00 0. -1.
          1    1    1    2  502    0 -0.91477212640E+02 -0.15472640647E+03  0.53296283059E+03  0.56245686064E+03  0.00000000000E+00 0. -1.
         22    1    3    3    0    0  0.17691831322E+02  0.11407242718E+03  0.69833670381E+03  0.70781330267E+03  0.00000000000E+00 0. -1.
         22    1    3    3    0    0 -0.12084117124E+02 -0.31886445929E+02  0.23089869901E+03  0.23340304309E+03  0.00000000000E+00 0. -1.
</event>
<event>
 7    1  0.7457412E-006  0.2033292E+03  0.7818608E-02  0.1323294E+00
          2   -1    0    0  502    0  0.00000000000E+00  0.00000000000E+00  0.15485961623E+04  0.15485961623E+04  0.00000000000E+00 0. -1.
          1   -1    0    0  501    0 -0.00000000000E+00 -0.00000000000E+00 -0.45314813781E+03  0.45314813781E+03  0.00000000000E+00 0. -1.
         25    2    1    2    0    0  0.59435864849E+02 -0.16348935191E+03  0.63754459047E+03  0.67256911157E+03  0.12499885913E+03 0.  0.
          2    1    1    2  501    0 -0.82917265361E+02  0.18684818505E+03 -0.41132234351E+03  0.45931861210E+03  0.00000000000E+00 0. -1.
          1    1    1    2  502    0  0.23481400513E+02 -0.23358833141E+02  0.86922577749E+03  0.86985657640E+03  0.00000000000E+00 0. -1.
         22    1    3    3    0    0  0.28636326904E+02 -0.17581758782E+03  0.57217626629E+03  0.59926416805E+03  0.00000000000E+00 0. -1.
         22    1    3    3    0    0  0.30799537944E+02  0.12328235910E+02  0.65368324187E+02  0.73304943525E+02  0.00000000000E+00 0. -1.
</event>
<event>
 7    1  0.7457412E-006  0.1266593E+03  0.7818608E-02  0.1314808E+00
          2   -1    0    0  502    0  0.00000000000E+00  0.00000000000E+00  0.29956601303E+03  0.29956601303E+03  0.00000000000E+00 0. -1.
          1   -1    0    0  501    0 -0.00000000000E+00 -0.00000000000E+00 -0.21173066278E+04  0.21173066278E+04  0.00000000000E+00 0. -1.
         25    2    1    2    0    0  0.59125994728E+02 -0.12813992969E+03 -0.52336404095E+02  0.19564973754E+03  0.12499598302E+03 0.  0.
          2    1    1    2  501    0 -0.17832049870E+01  0.12657213868E+03 -0.19876584195E+04  0.19916851354E+04  0.00000000000E+00 0. -1.
          1    1    1    2  502    0 -0.57342789742E+02  0.15677910133E+01  0.22225420885E+03  0.22953776782E+03  0.00000000000E+00 0. -1.
         22    1    3    3    0    0  0.25870928513E+01 -0.11792108533E+03 -0.67935220821E+02  0.13611491337E+03  0.00000000000E+00 0. -1.
         22    1    3    3    0    0  0.56538901877E+02 -0.10218844367E+02  0.15598816726E+02  0.59534824170E+02  0.00000000000E+00 0. -1.
</event>
<event>
 7    1  0.7457412E-006  0.1554724E+03  0.7818608E-02  0.1305875E+00
          2   -1    0    0  502    0  0.00000000000E+00  0.00000000000E+00  0.35165483666E+03  0.35165483666E+03  0.00000000000E+00 0. -1.
          1   -1    0    0  501    0 -0.00000000000E+00 -0.00000000000E+00 -0.99976356757E+03  0.99976356757E+03  0.00000000000E+00 0. -1.
         25    2    1    2    0    0 -0.87523392766E+02 -0.13844759062E+03 -0.96148270483E+02  0.22737199847E+03  0.12500182455E+03 0.  0.
          2    1    1    2  501    0  0.11956587935E+03  0.99186345828E+02 -0.82848108163E+03  0.84292041933E+03  0.00000000000E+00 0. -1.
          1    1    1    2  502    0 -0.32042486587E+02  0.39261244797E+02  0.27652062121E+03  0.28112598642E+03  0.00000000000E+00 0. -1.
         22    1    3    3    0    0 -0.90107420711E+02 -0.38015495781E+02 -0.16534952299E+02  0.99186338949E+02  0.00000000000E+00 0.  1.
         22    1    3    3    0    0  0.25840279443E+01 -0.10043209484E+03 -0.79613318184E+02  0.12818565952E+03  0.00000000000E+00 0.  1.
</event>
<event>
 7    1  0.7457412E-006  0.1145846E+03  0.7818608E-02  0.1348961E+00
          2   -1    0    0  502    0  0.00000000000E+00  0.00000000000E+00  0.87524505744E+02  0.87524505744E+02  0.00000000000E+00 0. -1.
          1   -1    0    0  501    0 -0.00000000000E+00 -0.00000000000E+00 -0.15157987176E+04  0.15157987176E+04  0.00000000000E+00 0. -1.
         25    2    1    2    0    0  0.73033357075E+02  0.27724600486E+02 -0.28315587853E+03  0.31922526870E+03  0.12499998364E+03 0.  0.
          2    1    1    2  501    0  0.46456879784E+02 -0.70778512623E+01 -0.11608677911E+04  0.11618185599E+04  0.00000000000E+00 0. -1.
          1    1    1    2  502    0 -0.11949023686E+03 -0.20646749223E+02  0.15749457801E+02  0.12227939474E+03  0.00000000000E+00 0. -1.
         22    1    3    3    0    0  0.84515726759E+02 -0.29030351160E+02 -0.16508824212E+03  0.18772265991E+03  0.00000000000E+00 0.  1.
         22    1    3    3    0    0 -0.11482369684E+02  0.56754951646E+02 -0.11806763641E+03  0.13150260879E+03  0.00000000000E+00 0.  1.
</event>
<event>
 7    1  0.7457412E-006  0.2576305E+02  0.7818608E-02  0.1692117E+00
          2   -1    0    0  502    0  0.00000000000E+00  0.00000000000E+00  0.32456486378E+03  0.32456486378E+03  0.00000000000E+00 0. -1.
          1   -1    0    0  501    0 -0.00000000000E+00 -0.00000000000E+00 -0.99433700647E+03  0.99433700647E+03  0.00000000000E+00 0. -1.
         25    2    1    2    0    0  0.16533397457E+02  0.39329479210E+02  0.12124395920E+03  0.17928980588E+03  0.12499830273E+03 0.  0.
          2    1    1    2  501    0 -0.12506785548E+01 -0.25716276870E+02 -0.96454089452E+03  0.96488446371E+03  0.00000000000E+00 0. -1.
          1    1    1    2  502    0 -0.15282718903E+02 -0.13613202340E+02  0.17352479264E+03  0.17472760067E+03  0.00000000000E+00 0. -1.
         22    1    3    3    0    0  0.30422939944E+02  0.15033117152E+02  0.14100445149E+03  0.14503035967E+03  0.00000000000E+00 0.  1.
         22    1    3    3    0    0 -0.13889542487E+02  0.24296362058E+02 -0.19760492287E+02  0.34259446219E+02  0.00000000000E+00 0.  1.
</event>
<event>
 7    1  0.7457412E-006  0.7787185E+02  0.7818608E-02  0.1343970E+00
          2   -1    0    0  502    0  0.00000000000E+00  0.00000000000E+00  0.69768633695E+02  0.69768633695E+02  0.00000000000E+00 0. -1.
          1   -1    0    0  501    0 -0.00000000000E+00 -0.00000000000E+00 -0.92274281049E+03  0.92274281049E+03  0.00000000000E+00 0. -1.
         25    2    1    2    0    0 -0.10855161277E+02  0.55841557414E+01 -0.30343594724E+03  0.32840305984E+03  0.12500471316E+03 0.  0.
          2    1    1    2  501    0 -0.33525964449E+02 -0.70285384440E+02 -0.57605064293E+03  0.58129026207E+03  0.00000000000E+00 0. -1.
          1    1    1    2  502    0  0.44381125726E+02  0.64701228699E+02  0.26512413367E+02  0.82818122282E+02  0.00000000000E+00 0. -1.
         22    1    3    3    0    0  0.41321859953E+02  0.52966465334E+01 -0.25098541404E+03  0.25441939516E+03  0.00000000000E+00 0. -1.
         22    1    3    3    0    0 -0.52177021230E+02  0.28750920800E+00 -0.52450533199E+02  0.73983664676E+02  0.00000000000E+00 0. -1.
</event>
<event>
 7    1  0.7457412E-006  0.6653478E+02  0.7818608E-02  0.1446954E+00
          2   -1    0    0  502    0  0.00000000000E+00  0.00000000000E+00  0.14318204035E+04  0.14318204035E+04  0.00000000000E+00 0. -1.
          1   -1    0    0  501    0 -0.00000000000E+00 -0.00000000000E+00 -0.67321047633E+02  0.67321047633E+02  0.00000000000E+00 0. -1.
         25    2    1    2    0    0 -0.14107129297E+02  0.37850833322E+02  0.20619881296E+03  0.24448812192E+03  0.12499917845E+03 0.  0.
          2    1    1    2  501    0  0.22230355374E+02  0.29737385142E+02 -0.39910490853E+02  0.54510072971E+02  0.00000000000E+00 0. -1.
          1    1    1    2  502    0 -0.81232260774E+01 -0.67588218464E+02  0.11982110337E+04  0.12001432562E+04  0.00000000000E+00 0. -1.
         22    1    3    3    0    0  0.27414824577E+02 -0.33934399843E+02  0.42105162945E+02  0.60629702671E+02  0.00000000000E+00 0. -1.
         22    1    3    3    0    0 -0.41521953874E+02  0.71785233165E+02  0.16409365002E+03  0.18385841925E+03  0.00000000000E+00 0. -1.
</event>
<event>
 7    1  0.7457412E-006  0.4172755E+02  0.7818608E-02  0.1577506E+00
          2   -1    0    0  502    0  0.00000000000E+00  0.00000000000E+00  0.13702852595E+04  0.13702852595E+04  0.00000000000E+00 0. -1.
          1   -1    0    0  501    0 -0.00000000000E+00 -0.00000000000E+00 -0.17689454224E+03  0.17689454224E+03  0.00000000000E+00 0. -1.
         25    2    1    2    0    0  0.27425452371E+02 -0.81636651663E+01  0.16079154786E+03  0.20566548697E+03  0.12500227917E+03 0.  0.
          2    1    1    2  501    0 -0.91019673399E+00 -0.24443083200E+02 -0.15311456852E+03  0.15505600236E+03  0.00000000000E+00 0. -1.
          1    1    1    2  502    0 -0.26515255637E+02  0.32606748366E+02  0.11857137379E+04  0.11864583124E+04  0.00000000000E+00 0. -1.
         22    1    3    3    0    0 -0.28830653282E+02 -0.96324386997E+01 -0.47989988648E+01  0.30773703613E+02  0.00000000000E+00 0.  1.
         22    1    3    3    0    0  0.56256105653E+02  0.14687735334E+01  0.16559054673E+03  0.17489178335E+03  0.00000000000E+00 0.  1.
</event>
<event>
 7    1  0.7457412E-006  0.4995501E+02  0.7818608E-02  0.1519599E+00
          2   -1    0    0  502    0  0.00000000000E+00  0.00000000000E+00  0.50899647795E+03  0.50899647795E+03  0.00000000000E+00 0. -1.
          1   -1    0    0  501    0 -0.00000000000E+00 -0.00000000000E+00 -0.40422426200E+02  0.40422426200E+02  0.00000000000E+00 0. -1.
         25    2    1    2    0    0 -0.70131343304E+02  0.77149397780E+01  0.23356753298E+03  0.27414459957E+03  0.12499417347E+03 0.  0.
          2    1    1    2  501    0  0.26782493134E+02  0.12748169194E+02 -0.53879203902E+01  0.30147096749E+02  0.00000000000E+00 0. -1.
          1    1    1    2  502    0  0.43348850170E+02 -0.20463108972E+02  0.24039443916E+03  0.24512720783E+03  0.00000000000E+00 0. -1.
         22    1    3    3    0    0 -0.96107297811E+02 -0.22671460847E+02  0.13089198656E+03  0.16396133683E+03  0.00000000000E+00 0.  1.
         22    1    3    3    0    0  0.25975954507E+02  0.30386400625E+02  0.10267554643E+03  0.11018326275E+03  0.00000000000E+00 0.  1.
</event>
<event>
 7    1  0.7457412E-006  0.1832116E+03  0.7818608E-02  0.1204069E+00
          2   -1    0    0  502    0  0.00000000000E+00  0.00000000000E+00  0.24413556475E+04  0.24413556475E+04  0.00000000000E+00 0. -1.
          1   -1    0    0  501    0 -0.00000000000E+00 -0.00000000000E+00 -0.48738356846E+03  0.48738356846E+03  0.00000000000E+00 0. -1.
         25    2    1    2    0    0  0.27619638819E+03  0.32670838422E+02  0.41366764635E+03  0.51390423654E+03  0.12499925662E+03 0.  0.
          2    1    1    2  501    0 -0.10185120623E+03 -0.59827683988E+02 -0.42526313679E+03  0.44136351854E+03  0.00000000000E+00 0. -1.
          1    1    1    2  502    0 -0.17434518196E+03  0.27156845566E+02  0.19655675695E+04  0.19734714609E+04  0.00000000000E+00 0. -1.
         22    1    3    3    0    0  0.45503762661E+02  0.28397759034E+02  0.17029451287E+03  0.17854200136E+03  0.00000000000E+00 0. -1.
         22    1    3    3    0    0  0.23069262553E+03  0.42730793880E+01  0.24337313348E+03  0.33536223518E+03  0.00000000000E+00 0. -1.
</event>
<event>
 7    1  0.7457412E-006  0.6172571E+02  0.7818608E-02  0.1418837E+00
          2   -1    0    0  502    0  0.00000000000E+00  0.00000000000E+00  0.13338482117E+04  0.13338482117E+04  0.00000000000E+00 0. -1.
          1   -1    0    0  501    0 -0.00000000000E+00 -0.00000000000E+00 -0.28542911156E+02  0.28542911156E+02  0.00000000000E+00 0. -1.
         25    2    1    2    0    0 -0.50268685069E+02  0.76329310982E+02  0.77662311891E+03  0.79190955601E+03  0.12499668663E+03 0.  0.
          2    1    1    2  501    0  0.45617351332E+02 -0.19179301071E+02  0.12386823368E+02  0.51011976292E+02  0.00000000000E+00 0. -1.
          1    1    1    2  502    0  0.46513337377E+01 -0.57150009911E+02  0.51629535823E+03  0.51946959051E+03  0.00000000000E+00 0. -1.
         22    1    3    3    0    0 -0.82530541546E+02  0.54045348586E+02  0.35454309227E+03  0.36801222027E+03  0.00000000000E+00 0. -1.
         22    1    3    3    0    0  0.32261856477E+02  0.22283962396E+02  0.42208002663E+03  0.42389733574E+03  0.00000000000E+00 0. -1.
</event>
<event>
 7    1  0.7457412E-006  0.5226282E+02  0.7818608E-02  0.1499967E+00
          2   -1    0    0  502    0  0.00000000000E+00  0.00000000000E+00  0.16897335936E+04  0.16897335936E+04  0.00000000000E+00 0. -1.
          1   -1    0    0  501    0 -0.00000000000E+00 -0.00000000000E+00 -0.42698469397E+03  0.42698469397E+03  0.00000000000E+00 0. -1.
         25    2    1    2    0    0  0.19957333982E+02  0.12618912001E+01  0.88210653267E+03  0.89114387018E+03  0.12500229931E+03 0.  0.
          2    1    1    2  501    0 -0.52321887794E+02 -0.16323709404E-01 -0.42051756012E+03  0.42376007195E+03  0.00000000000E+00 0. -1.
          1    1    1    2  502    0  0.32364553812E+02 -0.12455674907E+01  0.80115992712E+03  0.80181434547E+03  0.00000000000E+00 0. -1.
         22    1    3    3    0    0  0.54588793465E+01  0.60689268377E+02  0.55783774352E+03  0.56115589167E+03  0.00000000000E+00 0.  1.
         22    1    3    3    0    0  0.14498454635E+02 -0.59427377177E+02  0.32426878915E+03  0.32998797851E+03  0.00000000000E+00 0.  1.
</event>
<event>
 7    1  0.7457412E-006  0.1408563E+03  0.7818608E-02  0.1328684E+00
          2   -1    0    0  502    0  0.00000000000E+00  0.00000000000E+00  0.19706903313E+04  0.19706903313E+04  0.00000000000E+00 0. -1.
          1   -1    0    0  501    0 -0.00000000000E+00 -0.00000000000E+00 -0.13975537059E+04  0.13975537059E+04  0.00000000000E+00 0. -1.
         25    2    1    2    0    0 -0.94956811724E+02 -0.15059014155E+03 -0.15727986913E+03  0.26843288073E+03  0.12500026960E+03 0.  0.
          2    1    1    2  501    0  0.56420018475E+02  0.12624257660E+03 -0.11803897119E+04  0.11884613071E+04  0.00000000000E+00 0. -1.
          1    1    1    2  502    0  0.38536793249E+02  0.24347564949E+02  0.19108062063E+04  0.19113498493E+04  0.00000000000E+00 0. -1.
         22    1    3    3    0    0 -0.88375149438E+02 -0.16862089596E+03 -0.16045715334E+03  0.24897725127E+03  0.00000000000E+00 0. -1.
         22    1    3    3    0    0 -0.65816622857E+01  0.18030754406E+02  0.31772842106E+01  0.19455629464E+02  0.00000000000E+00 0. -1.
</event>
<event>
 7    1  0.7457412E-006  0.1039310E+03  0.7818608E-02  0.1340811E+00
          2   -1    0    0  502    0  0.00000000000E+00  0.00000000000E+00  0.26890965738E+04  0.26890965738E+04  0.00000000000E+00 0. -1.
          1   -1    0    0  501    0 -0.00000000000E+00 -0.00000000000E+00 -0.30852219686E+03  0.30852219686E+03  0.00000000000E+00 0. -1.
         25    2    1    2    0    0  0.77733775283E+02  0.13650685291E+03  0.69973056562E+03  0.72795905498E+03  0.12499944223E+03 0.  0.
          2    1    1    2  501    0 -0.41065188914E+02 -0.94751226712E+02 -0.28494762010E+03  0.30308297693E+03  0.00000000000E+00 0. -1.
          1    1    1    2  502    0 -0.36668586369E+02 -0.41755626203E+02  0.19657914314E+04  0.19665767388E+04  0.00000000000E+00 0. -1.
         22    1    3    3    0    0  0.61274795658E+02  0.10871915092E+03  0.67714455752E+03  0.68854862293E+03  0.00000000000E+00 0. -1.
         22    1    3    3    0    0  0.16458979625E+02  0.27787701998E+02  0.22586008094E+02  0.39410432048E+02  0.00000000000E+00 0. -1.
</event>
<event>
 7    1  0.7457412E-006  0.2024181E+03  0.7818608E-02  0.1261340E+00
          2   -1    0    0  502    0  0.00000000000E+00  0.00000000000E+00  0.28427615654E+04  0.28427615654E+04  0.00000000000E+00 0. -1.
          1   -1    0    0  501    0 -0.00000000000E+00 -0.00000000000E+00 -0.80143910533E+03  0.80143910533E+03  0.00000000000E+00 0. -1.
         25    2    1    2    0    0  0.11921673088E+02 -0.15690495117E+03 -0.33417774195E+02  0.20372156962E+03  0.12499776120E+03 0.  0.
          2    1    1    2  501    0 -0.44296530173E+02  0.20662030999E+03 -0.66619277010E+03  0.69890410073E+03  0.00000000000E+00 0. -1.
          1    1    1    2  502    0  0.32374857084E+02 -0.49715358827E+02  0.27409330043E+04  0.27415750003E+04  0.00000000000E+00 0. -1.
         22    1    3    3    0    0  0.11075872261E+02 -0.15578789230E+03  0.13517855918E+02  0.15676503042E+03  0.00000000000E+00 0. -1.
         22    1    3    3    0    0  0.84580082681E+00 -0.11170588695E+01 -0.46935630113E+02  0.46956539200E+02  0.00000000000E+00 0. -1.
</event>
<event>
 7    1  0.7457412E-006  0.1038835E+03  0.7818608E-02  0.1300524E+00
          2   -1    0    0  502    0  0.00000000000E+00  0.00000000000E+00  0.53015211372E+03  0.53015211372E+03  0.00000000000E+00 0. -1.
          1   -1    0    0  501    0 -0.00000000000E+00 -0.00000000000E+00 -0.15560313803E+04  0.15560313803E+04  0.00000000000E+00 0. -1.
         25    2    1    2    0    0  0.33230056210E+02  0.16128339142E+03 -0.96069378351E+03  0.98268718875E+03  0.12499998510E+03 0.  0.
          2    1    1    2  501    0 -0.68974749755E+01 -0.86102956386E+02 -0.57805713359E+03  0.58447527232E+03  0.00000000000E+00 0. -1.
          1    1    1    2  502    0 -0.26332581235E+02 -0.75180435035E+02  0.51287165056E+03  0.51902103290E+03  0.00000000000E+00 0. -1.
         22    1    3    3    0    0 -0.47340704515E+02  0.51198538202E+02 -0.36093982082E+03  0.36761391006E+03  0.00000000000E+00 0.  1.
         22    1    3    3    0    0  0.80570760726E+02  0.11008485322E+03 -0.59975396269E+03  0.61507327868E+03  0.00000000000E+00 0.  1.
</event>
<event>
 7    1  0.7457412E-006  0.4157070E+02  0.7818608E-02  0.1511195E+00
          2   -1    0    0  502    0  0.00000000000E+00  0.00000000000E+00  0.60153314449E+03  0.60153314449E+03  0.00000000000E+00 0. -1.
          1   -1    0    0  501    0 -0.00000000000E+00 -0.00000000000E+00 -0.12762333320E+04  0.12762333320E+04  0.00000000000E+00 0. -1.
         25    2    1    2    0    0 -0.21089639549E+02 -0.29501588408E+02  0.52512963882E+01  0.13025796820E+03  0.12499778218E+03 0.  0.
          2    1    1    2  501    0 -0.15488618680E+02  0.38702574294E+02 -0.12127051083E+04  0.12134213886E+04  0.00000000000E+00 0. -1.
          1    1    1    2  502    0  0.36578258229E+02 -0.92009858860E+01  0.53275362441E+03  0.53408711970E+03  0.00000000000E+00 0. -1.
         22    1    3    3    0    0 -0.47239133547E+02  0.15847255020E+02  0.42922075452E+02  0.65764548132E+02  0.00000000000E+00 0. -1.
         22    1    3    3    0    0  0.26149493998E+02 -0.45348843428E+02 -0.37670779064E+02  0.64493420067E+02  0.00000000000E+00 0. -1.
</event>
<event>
 7    1  0.7457412E-006  0.8093470E+02  0.7818608E-02  0.1367239E+00
          2   -1    0    0  502    0  0.00000000000E+00  0.00000000000E+00  0.53214151872E+03  0.53214151872E+03  0.00000000000E+00 0. -1.
          1   -1    0    0  501    0 -0.00000000000E+00 -0.00000000000E+00 -0.29468727563E+03  0.29468727563E+03  0.00000000000E+00 0. -1.
         25    2    1    2    0    0  0.11481656095E+03 -0.50845438996E+02  0.71954152643E+02  0.19123555777E+03  0.12500214854E+03 0.  0.
          2    1    1    2  501    0 -0.36725354986E+02  0.43635020474E+02 -0.22765625543E+03  0.23469157920E+03  0.00000000000E+00 0. -1.
          1    1    1    2  502    0 -0.78091205964E+02  0.72104185220E+01  0.39315634588E+03  0.40090165738E+03  0.00000000000E+00 0. -1.
         22    1    3    3    0    0 -0.11545046188E+02 -0.45542989727E+02  0.37609414743E+02  0.60182390133E+02  0.00000000000E+00 0. -1.
         22    1    3    3    0    0  0.12636160714E+03 -0.53024492685E+01  0.34344737900E+02  0.13105316764E+03  0.00000000000E+00 0. -1.
</event>
<event>
 7    1  0.7457412E-006  0.1644992E+03  0.7818608E-02  0.1312207E+00
          2   -1    0    0  502    0  0.00000000000E+00  0.00000000000E+00  0.49377689751E+03  0.49377689751E+03  0.00000000000E+00 0. -1.
          1   -1    0    0  501    0 -0.00000000000E+00 -0.00000000000E+00 -0.46809875700E+03  0.46809875700E+03  0.00000000000E+00 0. -1.
         25    2    1    2    0    0  0.11561601398E+03 -0.15007875242E+03 -0.15043521562E+03  0.27229866166E+03  0.12500044971E+03 0.  0.
          2    1    1    2  501    0 -0.11490548687E+03  0.10486640011E+03 -0.23180161901E+03  0.27916343485E+03  0.00000000000E+00 0. -1.
          1    1    1    2  502    0 -0.71052711647E+00  0.45212352309E+02  0.40791497514E+03  0.41041355800E+03  0.00000000000E+00 0. -1.
         22    1    3    3    0    0  0.75739018235E+02 -0.44077190398E+01 -0.53579802412E+02  0.92879610771E+02  0.00000000000E+00 0.  1.
         22    1    3    3    0    0  0.39876995748E+02 -0.14567103338E+03 -0.96855413209E+02  0.17941905089E+03  0.00000000000E+00 0.  1.
</event>
<event>
 7    1  0.7457412E-006  0.1016087E+03  0.7818608E-02  0.1391616E+00
          2   -1    0    0  502    0  0.00000000000E+00  0.00000000000E+00  0.55962251555E+03  0.55962251555E+03  0.00000000000E+00 0. -1.
          1   -1    0    0  501    0 -0.00000000000E+00 -0.00000000000E+00 -0.54777499765E+03  0.54777499765E+03  0.00000000000E+00 0. -1.
         25    2    1    2    0    0 -0.10827699502E+03 -0.67657975402E+02 -0.17512203969E+03  0.25018413227E+03  0.12499144758E+03 0.  0.
          2    1    1    2  501    0  0.12603636867E+02  0.35033303231E+02 -0.32916990913E+03  0.33126879278E+03  0.00000000000E+00 0. -1.
          1    1    1    2  502    0  0.95673358158E+02  0.32624672171E+02  0.51613946672E+03  0.52594458814E+03  0.00000000000E+00 0. -1.
         22    1    3    3    0    0 -0.26962659830E+02  0.18015451829E+02  0.69403257046E+01  0.33161870432E+02  0.00000000000E+00 0. -1.
         22    1    3    3    0    0 -0.81314335195E+02 -0.85673427231E+02 -0.18206236539E+03  0.21702226184E+03  0.00000000000E+00 0. -1.
</event>
<event>
 7    1  0.7457412E-006  0.5369029E+02  0.7818608E-02  0.1533828E+00
          2   -1    0    0  502    0  0.00000000000E+00  0.00000000000E+00  0.11790369120E+04  0.11790369120E+04  0.00000000000E+00 0. -1.
          1   -1    0    0  501    0 -0.00000000000E+00 -0.00000000000E+00 -0.24350583299E+03  0.24350583299E+03  0.00000000000E+00 0. -1.
         25    2    1    2    0    0 -0.40270813020E+02  0.66712790571E+02  0.68982511629E+03  0.70537666765E+03  0.12500086954E+03 0.  0.
          2    1    1    2  501    0  0.23173208595E+02 -0.48316158084E+02 -0.23235088980E+03  0.23844996272E+03  0.00000000000E+00 0. -1.
          1    1    1    2  502    0  0.17097604425E+02 -0.18396632487E+02  0.47805685253E+03  0.47871611464E+03  0.00000000000E+00 0. -1.
         22    1    3    3    0    0 -0.78846256619E+01  0.29234389195E+02  0.26597347622E+02  0.40301808073E+02  0.00000000000E+00 0.  1.
         22    1    3    3    0    0 -0.32386187358E+02  0.37478401376E+02  0.66322776867E+03  0.66507485958E+03  0.00000000000E+00 0.  1.
</event>
<event>
 7    1  0.7457412E-006  0.2234919E+03  0.7818608E-02  0.1264566E+00
          2   -1    0    0  502    0  0.00000000000E+00  0.00000000000E+00  0.28086220144E+04  0.28086220144E+04  0.00000000000E+00 0. -1.
          1   -1    0    0  501    0 -0.00000000000E+00 -0.00000000000E+00 -0.28880133028E+03  0.28880133028E+03  0.00000000000E+00 0. -1.
         25    2    1    2    0    0 -0.19046320980E+03  0.11895849018E+03 -0.16060863207E+02  0.25750716934E+03  0.12499853706E+03 0.  0.
          2    1    1    2  501    0  0.21334143861E+03 -0.72190468608E+02 -0.68192597363E+02  0.23532161720E+03  0.00000000000E+00 0. -1.
          1    1    1    2  502    0 -0.22878228815E+02 -0.46768021568E+02  0.26040741447E+04  0.26045945582E+04  0.00000000000E+00 0. -1.
         22    1    3    3    0    0 -0.29667068427E+02  0.46033674094E+02 -0.54007070506E+02  0.76915523559E+02  0.00000000000E+00 0. -1.
         22    1    3    3    0    0 -0.16079614137E+03  0.72924816081E+02  0.37946207299E+02  0.18059164579E+03  0.00000000000E+00 0. -1.
</event>
<event>
 7    1  0.7457412E-006  0.4873262E+02  0.7818608E-02  0.1467714E+00
          2   -1    0    0  502    0  0.00000000000E+00  0.00000000000E+00  0.13216735147E+04  0.13216735147E+04  0.00000000000E+00 0. -1.
          1   -1    0    0  501    0 -0.00000000000E+00 -0.00000000000E+00 -0.76091442859E+02  0.76091442859E+02  0.00000000000E+00 0. -1.
         25    2    1    2    0    0  0.26366850563E+01 -0.12991706931E+02  0.84228128324E+02  0.15130842212E+03  0.12499649773E+03 0.  0.
          2    1    1    2  501    0 -0.37171063872E+02  0.39557723267E+02 -0.24675522776E+02  0.59627031485E+02  0.00000000000E+00 0. -1.
          1    1    1    2  502    0  0.34534378816E+02 -0.26566016337E+02  0.11860294663E+04  0.11868295039E+04  0.00000000000E+00 0. -1.
         22    1    3    3    0    0 -0.47133385312E+02 -0.16512749834E+02  0.88092446874E+02  0.10126453532E+03  0.00000000000E+00 0. -1.
         22    1    3    3    0    0  0.49770070368E+02  0.35210429035E+01 -0.38643185504E+01  0.50043886794E+02  0.00000000000E+00 0. -1.
</event>
<event>
 7    1  0.7457412E-006  0.7405397E+02  0.7818608E-02  0.1516602E+00
          2   -1    0    0  502    0  0.00000000000E+00  0.00000000000E+00  0.99506069791E+03  0.99506069791E+03  0.00000000000E+00 0. -1.
          1   -1    0    0  501    0 -0.00000000000E+00 -0.00000000000E+00 -0.37956920762E+03  0.37956920762E+03  0.00000000000E+00 0. -1.
         25    2    1    2    0    0 -0.19821118879E+02  0.51650857429E+02  0.10190998688E+02  0.13707223859E+03  0.12499701721E+03 0.  0.
          2    1    1    2  501    0  0.84219651532E+00  0.20397821661E+02 -0.31429072865E+03  0.31495307991E+03  0.00000000000E+00 0. -1.
          1    1    1    2  502    0  0.18978922363E+02 -0.72048679091E+02  0.91959122025E+03  0.92260458704E+03  0.00000000000E+00 0. -1.
         22    1    3    3    0    0 -0.16434157960E+02 -0.23365203536E+02 -0.38228731134E+02  0.47722637902E+02  0.00000000000E+00 0.  1.
         22    1    3    3    0    0 -0.33869609186E+01  0.75016060965E+02  0.48419729822E+02  0.89349600688E+02  0.00000000000E+00 0.  1.
</event>
<event>
 7    1  0.7457412E-006  0.8137521E+02  0.7818608E-02  0.1391799E+00
          2   -1    0    0  502    0  0.00000000000E+00  0.00000000000E+00  0.21220811162E+04  0.21220811162E+04  0.00000000000E+00 0. -1.
          1   -1    0    0  501    0 -0.00000000000E+00 -0.00000000000E+00 -0.78799025491E+03  0.78799025491E+03  0.00000000000E+00 0. -1.
         25    2    1    2    0    0 -0.15738227949E+02 -0.11481621768E+03  0.12269018051E+04  0.12386858537E+04  0.12499659614E+03 0.  0.
          2    1    1    2  501    0 -0.14907016759E+02  0.79948182056E+02 -0.77937518343E+03  0.78360679394E+03  0.00000000000E+00 0. -1.
          1    1    1    2  502    0  0.30645244708E+02  0.34868035626E+02  0.88656423962E+03  0.88777872351E+03  0.00000000000E+00 0. -1.
         22    1    3    3    0    0 -0.27061265303E+02  0.20263769016E+02  0.30580593485E+03  0.30766898155E+03  0.00000000000E+00 0.  1.
         22    1    3    3    0    0  0.11323037354E+02 -0.13507998670E+03  0.92109587025E+03  0.93101687212E+03  0.00000000000E+00 0.  1.
</event>
<event>
 7    1  0.7457412E-006  0.6081589E+02  0.7818608E-02  0.1499569E+00
          2   -1    0    0  502    0  0.00000000000E+00  0.00000000000E+00  0.39045913038E+03  0.39045913038E+03  0.00000000000E+00 0. -1.
          1   -1    0    0  501    0 -0.00000000000E+00 -0.00000000000E+00 -0.31068591117E+03  0.31068591117E+03  0.00000000000E+00 0. -1.
         25    2    1    2    0    0 -0.66153638025E+02  0.46396131270E+02  0.14697308903E+02  0.14956846544E+03  0.12500324053E+03 0.  0.
          2    1    1    2  501    0  0.56536954342E+02 -0.20195494186E+02 -0.23889697577E+03  0.24632509052E+03  0.00000000000E+00 0. -1.
          1    1    1    2  502    0  0.96166836832E+01 -0.26200637084E+02  0.30397288607E+03  0.30525148559E+03  0.00000000000E+00 0. -1.
         22    1    3    3    0    0 -0.22959594032E+02  0.76633369417E+02  0.41825632017E+02  0.90272918198E+02  0.00000000000E+00 0.  1.
         22    1    3    3    0    0 -0.43194043993E+02 -0.30237238147E+02 -0.27128323114E+02  0.59295547237E+02  0.00000000000E+00 0.  1.
</event>
<event>
 7    1  0.7457412E-006  0.2697139E+03  0.7818608E-02  0.1298722E+00
          2   -1    0    0  502    0  0.00000000000E+00  0.00000000000E+00  0.93242750761E+03  0.93242750761E+03  0.00000000000E+00 0. -1.
          1   -1    0    0  501    0 -0.00000000000E+00 -0.00000000000E+00 -0.33379625878E+03  0.33379625878E+03  0.00000000000E+00 0. -1.
         25    2    1    2    0    0 -0.27979982351E+03  0.75560844512E+02  0.36440217267E+03  0.48209127787E+03  0.12500269711E+03 0.  0.
          2    1    1    2  501    0  0.25153851047E+03 -0.88769039873E+02 -0.20958051230E+03  0.33922788185E+03  0.00000000000E+00 0. -1.
          1    1    1    2  502    0  0.28261313046E+02  0.13208195362E+02  0.44380958845E+03  0.44490460668E+03  0.00000000000E+00 0. -1.
         22    1    3    3    0    0 -0.25640671444E+03  0.10564805137E+03  0.31459153686E+03  0.41937304280E+03  0.00000000000E+00 0.  1.
         22    1    3    3    0    0 -0.23393109079E+02 -0.30087206863E+02  0.49810635814E+02  0.62718235063E+02  0.00000000000E+00 0.  1.
</event>
<event>
 7    1  0.7457412E-006  0.6414737E+02  0.7818608E-02  0.1517866E+00
          2   -1    0    0  502    0  0.00000000000E+00  0.00000000000E+00  0.26068133471E+04  0.26068133471E+04  0.00000000000E+00 0. -1.
          1   -1    0    0  501    0 -0.00000000000E+00 -0.00000000000E+00 -0.24141201092E+02  0.24141201092E+02  0.00000000000E+00 0. -1.
         25    2    1    2    0    0 -0.75262747462E+02 -0.42055135088E+02  0.94818482423E+03  0.96026733492E+03  0.12500311226E+03 0.  0.
          2    1    1    2  501    0  0.54369731727E+02  0.31586533321E+02  0.36854889943E+02  0.72883878383E+02  0.00000000000E+00 0. -1.
          1    1    1    2  502    0  0.20893015735E+02  0.10468601767E+02  0.15976324318E+04  0.15978033349E+04  0.00000000000E+00 0. -1.
         22    1    3    3    0    0 -0.31278573036E+02 -0.46925833292E+02  0.85758715872E+03  0.85943942065E+03  0.00000000000E+00 0.  1.
         22    1    3    3    0    0 -0.43984174427E+02  0.48706982035E+01  0.90597665507E+02  0.10082791427E+03  0.00000000000E+00 0.  1.
</event>
<event>
 7    1  0.7457412E-006  0.1795522E+03  0.7818608E-02  0.1209165E+00
          2   -1    0    0  502    0  0.00000000000E+00  0.00000000000E+00  0.90091961058E+03  0.90091961058E+03  0.00000000000E+00 0. -1.
          1   -1    0    0  501    0 -0.00000000000E+00 -0.00000000000E+00 -0.12730302726E+04  0.12730302726E+04  0.00000000000E+00 0. -1.
         25    2    1    2    0    0 -0.28191646039E+03 -0.87233983815E+01  0.34197838186E+03  0.46057304952E+03  0.12500132788E+03 0.  0.
          2    1    1    2  501    0  0.17515320348E+03 -0.31564293179E+02 -0.12005709066E+04  0.12136908384E+04  0.00000000000E+00 0. -1.
          1    1    1    2  502    0  0.10676325691E+03  0.40287691561E+02  0.48648186274E+03  0.49968599530E+03  0.00000000000E+00 0. -1.
         22    1    3    3    0    0 -0.74223094403E+02 -0.58991819333E+02  0.10349043483E+03  0.14035445341E+03  0.00000000000E+00 0.  1.
         22    1    3    3    0    0 -0.20769336599E+03  0.50268420952E+02  0.23848794703E+03  0.32021859612E+03  0.00000000000E+00 0.  1.
</event>
<event>
 7    1  0.7457412E-006  0.7602141E+02  0.7818608E-02  0.1417643E+00
          2   -1    0    0  502    0  0.00000000000E+00  0.00000000000E+00  0.82491623404E+03  0.82491623404E+03  0.00000000000E+00 0. -1.
          1   -1    0    0  501    0 -0.00000000000E+00 -0.00000000000E+00 -0.21596563940E+03  0.21596563940E+03  0.00000000000E+00 0. -1.
         25    2    1    2    0    0  0.86929234076E+01 -0.40527541335E+02  0.12088449741E+01  0.13169908704E+03  0.12500055879E+03 0.  0.
          2    1    1    2  501    0 -0.12085641328E+02  0.80936821046E+02 -0.13902168707E+03  0.16131912845E+03  0.00000000000E+00 0. -1.
          1    1    1    2  502    0  0.33927179208E+01 -0.40409279710E+02  0.74676343674E+03  0.74786365795E+03  0.00000000000E+00 0. -1.
         22    1    3    3    0    0  0.58114081364E+02 -0.19543222713E+02 -0.31395750747E+02  0.68883068832E+02  0.00000000000E+00 0. -1.
         22    1    3    3    0    0 -0.49421157957E+02 -0.20984318623E+02  0.32604595721E+02  0.62816018212E+02  0.00000000000E+00 0. -1.
</event>
<event>
 7    1  0.7457412E-006  0.1068894E+03  0.7818608E-02  0.1268746E+00
          2   -1    0    0  502    0  0.00000000000E+00  0.00000000000E+00  0.35433939023E+04  0.35433939023E+04  0.00000000000E+00 0. -1.
          1   -1    0    0  501    0 -0.00000000000E+00 -0.00000000000E+00 -0.35625780060E+03  0.35625780060E+03  0.00000000000E+00 0. -1.
         25    2    1    2    0    0 -0.22842912146E+02  0.48847411608E+02 -0.69864200548E+02  0.15305554321E+03  0.12504848872E+03 0.  0.
          2    1    1    2  501    0  0.12733943114E+03 -0.51241790806E+02 -0.22471035265E+03  0.26331690876E+03  0.00000000000E+00 0. -1.
          1    1    1    2  502    0 -0.10449651900E+03  0.23943791981E+01  0.34817106549E+04  0.34832792510E+04  0.00000000000E+00 0. -1.
         22    1    3    3    0    0 -0.56100097089E+02 -0.90100646954E+00 -0.74237404866E+02  0.93054956812E+02  0.00000000000E+00 0. -1.
         22    1    3    3    0    0  0.33257184943E+02  0.49748418077E+02  0.43732043177E+01  0.60000586394E+02  0.00000000000E+00 0. -1.
</event>
<event>
 7    1  0.7457412E-006  0.1271063E+03  0.7818608E-02  0.1317743E+00
          2   -1    0    0  502    0  0.00000000000E+00  0.00000000000E+00  0.13810774460E+03  0.13810774460E+03  0.00000000000E+00 0. -1.
          1   -1    0    0  501    0 -0.00000000000E+00 -0.00000000000E+00 -0.28216920421E+03  0.28216920421E+03  0.00000000000E+00 0. -1.
         25    2    1    2    0    0 -0.54080038098E+02 -0.10666235836E+03 -0.25110879444E+02  0.17480582313E+03  0.12500004129E+03 0.  0.
          2    1    1    2  501    0  0.10423703403E+03  0.82497479569E+02 -0.13300851123E+03  0.18804908258E+03  0.00000000000E+00 0. -1.
          1    1    1    2  502    0 -0.50156995932E+02  0.24164878791E+02  0.14057931064E+02  0.57422043099E+02  0.00000000000E+00 0. -1.
         22    1    3    3    0    0 -0.63334624536E+02 -0.37855732616E+02  0.36195820350E+02  0.82185573964E+02  0.00000000000E+00 0.  1.
         22    1    3    3    0    0  0.92545864376E+01 -0.68806625743E+02 -0.61306699794E+02  0.92620249168E+02  0.00000000000E+00 0.  1.
</event>
<event>
 7    1  0.7457412E-006  0.2054531E+03  0.7818608E-02  0.1331604E+00
          2   -1    0    0  502    0  0.00000000000E+00  0.00000000000E+00  0.98803935832E+03  0.98803935832E+03  0.00000000000E+00 0. -1.
          1   -1    0    0  501    0 -0.00000000000E+00 -0.00000000000E+00 -0.10616927292E+04  0.10616927292E+04  0.00000000000E+00 0. -1.
         25    2    1    2    0    0 -0.16099092185E+03  0.16021681941E+03  0.59722595527E+03  0.65107126840E+03  0.12500979463E+03 0.  0.
          2    1    1    2  501    0  0.13060077053E+03 -0.15816603280E+03 -0.10239430731E+04  0.10442856276E+04  0.00000000000E+00 0. -1.
          1    1    1    2  502    0  0.30390151324E+02 -0.20507866139E+01  0.35306374687E+03  0.35437519154E+03  0.00000000000E+00 0. -1.
         22    1    3    3    0    0 -0.48811016079E+02  0.93095509917E+02  0.40631326761E+03  0.41969007695E+03  0.00000000000E+00 0.  1.
         22    1    3    3    0    0 -0.11217990578E+03  0.67121309496E+02  0.19091268766E+03  0.23138119145E+03  0.00000000000E+00 0.  1.
</event>
<event>
 7    1  0.7457412E-006  0.9296018E+02  0.7818608E-02  0.1356705E+00
          2   -1    0    0  502    0  0.00000000000E+00  0.00000000000E+00  0.53684459342E+03  0.53684459342E+03  0.00000000000E+00 0. -1.
          1   -1    0    0  501    0 -0.00000000000E+00 -0.00000000000E+00 -0.14705573170E+04  0.14705573170E+04  0.00000000000E+00 0. -1.
         25    2    1    2    0    0 -0.48056513673E+02  0.24574466079E+02 -0.21254162882E+03  0.25241294463E+03  0.12500007100E+03 0.  0.
          2    1    1    2  501    0  0.97185475883E+02 -0.15963932109E+01 -0.12347421360E+04  0.12385619514E+04  0.00000000000E+00 0. -1.
          1    1    1    2  502    0 -0.49128962211E+02 -0.22978072868E+02  0.51357104122E+03  0.51642701434E+03  0.00000000000E+00 0. -1.
         22    1    3    3    0    0 -0.42532880754E+02 -0.39516490612E+02 -0.46622354333E+02  0.74459672972E+02  0.00000000000E+00 0.  1.
         22    1    3    3    0    0 -0.55236329185E+01  0.64090956691E+02 -0.16591927448E+03  0.17795327166E+03  0.00000000000E+00 0.  1.
</event>
<event>
 7    1  0.7457412E-006  0.5190134E+02  0.7818608E-02  0.1528089E+00
          2   -1    0    0  502    0  0.00000000000E+00  0.00000000000E+00  0.77896146591E+03  0.77896146591E+03  0.00000000000E+00 0. -1.
          1   -1    0    0  501    0 -0.00000000000E+00 -0.00000000000E+00 -0.16065367249E+04  0.16065367249E+04  0.00000000000E+00 0. -1.
         25    2    1    2    0    0  0.75454029009E+02  0.21215695075E+02  0.50397790449E+02  0.15591117320E+03  0.12499976174E+03 0.  0.
          2    1    1    2  501    0 -0.26146549433E+02 -0.66614103428E+01 -0.15526849135E+04  0.15529193337E+04  0.00000000000E+00 0. -1.
          1    1    1    2  502    0 -0.49307479577E+02 -0.14554284732E+02  0.67471186412E+03  0.67666768382E+03  0.00000000000E+00 0. -1.
         22    1    3    3    0    0 -0.25028892847E+02 -0.18150553000E+02  0.35325942936E+02  0.46944757915E+02  0.00000000000E+00 0. -1.
         22    1    3    3    0    0  0.10048292186E+03  0.39366248074E+02  0.15071847514E+02  0.10896641528E+03  0.00000000000E+00 0. -1.
</event>
<event>
 7    1  0.7457412E-006  0.1044995E+03  0.7818608E-02  0.1292863E+00
          2   -1    0    0  502    0  0.00000000000E+00  0.00000000000E+00  0.35384433666E+04  0.35384433666E+04  0.00000000000E+00 0. -1.
          1   -1    0    0  501    0 -0.00000000000E+00 -0.00000000000E+00 -0.38121669087E+03  0.38121669087E+03  0.00000000000E+00 0. -1.
         25    2    1    2    0    0  0.14322932953E+03  0.98243035606E+02  0.38302431553E+03  0.43874666521E+03  0.12499870027E+03 0.  0.
          2    1    1    2  501    0 -0.10040331401E+03 -0.24803082714E+02 -0.34519650034E+03  0.36035627125E+03  0.00000000000E+00 0. -1.
          1    1    1    2  502    0 -0.42826015517E+02 -0.73439952893E+02  0.31193988606E+04  0.31205571210E+04  0.00000000000E+00 0. -1.
         22    1    3    3    0    0  0.12927955979E+03  0.57238969780E+02  0.36573440794E+03  0.39211115949E+03  0.00000000000E+00 0.  1.
         22    1    3    3    0    0  0.13949769735E+02  0.41004065826E+02  0.17289907583E+02  0.46635505724E+02  0.00000000000E+00 0.  1.
</event>
<event>
 7    1  0.7457412E-006  0.1417449E+03  0.7818608E-02  0.1250409E+00
          2   -1    0    0  502    0  0.00000000000E+00  0.00000000000E+00  0.60280257696E+03  0.60280257696E+03  0.00000000000E+00 0. -1.
          1   -1    0    0  501    0 -0.00000000000E+00 -0.00000000000E+00 -0.25196190369E+04  0.25196190369E+04  0.00000000000E+00 0. -1.
         25    2    1    2    0    0 -0.16492426792E+03  0.14248055378E+03 -0.99535460108E+03  0.10265755949E+04  0.12500379092E+03 0.  0.
          2    1    1    2  501    0  0.91881913562E+02 -0.21649587222E+02 -0.14986598393E+04  0.15016298827E+04  0.00000000000E+00 0. -1.
          1    1    1    2  502    0  0.73042354360E+02 -0.12083096655E+03  0.57719798044E+03  0.59421613630E+03  0.00000000000E+00 0. -1.
         22    1    3    3    0    0  0.36650470954E+01 -0.17267696734E+02 -0.10244074444E+03  0.10395052690E+03  0.00000000000E+00 0.  1.
         22    1    3    3    0    0 -0.16858931502E+03  0.15974825051E+03 -0.89291385664E+03  0.92262506798E+03  0.00000000000E+00 0.  1.
</event>
<event>
 7    1  0.7457412E-006  0.8216288E+02  0.7818608E-02  0.1361786E+00
          2   -1    0    0  502    0  0.00000000000E+00  0.00000000000E+00  0.87129526310E+02  0.87129526310E+02  0.00000000000E+00 0. -1.
          1   -1    0    0  501    0 -0.00000000000E+00 -0.00000000000E+00 -0.78565992246E+03  0.78565992246E+03  0.00000000000E+00 0. -1.
         25    2    1    2    0    0  0.30223058967E+02 -0.91390298670E+01 -0.15381445522E+03  0.20070024618E+03  0.12499898808E+03 0.  0.
          2    1    1    2  501    0 -0.89018695642E+02  0.94227930373E+01 -0.59070138131E+03  0.59744559509E+03  0.00000000000E+00 0. -1.
          1    1    1    2  502    0  0.58795636675E+02 -0.28376317023E+00  0.45985440386E+02  0.74643607503E+02  0.00000000000E+00 0. -1.
         22    1    3    3    0    0  0.52214967486E+02 -0.52313627532E+02 -0.60343601543E+02  0.95417339631E+02  0.00000000000E+00 0.  1.
         22    1    3    3    0    0 -0.21991908519E+02  0.43174597665E+02 -0.93470853679E+02  0.10528290655E+03  0.00000000000E+00 0.  1.
</event>
<event>
 7    1  0.7457412E-006  0.1535787E+03  0.7818608E-02  0.1327884E+00
          2   -1    0    0  502    0  0.00000000000E+00  0.00000000000E+00  0.28523989299E+04  0.28523989299E+04  0.00000000000E+00 0. -1.
          1   -1    0    0  501    0 -0.00000000000E+00 -0.00000000000E+00 -0.18925061405E+03  0.18925061405E+03  0.00000000000E+00 0. -1.
         25    2    1    2    0    0 -0.12120953977E+03 -0.39867648752E+02  0.19008666739E+03  0.26084427563E+03  0.12500245221E+03 0.  0.
          2    1    1    2  501    0  0.15759792586E+03  0.18687394761E+02 -0.11273384985E+03  0.19466701276E+03  0.00000000000E+00 0. -1.
          1    1    1    2  502    0 -0.36388386086E+02  0.21180253992E+02  0.25857954984E+04  0.25861382556E+04  0.00000000000E+00 0. -1.
         22    1    3    3    0    0 -0.93103469999E+01 -0.59701418501E+02  0.95394693547E+02  0.11292072214E+03  0.00000000000E+00 0. -1.
         22    1    3    3    0    0 -0.11189919277E+03  0.19833769748E+02  0.94691973846E+02  0.14792355349E+03  0.00000000000E+00 0. -1.
</event>
<event>
 7    1  0.7457412E-006  0.6276220E+02  0.7818608E-02  0.1447647E+00
          2   -1    0    0  502    0  0.00000000000E+00  0.00000000000E+00  0.11155792302E+04  0.11155792302E+04  0.00000000000E+00 0. -1.
          1   -1    0    0  501    0 -0.00000000000E+00 -0.00000000000E+00 -0.11676697462E+03  0.11676697462E+03  0.00000000000E+00 0. -1.
         25    2    1    2    0    0  0.88046334892E+02 -0.21455142471E+02 -0.49640302364E+01  0.15447126568E+03  0.12499700036E+03 0.  0.
          2    1    1    2  501    0 -0.49123769075E+02  0.25750304160E+02 -0.15703061441E+02  0.57643811386E+02  0.00000000000E+00 0. -1.
          1    1    1    2  502    0 -0.38922565817E+02 -0.42951616890E+01  0.10194793473E+04  0.10202311278E+04  0.00000000000E+00 0. -1.
         22    1    3    3    0    0  0.75161340223E+02  0.38563270051E+02 -0.27863007828E+02  0.88953358938E+02  0.00000000000E+00 0.  1.
         22    1    3    3    0    0  0.12884994668E+02 -0.60018412522E+02  0.22898977592E+02  0.65517906743E+02  0.00000000000E+00 0.  1.
</event>
<event>
 7    1  0.7457412E-006  0.9294770E+02  0.7818608E-02  0.1391739E+00
          2   -1    0    0  502    0  0.00000000000E+00  0.00000000000E+00  0.96695939660E+03  0.96695939660E+03  0.00000000000E+00 0. -1.
          1   -1    0    0  501    0 -0.00000000000E+00 -0.00000000000E+00 -0.17385543759E+04  0.17385543759E+04  0.00000000000E+00 0. -1.
         25    2    1    2    0    0 -0.57107781871E+02  0.37050288575E+02  0.42879164059E+03  0.45179892902E+03  0.12500391427E+03 0.  0.
          2    1    1    2  501    0  0.51695959094E+02 -0.77349196538E+02 -0.17250105831E+04  0.17275175490E+04  0.00000000000E+00 0. -1.
          1    1    1    2  502    0  0.54118227778E+01  0.40298907963E+02  0.52462396326E+03  0.52619729441E+03  0.00000000000E+00 0. -1.
         22    1    3    3    0    0 -0.30250646106E+02  0.78051143727E+02  0.34228091135E+03  0.35236813832E+03  0.00000000000E+00 0. -1.
         22    1    3    3    0    0 -0.26857135765E+02 -0.41000855151E+02  0.86510729243E+02  0.99430790698E+02  0.00000000000E+00 0. -1.
</event>
<event>
 7    1  0.1018792E-005  0.6718237E+02  0.7818608E-02  0.1387286E+00
          2   -1    0    0  502    0  0.00000000000E+00  0.00000000000E+00  0.59191544744E+03  0.59191544744E+03  0.00000000000E+00 0. -1.
          1   -1    0    0  501    0 -0.00000000000E+00 -0.00000000000E+00 -0.12918134220E+04  0.12918134220E+04  0.00000000000E+00 0. -1.
         25    2    1    2    0    0 -0.61053863952E+02 -0.70751915399E+02 -0.38496622138E+03  0.41540021949E+03  0.12499977167E+03 0.  0.
          2    1    1    2  501    0 -0.48953604280E+01  0.58099831241E+02 -0.88871685121E+03  0.89062741737E+03  0.00000000000E+00 0. -1.
          1    1    1    2  502    0  0.65949224380E+02  0.12652084159E+02  0.57378509801E+03  0.57770123259E+03  0.00000000000E+00 0. -1.
         22    1    3    3    0    0 -0.24988957397E+01 -0.45273857238E+02 -0.29161864699E+02  0.53910861446E+02  0.00000000000E+00 0.  1.
         22    1    3    3    0    0 -0.58554968213E+02 -0.25478058161E+02 -0.35580435668E+03  0.36148935805E+03  0.00000000000E+00 0.  1.
</event>
<event>
 7    1  0.7457412E-006  0.9267248E+02  0.7818608E-02  0.1342080E+00
          2   -1    0    0  502    0  0.00000000000E+00  0.00000000000E+00  0.10106345334E+03  0.10106345334E+03  0.00000000000E+00 0. -1.
          1   -1    0    0  501    0 -0.00000000000E+00 -0.00000000000E+00 -0.21171583282E+04  0.21171583282E+04  0.00000000000E+00 0. -1.
         25    2    1    2    0    0  0.38212501990E+02 -0.22637517672E+02 -0.30203418187E+03  0.32987664172E+03  0.12498519601E+03 0.  0.
          2    1    1    2  501    0  0.12527313252E+02 -0.60356022847E+02 -0.17733529552E+04  0.17744239874E+04  0.00000000000E+00 0. -1.
          1    1    1    2  502    0 -0.50739815242E+02  0.82993540518E+02  0.59292262241E+02  0.11392115247E+03  0.00000000000E+00 0. -1.
         22    1    3    3    0    0 -0.21476079485E+02 -0.48938064607E+02 -0.21241074578E+03  0.21903077656E+03  0.00000000000E+00 0.  1.
         22    1    3    3    0    0  0.59688581474E+02  0.26300546935E+02 -0.89623436090E+02  0.11084586516E+03  0.00000000000E+00 0.  1.
</event>
<event>
 7    1  0.7457412E-006  0.2212921E+03  0.7818608E-02  0.1210997E+00
          2   -1    0    0  502    0  0.00000000000E+00  0.00000000000E+00  0.78311844310E+03  0.78311844310E+03  0.00000000000E+00 0. -1.
          1   -1    0    0  501    0 -0.00000000000E+00 -0.00000000000E+00 -0.57559577825E+03  0.57559577825E+03  0.00000000000E+00 0. -1.
         25    2    1    2    0    0  0.21896553488E+03 -0.15798047317E+03  0.26911167849E+03  0.40117934775E+03  0.12498015122E+03 0.  0.
          2    1    1    2  501    0 -0.12995307540E+03  0.17588338433E+03 -0.48101601324E+03  0.52839300874E+03  0.00000000000E+00 0. -1.
          1    1    1    2  502    0 -0.89012459482E+02 -0.17902911165E+02  0.41942699961E+03  0.42914186486E+03  0.00000000000E+00 0. -1.
         22    1    3    3    0    0  0.89279045595E+02 -0.95657455809E+02  0.52180840155E+02  0.14086850930E+03  0.00000000000E+00 0. -1.
         22    1    3    3    0    0  0.12968648928E+03 -0.62323017359E+02  0.21693083833E+03  0.26031083845E+03  0.00000000000E+00 0. -1.
</event>
<event>
 7    1  0.7457412E-006  0.2076581E+03  0.7818608E-02  0.1307321E+00
          2   -1    0    0  502    0  0.00000000000E+00  0.00000000000E+00  0.69889468896E+03  0.69889468896E+03  0.00000000000E+00 0. -1.
          1   -1    0    0  501    0 -0.00000000000E+00 -0.00000000000E+00 -0.15235943540E+03  0.15235943540E+03  0.00000000000E+00 0. -1.
         25    2    1    2    0    0 -0.14843358223E+03  0.10087540874E+03  0.33078980467E+03  0.39655435720E+03  0.12500034765E+03 0.  0.
          2    1    1    2  501    0  0.18445182226E+03 -0.11111114606E+03 -0.19758821586E+02  0.21623730609E+03  0.00000000000E+00 0. -1.
          1    1    1    2  502    0 -0.36018240024E+02  0.10235737318E+02  0.23550427048E+03  0.23846246108E+03  0.00000000000E+00 0. -1.
         22    1    3    3    0    0 -0.38713579592E+02  0.76167117194E+02  0.23064632431E+03  0.24596320437E+03  0.00000000000E+00 0.  1.
         22    1    3    3    0    0 -0.10972000264E+03  0.24708291548E+02  0.10014348037E+03  0.15059115283E+03  0.00000000000E+00 0.  1.
</event>
<event>
 7    1  0.7457412E-006  0.5931562E+03  0.7818608E-02  0.1098666E+00
          2   -1    0    0  502    0  0.00000000000E+00  0.00000000000E+00  0.24726031631E+04  0.24726031631E+04  0.00000000000E+00 0. -1.
          1   -1    0    0  501    0 -0.00000000000E+00 -0.00000000000E+00 -0.16231121675E+04  0.16231121675E+04  0.00000000000E+00 0. -1.
         25    2    1    2    0    0  0.37101870987E+03  0.39748302099E+03  0.11395744348E+04  0.12688187657E+04  0.12499413056E+03 0.  0.
          2    1    1    2  501    0 -0.31002119572E+03 -0.50903577176E+03 -0.14980483977E+04  0.16122591481E+04  0.00000000000E+00 0. -1.
          1    1    1    2  502    0 -0.60997514148E+02  0.11155275077E+03  0.12079649586E+04  0.12146374167E+04  0.00000000000E+00 0. -1.
         22    1    3    3    0    0  0.36132339341E+03  0.34264893838E+03  0.10657851785E+04  0.11763761883E+04  0.00000000000E+00 0. -1.
         22    1    3    3    0    0  0.96953164644E+01  0.54834082608E+02  0.73789256296E+02  0.92442577427E+02  0.00000000000E+00 0. -1.
</event>
<event>
 7    1  0.7457412E-006  0.1499609E+03  0.7818608E-02  0.1357299E+00
          2   -1    0    0  502    0  0.00000000000E+00  0.00000000000E+00  0.11810992580E+04  0.11810992580E+04  0.00000000000E+00 0. -1.
          1   -1    0    0  501    0 -0.00000000000E+00 -0.00000000000E+00 -0.67107879572E+03  0.67107879572E+03  0.00000000000E+00 0. -1.
         25    2    1    2    0    0 -0.23387245702E+02 -0.14985080263E+03 -0.94986198269E+01  0.19677034079E+03  0.12500446762E+03 0.  0.
          2    1    1    2  501    0 -0.10065677285E+02  0.14979898804E+03 -0.55775792236E+03  0.57761142184E+03  0.00000000000E+00 0. -1.
          1    1    1    2  502    0  0.33452922987E+02  0.51814583159E-01  0.10772770044E+04  0.10777962911E+04  0.00000000000E+00 0. -1.
         22    1    3    3    0    0 -0.21395288277E+02 -0.25010734908E+02 -0.54821374668E+02  0.63942773959E+02  0.00000000000E+00 0.  1.
         22    1    3    3    0    0 -0.19919574250E+01 -0.12484006772E+03  0.45322754841E+02  0.13282756683E+03  0.00000000000E+00 0.  1.
</event>
<event>
 7    1  0.7457412E-006  0.9970711E+02  0.7818608E-02  0.1290846E+00
          2   -1    0    0  502    0  0.00000000000E+00  0.00000000000E+00  0.10188262404E+04  0.10188262404E+04  0.00000000000E+00 0. -1.
          1   -1    0    0  501    0 -0.00000000000E+00 -0.00000000000E+00 -0.24411399092E+03  0.24411399092E+03  0.00000000000E+00 0. -1.
         25    2    1    2    0    0  0.82794066594E+02  0.14391386514E+03  0.17743361418E+03  0.27325858935E+03  0.12498604390E+03 0.  0.
          2    1    1    2  501    0 -0.77389732476E+02 -0.47482425462E+02 -0.18255629210E+03  0.20388857547E+03  0.00000000000E+00 0. -1.
          1    1    1    2  502    0 -0.54043341182E+01 -0.96431439676E+02  0.77983492738E+03  0.78579306649E+03  0.00000000000E+00 0. -1.
         22    1    3    3    0    0 -0.17900277063E+02 -0.12055760762E+02  0.25159805686E+02  0.33147806996E+02  0.00000000000E+00 0. -1.
         22    1    3    3    0    0  0.10069434366E+03  0.15596962590E+03  0.15227380849E+03  0.24011078235E+03  0.00000000000E+00 0. -1.
</event>
<event>
 7    1  0.7457412E-006  0.1032768E+03  0.7818608E-02  0.1336750E+00
          2   -1    0    0  502    0  0.00000000000E+00  0.00000000000E+00  0.18907491970E+04  0.18907491970E+04  0.00000000000E+00 0. -1.
          1   -1    0    0  501    0 -0.00000000000E+00 -0.00000000000E+00 -0.28413398167E+03  0.28413398167E+03  0.00000000000E+00 0. -1.
         25    2    1    2    0    0  0.51376840276E+02 -0.35372651452E+02  0.48816004161E+03  0.50776018773E+03  0.12501751013E+03 0.  0.
          2    1    1    2  501    0  0.17053821869E+02 -0.55362061658E+02 -0.26892622803E+03  0.27509472339E+03  0.00000000000E+00 0. -1.
          1    1    1    2  502    0 -0.68430662146E+02  0.90734713110E+02  0.13873814018E+04  0.13920282675E+04  0.00000000000E+00 0. -1.
         22    1    3    3    0    0  0.11150775972E+02 -0.17315116628E+02  0.32503257596E+01  0.20849884560E+02  0.00000000000E+00 0.  1.
         22    1    3    3    0    0  0.40226064304E+02 -0.18057534824E+02  0.48490971585E+03  0.48691030317E+03  0.00000000000E+00 0.  1.
</event>
<event>
 7    1  0.7457412E-006  0.9349886E+02  0.7818608E-02  0.1306419E+00
          2   -1    0    0  502    0  0.00000000000E+00  0.00000000000E+00  0.84885855037E+03  0.84885855037E+03  0.00000000000E+00 0. -1.
          1   -1    0    0  501    0 -0.00000000000E+00 -0.00000000000E+00 -0.28220166381E+04  0.28220166381E+04  0.00000000000E+00 0. -1.
         25    2    1    2    0    0 -0.69599875346E+02  0.13593566186E+03 -0.11145260419E+03  0.22665270270E+03  0.12500847109E+03 0.  0.
          2    1    1    2  501    0  0.71907344922E+02 -0.43128326925E+02 -0.26495754410E+04  0.26509018723E+04  0.00000000000E+00 0. -1.
          1    1    1    2  502    0 -0.23074695755E+01 -0.92807334932E+02  0.78786995750E+03  0.79332061348E+03  0.00000000000E+00 0. -1.
         22    1    3    3    0    0  0.69796064497E+01  0.10711027558E+03 -0.30585418754E+02  0.11161000798E+03  0.00000000000E+00 0.  1.
         22    1    3    3    0    0 -0.76579481796E+02  0.28825386276E+02 -0.80867185440E+02  0.11504269471E+03  0.00000000000E+00 0.  1.
</event>
<event>
 7    1  0.7457412E-006  0.1089435E+03  0.7818608E-02  0.1420587E+00
          2   -1    0    0  502    0  0.00000000000E+00  0.00000000000E+00  0.50286585337E+03  0.50286585337E+03  0.00000000000E+00 0. -1.
          1   -1    0    0  501    0 -0.00000000000E+00 -0.00000000000E+00 -0.87083123611E+03  0.87083123611E+03  0.00000000000E+00 0. -1.
         25    2    1    2    0    0  0.83409572985E+02 -0.45493493768E+02  0.33997644882E+02  0.16064289758E+03  0.12499394323E+03 0.  0.
          2    1    1    2  501    0 -0.10564994142E+03  0.29043780965E+02 -0.80331350587E+03  0.81075152794E+03  0.00000000000E+00 0. -1.
          1    1    1    2  502    0  0.22240368433E+02  0.16449712802E+02  0.40135047825E+03  0.40230266396E+03  0.00000000000E+00 0. -1.
         22    1    3    3    0    0  0.10241810576E+03 -0.71313239413E+02  0.24275212420E+02  0.12713902800E+03  0.00000000000E+00 0. -1.
         22    1    3    3    0    0 -0.19008532777E+02  0.25819745645E+02  0.97224324616E+01  0.33503869575E+02  0.00000000000E+00 0. -1.
</event>
<event>
 7    1  0.7457412E-006  0.2904488E+03  0.7818608E-02  0.1271710E+00
          2   -1    0    0  502    0  0.00000000000E+00  0.00000000000E+00  0.13449845963E+04  0.13449845963E+04  0.00000000000E+00 0. -1.
          1   -1    0    0  501    0 -0.00000000000E+00 -0.00000000000E+00 -0.78514445415E+03  0.78514445415E+03  0.00000000000E+00 0. -1.
         25    2    1    2    0    0 -0.10389065023E+03 -0.29258145309E+03  0.83822791896E+03  0.90257870171E+03  0.12500037910E+03 0.  0.
          2    1    1    2  501    0  0.12481676040E+03  0.26160761665E+03 -0.72426248979E+03  0.78011148106E+03  0.00000000000E+00 0. -1.
          1    1    1    2  502    0 -0.20926110170E+02  0.30973836431E+02  0.44587471295E+03  0.44743886765E+03  0.00000000000E+00 0. -1.
         22    1    3    3    0    0 -0.48714256116E+02 -0.30761553227E+02  0.24687020248E+03  0.25350394234E+03  0.00000000000E+00 0.  1.
         22    1    3    3    0    0 -0.55176394115E+02 -0.26181989986E+03  0.59135771647E+03  0.64907475938E+03  0.00000000000E+00 0.  1.
</event>
<event>
 7    1  0.7457412E-006  0.7960317E+02  0.7818608E-02  0.1365354E+00
          2   -1    0    0  502    0  0.00000000000E+00  0.00000000000E+00  0.20534394690E+03  0.20534394690E+03  0.00000000000E+00 0. -1.
          1   -1    0    0  501    0 -0.00000000000E+00 -0.00000000000E+00 -0.80417573469E+03  0.80417573469E+03  0.00000000000E+00 0. -1.
         25    2    1    2    0    0 -0.10832689070E+03 -0.45293876548E+02 -0.18675373537E+02  0.17251194819E+03  0.12500140875E+03 0.  0.
          2    1    1    2  501    0  0.78663261912E+02 -0.55954921458E+01 -0.69949354173E+03  0.70392501961E+03  0.00000000000E+00 0. -1.
          1    1    1    2  502    0  0.29663628789E+02  0.50889368694E+02  0.11933712747E+03  0.13308271380E+03  0.00000000000E+00 0. -1.
         22    1    3    3    0    0 -0.75300537633E+02  0.91763322067E+00  0.44568113822E+02  0.87506170001E+02  0.00000000000E+00 0. -1.
         22    1    3    3    0    0 -0.33026353068E+02 -0.46211509768E+02 -0.63243487359E+02  0.85005778188E+02  0.00000000000E+00 0. -1.
</event>
<event>
 7    1  0.7457412E-006  0.1164041E+03  0.7818608E-02  0.1386748E+00
          2   -1    0    0  502    0  0.00000000000E+00  0.00000000000E+00  0.47468951738E+03  0.47468951738E+03  0.00000000000E+00 0. -1.
          1   -1    0    0  501    0 -0.00000000000E+00 -0.00000000000E+00 -0.81657571238E+03  0.81657571238E+03  0.00000000000E+00 0. -1.
         25    2    1    2    0    0  0.30820842554E+02  0.10554133819E+03  0.13677788925E+03  0.21545723033E+03  0.12499891483E+03 0.  0.
          2    1    1    2  501    0 -0.63708225505E+02 -0.97751233196E+02 -0.77188087873E+03  0.78064981428E+03  0.00000000000E+00 0. -1.
          1    1    1    2  502    0  0.32887382952E+02 -0.77901049926E+01  0.29321679448E+03  0.29515818515E+03  0.00000000000E+00 0. -1.
         22    1    3    3    0    0  0.90737394319E+01  0.18816434576E+02  0.12327609244E+03  0.12503353920E+03  0.00000000000E+00 0. -1.
         22    1    3    3    0    0  0.21747103122E+02  0.86724903613E+02  0.13501796818E+02  0.90423691133E+02  0.00000000000E+00 0. -1.
</event>
<event>
 7    1  0.7457412E-006  0.3813385E+03  0.7818608E-02  0.1192685E+00
          2   -1    0    0  502    0  0.00000000000E+00  0.00000000000E+00  0.15508604191E+04  0.15508604191E+04  0.00000000000E+00 0. -1.
          1   -1    0    0  501    0 -0.00000000000E+00 -0.00000000000E+00 -0.38877978314E+03  0.38877978314E+03  0.00000000000E+00 0. -1.
         25    2    1    2    0    0 -0.30482010064E+03 -0.14136755513E+03  0.29684628972E+03  0.46544451395E+03  0.12498318465E+03 0.  0.
          2    1    1    2  501    0 -0.61296370038E+02 -0.19230073433E+02 -0.26638975933E+03  0.27402653992E+03  0.00000000000E+00 0. -1.
          1    1    1    2  502    0  0.36611647068E+03  0.16059762857E+03  0.11316241055E+04  0.12001691483E+04  0.00000000000E+00 0. -1.
         22    1    3    3    0    0 -0.28976821742E+03 -0.10774447621E+03  0.21759672210E+03  0.37805135293E+03  0.00000000000E+00 0.  1.
         22    1    3    3    0    0 -0.15051883216E+02 -0.33623078919E+02  0.79249567623E+02  0.87393161018E+02  0.00000000000E+00 0.  1.
</event>
<event>
 7    1  0.7457412E-006  0.2058377E+03  0.7818608E-02  0.1270893E+00
          2   -1    0    0  502    0  0.00000000000E+00  0.00000000000E+00  0.50924411680E+03  0.50924411680E+03  0.00000000000E+00 0. -1.
          1   -1    0    0  501    0 -0.00000000000E+00 -0.00000000000E+00 -0.38440189327E+03  0.38440189327E+03  0.00000000000E+00 0. -1.
         25    2    1    2    0    0  0.54209712341E+02 -0.24296263579E+03  0.14092002568E+03  0.31217146098E+03  0.12499212818E+03 0.  0.
          2    1    1    2  501    0 -0.26087407420E+02  0.19784685116E+03 -0.26229718021E+03  0.32958115857E+03  0.00000000000E+00 0. -1.
          1    1    1    2  502    0 -0.28122304921E+02  0.45115784635E+02  0.24621937806E+03  0.25189339052E+03  0.00000000000E+00 0. -1.
         22    1    3    3    0    0  0.90138764966E+02 -0.16681764956E+03  0.70116494020E+02  0.20216193481E+03  0.00000000000E+00 0. -1.
         22    1    3    3    0    0 -0.35929052626E+02 -0.76144986234E+02  0.70803531664E+02  0.11000952617E+03  0.00000000000E+00 0. -1.
</event>
<event>
 7    1  0.7457412E-006  0.7982991E+02  0.7818608E-02  0.1339138E+00
          2   -1    0    0  502    0  0.00000000000E+00  0.00000000000E+00  0.30862833924E+03  0.30862833924E+03  0.00000000000E+00 0. -1.
          1   -1    0    0  501    0 -0.00000000000E+00 -0.00000000000E+00 -0.12339189215E+04  0.12339189215E+04  0.00000000000E+00 0. -1.
         25    2    1    2    0    0  0.17491304878E+02 -0.61885120403E+01 -0.31075742711E+03  0.33546931192E+03  0.12500094924E+03 0.  0.
          2    1    1    2  501    0 -0.20738822455E+01 -0.73375049681E+02 -0.90374726371E+03  0.90672339529E+03  0.00000000000E+00 0. -1.
          1    1    1    2  502    0 -0.15417422633E+02  0.79563561721E+02  0.28921410853E+03  0.30035455356E+03  0.00000000000E+00 0. -1.
         22    1    3    3    0    0 -0.18537231520E+02 -0.33189913760E+02 -0.27595938543E+03  0.27856557887E+03  0.00000000000E+00 0. -1.
         22    1    3    3    0    0  0.36028536399E+02  0.27001401720E+02 -0.34798041682E+02  0.56903733047E+02  0.00000000000E+00 0. -1.
</event>
<event>
 7    1  0.7457412E-006  0.9727976E+02  0.7818608E-02  0.1345408E+00
          2   -1    0    0  502    0  0.00000000000E+00  0.00000000000E+00  0.40217476435E+03  0.40217476435E+03  0.00000000000E+00 0. -1.
          1   -1    0    0  501    0 -0.00000000000E+00 -0.00000000000E+00 -0.10898568959E+04  0.10898568959E+04  0.00000000000E+00 0. -1.
         25    2    1    2    0    0  0.95896176714E+02  0.17847272605E+02  0.10028736712E+02  0.15887344502E+03  0.12500237648E+03 0.  0.
          2    1    1    2  501    0 -0.51030122113E+01 -0.56834859004E+02 -0.10069248171E+04  0.10085404450E+04  0.00000000000E+00 0. -1.
          1    1    1    2  502    0 -0.90793164502E+02  0.38987586399E+02  0.30921394882E+03  0.32461777024E+03  0.00000000000E+00 0. -1.
         22    1    3    3    0    0  0.53381228564E+02  0.67776570812E+02  0.28301231221E+02  0.90797460332E+02  0.00000000000E+00 0. -1.
         22    1    3    3    0    0  0.42514948150E+02 -0.49929298208E+02 -0.18272494509E+02  0.68075984688E+02  0.00000000000E+00 0. -1.
</event>
<event>
 7    1  0.7457412E-006  0.7311968E+02  0.7818608E-02  0.1496942E+00
          2   -1    0    0  502    0  0.00000000000E+00  0.00000000000E+00  0.62005175850E+03  0.62005175850E+03  0.00000000000E+00 0. -1.
          1   -1    0    0  501    0 -0.00000000000E+00 -0.00000000000E+00 -0.22570988006E+04  0.22570988006E+04  0.00000000000E+00 0. -1.
         25    2    1    2    0    0 -0.57220027076E+01 -0.50681550413E+02 -0.64813681636E+01  0.13516279123E+03  0.12500244450E+03 0.  0.
          2    1    1    2  501    0 -0.10520177283E+01  0.73327429121E+02 -0.21854100420E+04  0.21866401328E+04  0.00000000000E+00 0. -1.
          1    1    1    2  502    0  0.67740204359E+01 -0.22645878707E+02  0.55484436800E+03  0.55534763516E+03  0.00000000000E+00 0. -1.
         22    1    3    3    0    0  0.49223555039E+02 -0.40251242668E+02 -0.34788706464E+02  0.72480169732E+02  0.00000000000E+00 0. -1.
         22    1    3    3    0    0 -0.54945557746E+02 -0.10430307745E+02  0.28307338301E+02  0.62682621494E+02  0.00000000000E+00 0. -1.
</event>
<event>
 7    1  0.7457412E-006  0.4921445E+02  0.7818608E-02  0.1477105E+00
          2   -1    0    0  502    0  0.00000000000E+00  0.00000000000E+00  0.21629091400E+04  0.21629091400E+04  0.00000000000E+00 0. -1.
          1   -1    0    0  501    0 -0.00000000000E+00 -0.00000000000E+00 -0.93879612703E+02  0.93879612703E+02  0.00000000000E+00 0. -1.
         25    2    1    2    0    0 -0.56962707283E+02 -0.34618454518E+02  0.87471719967E+03  0.88611411813E+03  0.12499945411E+03 0.  0.
          2    1    1    2  501    0  0.84193465403E+01  0.39458212221E+02 -0.83076021854E+02  0.92355082778E+02  0.00000000000E+00 0. -1.
          1    1    1    2  502    0  0.48543360743E+02 -0.48397577032E+01  0.12773883495E+04  0.12783195518E+04  0.00000000000E+00 0. -1.
         22    1    3    3    0    0 -0.46005762050E+02 -0.79477818672E+02  0.66928363315E+03  0.67555446516E+03  0.00000000000E+00 0.  1.
         22    1    3    3    0    0 -0.10956945234E+02  0.44859364154E+02  0.20543356653E+03  0.21055965297E+03  0.00000000000E+00 0.  1.
</event>
<event>
 7    1  0.7457412E-006  0.6722667E+02  0.7818608E-02  0.1457341E+00
          2   -1    0    0  502    0  0.00000000000E+00  0.00000000000E+00  0.25316376068E+03  0.25316376068E+03  0.00000000000E+00 0. -1.
          1   -1    0    0  501    0 -0.00000000000E+00 -0.00000000000E+00 -0.46754617720E+03  0.46754617720E+03  0.00000000000E+00 0. -1.
         25    2    1    2    0    0  0.75177608206E+01 -0.94388254660E+02 -0.55872205316E+02  0.16647213858E+03  0.12500244098E+03 0.  0.
          2    1    1    2  501    0 -0.17550102812E+02  0.29175241808E+02 -0.35002447143E+03  0.35167645847E+03  0.00000000000E+00 0. -1.
          1    1    1    2  502    0  0.10032341991E+02  0.65213012852E+02  0.19151426022E+03  0.20256134083E+03  0.00000000000E+00 0. -1.
         22    1    3    3    0    0  0.58903532258E+02 -0.29948657492E+02  0.14216006514E+01  0.66095152216E+02  0.00000000000E+00 0.  1.
         22    1    3    3    0    0 -0.51385771437E+02 -0.64439597168E+02 -0.57293805967E+02  0.10037698636E+03  0.00000000000E+00 0.  1.
</event>
<event>
 7    1  0.7457412E-006  0.5579808E+02  0.7818608E-02  0.1450459E+00
          2   -1    0    0  502    0  0.00000000000E+00  0.00000000000E+00  0.33353639166E+03  0.33353639166E+03  0.00000000000E+00 0. -1.
          1   -1    0    0  501    0 -0.00000000000E+00 -0.00000000000E+00 -0.17189494584E+04  0.17189494584E+04  0.00000000000E+00 0. -1.
         25    2    1    2    0    0 -0.81293755139E+02 -0.55332506668E+02 -0.15125973603E+03  0.21949026885E+03  0.12500443775E+03 0.  0.
          2    1    1    2  501    0  0.35138868699E+02  0.25029646800E+02 -0.15307225933E+04  0.15313304284E+04  0.00000000000E+00 0. -1.
          1    1    1    2  502    0  0.46154886440E+02  0.30302859868E+02  0.29656926263E+03  0.30166515277E+03  0.00000000000E+00 0. -1.
         22    1    3    3    0    0 -0.74983117582E+02 -0.93082634948E+02 -0.10217302658E+03  0.15724557931E+03  0.00000000000E+00 0. -1.
         22    1    3    3    0    0 -0.63106375572E+01  0.37750128280E+02 -0.49086709448E+02  0.62244689540E+02  0.00000000000E+00 0. -1.
</event>
<event>
 7    1  0.7457412E-006  0.7843247E+03  0.7818608E-02  0.1198138E+00
          2   -1    0    0  502    0  0.00000000000E+00  0.00000000000E+00  0.85942897113E+03  0.85942897113E+03  0.00000000000E+00 0. -1.
          1   -1    0    0  501    0 -0.00000000000E+00 -0.00000000000E+00 -0.14092853798E+04  0.14092853798E+04  0.00000000000E+00 0. -1.
         25    2    1    2    0    0 -0.78458808626E+03  0.12705499632E+03  0.19734765878E+03  0.82842754797E+03  0.12499866646E+03 0.  0.
          2    1    1    2  501    0  0.76691842584E+03 -0.15058350190E+03 -0.95294396079E+03  0.12324534293E+04  0.00000000000E+00 0. -1.
          1    1    1    2  502    0  0.17669660421E+02  0.23528505581E+02  0.20573989338E+03  0.20783337365E+03  0.00000000000E+00 0. -1.
         22    1    3    3    0    0 -0.50681286305E+03  0.29353798751E+02  0.15594779566E+03  0.53107498400E+03  0.00000000000E+00 0.  1.
         22    1    3    3    0    0 -0.27777522320E+03  0.97701197566E+02  0.41399863119E+02  0.29735256397E+03  0.00000000000E+00 0.  1.
</event>
<event>
 7    1  0.7457412E-006  0.2949011E+02  0.7818608E-02  0.1646685E+00
          2   -1    0    0  502    0  0.00000000000E+00  0.00000000000E+00  0.13986914371E+04  0.13986914371E+04  0.00000000000E+00 0. -1.
          1   -1    0    0  501    0 -0.00000000000E+00 -0.00000000000E+00 -0.28099921910E+03  0.28099921910E+03  0.00000000000E+00 0. -1.
         25    2    1    2    0    0  0.55709622583E+01  0.95716258869E+01  0.20138312406E+03  0.23727336049E+03  0.12498333210E+03 0.  0.
          2    1    1    2  501    0 -0.12369748313E+02  0.19353888004E+02 -0.26236510388E+03  0.26336862264E+03  0.00000000000E+00 0. -1.
          1    1    1    2  502    0  0.67987860550E+01 -0.28925513891E+02  0.11786741978E+04  0.11790486731E+04  0.00000000000E+00 0. -1.
         22    1    3    3    0    0  0.51373084950E+02  0.31331717326E+02  0.52036651786E+02  0.79553023179E+02  0.00000000000E+00 0.  1.
         22    1    3    3    0    0 -0.45802122692E+02 -0.21760091439E+02  0.14934647227E+03  0.15772033731E+03  0.00000000000E+00 0.  1.
</event>
<event>
 7    1  0.7457412E-006  0.2469876E+03  0.7818608E-02  0.1219408E+00
          2   -1    0    0  502    0  0.00000000000E+00  0.00000000000E+00  0.31452330545E+04  0.31452330545E+04  0.00000000000E+00 0. -1.
          1   -1    0    0  501    0 -0.00000000000E+00 -0.00000000000E+00 -0.69038326451E+03  0.69038326451E+03  0.00000000000E+00 0. -1.
         25    2    1    2    0    0  0.59063861916E+02 -0.25435345158E+03  0.14424206631E+03  0.32344269220E+03  0.12500073331E+03 0.  0.
          2    1    1    2  501    0  0.62867126669E+02  0.39826267830E+02 -0.59322533935E+03  0.59787516295E+03  0.00000000000E+00 0. -1.
          1    1    1    2  502    0 -0.12193098858E+03  0.21452718375E+03  0.29038330630E+04  0.29142984639E+04  0.00000000000E+00 0. -1.
         22    1    3    3    0    0  0.57653829249E+02 -0.95600989204E+02  0.41592311603E+01  0.11171755622E+03  0.00000000000E+00 0.  1.
         22    1    3    3    0    0  0.14100326669E+01 -0.15875246237E+03  0.14008283514E+03  0.21172513598E+03  0.00000000000E+00 0.  1.
</event>
<event>
 7    1  0.7457412E-006  0.1188018E+03  0.7818608E-02  0.1417641E+00
          2   -1    0    0  502    0  0.00000000000E+00  0.00000000000E+00  0.16460676109E+04  0.16460676109E+04  0.00000000000E+00 0. -1.
          1   -1    0    0  501    0 -0.00000000000E+00 -0.00000000000E+00 -0.40469292702E+02  0.40469292702E+02  0.00000000000E+00 0. -1.
         25    2    1    2    0    0 -0.97993491379E+02  0.98598422677E+02  0.59883419068E+03  0.62733548573E+03  0.12499220149E+03 0.  0.
          2    1    1    2  501    0  0.12405440113E+02 -0.22791955372E+02 -0.15723559817E+02  0.30341366274E+02  0.00000000000E+00 0. -1.
          1    1    1    2  502    0  0.85588051266E+02 -0.75806467305E+02  0.10224876874E+04  0.10288600516E+04  0.00000000000E+00 0. -1.
         22    1    3    3    0    0 -0.66200869586E+02 -0.10805353790E+02  0.15084636292E+03  0.16508766159E+03  0.00000000000E+00 0. -1.
         22    1    3    3    0    0 -0.31792621793E+02  0.10940377647E+03  0.44798782776E+03  0.46224782414E+03  0.00000000000E+00 0. -1.
</event>
<event>
 7    1  0.7457412E-006  0.5358794E+02  0.7818608E-02  0.1532819E+00
          2   -1    0    0  502    0  0.00000000000E+00  0.00000000000E+00  0.22718278735E+04  0.22718278735E+04  0.00000000000E+00 0. -1.
          1   -1    0    0  501    0 -0.00000000000E+00 -0.00000000000E+00 -0.37761316278E+02  0.37761316278E+02  0.00000000000E+00 0. -1.
         25    2    1    2    0    0 -0.12052736802E+02  0.64803536998E+02  0.11332334906E+04  0.11420089803E+04  0.12498639937E+03 0.  0.
          2    1    1    2  501    0  0.28272670114E+02 -0.45347501792E+02 -0.11744386010E+02  0.54714444134E+02  0.00000000000E+00 0. -1.
          1    1    1    2  502    0 -0.16219933311E+02 -0.19456035207E+02  0.11125774527E+04  0.11128657654E+04  0.00000000000E+00 0. -1.
         22    1    3    3    0    0 -0.47155186738E+02  0.80447179573E+02  0.96235962146E+03  0.96686679608E+03  0.00000000000E+00 0.  1.
         22    1    3    3    0    0  0.35102449936E+02 -0.15643642574E+02  0.17087386912E+03  0.17514218422E+03  0.00000000000E+00 0.  1.
</event>
<event>
 7    1  0.7457412E-006  0.1019086E+03  0.7818608E-02  0.1465037E+00
          2   -1    0    0  502    0  0.00000000000E+00  0.00000000000E+00  0.35517407104E+03  0.35517407104E+03  0.00000000000E+00 0. -1.
          1   -1    0    0  501    0 -0.00000000000E+00 -0.00000000000E+00 -0.43107013028E+03  0.43107013028E+03  0.00000000000E+00 0. -1.
         25    2    1    2    0    0 -0.91579933305E+02  0.17836888263E+02  0.18749429260E+00  0.15598377091E+03  0.12500345141E+03 0.  0.
          2    1    1    2  501    0  0.95315586213E+02 -0.38746554481E+02 -0.34525094425E+03  0.36025625736E+03  0.00000000000E+00 0. -1.
          1    1    1    2  502    0 -0.37356529080E+01  0.20909666217E+02  0.26916739072E+03  0.27000417306E+03  0.00000000000E+00 0. -1.
         22    1    3    3    0    0 -0.60448801564E+02 -0.51817424398E+02 -0.22490505787E+01  0.79650243630E+02  0.00000000000E+00 0.  1.
         22    1    3    3    0    0 -0.31131131741E+02  0.69654312661E+02  0.24365448713E+01  0.76333527278E+02  0.00000000000E+00 0.  1.
</event>
<event>
 7    1  0.7457412E-006  0.1483589E+03  0.7818608E-02  0.1213325E+00
          2   -1    0    0  502    0  0.00000000000E+00  0.00000000000E+00  0.14798173284E+04  0.14798173284E+04  0.00000000000E+00 0. -1.
          1   -1    0    0  501    0 -0.00000000000E+00 -0.00000000000E+00 -0.20116044501E+03  0.20116044501E+03  0.00000000000E+00 0. -1.
         25    2    1    2    0    0 -0.16931722923E+03  0.10838214864E+03  0.87297939486E+02  0.25231258658E+03  0.12500278738E+03 0.  0.
          2    1    1    2  501    0  0.14263064225E+03  0.21011883738E+02 -0.70098208189E+02  0.16030832218E+03  0.00000000000E+00 0. -1.
          1    1    1    2  502    0  0.26686586971E+02 -0.12939403238E+03  0.12614571521E+04  0.12683568646E+04  0.00000000000E+00 0. -1.
         22    1    3    3    0    0 -0.14914310107E+03  0.27341689063E+02  0.42158227267E+02  0.15738026777E+03  0.00000000000E+00 0.  1.
         22    1    3    3    0    0 -0.20174128153E+02  0.81040459580E+02  0.45139712219E+02  0.94932318811E+02  0.00000000000E+00 0.  1.
</event>
<event>
 7    1  0.7457412E-006  0.4915272E+02  0.7818608E-02  0.1465228E+00
          2   -1    0    0  502    0  0.00000000000E+00  0.00000000000E+00  0.10931654758E+03  0.10931654758E+03  0.00000000000E+00 0. -1.
          1   -1    0    0  501    0 -0.00000000000E+00 -0.00000000000E+00 -0.63169051745E+03  0.63169051745E+03  0.00000000000E+00 0. -1.
         25    2    1    2    0    0  0.36207885367E+02 -0.79709444170E+02 -0.76053181941E+02  0.17050290185E+03  0.12499018603E+03 0.  0.
          2    1    1    2  501    0 -0.70427200839E+01  0.43410539017E+02 -0.49857641258E+03  0.50051225158E+03  0.00000000000E+00 0. -1.
          1    1    1    2  502    0 -0.29165165283E+02  0.36298905153E+02  0.52255624648E+02  0.69991911594E+02  0.00000000000E+00 0. -1.
         22    1    3    3    0    0 -0.45979810997E+02 -0.28452241067E+02 -0.39549743190E+02  0.66991456376E+02  0.00000000000E+00 0. -1.
         22    1    3    3    0    0  0.82187696363E+02 -0.51257203103E+02 -0.36503438752E+02  0.10351144547E+03  0.00000000000E+00 0. -1.
</event>
<event>
 7    1  0.7457412E-006  0.1003546E+03  0.7818608E-02  0.1404865E+00
          2   -1    0    0  502    0  0.00000000000E+00  0.00000000000E+00  0.21714266212E+03  0.21714266212E+03  0.00000000000E+00 0. -1.
          1   -1    0    0  501    0 -0.00000000000E+00 -0.00000000000E+00 -0.16883354781E+04  0.16883354781E+04  0.00000000000E+00 0. -1.
         25    2    1    2    0    0 -0.77556659348E+02  0.50659242987E+02 -0.33701192143E+01  0.15561593130E+03  0.12499426411E+03 0.  0.
          2    1    1    2  501    0 -0.22487928191E+02 -0.25411874680E+02 -0.15897632735E+04  0.15901253837E+04  0.00000000000E+00 0. -1.
          1    1    1    2  502    0  0.10004458754E+03 -0.25247368307E+02  0.12194057666E+03  0.15973682524E+03  0.00000000000E+00 0. -1.
         22    1    3    3    0    0  0.29849336229E+02  0.29115658164E+02 -0.17386879039E+02  0.45177516381E+02  0.00000000000E+00 0. -1.
         22    1    3    3    0    0 -0.10740599558E+03  0.21543584823E+02  0.14016759824E+02  0.11043841491E+03  0.00000000000E+00 0. -1.
</event>
<event>
 7    1  0.7457412E-006  0.1838258E+03  0.7818608E-02  0.1231044E+00
          2   -1    0    0  502    0  0.00000000000E+00  0.00000000000E+00  0.59022298432E+03  0.59022298432E+03  0.00000000000E+00 0. -1.
          1   -1    0    0  501    0 -0.00000000000E+00 -0.00000000000E+00 -0.69493977647E+03  0.69493977647E+03  0.00000000000E+00 0. -1.
         25    2    1    2    0    0  0.89802987003E+02  0.23072393581E+03  0.28029959715E+03  0.39432410619E+03  0.12500210210E+03 0.  0.
          2    1    1    2  501    0 -0.16519811874E+02 -0.18095226489E+03 -0.61663909713E+03  0.64285332889E+03  0.00000000000E+00 0. -1.
          1    1    1    2  502    0 -0.73283175130E+02 -0.49771670919E+02  0.23162270783E+03  0.24798532571E+03  0.00000000000E+00 0. -1.
         22    1    3    3    0    0 -0.23965190701E+02  0.97746542572E+02  0.81768461605E+02  0.12967188694E+03  0.00000000000E+00 0. -1.
         22    1    3    3    0    0  0.11376817770E+03  0.13297739323E+03  0.19853113555E+03  0.26465221924E+03  0.00000000000E+00 0. -1.
</event>
<event>
 7    1  0.7457412E-006  0.6247350E+02  0.7818608E-02  0.1397057E+00
          2   -1    0    0  502    0  0.00000000000E+00  0.00000000000E+00  0.16476783093E+04  0.16476783093E+04  0.00000000000E+00 0. -1.
          1   -1    0    0  501    0 -0.00000000000E+00 -0.00000000000E+00 -0.37120500311E+03  0.37120500311E+03  0.00000000000E+00 0. -1.
         25    2    1    2    0    0 -0.32808430337E+01 -0.77715280709E+00 -0.84392331771E+02  0.15087098283E+03  0.12501447876E+03 0.  0.
          2    1    1    2  501    0  0.56923395692E+02 -0.31244946055E+02 -0.24880034355E+03  0.25713446012E+03  0.00000000000E+00 0. -1.
          1    1    1    2  502    0 -0.53642552659E+02  0.32022098862E+02  0.16096659815E+04  0.16108778695E+04  0.00000000000E+00 0. -1.
         22    1    3    3    0    0  0.82112252198E+01 -0.23610547769E+02 -0.11111420668E+03  0.11389139174E+03  0.00000000000E+00 0.  1.
         22    1    3    3    0    0 -0.11492068254E+02  0.22833394961E+02  0.26721874911E+02  0.36979591087E+02  0.00000000000E+00 0.  1.
</event>
<event>
 7    1  0.7457412E-006  0.1078162E+03  0.7818608E-02  0.1362527E+00
          2   -1    0    0  502    0  0.00000000000E+00  0.00000000000E+00  0.79828602444E+03  0.79828602444E+03  0.00000000000E+00 0. -1.
          1   -1    0    0  501    0 -0.00000000000E+00 -0.00000000000E+00 -0.75500858829E+03  0.75500858829E+03  0.00000000000E+00 0. -1.
         25    2    1    2    0    0 -0.20954764533E+02 -0.15024137737E+03 -0.21944429749E+03  0.29460677992E+03  0.12500312573E+03 0.  0.
          2    1    1    2  501    0  0.56042514800E+01  0.44175497230E+02 -0.49320033535E+03  0.49520647510E+03  0.00000000000E+00 0. -1.
          1    1    1    2  502    0  0.15350513053E+02  0.10606588014E+03  0.75592206900E+03  0.76348135771E+03  0.00000000000E+00 0. -1.
         22    1    3    3    0    0 -0.26789337826E+02 -0.72267363275E+02 -0.19955978262E+03  0.21392603221E+03  0.00000000000E+00 0.  1.
         22    1    3    3    0    0  0.58345732930E+01 -0.77974014095E+02 -0.19884514865E+02  0.80680747710E+02  0.00000000000E+00 0.  1.
</event>
<event>
 7    1  0.7457412E-006  0.9153515E+02  0.7818608E-02  0.1361139E+00
          2   -1    0    0  502    0  0.00000000000E+00  0.00000000000E+00  0.17467696700E+03  0.17467696700E+03  0.00000000000E+00 0. -1.
          1   -1    0    0  501    0 -0.00000000000E+00 -0.00000000000E+00 -0.60157772369E+03  0.60157772369E+03  0.00000000000E+00 0. -1.
         25    2    1    2    0    0 -0.43824287050E+02 -0.10442054409E+03 -0.28023458418E+03  0.32707891739E+03  0.12499991147E+03 0.  0.
          2    1    1    2  501    0 -0.65544663178E+01  0.87756936130E+02 -0.28644803921E+03  0.29966100854E+03  0.00000000000E+00 0. -1.
          1    1    1    2  502    0  0.50378753368E+02  0.16663607956E+02  0.13978186671E+03  0.14951476477E+03  0.00000000000E+00 0. -1.
         22    1    3    3    0    0 -0.70538597691E+02 -0.62580372479E+02 -0.25398429875E+03  0.27092438206E+03  0.00000000000E+00 0.  1.
         22    1    3    3    0    0  0.26714310641E+02 -0.41840171607E+02 -0.26250285439E+02  0.56154535335E+02  0.00000000000E+00 0.  1.
</event>
<event>
 7    1  0.7457412E-006  0.8581668E+02  0.7818608E-02  0.1335687E+00
          2   -1    0    0  502    0  0.00000000000E+00  0.00000000000E+00  0.28581884706E+04  0.28581884706E+04  0.00000000000E+00 0. -1.
          1   -1    0    0  501    0 -0.00000000000E+00 -0.00000000000E+00 -0.30157681841E+02  0.30157681841E+02  0.00000000000E+00 0. -1.
         25    2    1    2    0    0  0.17148518571E+02 -0.49431989415E+02  0.76796868316E+03  0.77983250272E+03  0.12500096289E+03 0.  0.
          2    1    1    2  501    0 -0.85560193648E+02  0.32972907074E+02  0.65439404684E+02  0.11265023313E+03  0.00000000000E+00 0. -1.
          1    1    1    2  502    0  0.68411675077E+02  0.16459082340E+02  0.19946227009E+04  0.19958634166E+04  0.00000000000E+00 0. -1.
         22    1    3    3    0    0  0.59061657641E+02 -0.63989908441E+02  0.59128456953E+03  0.59766247159E+03  0.00000000000E+00 0.  1.
         22    1    3    3    0    0 -0.41913139069E+02  0.14557919026E+02  0.17668411363E+03  0.18217003113E+03  0.00000000000E+00 0.  1.
</event>
<event>
 7    1  0.7457412E-006  0.1107403E+03  0.7818608E-02  0.1369546E+00
          2   -1    0    0  502    0  0.00000000000E+00  0.00000000000E+00  0.74182104783E+03  0.74182104783E+03  0.00000000000E+00 0. -1.
          1   -1    0    0  501    0 -0.00000000000E+00 -0.00000000000E+00 -0.62224518987E+03  0.62224518987E+03  0.00000000000E+00 0. -1.
         25    2    1    2    0    0 -0.10111164657E+03  0.66437856385E+02  0.32248316166E+03  0.36641257642E+03  0.12500093109E+03 0.  0.
          2    1    1    2  501    0  0.35380715723E+02  0.20502907661E+02 -0.59208837869E+03  0.59349878892E+03  0.00000000000E+00 0. -1.
          1    1    1    2  502    0  0.65730930849E+02 -0.86940764046E+02  0.38918107499E+03  0.40415487236E+03  0.00000000000E+00 0. -1.
         22    1    3    3    0    0 -0.94642305198E+02 -0.89808742824E+01  0.21362123324E+03  0.23382013029E+03  0.00000000000E+00 0. -1.
         22    1    3    3    0    0 -0.64693413738E+01  0.75418730668E+02  0.10886192842E+03  0.13259244613E+03  0.00000000000E+00 0. -1.
</event>
<event>
 7    1  0.7457412E-006  0.7533765E+02  0.7818608E-02  0.1365601E+00
          2   -1    0    0  502    0  0.00000000000E+00  0.00000000000E+00  0.31544423039E+04  0.31544423039E+04  0.00000000000E+00 0. -1.
          1   -1    0    0  501    0 -0.00000000000E+00 -0.00000000000E+00 -0.76912402952E+02  0.76912402952E+02  0.00000000000E+00 0. -1.
         25    2    1    2    0    0 -0.54917531836E+02  0.21403130456E+02  0.25040534715E+03  0.28601035703E+03  0.12500022862E+03 0.  0.
          2    1    1    2  501    0  0.23994234947E+02 -0.75269065842E+02 -0.32224764147E+02  0.85320519266E+02  0.00000000000E+00 0. -1.
          1    1    1    2  502    0  0.30923296889E+02  0.53865935386E+02  0.28593493180E+04  0.28600238306E+04  0.00000000000E+00 0. -1.
         22    1    3    3    0    0 -0.34642132088E+02  0.74039608608E+02  0.15192301878E+03  0.17251824424E+03  0.00000000000E+00 0.  1.
         22    1    3    3    0    0 -0.20275399748E+02 -0.52636478151E+02  0.98482328366E+02  0.11349211280E+03  0.00000000000E+00 0.  1.
</event>
<event>
 7    1  0.7457412E-006  0.5221682E+02  0.7818608E-02  0.1450467E+00
          2   -1    0    0  502    0  0.00000000000E+00  0.00000000000E+00  0.17383873218E+03  0.17383873218E+03  0.00000000000E+00 0. -1.
          1   -1    0    0  501    0 -0.00000000000E+00 -0.00000000000E+00 -0.37054576794E+03  0.37054576794E+03  0.00000000000E+00 0. -1.
         25    2    1    2    0    0 -0.25161098785E+02  0.45159427064E+02 -0.29495139932E+03  0.32448972872E+03  0.12499920536E+03 0.  0.
          2    1    1    2  501    0 -0.18506878289E+02 -0.59929054306E+02 -0.39849433432E+02  0.74309982094E+02  0.00000000000E+00 0. -1.
          1    1    1    2  502    0  0.43667977073E+02  0.14769627241E+02  0.13809379699E+03  0.14558478931E+03  0.00000000000E+00 0. -1.
         22    1    3    3    0    0 -0.55574277999E+02 -0.19854231190E+02 -0.17523657233E+03  0.18490686075E+03  0.00000000000E+00 0. -1.
         22    1    3    3    0    0  0.30413179214E+02  0.65013658255E+02 -0.11971482699E+03  0.13958286797E+03  0.00000000000E+00 0. -1.
</event>
<event>
 7    1  0.7457412E-006  0.7568241E+02  0.7818608E-02  0.1447286E+00
          2   -1    0    0  502    0  0.00000000000E+00  0.00000000000E+00  0.28605454696E+03  0.28605454696E+03  0.00000000000E+00 0. -1.
          1   -1    0    0  501    0 -0.00000000000E+00 -0.00000000000E+00 -0.17383809527E+04  0.17383809527E+04  0.00000000000E+00 0. -1.
         25    2    1    2    0    0  0.97416350038E+01 -0.71315636460E+02 -0.57360330535E+03  0.59146158045E+03  0.12500091912E+03 0.  0.
          2    1    1    2  501    0  0.22735661157E+02  0.73642000625E+02 -0.11536017859E+04  0.11561734883E+04  0.00000000000E+00 0. -1.
          1    1    1    2  502    0 -0.32477296161E+02 -0.23263641652E+01  0.27487868558E+03  0.27680043086E+03  0.00000000000E+00 0. -1.
         22    1    3    3    0    0  0.16060687154E+02 -0.77809695113E+02 -0.57649986486E+03  0.58194878513E+03  0.00000000000E+00 0. -1.
         22    1    3    3    0    0 -0.63190521498E+01  0.64940586526E+01  0.28965595097E+01  0.95127953225E+01  0.00000000000E+00 0. -1.
</event>
<event>
 7    1  0.7457412E-006  0.2515014E+03  0.7818608E-02  0.1254529E+00
          2   -1    0    0  502    0  0.00000000000E+00  0.00000000000E+00  0.46930144246E+03  0.46930144246E+03  0.00000000000E+00 0. -1.
          1   -1    0    0  501    0 -0.00000000000E+00 -0.00000000000E+00 -0.22464975046E+04  0.22464975046E+04  0.00000000000E+00 0. -1.
         25    2    1    2    0    0  0.42744266771E+02 -0.22557282735E+03 -0.19207697086E+03  0.32438975303E+03  0.12499990543E+03 0.  0.
          2    1    1    2  501    0 -0.92454751077E+02  0.23725877862E+03 -0.19784540784E+04  0.19947732075E+04  0.00000000000E+00 0. -1.
          1    1    1    2  502    0  0.49710484306E+02 -0.11685951269E+02  0.39333498713E+03  0.39663598653E+03  0.00000000000E+00 0. -1.
         22    1    3    3    0    0 -0.44482243811E+02 -0.75229174298E+02 -0.58347113570E+02  0.10508322579E+03  0.00000000000E+00 0.  1.
         22    1    3    3    0    0  0.87226510582E+02 -0.15034365305E+03 -0.13372985729E+03  0.21930652725E+03  0.00000000000E+00 0.  1.
</event>
<event>
 7    1  0.7457412E-006  0.3541690E+02  0.7818608E-02  0.1545968E+00
          2   -1    0    0  502    0  0.00000000000E+00  0.00000000000E+00  0.21507695765E+03  0.21507695765E+03  0.00000000000E+00 0. -1.
          1   -1    0    0  501    0 -0.00000000000E+00 -0.00000000000E+00 -0.51663001133E+03  0.51663001133E+03  0.00000000000E+00 0. -1.
         25    2    1    2    0    0  0.12184968659E+02 -0.39266209366E+02  0.12726630174E+03  0.18306402574E+03  0.12500166921E+03 0.  0.
          2    1    1    2  501    0  0.22770162656E+02  0.26816927868E+02 -0.48228304598E+03  0.48356443662E+03  0.00000000000E+00 0. -1.
          1    1    1    2  502    0 -0.34955131315E+02  0.12449281498E+02  0.53463690560E+02  0.65078506616E+02  0.00000000000E+00 0. -1.
         22    1    3    3    0    0  0.34364681792E+02 -0.21411170874E+02  0.14430783571E+03  0.14988035575E+03  0.00000000000E+00 0. -1.
         22    1    3    3    0    0 -0.22179713133E+02 -0.17855038492E+02 -0.17041533973E+02  0.33183669995E+02  0.00000000000E+00 0. -1.
</event>
<event>
 7    1  0.7457412E-006  0.5390126E+02  0.7818608E-02  0.1559429E+00
          2   -1    0    0  502    0  0.00000000000E+00  0.00000000000E+00  0.11478429756E+04  0.11478429756E+04  0.00000000000E+00 0. -1.
          1   -1    0    0  501    0 -0.00000000000E+00 -0.00000000000E+00 -0.62949868749E+02  0.62949868749E+02  0.00000000000E+00 0. -1.
         25    2    1    2    0    0 -0.13253939209E+02 -0.51233019720E+02  0.95195559619E+02  0.16581093492E+03  0.12502232742E+03 0.  0.
          2    1    1    2  501    0 -0.77350736919E+01  0.54269952098E+02 -0.23828427802E+00  0.54818936921E+02  0.00000000000E+00 0. -1.
          1    1    1    2  502    0  0.20989012901E+02 -0.30369323776E+01  0.98993583150E+03  0.99016297250E+03  0.00000000000E+00 0. -1.
         22    1    3    3    0    0  0.14968107298E+01 -0.18944897512E+01  0.11170636589E+03  0.11173245596E+03  0.00000000000E+00 0.  1.
         22    1    3    3    0    0 -0.14750749939E+02 -0.49338529969E+02 -0.16510806270E+02  0.54078478963E+02  0.00000000000E+00 0.  1.
</event>
<event>
 7    1  0.7457412E-006  0.2652247E+03  0.7818608E-02  0.1160725E+00
          2   -1    0    0  502    0  0.00000000000E+00  0.00000000000E+00  0.61194393731E+03  0.61194393731E+03  0.00000000000E+00 0. -1.
          1   -1    0    0  501    0 -0.00000000000E+00 -0.00000000000E+00 -0.24158203336E+03  0.24158203336E+03  0.00000000000E+00 0. -1.
         25    2    1    2    0    0  0.74325022540E+02  0.17531520905E+03  0.15463856914E+03  0.27531545119E+03  0.12500351635E+03 0.  0.
          2    1    1    2  501    0 -0.94787082859E+02 -0.30629550261E+03 -0.50800278352E+01  0.32066701215E+03  0.00000000000E+00 0. -1.
          1    1    1    2  502    0  0.20462060319E+02  0.13098029356E+03  0.22080336264E+03  0.25754350733E+03  0.00000000000E+00 0. -1.
         22    1    3    3    0    0  0.32604032324E+02  0.34265176662E+02 -0.16092115349E+02  0.49960798951E+02  0.00000000000E+00 0. -1.
         22    1    3    3    0    0  0.41720990216E+02  0.14105003239E+03  0.17073068449E+03  0.22535465224E+03  0.00000000000E+00 0. -1.
</event>
<event>
 7    1  0.7457412E-006  0.1475626E+03  0.7818608E-02  0.1290989E+00
          2   -1    0    0  502    0  0.00000000000E+00  0.00000000000E+00  0.21251383084E+04  0.21251383084E+04  0.00000000000E+00 0. -1.
          1   -1    0    0  501    0 -0.00000000000E+00 -0.00000000000E+00 -0.50876108134E+03  0.50876108134E+03  0.00000000000E+00 0. -1.
         25    2    1    2    0    0  0.64156817570E+02 -0.15791124783E+03  0.41863167524E+03  0.46896638724E+03  0.12499973368E+03 0.  0.
          2    1    1    2  501    0 -0.99918840336E+02  0.10816425507E+03 -0.47180934516E+03  0.49425432614E+03  0.00000000000E+00 0. -1.
          1    1    1    2  502    0  0.35762022766E+02  0.49746992766E+02  0.16695548970E+04  0.16706786763E+04  0.00000000000E+00 0. -1.
         22    1    3    3    0    0  0.95219662063E+02 -0.15050618563E+03  0.33411560570E+03  0.37861871840E+03  0.00000000000E+00 0.  1.
         22    1    3    3    0    0 -0.31062844493E+02 -0.74050622069E+01  0.84516069541E+02  0.90347668841E+02  0.00000000000E+00 0.  1.
</event>
<event>
 7    1  0.7457412E-006  0.1133690E+03  0.7818608E-02  0.1275283E+00
          2   -1    0    0  502    0  0.00000000000E+00  0.00000000000E+00  0.14805606233E+04  0.14805606233E+04  0.00000000000E+00 0. -1.
          1   -1    0    0  501    0 -0.00000000000E+00 -0.00000000000E+00 -0.36057498014E+03  0.36057498014E+03  0.00000000000E+00 0. -1.
         25    2    1    2    0    0 -0.76806583978E+02 -0.72057742522E+02 -0.32172960891E+02  0.16658874932E+03  0.12500056955E+03 0.  0.
          2    1    1    2  501    0  0.12094818066E+03 -0.92672048348E+01 -0.24549756592E+03  0.27383096677E+03  0.00000000000E+00 0. -1.
          1    1    1    2  502    0 -0.44141596684E+02  0.81324947357E+02  0.13976561700E+04  0.14007158874E+04  0.00000000000E+00 0. -1.
         22    1    3    3    0    0  0.22697149561E+02 -0.54645560121E+02  0.39625670861E+01  0.59304298133E+02  0.00000000000E+00 0. -1.
         22    1    3    3    0    0 -0.99503733540E+02 -0.17412182401E+02 -0.36135527977E+02  0.10728445119E+03  0.00000000000E+00 0. -1.
</event>
<event>
 7    1  0.7457412E-006  0.7555584E+02  0.7818608E-02  0.1353774E+00
          2   -1    0    0  502    0  0.00000000000E+00  0.00000000000E+00  0.56881152364E+03  0.56881152364E+03  0.00000000000E+00 0. -1.
          1   -1    0    0  501    0 -0.00000000000E+00 -0.00000000000E+00 -0.16923511497E+04  0.16923511497E+04  0.00000000000E+00 0. -1.
         25    2    1    2    0    0  0.18467114398E+02 -0.55770027046E+02  0.54747207262E+02  0.14857518171E+03  0.12500399068E+03 0.  0.
          2    1    1    2  501    0  0.49923599446E+02  0.57235178745E+02 -0.16420504665E+04  0.16438059393E+04  0.00000000000E+00 0. -1.
          1    1    1    2  502    0 -0.68390713844E+02 -0.14651516994E+01  0.46376363315E+03  0.46878155237E+03  0.00000000000E+00 0. -1.
         22    1    3    3    0    0  0.14885039080E+02  0.39504842528E+02  0.10705577711E+02  0.43552340530E+02  0.00000000000E+00 0. -1.
         22    1    3    3    0    0  0.35820753176E+01 -0.95274869573E+02  0.44041629552E+02  0.10502284118E+03  0.00000000000E+00 0. -1.
</event>
<event>
 7    1  0.7457412E-006  0.1584243E+03  0.7818608E-02  0.1215985E+00
          2   -1    0    0  502    0  0.00000000000E+00  0.00000000000E+00  0.14406731473E+04  0.14406731473E+04  0.00000000000E+00 0. -1.
          1   -1    0    0  501    0 -0.00000000000E+00 -0.00000000000E+00 -0.17436118680E+03  0.17436118680E+03  0.00000000000E+00 0. -1.
         25    2    1    2    0    0  0.69218073592E+02 -0.13077705479E+03  0.18110826848E+03  0.26517709609E+03  0.12499963043E+03 0.  0.
          2    1    1    2  501    0 -0.11715710416E+03 -0.27255181683E+02 -0.98018970873E+02  0.15516555879E+03  0.00000000000E+00 0. -1.
          1    1    1    2  502    0  0.47939030572E+02  0.15803223647E+03  0.11832226629E+04  0.11946916793E+04  0.00000000000E+00 0. -1.
         22    1    3    3    0    0 -0.19090539866E+02 -0.92832723665E+02  0.67448168923E+02  0.11632548640E+03  0.00000000000E+00 0. -1.
         22    1    3    3    0    0  0.88308613458E+02 -0.37944331123E+02  0.11366009956E+03  0.14885160969E+03  0.00000000000E+00 0. -1.
</event>
<event>
 7    1  0.7457412E-006  0.4905676E+02  0.7818608E-02  0.1567049E+00
          2   -1    0    0  502    0  0.00000000000E+00  0.00000000000E+00  0.66705306608E+02  0.66705306608E+02  0.00000000000E+00 0. -1.
          1   -1    0    0  501    0 -0.00000000000E+00 -0.00000000000E+00 -0.80866051635E+03  0.80866051635E+03  0.00000000000E+00 0. -1.
         25    2    1    2    0    0  0.30070954780E+02  0.37670835909E+02 -0.97545377599E+02  0.16572556495E+03  0.12500603181E+03 0.  0.
          2    1    1    2  501    0 -0.10456115486E+02 -0.48084371734E+02 -0.67223822442E+03  0.67403684434E+03  0.00000000000E+00 0. -1.
          1    1    1    2  502    0 -0.19614839294E+02  0.10413535825E+02  0.27828392270E+02  0.35603413674E+02  0.00000000000E+00 0. -1.
         22    1    3    3    0    0  0.43268364362E+02  0.67271777513E+02 -0.21141778342E+02  0.82732207729E+02  0.00000000000E+00 0. -1.
         22    1    3    3    0    0 -0.13197409582E+02 -0.29600941604E+02 -0.76403599257E+02  0.82993357222E+02  0.00000000000E+00 0. -1.
</event>
<event>
 7    1  0.7457412E-006  0.9275893E+02  0.7818608E-02  0.1418966E+00
          2   -1    0    0  502    0  0.00000000000E+00  0.00000000000E+00  0.21170429361E+04  0.21170429361E+04  0.00000000000E+00 0. -1.
          1   -1    0    0  501    0 -0.00000000000E+00 -0.00000000000E+00 -0.79699467180E+03  0.79699467180E+03  0.00000000000E+00 0. -1.
         25    2    1    2    0    0 -0.56325986992E+02 -0.87069741847E+02 -0.48149709701E+03  0.50815243938E+03  0.12500276181E+03 0.  0.
          2    1    1    2  501    0  0.68608772652E+02  0.56551750314E+02 -0.29549768800E+03  0.30858410160E+03  0.00000000000E+00 0. -1.
          1    1    1    2  502    0 -0.12282785661E+02  0.30517991533E+02  0.20970430493E+04  0.20973010669E+04  0.00000000000E+00 0. -1.
         22    1    3    3    0    0  0.29553619736E+02 -0.59965566711E+02 -0.14258001187E+03  0.15747490408E+03  0.00000000000E+00 0.  1.
         22    1    3    3    0    0 -0.85879606728E+02 -0.27104175136E+02 -0.33891708514E+03  0.35067753530E+03  0.00000000000E+00 0.  1.
</event>
<event>
 7    1  0.7457412E-006  0.8079614E+02  0.7818608E-02  0.1421512E+00
          2   -1    0    0  502    0  0.00000000000E+00  0.00000000000E+00  0.31908387738E+04  0.31908387738E+04  0.00000000000E+00 0. -1.
          1   -1    0    0  501    0 -0.00000000000E+00 -0.00000000000E+00 -0.38779995719E+02  0.38779995719E+02  0.00000000000E+00 0. -1.
         25    2    1    2    0    0  0.53948607754E+02 -0.64833682854E+02  0.76116998263E+03  0.77596414729E+03  0.12500702665E+03 0.  0.
          2    1    1    2  501    0  0.19938808037E+02  0.31210226806E+02 -0.19529831449E+02  0.41869423684E+02  0.00000000000E+00 0. -1.
          1    1    1    2  502    0 -0.73887415792E+02  0.33623456048E+02  0.24104186269E+04  0.24117851985E+04  0.00000000000E+00 0. -1.
         22    1    3    3    0    0  0.79126971477E+02 -0.71529332684E+02  0.71531922975E+03  0.72322826514E+03  0.00000000000E+00 0.  1.
         22    1    3    3    0    0 -0.25178363723E+02  0.66956498308E+01  0.45850752882E+02  0.52735882151E+02  0.00000000000E+00 0.  1.
</event>
<event>
 7    1  0.7457412E-006  0.1488483E+03  0.7818608E-02  0.1232910E+00
          2   -1    0    0  502    0  0.00000000000E+00  0.00000000000E+00  0.20912885861E+03  0.20912885861E+03  0.00000000000E+00 0. -1.
          1   -1    0    0  501    0 -0.00000000000E+00 -0.00000000000E+00 -0.17992066466E+04  0.17992066466E+04  0.00000000000E+00 0. -1.
         25    2    1    2    0    0  0.20476890347E+03  0.90809351874E+02 -0.23426670708E+03  0.34738926294E+03  0.12498707031E+03 0.  0.
          2    1    1    2  501    0 -0.10668610112E+03  0.11679095158E+02 -0.14730231917E+04  0.14769277737E+04  0.00000000000E+00 0. -1.
          1    1    1    2  502    0 -0.98082802346E+02 -0.10248844703E+03  0.11721211073E+03  0.18401846862E+03  0.00000000000E+00 0. -1.
         22    1    3    3    0    0  0.87194894584E+02 -0.23314514360E+02 -0.61130209980E+02  0.10901109482E+03  0.00000000000E+00 0. -1.
         22    1    3    3    0    0  0.11757400889E+03  0.11412386623E+03 -0.17313649710E+03  0.23837816812E+03  0.00000000000E+00 0. -1.
</event>
<event>
 7    1  0.7457412E-006  0.1151413E+03  0.7818608E-02  0.1347354E+00
          2   -1    0    0  502    0  0.00000000000E+00  0.00000000000E+00  0.27016096661E+04  0.27016096661E+04  0.00000000000E+00 0. -1.
          1   -1    0    0  501    0 -0.00000000000E+00 -0.00000000000E+00 -0.26147216901E+04  0.26147216901E+04  0.00000000000E+00 0. -1.
         25    2    1    2    0    0 -0.14312924697E+03 -0.11999078838E+02  0.54161380189E+03  0.57410794723E+03  0.12499786175E+03 0.  0.
          2    1    1    2  501    0  0.10691511013E+03  0.42602426230E+02 -0.25969377889E+04  0.25994868122E+04  0.00000000000E+00 0. -1.
          1    1    1    2  502    0  0.36214136846E+02 -0.30603347393E+02  0.21422119631E+04  0.21427365968E+04  0.00000000000E+00 0. -1.
         22    1    3    3    0    0 -0.10838336706E+03 -0.58359984810E+02  0.27533806908E+03  0.30160221214E+03  0.00000000000E+00 0.  1.
         22    1    3    3    0    0 -0.34745879910E+02  0.46360905972E+02  0.26627573281E+03  0.27250573509E+03  0.00000000000E+00 0.  1.
</event>
<event>
 7    1  0.7457412E-006  0.4877902E+02  0.7818608E-02  0.1479524E+00
          2   -1    0    0  502    0  0.00000000000E+00  0.00000000000E+00  0.16303853237E+04  0.16303853237E+04  0.00000000000E+00 0. -1.
          1   -1    0    0  501    0 -0.00000000000E+00 -0.00000000000E+00 -0.42312366316E+02  0.42312366316E+02  0.00000000000E+00 0. -1.
         25    2    1    2    0    0 -0.27930697013E+02 -0.15431573885E+01  0.87756911193E+03  0.88686822943E+03  0.12500081993E+03 0.  0.
          2    1    1    2  501    0  0.31112834044E+02 -0.38345513986E+02 -0.20691538583E+02  0.53539953810E+02  0.00000000000E+00 0. -1.
          1    1    1    2  502    0 -0.31821370302E+01  0.39888671374E+02  0.73119538408E+03  0.73228950682E+03  0.00000000000E+00 0. -1.
         22    1    3    3    0    0 -0.16308762700E+02 -0.58641610648E+02  0.60992629721E+03  0.61295587301E+03  0.00000000000E+00 0. -1.
         22    1    3    3    0    0 -0.11621934313E+02  0.57098453259E+02  0.26764281472E+03  0.27391235641E+03  0.00000000000E+00 0. -1.
</event>
<event>
 7    1  0.7457412E-006  0.1869919E+03  0.7818608E-02  0.1266028E+00
          2   -1    0    0  502    0  0.00000000000E+00  0.00000000000E+00  0.67838575295E+03  0.67838575295E+03  0.00000000000E+00 0. -1.
          1   -1    0    0  501    0 -0.00000000000E+00 -0.00000000000E+00 -0.72278259791E+03  0.72278259791E+03  0.00000000000E+00 0. -1.
         25    2    1    2    0    0 -0.21924684112E+03 -0.27425460481E+02  0.14184889597E+03  0.29081272152E+03  0.12501838459E+03 0.  0.
          2    1    1    2  501    0  0.17263390349E+03  0.67309018181E+02 -0.63292159742E+03  0.65948670725E+03  0.00000000000E+00 0. -1.
          1    1    1    2  502    0  0.46612937626E+02 -0.39883557701E+02  0.44667585649E+03  0.45086892208E+03  0.00000000000E+00 0. -1.
         22    1    3    3    0    0 -0.21002903623E+03 -0.41085257932E+02  0.82736146025E+02  0.22944599438E+03  0.00000000000E+00 0. -1.
         22    1    3    3    0    0 -0.92178048904E+01  0.13659797451E+02  0.59112749945E+02  0.61366727137E+02  0.00000000000E+00 0. -1.
</event>
<event>
 7    1  0.7457412E-006  0.1603042E+03  0.7818608E-02  0.1330070E+00
          2   -1    0    0  502    0  0.00000000000E+00  0.00000000000E+00  0.11394271343E+04  0.11394271343E+04  0.00000000000E+00 0. -1.
          1   -1    0    0  501    0 -0.00000000000E+00 -0.00000000000E+00 -0.76921849714E+03  0.76921849714E+03  0.00000000000E+00 0. -1.
         25    2    1    2    0    0 -0.69811215346E+02  0.17150623114E+03  0.20214620049E+03  0.30127200931E+03  0.12495496836E+03 0.  0.
          2    1    1    2  501    0  0.85024236498E+02 -0.13497985659E+03 -0.71036419457E+03  0.72805629686E+03  0.00000000000E+00 0. -1.
          1    1    1    2  502    0 -0.15213021152E+02 -0.36526374547E+02  0.87842663127E+03  0.87931732530E+03  0.00000000000E+00 0. -1.
         22    1    3    3    0    0 -0.48824459979E+02  0.51349951852E+01  0.79808587173E+02  0.93699555252E+02  0.00000000000E+00 0. -1.
         22    1    3    3    0    0 -0.20986755367E+02  0.16637123595E+03  0.12233761331E+03  0.20757245406E+03  0.00000000000E+00 0. -1.
</event>
<event>
 7    1  0.7457412E-006  0.5227180E+02  0.7818608E-02  0.1463431E+00
          2   -1    0    0  502    0  0.00000000000E+00  0.00000000000E+00  0.13626737146E+04  0.13626737146E+04  0.00000000000E+00 0. -1.
          1   -1    0    0  501    0 -0.00000000000E+00 -0.00000000000E+00 -0.36814832580E+02  0.36814832580E+02  0.00000000000E+00 0. -1.
         25    2    1    2    0    0  0.73551883646E+02 -0.81794328895E+01  0.27762828125E+03  0.31333350556E+03  0.12499456168E+03 0.  0.
          2    1    1    2  501    0 -0.39331364046E+02  0.32346525414E+02  0.16436611001E+02  0.53510896884E+02  0.00000000000E+00 0. -1.
          1    1    1    2  502    0 -0.34220519600E+02 -0.24167092525E+02  0.10317939898E+04  0.10326441447E+04  0.00000000000E+00 0. -1.
         22    1    3    3    0    0  0.54533570035E+02  0.21672039058E+02  0.27105354779E+03  0.27733303681E+03  0.00000000000E+00 0. -1.
         22    1    3    3    0    0  0.19018313612E+02 -0.29851471948E+02  0.65747334548E+01  0.36000468748E+02  0.00000000000E+00 0. -1.
</event>
<event>
 7    1  0.7457412E-006  0.4085964E+02  0.7818608E-02  0.1516158E+00
          2   -1    0    0  502    0  0.00000000000E+00  0.00000000000E+00  0.42730121218E+03  0.42730121218E+03  0.00000000000E+00 0. -1.
          1   -1    0    0  501    0 -0.00000000000E+00 -0.00000000000E+00 -0.10888796012E+04  0.10888796012E+04  0.00000000000E+00 0. -1.
         25    2    1    2    0    0  0.27965906320E+02  0.71749371362E+02 -0.26295069980E+03  0.30116135763E+03  0.12500011439E+03 0.  0.
          2    1    1    2  501    0 -0.15477568094E+02 -0.36802692916E+02 -0.80548463660E+03  0.80647349189E+03  0.00000000000E+00 0. -1.
          1    1    1    2  502    0 -0.12488338226E+02 -0.34946678446E+02  0.40685694740E+03  0.40854596385E+03  0.00000000000E+00 0. -1.
         22    1    3    3    0    0  0.75645104122E+00 -0.97504776210E+01 -0.18466424130E+03  0.18492302735E+03  0.00000000000E+00 0. -1.
         22    1    3    3    0    0  0.27209455279E+02  0.81499848983E+02 -0.78286458507E+02  0.11623833028E+03  0.00000000000E+00 0. -1.
</event>
<event>
 7    1  0.7457412E-006  0.8401917E+02  0.7818608E-02  0.1422059E+00
          2   -1    0    0  502    0  0.00000000000E+00  0.00000000000E+00  0.57977261595E+02  0.57977261595E+02  0.00000000000E+00 0. -1.
          1   -1    0    0  501    0 -0.00000000000E+00 -0.00000000000E+00 -0.15792138698E+04  0.15792138698E+04  0.00000000000E+00 0. -1.
         25    2    1    2    0    0 -0.10594786729E+03 -0.11414035761E+02 -0.79226715619E+03  0.80911485374E+03  0.12499747587E+03 0.  0.
          2    1    1    2  501    0  0.74283416376E+02  0.27388807544E+02 -0.76987585494E+03  0.77393604694E+03  0.00000000000E+00 0. -1.
          1    1    1    2  502    0  0.31664450910E+02 -0.15974771783E+02  0.40906402909E+02  0.54140230734E+02  0.00000000000E+00 0. -1.
         22    1    3    3    0    0  0.27257098142E+02 -0.67550786938E+01 -0.20485953105E+03  0.20677525952E+03  0.00000000000E+00 0.  1.
         22    1    3    3    0    0 -0.13320496543E+03 -0.46589570671E+01 -0.58740762514E+03  0.60233959422E+03  0.00000000000E+00 0.  1.
</event>
<event>
 7    1  0.7457412E-006  0.1557508E+03  0.7818608E-02  0.1311874E+00
          2   -1    0    0  502    0  0.00000000000E+00  0.00000000000E+00  0.95008355340E+02  0.95008355340E+02  0.00000000000E+00 0. -1.
          1   -1    0    0  501    0 -0.00000000000E+00 -0.00000000000E+00 -0.13881632112E+04  0.13881632112E+04  0.00000000000E+00 0. -1.
         25    2    1    2    0    0  0.17842835712E+03  0.25361435182E+02 -0.29250684757E+03  0.36560273705E+03  0.12500089777E+03 0.  0.
          2    1    1    2  501    0 -0.38772842640E+02  0.28129213911E+02 -0.96188602687E+03  0.96307804185E+03  0.00000000000E+00 0. -1.
          1    1    1    2  502    0 -0.13965551448E+03 -0.53490649093E+02 -0.38761981427E+02  0.15449078765E+03  0.00000000000E+00 0. -1.
         22    1    3    3    0    0  0.14726196773E+03  0.39547648944E+02 -0.29414798055E+03  0.33132029539E+03  0.00000000000E+00 0. -1.
         22    1    3    3    0    0  0.31166389388E+02 -0.14186213761E+02  0.16411329806E+01  0.34282441655E+02  0.00000000000E+00 0. -1.
</event>
<event>
 7    1  0.7457412E-006  0.1269739E+03  0.7818608E-02  0.1330336E+00
          2   -1    0    0  502    0  0.00000000000E+00  0.00000000000E+00  0.11671141894E+04  0.11671141894E+04  0.00000000000E+00 0. -1.
          1   -1    0    0  501    0 -0.00000000000E+00 -0.00000000000E+00 -0.99439674332E+02  0.99439674332E+02  0.00000000000E+00 0. -1.
         25    2    1    2    0    0 -0.22561248217E+02 -0.85194011702E+02  0.67489247863E+02  0.16717136601E+03  0.12499774992E+03 0.  0.
          2    1    1    2  501    0 -0.40645376311E+02 -0.28839799560E+02 -0.31849121598E+02  0.59145136746E+02  0.00000000000E+00 0. -1.
          1    1    1    2  502    0  0.63206624528E+02  0.11403381126E+03  0.10320343888E+04  0.10402373609E+04  0.00000000000E+00 0. -1.
         22    1    3    3    0    0 -0.71153359613E+02 -0.51619207079E+02  0.62577962386E+02  0.10790433031E+03  0.00000000000E+00 0. -1.
         22    1    3    3    0    0  0.48592111396E+02 -0.33574804623E+02  0.49112854770E+01  0.59267035698E+02  0.00000000000E+00 0. -1.
</event>
<event>
 7    1  0.7457412E-006  0.1420188E+03  0.7818608E-02  0.1353670E+00
          2   -1    0    0  502    0  0.00000000000E+00  0.00000000000E+00  0.11678803369E+03  0.11678803369E+03  0.00000000000E+00 0. -1.
          1   -1    0    0  501    0 -0.00000000000E+00 -0.00000000000E+00 -0.22548827021E+04  0.22548827021E+04  0.00000000000E+00 0. -1.
         25    2    1    2    0    0  0.44162666696E+02  0.98776694284E+02 -0.11620417079E+04  0.11737432396E+04  0.12500034063E+03 0.  0.
          2    1    1    2  501    0  0.42591541294E+01  0.36175324789E+02 -0.10402128515E+04  0.10408504075E+04  0.00000000000E+00 0. -1.
          1    1    1    2  502    0 -0.48421820825E+02 -0.13495201907E+03  0.64159890923E+02  0.15707708868E+03  0.00000000000E+00 0. -1.
         22    1    3    3    0    0 -0.27915643291E+02  0.19387593755E+02 -0.87571322138E+02  0.93935607695E+02  0.00000000000E+00 0.  1.
         22    1    3    3    0    0  0.72078309987E+02  0.79389100529E+02 -0.10744703858E+04  0.10798076319E+04  0.00000000000E+00 0.  1.
</event>
<event>
 7    1  0.7457412E-006  0.5635258E+02  0.7818608E-02  0.1480259E+00
          2   -1    0    0  502    0  0.00000000000E+00  0.00000000000E+00  0.16123540211E+04  0.16123540211E+04  0.00000000000E+00 0. -1.
          1   -1    0    0  501    0 -0.00000000000E+00 -0.00000000000E+00 -0.10014674279E+03  0.10014674279E+03  0.00000000000E+00 0. -1.
         25    2    1    2    0    0 -0.41060277569E+02 -0.28604555843E+02  0.79645941834E+03  0.80775997708E+03  0.12499763397E+03 0.  0.
          2    1    1    2  501    0  0.17499168832E+02  0.53748741420E+02 -0.85639889848E+02  0.10261256671E+03  0.00000000000E+00 0. -1.
          1    1    1    2  502    0  0.23561108737E+02 -0.25144185577E+02  0.80138774986E+03  0.80212822013E+03  0.00000000000E+00 0. -1.
         22    1    3    3    0    0 -0.56305121868E+02 -0.10849316864E+02  0.14566265391E+03  0.15654259219E+03  0.00000000000E+00 0. -1.
         22    1    3    3    0    0  0.15244844300E+02 -0.17755238979E+02  0.65079676443E+03  0.65121738489E+03  0.00000000000E+00 0. -1.
</event>
<event>
 7    1  0.7457412E-006  0.7842231E+02  0.7818608E-02  0.1380775E+00
          2   -1    0    0  502    0  0.00000000000E+00  0.00000000000E+00  0.22486720687E+03  0.22486720687E+03  0.00000000000E+00 0. -1.
          1   -1    0    0  501    0 -0.00000000000E+00 -0.00000000000E+00 -0.13927152324E+04  0.13927152324E+04  0.00000000000E+00 0. -1.
         25    2    1    2    0    0 -0.33525717427E+02  0.31646019588E+02 -0.71850547492E+03  0.73075301910E+03  0.12499765260E+03 0.  0.
          2    1    1    2  501    0  0.24385706326E+02  0.46668869771E+02 -0.65989793254E+03  0.66199541346E+03  0.00000000000E+00 0. -1.
          1    1    1    2  502    0  0.91400111010E+01 -0.78314889359E+02  0.21055538194E+03  0.22483400669E+03  0.00000000000E+00 0. -1.
         22    1    3    3    0    0  0.24082723062E+02 -0.36567645053E+02 -0.21999092064E+03  0.22430598605E+03  0.00000000000E+00 0.  1.
         22    1    3    3    0    0 -0.57608440489E+02  0.68213664641E+02 -0.49851455428E+03  0.50644703305E+03  0.00000000000E+00 0.  1.
</event>
<event>
 7    1  0.7457412E-006  0.8717598E+02  0.7818608E-02  0.1376628E+00
          2   -1    0    0  502    0  0.00000000000E+00  0.00000000000E+00  0.13737354975E+04  0.13737354975E+04  0.00000000000E+00 0. -1.
          1   -1    0    0  501    0 -0.00000000000E+00 -0.00000000000E+00 -0.84547177919E+03  0.84547177919E+03  0.00000000000E+00 0. -1.
         25    2    1    2    0    0  0.98443704818E+02 -0.34591514378E+02  0.40199172810E+03  0.43371599891E+03  0.12499792945E+03 0.  0.
          2    1    1    2  501    0 -0.39704963811E+02 -0.28716272927E+02 -0.82693230479E+03  0.82838284941E+03  0.00000000000E+00 0. -1.
          1    1    1    2  502    0 -0.58738741007E+02  0.63307787304E+02  0.95320429499E+03  0.95710842835E+03  0.00000000000E+00 0. -1.
         22    1    3    3    0    0  0.73131355280E+02 -0.79911848697E+02  0.23337555335E+03  0.25729020111E+03  0.00000000000E+00 0. -1.
         22    1    3    3    0    0  0.25312349537E+02  0.45320334319E+02  0.16861617474E+03  0.17642579779E+03  0.00000000000E+00 0. -1.
</event>
<event>
 7    1  0.7457412E-006  0.6095113E+02  0.7818608E-02  0.1401695E+00
          2   -1    0    0  502    0  0.00000000000E+00  0.00000000000E+00  0.60514018400E+03  0.60514018400E+03  0.00000000000E+00 0. -1.
          1   -1    0    0  501    0 -0.00000000000E+00 -0.00000000000E+00 -0.36705147573E+02  0.36705147573E+02  0.00000000000E+00 0. -1.
         25    2    1    2    0    0  0.15793327710E+02  0.41901256490E+00  0.12126066074E+03  0.17484084978E+03  0.12496227485E+03 0.  0.
          2    1    1    2  501    0  0.30335388443E+02  0.48592038503E+02  0.11990267738E+03  0.13288368614E+03  0.00000000000E+00 0. -1.
          1    1    1    2  502    0 -0.46128716152E+02 -0.49011051068E+02  0.32727169831E+03  0.33412079566E+03  0.00000000000E+00 0. -1.
         22    1    3    3    0    0 -0.36450455448E+02 -0.15236043542E+02  0.11296580792E+03  0.11967475291E+03  0.00000000000E+00 0. -1.
         22    1    3    3    0    0  0.52243783158E+02  0.15655056107E+02  0.82948528218E+01  0.55166096868E+02  0.00000000000E+00 0. -1.
</event>
<event>
 7    1  0.7457412E-006  0.3230845E+03  0.7818608E-02  0.1263920E+00
          2   -1    0    0  502    0  0.00000000000E+00  0.00000000000E+00  0.26984893008E+04  0.26984893008E+04  0.00000000000E+00 0. -1.
          1   -1    0    0  501    0 -0.00000000000E+00 -0.00000000000E+00 -0.31344250744E+03  0.31344250744E+03  0.00000000000E+00 0. -1.
         25    2    1    2    0    0 -0.16124973508E+03  0.25767185407E+03 -0.12899003577E+03  0.35307226704E+03  0.12500133991E+03 0.  0.
          2    1    1    2  501    0  0.16629581383E+02  0.32202739619E+02 -0.56971570682E+02  0.67522731594E+02  0.00000000000E+00 0. -1.
          1    1    1    2  502    0  0.14462015370E+03 -0.28987459369E+03  0.25710083999E+04  0.25913368096E+04  0.00000000000E+00 0. -1.
         22    1    3    3    0    0 -0.11920894260E+03  0.17742276673E+03 -0.14866394898E+03  0.26036624181E+03  0.00000000000E+00 0.  1.
         22    1    3    3    0    0 -0.42040792487E+02  0.80249087341E+02  0.19673913213E+02  0.92706025226E+02  0.00000000000E+00 0.  1.
</event>
<event>
 7    1  0.7457412E-006  0.9344523E+02  0.7818608E-02  0.1337764E+00
          2   -1    0    0  502    0  0.00000000000E+00  0.00000000000E+00  0.39806693186E+04  0.39806693186E+04  0.00000000000E+00 0. -1.
          1   -1    0    0  501    0 -0.00000000000E+00 -0.00000000000E+00 -0.14392723129E+02  0.14392723129E+02  0.00000000000E+00 0. -1.
         25    2    1    2    0    0 -0.33999482159E+02 -0.35698588075E+01  0.37186942065E+03  0.39381604908E+03  0.12504201621E+03 0.  0.
          2    1    1    2  501    0 -0.63422740839E+02  0.22284656105E+01  0.37259284406E+03  0.37795877759E+03  0.00000000000E+00 0. -1.
          1    1    1    2  502    0  0.97422222998E+02  0.13413931970E+01  0.32218143308E+04  0.32232872151E+04  0.00000000000E+00 0. -1.
         22    1    3    3    0    0 -0.61702639092E+02  0.32088768056E+02  0.30699137292E+03  0.31477072251E+03  0.00000000000E+00 0.  1.
         22    1    3    3    0    0  0.27703156933E+02 -0.35658626864E+02  0.64878047735E+02  0.79045326565E+02  0.00000000000E+00 0.  1.
</event>
<event>
 7    1  0.7457412E-006  0.4728991E+02  0.7818608E-02  0.1568146E+00
          2   -1    0    0  502    0  0.00000000000E+00  0.00000000000E+00  0.88860429911E+03  0.88860429911E+03  0.00000000000E+00 0. -1.
          1   -1    0    0  501    0 -0.00000000000E+00 -0.00000000000E+00 -0.16667718817E+04  0.16667718817E+04  0.00000000000E+00 0. -1.
         25    2    1    2    0    0  0.24446036623E+02 -0.20554357385E+00 -0.98298003098E+03  0.99119749167E+03  0.12500030091E+03 0.  0.
          2    1    1    2  501    0  0.22824681777E+02 -0.15833217842E+01 -0.67885777509E+03  0.67924321992E+03  0.00000000000E+00 0. -1.
          1    1    1    2  502    0 -0.47270718400E+02  0.17888653581E+01  0.88367022347E+03  0.88493546924E+03  0.00000000000E+00 0. -1.
         22    1    3    3    0    0 -0.28272217240E+02 -0.32565346805E+02 -0.15434024686E+03  0.16025208854E+03  0.00000000000E+00 0. -1.
         22    1    3    3    0    0  0.52718253863E+02  0.32359803231E+02 -0.82863978412E+03  0.83094540313E+03  0.00000000000E+00 0. -1.
</event>
<event>
 7    1  0.7457412E-006  0.5307536E+02  0.7818608E-02  0.1463686E+00
          2   -1    0    0  502    0  0.00000000000E+00  0.00000000000E+00  0.63589115842E+03  0.63589115842E+03  0.00000000000E+00 0. -1.
          1   -1    0    0  501    0 -0.00000000000E+00 -0.00000000000E+00 -0.31131567694E+03  0.31131567694E+03  0.00000000000E+00 0. -1.
         25    2    1    2    0    0  0.81725779953E+02  0.22482080042E+02  0.15491106324E+03  0.21635622819E+03  0.12501213112E+03 0.  0.
          2    1    1    2  501    0 -0.40278540584E+02  0.85873312793E+01 -0.27757897576E+03  0.28061751705E+03  0.00000000000E+00 0. -1.
          1    1    1    2  502    0 -0.41447239369E+02 -0.31069411322E+02  0.44724339399E+03  0.45023309012E+03  0.00000000000E+00 0. -1.
         22    1    3    3    0    0  0.38396726629E+02  0.49272428771E+02  0.15313188533E+03  0.16538275351E+03  0.00000000000E+00 0. -1.
         22    1    3    3    0    0  0.43329053324E+02 -0.26790348729E+02  0.17791779133E+01  0.50973474680E+02  0.00000000000E+00 0. -1.
</event>
<event>
 7    1  0.7457412E-006  0.5073098E+02  0.7818608E-02  0.1469867E+00
          2   -1    0    0  502    0  0.00000000000E+00  0.00000000000E+00  0.22082956883E+03  0.22082956883E+03  0.00000000000E+00 0. -1.
          1   -1    0    0  501    0 -0.00000000000E+00 -0.00000000000E+00 -0.45002778833E+03  0.45002778833E+03  0.00000000000E+00 0. -1.
         25    2    1    2    0    0 -0.16435483098E+02 -0.38333021675E+02 -0.31974689886E+02  0.13560234857E+03  0.12500428188E+03 0.  0.
          2    1    1    2  501    0  0.49662348298E+02  0.13951458113E+02 -0.36187035022E+03  0.36552857944E+03  0.00000000000E+00 0. -1.
          1    1    1    2  502    0 -0.33226865200E+02  0.24381563562E+02  0.16464682061E+03  0.16972642914E+03  0.00000000000E+00 0. -1.
         22    1    3    3    0    0  0.14615309535E+02  0.41460899868E+02  0.67311358561E+00  0.43966652961E+02  0.00000000000E+00 0.  1.
         22    1    3    3    0    0 -0.31050792634E+02 -0.79793921543E+02 -0.32647803471E+02  0.91635695610E+02  0.00000000000E+00 0.  1.
</event>
<event>
 7    1  0.7457412E-006  0.8774169E+02  0.7818608E-02  0.1385885E+00
          2   -1    0    0  502    0  0.00000000000E+00  0.00000000000E+00  0.13293439133E+04  0.13293439133E+04  0.00000000000E+00 0. -1.
          1   -1    0    0  501    0 -0.00000000000E+00 -0.00000000000E+00 -0.40787800811E+03  0.40787800811E+03  0.00000000000E+00 0. -1.
         25    2    1    2    0    0 -0.10078110299E+03 -0.52564023782E+02  0.33695276972E+01  0.16898831593E+03  0.12500355951E+03 0.  0.
          2    1    1    2  501    0  0.13910648871E+02  0.42955455531E+02 -0.32195516886E+03  0.32510584133E+03  0.00000000000E+00 0. -1.
          1    1    1    2  502    0  0.86870454114E+02  0.96085682505E+01  0.12400515464E+04  0.12431277642E+04  0.00000000000E+00 0. -1.
         22    1    3    3    0    0 -0.57431802577E+02  0.35522788706E+02 -0.14832562950E+02  0.69139607956E+02  0.00000000000E+00 0. -1.
         22    1    3    3    0    0 -0.43349300409E+02 -0.88086812488E+02  0.18202090647E+02  0.99848707974E+02  0.00000000000E+00 0. -1.
</event>
<event>
 7    1  0.7457412E-006  0.2093343E+03  0.7818608E-02  0.1235109E+00
          2   -1    0    0  502    0  0.00000000000E+00  0.00000000000E+00  0.19240720073E+04  0.19240720073E+04  0.00000000000E+00 0. -1.
          1   -1    0    0  501    0 -0.00000000000E+00 -0.00000000000E+00 -0.20362167146E+03  0.20362167146E+03  0.00000000000E+00 0. -1.
         25    2    1    2    0    0  0.14218524487E+03 -0.17286597230E+03  0.14967509368E+03  0.29686090312E+03  0.12499789557E+03 0.  0.
          2    1    1    2  501    0 -0.70887111550E+02  0.19485217319E+03 -0.45958533089E+02  0.21237829160E+03  0.00000000000E+00 0. -1.
          1    1    1    2  502    0 -0.71298133325E+02 -0.21986200890E+02  0.16167337753E+04  0.16184544841E+04  0.00000000000E+00 0. -1.
         22    1    3    3    0    0  0.87909970592E+02 -0.15085142583E+03  0.16066232396E+03  0.23726925200E+03  0.00000000000E+00 0.  1.
         22    1    3    3    0    0  0.54275274282E+02 -0.22014546467E+02 -0.10987230275E+02  0.59591651124E+02  0.00000000000E+00 0.  1.
</event>
<event>
 7    1  0.7457412E-006  0.2299903E+03  0.7818608E-02  0.1312152E+00
          2   -1    0    0  502    0  0.00000000000E+00  0.00000000000E+00  0.36043137049E+02  0.36043137049E+02  0.00000000000E+00 0. -1.
          1   -1    0    0  501    0 -0.00000000000E+00 -0.00000000000E+00 -0.33589960320E+04  0.33589960320E+04  0.00000000000E+00 0. -1.
         25    2    1    2    0    0  0.68403356718E+02 -0.20695366483E+03 -0.14138102272E+04  0.14359641338E+04  0.12499918551E+03 0.  0.
          2    1    1    2  501    0 -0.49688085049E+02  0.23334996761E+03 -0.19117804884E+04  0.19266099110E+04  0.00000000000E+00 0. -1.
          1    1    1    2  502    0 -0.18715271668E+02 -0.26396302782E+02  0.26378207103E+01  0.32465124246E+02  0.00000000000E+00 0. -1.
         22    1    3    3    0    0  0.68197873370E+02 -0.14363268692E+03 -0.12544178983E+04  0.12644546501E+04  0.00000000000E+00 0. -1.
         22    1    3    3    0    0  0.20548334760E+00 -0.63320977912E+02 -0.15939232888E+03  0.17150948362E+03  0.00000000000E+00 0. -1.
</event>
<event>
 7    1  0.7457412E-006  0.1027940E+03  0.7818608E-02  0.1388834E+00
          2   -1    0    0  502    0  0.00000000000E+00  0.00000000000E+00  0.85036794657E+03  0.85036794657E+03  0.00000000000E+00 0. -1.
          1   -1    0    0  501    0 -0.00000000000E+00 -0.00000000000E+00 -0.75252168207E+03  0.75252168207E+03  0.00000000000E+00 0. -1.
         25    2    1    2    0    0  0.24236379945E+02  0.62197745758E+02 -0.30523038932E+02  0.14495780527E+03  0.12500059085E+03 0.  0.
          2    1    1    2  501    0  0.17879726554E+02  0.33115263975E+02 -0.66082103608E+03  0.66189179407E+03  0.00000000000E+00 0. -1.
          1    1    1    2  502    0 -0.42116106499E+02 -0.95313009732E+02  0.78919033951E+03  0.79604002929E+03  0.00000000000E+00 0. -1.
         22    1    3    3    0    0  0.18150509114E+02  0.99597485503E+02 -0.96482259801E+01  0.10169655040E+03  0.00000000000E+00 0. -1.
         22    1    3    3    0    0  0.60858708314E+01 -0.37399739745E+02 -0.20874812951E+02  0.43261254866E+02  0.00000000000E+00 0. -1.
</event>
<event>
 7    1  0.7457412E-006  0.6429572E+02  0.7818608E-02  0.1412338E+00
          2   -1    0    0  502    0  0.00000000000E+00  0.00000000000E+00  0.29197196308E+03  0.29197196308E+03  0.00000000000E+00 0. -1.
          1   -1    0    0  501    0 -0.00000000000E+00 -0.00000000000E+00 -0.26636420944E+03  0.26636420944E+03  0.00000000000E+00 0. -1.
         25    2    1    2    0    0 -0.20240607736E+02  0.10950736098E+03  0.77191835180E+01  0.16758727138E+03  0.12499745367E+03 0.  0.
          2    1    1    2  501    0  0.13750176127E+02 -0.59972438623E+02 -0.17813372028E+03  0.18846056097E+03  0.00000000000E+00 0. -1.
          1    1    1    2  502    0  0.64904316091E+01 -0.49534922356E+02  0.19602229041E+03  0.20228834018E+03  0.00000000000E+00 0. -1.
         22    1    3    3    0    0  0.26568209428E+02  0.88953302211E+02 -0.36734909797E+02  0.99839938523E+02  0.00000000000E+00 0.  1.
         22    1    3    3    0    0 -0.46808817165E+02  0.20554058768E+02  0.44454093315E+02  0.67747332853E+02  0.00000000000E+00 0.  1.
</event>
<event>
 7    1  0.7457412E-006  0.1714666E+03  0.7818608E-02  0.1307877E+00
          2   -1    0    0  502    0  0.00000000000E+00  0.00000000000E+00  0.42823181701E+02  0.42823181701E+02  0.00000000000E+00 0. -1.
          1   -1    0    0  501    0 -0.00000000000E+00 -0.00000000000E+00 -0.12087079814E+04  0.12087079814E+04  0.00000000000E+00 0. -1.
         25    2    1    2    0    0 -0.95573873864E+02  0.14112838542E+03 -0.49987894669E+03  0.54273011965E+03  0.12500173956E+03 0.  0.
          2    1    1    2  501    0 -0.36413708734E+02 -0.26640849618E+02 -0.29831951449E+03  0.30171215716E+03  0.00000000000E+00 0. -1.
          1    1    1    2  502    0  0.13198758260E+03 -0.11448753580E+03 -0.36768633855E+03  0.40708888633E+03  0.00000000000E+00 0. -1.
         22    1    3    3    0    0  0.18877417863E+02 -0.46088258456E+01 -0.10174876043E+03  0.10358768474E+03  0.00000000000E+00 0.  1.
         22    1    3    3    0    0 -0.11445129173E+03  0.14573721126E+03 -0.39813018626E+03  0.43914243491E+03  0.00000000000E+00 0.  1.
</event>
<event>
 7    1  0.7457412E-006  0.8241013E+02  0.7818608E-02  0.1351212E+00
          2   -1    0    0  502    0  0.00000000000E+00  0.00000000000E+00  0.19584365306E+04  0.19584365306E+04  0.00000000000E+00 0. -1.
          1   -1    0    0  501    0 -0.00000000000E+00 -0.00000000000E+00 -0.16329458189E+03  0.16329458189E+03  0.00000000000E+00 0. -1.
         25    2    1    2    0    0 -0.32832903168E+02 -0.36578737682E+02  0.22801988497E+02  0.13623931926E+03  0.12500087140E+03 0.  0.
          2    1    1    2  501    0  0.92694716203E+02  0.13665031225E+02 -0.85322405722E+02  0.12672393779E+03  0.00000000000E+00 0. -1.
          1    1    1    2  502    0 -0.59861813035E+02  0.22913706457E+02  0.18576623659E+04  0.18587678554E+04  0.00000000000E+00 0. -1.
         22    1    3    3    0    0  0.15955134714E+02  0.55713350335E+01 -0.41727595268E+02  0.45019976729E+02  0.00000000000E+00 0.  1.
         22    1    3    3    0    0 -0.48788037882E+02 -0.42150072716E+02  0.64529583765E+02  0.91219342528E+02  0.00000000000E+00 0.  1.
</event>
<event>
 7    1  0.7457412E-006  0.3751357E+03  0.7818608E-02  0.1222377E+00
          2   -1    0    0  502    0  0.00000000000E+00  0.00000000000E+00  0.76825998780E+03  0.76825998780E+03  0.00000000000E+00 0. -1.
          1   -1    0    0  501    0 -0.00000000000E+00 -0.00000000000E+00 -0.21154882511E+04  0.21154882511E+04  0.00000000000E+00 0. -1.
         25    2    1    2    0    0 -0.36015485638E+03  0.17554000074E+03 -0.58321991677E+03  0.71853742868E+03  0.12499901068E+03 0.  0.
          2    1    1    2  501    0  0.42668069366E+02  0.20866360416E+02 -0.14144491722E+04  0.14152464202E+04  0.00000000000E+00 0. -1.
          1    1    1    2  502    0  0.31748678702E+03 -0.19640636115E+03  0.65044082566E+03  0.74996439003E+03  0.00000000000E+00 0. -1.
         22    1    3    3    0    0 -0.42564065297E+02  0.20022046562E+02 -0.15193984540E+02  0.49431155857E+02  0.00000000000E+00 0.  1.
         22    1    3    3    0    0 -0.31759079109E+03  0.15551795418E+03 -0.56802593223E+03  0.66910627283E+03  0.00000000000E+00 0.  1.
</event>
<event>
 7    1  0.7457412E-006  0.9677076E+02  0.7818608E-02  0.1299169E+00
          2   -1    0    0  502    0  0.00000000000E+00  0.00000000000E+00  0.14187235636E+04  0.14187235636E+04  0.00000000000E+00 0. -1.
          1   -1    0    0  501    0 -0.00000000000E+00 -0.00000000000E+00 -0.64294821820E+03  0.64294821820E+03  0.00000000000E+00 0. -1.
         25    2    1    2    0    0 -0.28953718904E+02 -0.14724619296E+03  0.20365608052E+03  0.28217356146E+03  0.12500544178E+03 0.  0.
          2    1    1    2  501    0 -0.36812369802E+02  0.78373387739E+02 -0.59864132786E+03  0.60487104237E+03  0.00000000000E+00 0. -1.
          1    1    1    2  502    0  0.65766088706E+02  0.68872805216E+02  0.11707605927E+04  0.11746271780E+04  0.00000000000E+00 0. -1.
         22    1    3    3    0    0  0.46030999881E+02 -0.27435362505E+02  0.64047170981E+02  0.83508036599E+02  0.00000000000E+00 0. -1.
         22    1    3    3    0    0 -0.74984718785E+02 -0.11981083045E+03  0.13960890954E+03  0.19866552486E+03  0.00000000000E+00 0. -1.
</event>
<event>
 7    1  0.7457412E-006  0.1629575E+03  0.7818608E-02  0.1344854E+00
          2   -1    0    0  502    0  0.00000000000E+00  0.00000000000E+00  0.66904698497E+03  0.66904698497E+03  0.00000000000E+00 0. -1.
          1   -1    0    0  501    0 -0.00000000000E+00 -0.00000000000E+00 -0.44335070659E+03  0.44335070659E+03  0.00000000000E+00 0. -1.
         25    2    1    2    0    0  0.18242440670E+03 -0.43499281862E+02  0.13527380516E+03  0.26286439392E+03  0.12501134168E+03 0.  0.
          2    1    1    2  501    0 -0.25843495182E+02  0.22441772660E+02 -0.36545536812E+03  0.36705469005E+03  0.00000000000E+00 0. -1.
          1    1    1    2  502    0 -0.15658091152E+03  0.21057509202E+02  0.45587784135E+03  0.48247860758E+03  0.00000000000E+00 0. -1.
         22    1    3    3    0    0  0.70729830993E+02 -0.20580318417E+02  0.12914696141E+03  0.14867816296E+03  0.00000000000E+00 0. -1.
         22    1    3    3    0    0  0.11169457571E+03 -0.22918963445E+02  0.61268437462E+01  0.11418623097E+03  0.00000000000E+00 0. -1.
</event>
<event>
 7    1  0.7457412E-006  0.1572586E+03  0.7818608E-02  0.1269013E+00
          2   -1    0    0  502    0  0.00000000000E+00  0.00000000000E+00  0.16035500480E+04  0.16035500480E+04  0.00000000000E+00 0. -1.
          1   -1    0    0  501    0 -0.00000000000E+00 -0.00000000000E+00 -0.18084546765E+04  0.18084546765E+04  0.00000000000E+00 0. -1.
         25    2    1    2    0    0  0.13121669981E+03 -0.13539133888E+03  0.38212168720E+03  0.44406132572E+03  0.12499936088E+03 0.  0.
          2    1    1    2  501    0 -0.60980000078E+02  0.14478471739E+03 -0.17729538267E+04  0.17799006844E+04  0.00000000000E+00 0. -1.
          1    1    1    2  502    0 -0.70236699731E+02 -0.93933785151E+01  0.11859275111E+04  0.11880427143E+04  0.00000000000E+00 0. -1.
         22    1    3    3    0    0  0.42708133520E+02 -0.72141534028E+02  0.57402638071E+02  0.10160437224E+03  0.00000000000E+00 0. -1.
         22    1    3    3    0    0  0.88508566289E+02 -0.63249804850E+02  0.32471904913E+03  0.34245695348E+03  0.00000000000E+00 0. -1.
</event>
<event>
 7    1  0.7457412E-006  0.4585226E+02  0.7818608E-02  0.1550353E+00
          2   -1    0    0  502    0  0.00000000000E+00  0.00000000000E+00  0.19896515864E+04  0.19896515864E+04  0.00000000000E+00 0. -1.
          1   -1    0    0  501    0 -0.00000000000E+00 -0.00000000000E+00 -0.95427585509E+03  0.95427585509E+03  0.00000000000E+00 0. -1.
         25    2    1    2    0    0  0.45845117622E+02 -0.23773539263E+02  0.31785746507E+03  0.34543593438E+03  0.12500264270E+03 0.  0.
          2    1    1    2  501    0 -0.24215232812E+02  0.38939379590E+02 -0.93982237050E+03  0.94094034927E+03  0.00000000000E+00 0. -1.
          1    1    1    2  502    0 -0.21629884810E+02 -0.15165840327E+02  0.16573406368E+04  0.16575511578E+04  0.00000000000E+00 0. -1.
         22    1    3    3    0    0  0.51713305387E+02  0.43563833512E+02  0.15473072904E+03  0.16885991844E+03  0.00000000000E+00 0. -1.
         22    1    3    3    0    0 -0.58681877646E+01 -0.67337372775E+02  0.16312673603E+03  0.17657601595E+03  0.00000000000E+00 0. -1.
</event>
<event>
 7    1  0.7457412E-006  0.5255893E+02  0.7818608E-02  0.1491819E+00
          2   -1    0    0  502    0  0.00000000000E+00  0.00000000000E+00  0.70434477651E+03  0.70434477651E+03  0.00000000000E+00 0. -1.
          1   -1    0    0  501    0 -0.00000000000E+00 -0.00000000000E+00 -0.24764958796E+03  0.24764958796E+03  0.00000000000E+00 0. -1.
         25    2    1    2    0    0 -0.80495958528E+02 -0.30909472374E+02 -0.28118634095E+02  0.15443652728E+03  0.12499995421E+03 0.  0.
          2    1    1    2  501    0  0.32048351163E+02  0.11565900879E+02 -0.15343919217E+03  0.15717650132E+03  0.00000000000E+00 0. -1.
          1    1    1    2  502    0  0.48447607365E+02  0.19343571496E+02  0.63825301481E+03  0.64038133587E+03  0.00000000000E+00 0. -1.
         22    1    3    3    0    0 -0.16004108273E+02 -0.64906002582E+02  0.16639520931E+02  0.68889725719E+02  0.00000000000E+00 0. -1.
         22    1    3    3    0    0 -0.64491850255E+02  0.33996530207E+02 -0.44758155027E+02  0.85546801558E+02  0.00000000000E+00 0. -1.
</event>
<event>
 7    1  0.7457412E-006  0.9316692E+02  0.7818608E-02  0.1351354E+00
          2   -1    0    0  502    0  0.00000000000E+00  0.00000000000E+00  0.40538401903E+03  0.40538401903E+03  0.00000000000E+00 0. -1.
          1   -1    0    0  501    0 -0.00000000000E+00 -0.00000000000E+00 -0.66011276433E+03  0.66011276433E+03  0.00000000000E+00 0. -1.
         25    2    1    2    0    0 -0.81122331466E+02  0.80958371387E+02  0.32386426182E+03  0.36558036422E+03  0.12500340818E+03 0.  0.
          2    1    1    2  501    0  0.11840549083E+02 -0.55376686458E+02 -0.61498254300E+03  0.61758424866E+03  0.00000000000E+00 0. -1.
          1    1    1    2  502    0  0.69281782383E+02 -0.25581684928E+02  0.36389535876E+02  0.82332170476E+02  0.00000000000E+00 0. -1.
         22    1    3    3    0    0 -0.10013223313E+03  0.41237628069E+02  0.29140104792E+03  0.31087228375E+03  0.00000000000E+00 0.  1.
         22    1    3    3    0    0  0.19009901662E+02  0.39720743318E+02  0.32463213903E+02  0.54708080462E+02  0.00000000000E+00 0.  1.
</event>
<event>
 7    1  0.7457412E-006  0.4413347E+02  0.7818608E-02  0.1513299E+00
          2   -1    0    0  502    0  0.00000000000E+00  0.00000000000E+00  0.24249642874E+04  0.24249642874E+04  0.00000000000E+00 0. -1.
          1   -1    0    0  501    0 -0.00000000000E+00 -0.00000000000E+00 -0.21771141455E+03  0.21771141455E+03  0.00000000000E+00 0. -1.
         25    2    1    2    0    0  0.33585107889E+02  0.37032365058E+02  0.46424596092E+03  0.48336967598E+03  0.12499030320E+03 0.  0.
          2    1    1    2  501    0 -0.34259627624E+02  0.72877139560E+01 -0.20642234327E+03  0.20937291291E+03  0.00000000000E+00 0. -1.
          1    1    1    2  502    0  0.67451973440E+00 -0.44320079014E+02  0.19494292552E+04  0.19499331131E+04  0.00000000000E+00 0. -1.
         22    1    3    3    0    0 -0.38513978059E+02  0.39685650477E+02  0.28182376711E+03  0.28719838626E+03  0.00000000000E+00 0. -1.
         22    1    3    3    0    0  0.72099085948E+02 -0.26532854193E+01  0.18242219381E+03  0.19617128972E+03  0.00000000000E+00 0. -1.
</event>
<event>
 7    1  0.7457412E-006  0.1074737E+03  0.7818608E-02  0.1280546E+00
          2   -1    0    0  502    0  0.00000000000E+00  0.00000000000E+00  0.38000627706E+03  0.38000627706E+03  0.00000000000E+00 0. -1.
          1   -1    0    0  501    0 -0.00000000000E+00 -0.00000000000E+00 -0.62773013366E+03  0.62773013366E+03  0.00000000000E+00 0. -1.
         25    2    1    2    0    0 -0.53639770586E+02  0.21649545133E+01 -0.13263280081E+03  0.18999673763E+03  0.12500155376E+03 0.  0.
          2    1    1    2  501    0 -0.12957153883E+02 -0.91916421578E+02 -0.45269702161E+03  0.46211590512E+03  0.00000000000E+00 0. -1.
          1    1    1    2  502    0  0.66596924469E+02  0.89751467065E+02  0.33760596582E+03  0.35562376797E+03  0.00000000000E+00 0. -1.
         22    1    3    3    0    0  0.29307207462E+02  0.55030862148E+01  0.40361491015E+01  0.30091308823E+02  0.00000000000E+00 0. -1.
         22    1    3    3    0    0 -0.82946978048E+02 -0.33381317015E+01 -0.13666894992E+03  0.15990542881E+03  0.00000000000E+00 0. -1.
</event>
<event>
 7    1  0.7457412E-006  0.4144175E+02  0.7818608E-02  0.1506395E+00
          2   -1    0    0  502    0  0.00000000000E+00  0.00000000000E+00  0.43818172383E+02  0.43818172383E+02  0.00000000000E+00 0. -1.
          1   -1    0    0  501    0 -0.00000000000E+00 -0.00000000000E+00 -0.70887293550E+03  0.70887293550E+03  0.00000000000E+00 0. -1.
         25    2    1    2    0    0 -0.52583000063E+01  0.40597565550E+01 -0.16847775073E+03  0.20989068705E+03  0.12500086670E+03 0.  0.
          2    1    1    2  501    0 -0.30946825140E+02 -0.27562886840E+02 -0.49789373953E+03  0.49961544670E+03  0.00000000000E+00 0. -1.
          1    1    1    2  502    0  0.36205125146E+02  0.23503130285E+02  0.13167271530E+01  0.43184974128E+02  0.00000000000E+00 0. -1.
         22    1    3    3    0    0 -0.78809471398E+01  0.44788491617E+02 -0.16237588915E+03  0.16862398313E+03  0.00000000000E+00 0. -1.
         22    1    3    3    0    0  0.26226471335E+01 -0.40728735062E+02 -0.61018615857E+01  0.41266703922E+02  0.00000000000E+00 0. -1.
</event>
<event>
 7    1  0.7457412E-006  0.1776631E+03  0.7818608E-02  0.1272489E+00
          2   -1    0    0  502    0  0.00000000000E+00  0.00000000000E+00  0.20811847444E+04  0.20811847444E+04  0.00000000000E+00 0. -1.
          1   -1    0    0  501    0 -0.00000000000E+00 -0.00000000000E+00 -0.70479321482E+02  0.70479321482E+02  0.00000000000E+00 0. -1.
         25    2    1    2    0    0 -0.40511221660E+02  0.17533744377E+03  0.93990271145E+03  0.96510419441E+03  0.12499848322E+03 0.  0.
          2    1    1    2  501    0 -0.20102483687E+02 -0.17751385411E+03  0.83158202930E+02  0.19705472581E+03  0.00000000000E+00 0. -1.
          1    1    1    2  502    0  0.60613705347E+02  0.21764103363E+01  0.98764450855E+03  0.98950514567E+03  0.00000000000E+00 0. -1.
         22    1    3    3    0    0 -0.39716099923E+02  0.15391073088E+03  0.49953376722E+03  0.52421356933E+03  0.00000000000E+00 0. -1.
         22    1    3    3    0    0 -0.79512173731E+00  0.21426712890E+02  0.44036894423E+03  0.44089062508E+03  0.00000000000E+00 0. -1.
</event>
<event>
 7    1  0.7457412E-006  0.1111122E+03  0.7818608E-02  0.1292493E+00
          2   -1    0    0  502    0  0.00000000000E+00  0.00000000000E+00  0.89539010672E+03  0.89539010672E+03  0.00000000000E+00 0. -1.
          1   -1    0    0  501    0 -0.00000000000E+00 -0.00000000000E+00 -0.85195429551E+03  0.85195429551E+03  0.00000000000E+00 0. -1.
         25    2    1    2    0    0 -0.12947196859E+01  0.16491897936E+03  0.19641952757E+03  0.28531664103E+03  0.12500003514E+03 0.  0.
          2    1    1    2  501    0  0.47879006482E+02 -0.99596391810E+02 -0.80124035032E+03  0.80882503640E+03  0.00000000000E+00 0. -1.
          1    1    1    2  502    0 -0.46584286796E+02 -0.65322587554E+02  0.64825663396E+03  0.65320272481E+03  0.00000000000E+00 0. -1.
         22    1    3    3    0    0 -0.61145334954E+02  0.61130985930E+02  0.71105959854E+02  0.11194555353E+03  0.00000000000E+00 0.  1.
         22    1    3    3    0    0  0.59850615268E+02  0.10378799343E+03  0.12531356771E+03  0.17337108750E+03  0.00000000000E+00 0.  1.
</event>
<event>
 7    1  0.7457412E-006  0.4517681E+02  0.7818608E-02  0.1515774E+00
          2   -1    0    0  502    0  0.00000000000E+00  0.00000000000E+00  0.30971884348E+03  0.30971884348E+03  0.00000000000E+00 0. -1.
          1   -1    0    0  501    0 -0.00000000000E+00 -0.00000000000E+00 -0.64430543057E+03  0.64430543057E+03  0.00000000000E+00 0. -1.
         25    2    1    2    0    0  0.70712620109E+02 -0.22587117005E+02 -0.28853599106E+02  0.14821825501E+03  0.12500267373E+03 0.  0.
          2    1    1    2  501    0 -0.33585958898E+02 -0.20993616100E+01 -0.55326668401E+03  0.55428913717E+03  0.00000000000E+00 0. -1.
          1    1    1    2  502    0 -0.37126661212E+02  0.24686478615E+02  0.24753369602E+03  0.25151688187E+03  0.00000000000E+00 0. -1.
         22    1    3    3    0    0  0.34825276140E+02  0.60354303854E+01 -0.75134931720E+02  0.83033031034E+02  0.00000000000E+00 0.  1.
         22    1    3    3    0    0  0.35887343969E+02 -0.28622547390E+02  0.46281332614E+02  0.65185223976E+02  0.00000000000E+00 0.  1.
</event>
<event>
 7    1  0.7457412E-006  0.3750627E+03  0.7818608E-02  0.1296740E+00
          2   -1    0    0  502    0  0.00000000000E+00  0.00000000000E+00  0.13296464738E+04  0.13296464738E+04  0.00000000000E+00 0. -1.
          1   -1    0    0  501    0 -0.00000000000E+00 -0.00000000000E+00 -0.12871746680E+04  0.12871746680E+04  0.00000000000E+00 0. -1.
         25    2    1    2    0    0 -0.85784111706E+02 -0.36747200922E+03  0.12688006937E+01  0.39751904874E+03  0.12500077149E+03 0.  0.
          2    1    1    2  501    0 -0.21289366836E+02  0.82953084956E+01 -0.10578517201E+04  0.10580984411E+04  0.00000000000E+00 0. -1.
          1    1    1    2  502    0  0.10707347854E+03  0.35917670073E+03  0.10990547253E+04  0.11612036520E+04  0.00000000000E+00 0. -1.
         22    1    3    3    0    0 -0.60992429938E+02 -0.36651254311E+03 -0.62144687010E+01  0.37160481750E+03  0.00000000000E+00 0. -1.
         22    1    3    3    0    0 -0.24791681768E+02 -0.95946611500E+00  0.74832693947E+01  0.25914231244E+02  0.00000000000E+00 0. -1.
</event>
<event>
 7    1  0.7457412E-006  0.4641629E+02  0.7818608E-02  0.1542388E+00
          2   -1    0    0  502    0  0.00000000000E+00  0.00000000000E+00  0.41448836031E+02  0.41448836031E+02  0.00000000000E+00 0. -1.
          1   -1    0    0  501    0 -0.00000000000E+00 -0.00000000000E+00 -0.63925013837E+03  0.63925013837E+03  0.00000000000E+00 0. -1.
         25    2    1    2    0    0 -0.33584682811E+02  0.58479802039E+02 -0.25787462154E+03  0.29440075386E+03  0.12499866107E+03 0.  0.
          2    1    1    2  501    0  0.32551084258E+02 -0.31026653622E+02 -0.35301464280E+03  0.35586734094E+03  0.00000000000E+00 0. -1.
          1    1    1    2  502    0  0.10335985531E+01 -0.27453148417E+02  0.13087962000E+02  0.30430879601E+02  0.00000000000E+00 0. -1.
         22    1    3    3    0    0  0.40615484792E+02  0.47269585307E+02 -0.15503781151E+03  0.16709504570E+03  0.00000000000E+00 0. -1.
         22    1    3    3    0    0 -0.74200167603E+02  0.11210216732E+02 -0.10283681004E+03  0.12730570816E+03  0.00000000000E+00 0. -1.
</event>
<event>
 7    1  0.7457412E-006  0.7333652E+02  0.7818608E-02  0.1399699E+00
          2   -1    0    0  502    0  0.00000000000E+00  0.00000000000E+00  0.12451573158E+04  0.12451573158E+04  0.00000000000E+00 0. -1.
          1   -1    0    0  501    0 -0.00000000000E+00 -0.00000000000E+00 -0.13454744361E+04  0.13454744361E+04  0.00000000000E+00 0. -1.
         25    2    1    2    0    0  0.11710347109E+03  0.22657890201E+02  0.24970714562E+02  0.17457467734E+03  0.12500471372E+03 0.  0.
          2    1    1    2  501    0 -0.48359795892E+02  0.83107259762E+00 -0.12690594240E+04  0.12699807803E+04  0.00000000000E+00 0. -1.
          1    1    1    2  502    0 -0.68743675200E+02 -0.23488962798E+02  0.11437715892E+04  0.11460762943E+04  0.00000000000E+00 0. -1.
         22    1    3    3    0    0  0.84101306470E+02  0.73796480104E+02  0.14656923441E+02  0.11284403232E+03  0.00000000000E+00 0. -1.
         22    1    3    3    0    0  0.33002164623E+02 -0.51138589904E+02  0.10313791122E+02  0.61730645019E+02  0.00000000000E+00 0. -1.
</event>
<event>
 7    1  0.7457412E-006  0.2056900E+03  0.7818608E-02  0.1155180E+00
          2   -1    0    0  502    0  0.00000000000E+00  0.00000000000E+00  0.24096940202E+04  0.24096940202E+04  0.00000000000E+00 0. -1.
          1   -1    0    0  501    0 -0.00000000000E+00 -0.00000000000E+00 -0.79309815582E+03  0.79309815582E+03  0.00000000000E+00 0. -1.
         25    2    1    2    0    0 -0.48074232132E+02  0.21658862032E+01 -0.11519293862E+03  0.17666425754E+03  0.12500009571E+03 0.  0.
          2    1    1    2  501    0 -0.87059720276E+02  0.16025774809E+03 -0.62950914247E+03  0.65539583548E+03  0.00000000000E+00 0. -1.
          1    1    1    2  502    0  0.13513395241E+03 -0.16242363429E+03  0.23612979455E+04  0.23707320830E+04  0.00000000000E+00 0. -1.
         22    1    3    3    0    0 -0.24720520546E+00 -0.61102687815E+01 -0.12664595939E+03  0.12679351531E+03  0.00000000000E+00 0.  1.
         22    1    3    3    0    0 -0.47827026926E+02  0.82761549846E+01  0.11453020770E+02  0.49870742231E+02  0.00000000000E+00 0.  1.
</event>
<event>
 7    1  0.7457412E-006  0.1865734E+03  0.7818608E-02  0.1247088E+00
          2   -1    0    0  502    0  0.00000000000E+00  0.00000000000E+00  0.36103079486E+04  0.36103079486E+04  0.00000000000E+00 0. -1.
          1   -1    0    0  501    0 -0.00000000000E+00 -0.00000000000E+00 -0.12315018842E+03  0.12315018842E+03  0.00000000000E+00 0. -1.
         25    2    1    2    0    0  0.99549778441E+02  0.84021445068E+02  0.13326429846E+03  0.22439693120E+03  0.12499939148E+03 0.  0.
          2    1    1    2  501    0  0.73887426138E+02 -0.61261706741E+01 -0.56597601811E+02  0.93274703104E+02  0.00000000000E+00 0. -1.
          1    1    1    2  502    0 -0.17343720458E+03 -0.77895274394E+02  0.34104910635E+04  0.34157865027E+04  0.00000000000E+00 0. -1.
         22    1    3    3    0    0  0.69365114032E+02  0.77924699423E+02  0.18981636868E+02  0.10603810807E+03  0.00000000000E+00 0. -1.
         22    1    3    3    0    0  0.30184664410E+02  0.60967456455E+01  0.11428266159E+03  0.11835882313E+03  0.00000000000E+00 0. -1.
</event>
<event>
 7    1  0.7457412E-006  0.6125253E+02  0.7818608E-02  0.1441939E+00
          2   -1    0    0  502    0  0.00000000000E+00  0.00000000000E+00  0.82107355982E+03  0.82107355982E+03  0.00000000000E+00 0. -1.
          1   -1    0    0  501    0 -0.00000000000E+00 -0.00000000000E+00 -0.10011152254E+03  0.10011152254E+03  0.00000000000E+00 0. -1.
         25    2    1    2    0    0  0.18330261645E+02  0.23550514264E+02  0.25677475216E+03  0.28713763893E+03  0.12499650046E+03 0.  0.
          2    1    1    2  501    0 -0.59928802434E+02 -0.18876732827E+02 -0.72381553696E+02  0.95848222304E+02  0.00000000000E+00 0. -1.
          1    1    1    2  502    0  0.41598540789E+02 -0.46737814376E+01  0.53656883882E+03  0.53819922113E+03  0.00000000000E+00 0. -1.
         22    1    3    3    0    0  0.61345566140E+02  0.31812645919E+02  0.83368809054E+02  0.10828518481E+03  0.00000000000E+00 0. -1.
         22    1    3    3    0    0 -0.43015304495E+02 -0.82621316552E+01  0.17340594311E+03  0.17885245412E+03  0.00000000000E+00 0. -1.
</event>
<event>
 7    1  0.7457412E-006  0.4617967E+02  0.7818608E-02  0.1520752E+00
          2   -1    0    0  502    0  0.00000000000E+00  0.00000000000E+00  0.26753165842E+04  0.26753165842E+04  0.00000000000E+00 0. -1.
          1   -1    0    0  501    0 -0.00000000000E+00 -0.00000000000E+00 -0.39841870140E+03  0.39841870140E+03  0.00000000000E+00 0. -1.
         25    2    1    2    0    0 -0.32791704976E+02  0.20750065666E+02  0.37951172642E+03  0.40145128494E+03  0.12501248956E+03 0.  0.
          2    1    1    2  501    0  0.45461613918E+02  0.84610366844E+01 -0.38595777012E+03  0.38871808267E+03  0.00000000000E+00 0. -1.
          1    1    1    2  502    0 -0.12669908942E+02 -0.29211102350E+02  0.22833439265E+04  0.22835659180E+04  0.00000000000E+00 0. -1.
         22    1    3    3    0    0  0.33373775407E+02  0.48323646290E+02  0.15382147812E+03  0.16465123992E+03  0.00000000000E+00 0.  1.
         22    1    3    3    0    0 -0.66165480384E+02 -0.27573580624E+02  0.22569024830E+03  0.23680004502E+03  0.00000000000E+00 0.  1.
</event>
<event>
 7    1  0.7457412E-006  0.1041678E+03  0.7818608E-02  0.1403507E+00
          2   -1    0    0  502    0  0.00000000000E+00  0.00000000000E+00  0.78931262208E+02  0.78931262208E+02  0.00000000000E+00 0. -1.
          1   -1    0    0  501    0 -0.00000000000E+00 -0.00000000000E+00 -0.48789707915E+03  0.48789707915E+03  0.00000000000E+00 0. -1.
         25    2    1    2    0    0 -0.78738263060E+02 -0.81578692223E+02 -0.64328089675E+02  0.18060444062E+03  0.12500025503E+03 0.  0.
          2    1    1    2  501    0  0.32801619619E+02 -0.39816159324E+01 -0.24453020848E+03  0.24675255293E+03  0.00000000000E+00 0. -1.
          1    1    1    2  502    0  0.45936643441E+02  0.85560308156E+02 -0.10010751879E+03  0.13947134781E+03  0.00000000000E+00 0. -1.
         22    1    3    3    0    0 -0.10385945520E+03 -0.43564906722E+02 -0.73009564560E+02  0.13422028181E+03  0.00000000000E+00 0. -1.
         22    1    3    3    0    0  0.25121192140E+02 -0.38013785501E+02  0.86814748853E+01  0.46384158814E+02  0.00000000000E+00 0. -1.
</event>
<event>
 7    1  0.7457412E-006  0.1512203E+03  0.7818608E-02  0.1202925E+00
          2   -1    0    0  502    0  0.00000000000E+00  0.00000000000E+00  0.33009495094E+04  0.33009495094E+04  0.00000000000E+00 0. -1.
          1   -1    0    0  501    0 -0.00000000000E+00 -0.00000000000E+00 -0.37956705680E+03  0.37956705680E+03  0.00000000000E+00 0. -1.
         25    2    1    2    0    0 -0.26566166507E+03  0.11959304389E+03  0.13352586107E+03  0.34399657477E+03  0.12500348572E+03 0.  0.
          2    1    1    2  501    0  0.12334851602E+03 -0.76015572335E+02 -0.25325273234E+03  0.29177074918E+03  0.00000000000E+00 0. -1.
          1    1    1    2  502    0  0.14231314906E+03 -0.43577471557E+02  0.30411093239E+04  0.30447492423E+04  0.00000000000E+00 0. -1.
         22    1    3    3    0    0 -0.24055164016E+03  0.13487689949E+03  0.87403459672E+02  0.28930301478E+03  0.00000000000E+00 0.  1.
         22    1    3    3    0    0 -0.25110024916E+02 -0.15283855603E+02  0.46122401395E+02  0.54693559985E+02  0.00000000000E+00 0.  1.
</event>
<event>
 7    1  0.7457412E-006  0.3691584E+02  0.7818608E-02  0.1578661E+00
          2   -1    0    0  502    0  0.00000000000E+00  0.00000000000E+00  0.15376373190E+03  0.15376373190E+03  0.00000000000E+00 0. -1.
          1   -1    0    0  501    0 -0.00000000000E+00 -0.00000000000E+00 -0.21100089335E+03  0.21100089335E+03  0.00000000000E+00 0. -1.
         25    2    1    2    0    0  0.23172598237E+02 -0.54787626460E+02  0.46300032700E+02  0.14597012382E+03  0.12499972279E+03 0.  0.
          2    1    1    2  501    0 -0.18316676438E+02  0.20446798006E+02 -0.15462691121E+03  0.15704475112E+03  0.00000000000E+00 0. -1.
          1    1    1    2  502    0 -0.48559217988E+01  0.34340828454E+02  0.51089717055E+02  0.61749750316E+02  0.00000000000E+00 0. -1.
         22    1    3    3    0    0  0.74287758306E+02 -0.38524880720E+02  0.19130640857E+02  0.85841824819E+02  0.00000000000E+00 0. -1.
         22    1    3    3    0    0 -0.51115160070E+02 -0.16262745740E+02  0.27169391843E+02  0.60128299004E+02  0.00000000000E+00 0. -1.
</event>
<event>
 7    1  0.7457412E-006  0.6892787E+02  0.7818608E-02  0.1516756E+00
          2   -1    0    0  502    0  0.00000000000E+00  0.00000000000E+00  0.23615405806E+03  0.23615405806E+03  0.00000000000E+00 0. -1.
          1   -1    0    0  501    0 -0.00000000000E+00 -0.00000000000E+00 -0.11041252061E+04  0.11041252061E+04  0.00000000000E+00 0. -1.
         25    2    1    2    0    0 -0.61924930976E+02  0.47686500528E+01  0.48755788280E+02  0.14785225924E+03  0.12500290626E+03 0.  0.
          2    1    1    2  501    0  0.67031810559E+02  0.16538690333E+02 -0.10525681405E+04  0.10548300727E+04  0.00000000000E+00 0. -1.
          1    1    1    2  502    0 -0.51068795829E+01 -0.21307340386E+02  0.13584120423E+03  0.13759693216E+03  0.00000000000E+00 0. -1.
         22    1    3    3    0    0 -0.37461080397E+02 -0.28090751712E+02  0.82444537020E+02  0.94813103318E+02  0.00000000000E+00 0. -1.
         22    1    3    3    0    0 -0.24463850579E+02  0.32859401765E+02 -0.33688748740E+02  0.53039155924E+02  0.00000000000E+00 0. -1.
</event>
<event>
 7    1  0.7457412E-006  0.1719632E+03  0.7818608E-02  0.1272642E+00
          2   -1    0    0  502    0  0.00000000000E+00  0.00000000000E+00  0.61196042945E+03  0.61196042945E+03  0.00000000000E+00 0. -1.
          1   -1    0    0  501    0 -0.00000000000E+00 -0.00000000000E+00 -0.19011262938E+03  0.19011262938E+03  0.00000000000E+00 0. -1.
         25    2    1    2    0    0 -0.16335857734E+03  0.10355918246E+03  0.55196360052E+02  0.23681671461E+03  0.12499995637E+03 0.  0.
          2    1    1    2  501    0 -0.12748847007E+01 -0.62557871625E+02 -0.71731828309E+02  0.95187015006E+02  0.00000000000E+00 0. -1.
          1    1    1    2  502    0  0.16463346204E+03 -0.41001310835E+02  0.43838326833E+03  0.47006932922E+03  0.00000000000E+00 0. -1.
         22    1    3    3    0    0 -0.48424973224E+02  0.56210458405E+02 -0.36175778757E+02  0.82542598908E+02  0.00000000000E+00 0. -1.
         22    1    3    3    0    0 -0.11493360412E+03  0.47348724055E+02  0.91372138809E+02  0.15427411570E+03  0.00000000000E+00 0. -1.
</event>
<event>
 7    1  0.7457412E-006  0.4606971E+02  0.7818608E-02  0.1482838E+00
          2   -1    0    0  502    0  0.00000000000E+00  0.00000000000E+00  0.13506439376E+04  0.13506439376E+04  0.00000000000E+00 0. -1.
          1   -1    0    0  501    0 -0.00000000000E+00 -0.00000000000E+00 -0.53643277459E+02  0.53643277459E+02  0.00000000000E+00 0. -1.
         25    2    1    2    0    0 -0.32539858549E+02  0.27030688412E+02  0.32282846042E+03  0.34876378170E+03  0.12501383947E+03 0.  0.
          2    1    1    2  501    0 -0.38344536286E+01 -0.46779926691E+02 -0.26563466384E+02  0.53932201162E+02  0.00000000000E+00 0. -1.
          1    1    1    2  502    0  0.36374312178E+02  0.19749238279E+02  0.10007356661E+04  0.10015912322E+04  0.00000000000E+00 0. -1.
         22    1    3    3    0    0 -0.35039338657E+02  0.70268063260E+02  0.13654097556E+03  0.15750807590E+03  0.00000000000E+00 0. -1.
         22    1    3    3    0    0  0.24994801080E+01 -0.43237374848E+02  0.18628748487E+03  0.19125570580E+03  0.00000000000E+00 0. -1.
</event>
<event>
 7    1  0.7457412E-006  0.7691791E+02  0.7818608E-02  0.1343846E+00
          2   -1    0    0  502    0  0.00000000000E+00  0.00000000000E+00  0.14326602039E+04  0.14326602039E+04  0.00000000000E+00 0. -1.
          1   -1    0    0  501    0 -0.00000000000E+00 -0.00000000000E+00 -0.27029024697E+04  0.27029024697E+04  0.00000000000E+00 0. -1.
         25    2    1    2    0    0 -0.97163906309E+02 -0.99423366463E+02 -0.13052624143E+02  0.18743267541E+03  0.12503921915E+03 0.  0.
          2    1    1    2  501    0  0.27727292079E+02  0.67686954204E+02 -0.26010622508E+04  0.26020905363E+04  0.00000000000E+00 0. -1.
          1    1    1    2  502    0  0.69436614230E+02  0.31736412258E+02  0.13438726091E+04  0.13460394618E+04  0.00000000000E+00 0. -1.
         22    1    3    3    0    0 -0.17749402432E+02 -0.99472251858E+02  0.17112244537E+02  0.10248218913E+03  0.00000000000E+00 0. -1.
         22    1    3    3    0    0 -0.79414503877E+02  0.48885394844E-01 -0.30164868680E+02  0.84950486275E+02  0.00000000000E+00 0. -1.
</event>
<event>
 7    1  0.7457412E-006  0.1175578E+03  0.7818608E-02  0.1360416E+00
          2   -1    0    0  502    0  0.00000000000E+00  0.00000000000E+00  0.42862492947E+03  0.42862492947E+03  0.00000000000E+00 0. -1.
          1   -1    0    0  501    0 -0.00000000000E+00 -0.00000000000E+00 -0.10255104511E+04  0.10255104511E+04  0.00000000000E+00 0. -1.
         25    2    1    2    0    0  0.92855857041E+02  0.64816758848E+02 -0.18719564147E+03  0.25197449772E+03  0.12500206760E+03 0.  0.
          2    1    1    2  501    0 -0.67672463539E+02 -0.97888897703E+02 -0.80042385823E+03  0.80922194202E+03  0.00000000000E+00 0. -1.
          1    1    1    2  502    0 -0.25183393502E+02  0.33072138855E+02  0.39073397802E+03  0.39293894088E+03  0.00000000000E+00 0. -1.
         22    1    3    3    0    0  0.65827720380E+02 -0.22859286782E+02 -0.45685142985E+02  0.83324474509E+02  0.00000000000E+00 0.  1.
         22    1    3    3    0    0  0.27028136660E+02  0.87676045630E+02 -0.14151049849E+03  0.16865002322E+03  0.00000000000E+00 0.  1.
</event>
<event>
 7    1  0.7457412E-006  0.6908642E+02  0.7818608E-02  0.1390910E+00
          2   -1    0    0  502    0  0.00000000000E+00  0.00000000000E+00  0.18256455661E+03  0.18256455661E+03  0.00000000000E+00 0. -1.
          1   -1    0    0  501    0 -0.00000000000E+00 -0.00000000000E+00 -0.48228928029E+03  0.48228928029E+03  0.00000000000E+00 0. -1.
         25    2    1    2    0    0 -0.20770086824E+02  0.63686700052E+01  0.17810983498E+02  0.12811585387E+03  0.12499793764E+03 0.  0.
          2    1    1    2  501    0  0.67446750121E+02  0.22853369796E+02 -0.41700500957E+03  0.42304198210E+03  0.00000000000E+00 0. -1.
          1    1    1    2  502    0 -0.46676663298E+02 -0.29222039801E+02  0.99469302397E+02  0.11369600092E+03  0.00000000000E+00 0. -1.
         22    1    3    3    0    0 -0.11740232266E+02 -0.19038545786E+02 -0.50198403142E+02  0.54956154863E+02  0.00000000000E+00 0. -1.
         22    1    3    3    0    0 -0.90298545578E+01  0.25407215791E+02  0.68009386640E+02  0.73159699007E+02  0.00000000000E+00 0. -1.
</event>
<event>
 7    1  0.7457412E-006  0.1104394E+03  0.7818608E-02  0.1393092E+00
          2   -1    0    0  502    0  0.00000000000E+00  0.00000000000E+00  0.25289787498E+04  0.25289787498E+04  0.00000000000E+00 0. -1.
          1   -1    0    0  501    0 -0.00000000000E+00 -0.00000000000E+00 -0.77243634513E+02  0.77243634513E+02  0.00000000000E+00 0. -1.
         25    2    1    2    0    0 -0.79029149236E+02 -0.22321676080E+02  0.12666718464E+03  0.19599794895E+03  0.12500702651E+03 0.  0.
          2    1    1    2  501    0 -0.21423724431E+02 -0.26210638704E+02 -0.34316616917E+02  0.48203773156E+02  0.00000000000E+00 0. -1.
          1    1    1    2  502    0  0.10045287367E+03  0.48532314784E+02  0.23593845475E+04  0.23620206622E+04  0.00000000000E+00 0. -1.
         22    1    3    3    0    0  0.32209183950E+02  0.79752815430E+01  0.38717445642E+02  0.50990952565E+02  0.00000000000E+00 0. -1.
         22    1    3    3    0    0 -0.11123833319E+03 -0.30296957623E+02  0.87949738999E+02  0.14500699639E+03  0.00000000000E+00 0. -1.
</event>
<event>
 7    1  0.7457412E-006  0.7872022E+02  0.7818608E-02  0.1482727E+00
          2   -1    0    0  502    0  0.00000000000E+00  0.00000000000E+00  0.64447953844E+03  0.64447953844E+03  0.00000000000E+00 0. -1.
          1   -1    0    0  501    0 -0.00000000000E+00 -0.00000000000E+00 -0.39888271405E+02  0.39888271405E+02  0.00000000000E+00 0. -1.
         25    2    1    2    0    0 -0.68269884595E+02 -0.64474129482E+02  0.15367808098E+03  0.21922535439E+03  0.12500045167E+03 0.  0.
          2    1    1    2  501    0  0.24220773813E+02  0.10080773514E+01  0.38068387765E+02  0.45131632488E+02  0.00000000000E+00 0. -1.
          1    1    1    2  502    0  0.44049110782E+02  0.63466052131E+02  0.41284479829E+03  0.42001082297E+03  0.00000000000E+00 0. -1.
         22    1    3    3    0    0 -0.40024059175E+02  0.19516958308E+02  0.32627484377E+01  0.44648432244E+02  0.00000000000E+00 0.  1.
         22    1    3    3    0    0 -0.28245825420E+02 -0.83991087791E+02  0.15041533254E+03  0.17457692214E+03  0.00000000000E+00 0.  1.
</event>
<event>
 7    1  0.7457412E-006  0.6074395E+02  0.7818608E-02  0.1419774E+00
          2   -1    0    0  502    0  0.00000000000E+00  0.00000000000E+00  0.91140439752E+03  0.91140439752E+03  0.00000000000E+00 0. -1.
          1   -1    0    0  501    0 -0.00000000000E+00 -0.00000000000E+00 -0.41738423665E+02  0.41738423665E+02  0.00000000000E+00 0. -1.
         25    2    1    2    0    0  0.10032858208E+03  0.25955139347E+02  0.43220339679E+03  0.46168632478E+03  0.12495996418E+03 0.  0.
          2    1    1    2  501    0 -0.44672620648E+02 -0.22287358751E+02 -0.53027860705E+00  0.49926451817E+02  0.00000000000E+00 0. -1.
          1    1    1    2  502    0 -0.55655961435E+02 -0.36677805965E+01  0.43799285567E+03  0.44153004459E+03  0.00000000000E+00 0. -1.
         22    1    3    3    0    0  0.11631990697E+03  0.29848622894E+01  0.40930896501E+03  0.42552680174E+03  0.00000000000E+00 0.  1.
         22    1    3    3    0    0 -0.15991324890E+02  0.22970277058E+02  0.22894431788E+02  0.36159523044E+02  0.00000000000E+00 0.  1.
</event>
<event>
 7    1  0.7457412E-006  0.8456814E+02  0.7818608E-02  0.1488151E+00
          2   -1    0    0  502    0  0.00000000000E+00  0.00000000000E+00  0.21495377690E+03  0.21495377690E+03  0.00000000000E+00 0. -1.
          1   -1    0    0  501    0 -0.00000000000E+00 -0.00000000000E+00 -0.98281240340E+03  0.98281240340E+03  0.00000000000E+00 0. -1.
         25    2    1    2    0    0  0.64437393469E+02  0.58101968617E+02 -0.62442482262E+02  0.16446865754E+03  0.12499143686E+03 0.  0.
          2    1    1    2  501    0 -0.17786481029E+02  0.12471984520E+02 -0.85829624972E+03  0.85857111621E+03  0.00000000000E+00 0. -1.
          1    1    1    2  502    0 -0.46650912440E+02 -0.70573953137E+02  0.15288010548E+03  0.17472640655E+03  0.00000000000E+00 0. -1.
         22    1    3    3    0    0  0.86859289047E+02  0.45644649352E+02 -0.12636961862E+01  0.98130357363E+02  0.00000000000E+00 0.  1.
         22    1    3    3    0    0 -0.22421895578E+02  0.12457319265E+02 -0.61178786076E+02  0.66338300177E+02  0.00000000000E+00 0.  1.
</event>
<event>
 7    1  0.7457412E-006  0.3945790E+02  0.7818608E-02  0.1518655E+00
          2   -1    0    0  502    0  0.00000000000E+00  0.00000000000E+00  0.15134437548E+04  0.15134437548E+04  0.00000000000E+00 0. -1.
          1   -1    0    0  501    0 -0.00000000000E+00 -0.00000000000E+00 -0.56803458402E+03  0.56803458402E+03  0.00000000000E+00 0. -1.
         25    2    1    2    0    0 -0.57938981950E+01  0.41143487667E+01  0.10294073835E+03  0.16208546888E+03  0.12499762593E+03 0.  0.
          2    1    1    2  501    0 -0.27562407474E+02 -0.25854702639E+02 -0.53751166136E+03  0.53883850833E+03  0.00000000000E+00 0. -1.
          1    1    1    2  502    0  0.33356305669E+02  0.21740353872E+02  0.13799800938E+04  0.13805543616E+04  0.00000000000E+00 0. -1.
         22    1    3    3    0    0 -0.55958405604E+02  0.12012398911E+01  0.96320684083E+02  0.11140224557E+03  0.00000000000E+00 0.  1.
         22    1    3    3    0    0  0.50164507409E+02  0.29131088756E+01  0.66200542634E+01  0.50683223312E+02  0.00000000000E+00 0.  1.
</event>
<event>
 7    1  0.7457412E-006  0.1262557E+03  0.7818608E-02  0.1363804E+00
          2   -1    0    0  502    0  0.00000000000E+00  0.00000000000E+00  0.23427468238E+03  0.23427468238E+03  0.00000000000E+00 0. -1.
          1   -1    0    0  501    0 -0.00000000000E+00 -0.00000000000E+00 -0.28272395509E+03  0.28272395509E+03  0.00000000000E+00 0. -1.
         25    2    1    2    0    0 -0.16654704990E+02  0.13606186141E+03 -0.47555115343E+02  0.19150161531E+03  0.12498468042E+03 0.  0.
          2    1    1    2  501    0 -0.18439925022E+02 -0.12250486587E+03 -0.13675411115E+03  0.18452414453E+03  0.00000000000E+00 0. -1.
          1    1    1    2  502    0  0.35094630012E+02 -0.13556995545E+02  0.13585995379E+03  0.14097287763E+03  0.00000000000E+00 0. -1.
         22    1    3    3    0    0 -0.47810729733E+02  0.67403351337E+02 -0.74670963290E+02  0.11137697432E+03  0.00000000000E+00 0. -1.
         22    1    3    3    0    0  0.31156024743E+02  0.68658510077E+02  0.27115847947E+02  0.80124640989E+02  0.00000000000E+00 0. -1.
</event>
<event>
 7    1  0.7457412E-006  0.1061593E+03  0.7818608E-02  0.1346729E+00
          2   -1    0    0  502    0  0.00000000000E+00  0.00000000000E+00  0.36490923431E+03  0.36490923431E+03  0.00000000000E+00 0. -1.
          1   -1    0    0  501    0 -0.00000000000E+00 -0.00000000000E+00 -0.31296471746E+03  0.31296471746E+03  0.00000000000E+00 0. -1.
         25    2    1    2    0    0  0.11437226034E+03 -0.77063605740E+02 -0.14797939675E+03  0.23778639567E+03  0.12499861935E+03 0.  0.
          2    1    1    2  501    0 -0.63230790891E+02  0.69478624751E+02 -0.99144339068E+02  0.13658335251E+03  0.00000000000E+00 0. -1.
          1    1    1    2  502    0 -0.51141469447E+02  0.75849809892E+01  0.29906825267E+03  0.30350420358E+03  0.00000000000E+00 0. -1.
         22    1    3    3    0    0  0.38101807898E+01 -0.58790631773E+02 -0.99616512042E+02  0.11573376920E+03  0.00000000000E+00 0.  1.
         22    1    3    3    0    0  0.11056207955E+03 -0.18272973967E+02 -0.48362884708E+02  0.12205262647E+03  0.00000000000E+00 0.  1.
</event>
<event>
 7    1  0.7457412E-006  0.2654589E+03  0.7818608E-02  0.1226224E+00
          2   -1    0    0  502    0  0.00000000000E+00  0.00000000000E+00  0.36244952866E+03  0.36244952866E+03  0.00000000000E+00 0. -1.
          1   -1    0    0  501    0 -0.00000000000E+00 -0.00000000000E+00 -0.69290729224E+03  0.69290729224E+03  0.00000000000E+00 0. -1.
         25    2    1    2    0    0 -0.11706034550E+03  0.18184812725E+03 -0.27028783941E+03  0.36803910582E+03  0.12500160559E+03 0.  0.
          2    1    1    2  501    0 -0.58857687224E+01  0.64213253270E+02 -0.30945191328E+03  0.31609883075E+03  0.00000000000E+00 0. -1.
          1    1    1    2  502    0  0.12294611423E+03 -0.24606138052E+03  0.24928198911E+03  0.37121888433E+03  0.00000000000E+00 0. -1.
         22    1    3    3    0    0 -0.14626842535E+02  0.12507344709E+03 -0.18225560646E+03  0.22152746506E+03  0.00000000000E+00 0.  1.
         22    1    3    3    0    0 -0.10243350297E+03  0.56774680164E+02 -0.88032232952E+02  0.14651164075E+03  0.00000000000E+00 0.  1.
</event>
<event>
 7    1  0.7457412E-006  0.4192549E+02  0.7818608E-02  0.1510156E+00
          2   -1    0    0  502    0  0.00000000000E+00  0.00000000000E+00  0.96254427097E+03  0.96254427097E+03  0.00000000000E+00 0. -1.
          1   -1    0    0  501    0 -0.00000000000E+00 -0.00000000000E+00 -0.11647718165E+03  0.11647718165E+03  0.00000000000E+00 0. -1.
         25    2    1    2    0    0  0.55155708916E+02  0.25945516300E+02  0.45230848647E+02  0.14624034763E+03  0.12500035025E+03 0.  0.
          2    1    1    2  501    0 -0.35944909824E+02  0.11244818720E+02 -0.60046860871E+02  0.70880942366E+02  0.00000000000E+00 0. -1.
          1    1    1    2  502    0 -0.19210799092E+02 -0.37190335019E+02  0.86088310154E+03  0.86190016263E+03  0.00000000000E+00 0. -1.
         22    1    3    3    0    0  0.26242012861E+02 -0.44981622501E+02 -0.83820363950E+01  0.52747020162E+02  0.00000000000E+00 0. -1.
         22    1    3    3    0    0  0.28913696055E+02  0.70927138801E+02  0.53612885042E+02  0.93493327465E+02  0.00000000000E+00 0. -1.
</event>
<event>
 7    1  0.7457412E-006  0.1540610E+03  0.7818608E-02  0.1259664E+00
          2   -1    0    0  502    0  0.00000000000E+00  0.00000000000E+00  0.64690345548E+03  0.64690345548E+03  0.00000000000E+00 0. -1.
          1   -1    0    0  501    0 -0.00000000000E+00 -0.00000000000E+00 -0.32378717454E+03  0.32378717454E+03  0.00000000000E+00 0. -1.
         25    2    1    2    0    0  0.62436838490E+02  0.52257976047E+02 -0.80383263747E+02  0.16945578457E+03  0.12499815588E+03 0.  0.
          2    1    1    2  501    0  0.54160155295E+02  0.57845226119E+02 -0.17969580206E+03  0.19639239773E+03  0.00000000000E+00 0. -1.
          1    1    1    2  502    0 -0.11659699378E+03 -0.11010320217E+03  0.58319534675E+03  0.60484244772E+03  0.00000000000E+00 0. -1.
         22    1    3    3    0    0  0.11164249501E+02 -0.38120607858E+02 -0.44201493574E+02  0.59427209632E+02  0.00000000000E+00 0. -1.
         22    1    3    3    0    0  0.51272588989E+02  0.90378583905E+02 -0.36181770173E+02  0.11002857494E+03  0.00000000000E+00 0. -1.
</event>
<event>
 7    1  0.7457412E-006  0.3238024E+03  0.7818608E-02  0.1167778E+00
          2   -1    0    0  502    0  0.00000000000E+00  0.00000000000E+00  0.26225318062E+04  0.26225318062E+04  0.00000000000E+00 0. -1.
          1   -1    0    0  501    0 -0.00000000000E+00 -0.00000000000E+00 -0.84851589617E+03  0.84851589617E+03  0.00000000000E+00 0. -1.
         25    2    1    2    0    0  0.41732411273E+03 -0.39455173512E+02 -0.23109147840E+03  0.49471659910E+03  0.12500046503E+03 0.  0.
          2    1    1    2  501    0 -0.96487367966E+02  0.26611895627E+02 -0.46997142540E+03  0.48051133790E+03  0.00000000000E+00 0. -1.
          1    1    1    2  502    0 -0.32083674476E+03  0.12843277886E+02  0.24750788138E+04  0.24958197654E+04  0.00000000000E+00 0. -1.
         22    1    3    3    0    0 -0.52104771916E+01 -0.10823833232E+02  0.50633008060E+00  0.12023344316E+02  0.00000000000E+00 0. -1.
         22    1    3    3    0    0  0.42253458992E+03 -0.28631340281E+02 -0.23159780848E+03  0.48269325479E+03  0.00000000000E+00 0. -1.
</event>
<event>
 7    1  0.7457412E-006  0.9574026E+02  0.7818608E-02  0.1449053E+00
          2   -1    0    0  502    0  0.00000000000E+00  0.00000000000E+00  0.11942594381E+04  0.11942594381E+04  0.00000000000E+00 0. -1.
          1   -1    0    0  501    0 -0.00000000000E+00 -0.00000000000E+00 -0.13941136178E+03  0.13941136178E+03  0.00000000000E+00 0. -1.
         25    2    1    2    0    0  0.31981054439E+02  0.67285473714E+02  0.38825737331E+03  0.41463131704E+03  0.12500087327E+03 0.  0.
          2    1    1    2  501    0 -0.53676629746E+02 -0.80503770349E+02 -0.10744287055E+03  0.14458910074E+03  0.00000000000E+00 0. -1.
          1    1    1    2  502    0  0.21695575307E+02  0.13218296635E+02  0.77403357351E+03  0.77445038206E+03  0.00000000000E+00 0. -1.
         22    1    3    3    0    0 -0.45901126294E+02  0.15101361518E+02  0.17757844999E+03  0.18403551401E+03  0.00000000000E+00 0.  1.
         22    1    3    3    0    0  0.77882180733E+02  0.52184112196E+02  0.21067892332E+03  0.23059580302E+03  0.00000000000E+00 0.  1.
</event>
<event>
 7    1  0.7457412E-006  0.3930726E+02  0.7818608E-02  0.1610162E+00
          2   -1    0    0  502    0  0.00000000000E+00  0.00000000000E+00  0.10311390336E+04  0.10311390336E+04  0.00000000000E+00 0. -1.
          1   -1    0    0  501    0 -0.00000000000E+00 -0.00000000000E+00 -0.63256887270E+02  0.63256887270E+02  0.00000000000E+00 0. -1.
         25    2    1    2    0    0 -0.16834172829E+02  0.84391282135E+01  0.12039255631E+03  0.17456983684E+03  0.12500260822E+03 0.  0.
          2    1    1    2  501    0 -0.21049837321E+02  0.32584540952E+01 -0.32546575876E+02  0.38897207812E+02  0.00000000000E+00 0. -1.
          1    1    1    2  502    0  0.37884010151E+02 -0.11697582309E+02  0.88003616587E+03  0.88092887619E+03  0.00000000000E+00 0. -1.
         22    1    3    3    0    0 -0.60905867545E+02  0.33477531040E+02  0.95465685655E+02  0.11808457530E+03  0.00000000000E+00 0. -1.
         22    1    3    3    0    0  0.44071694716E+02 -0.25038402827E+02  0.24926870650E+02  0.56485261544E+02  0.00000000000E+00 0. -1.
</event>
<event>
 7    1  0.7457412E-006  0.8442093E+02  0.7818608E-02  0.1396372E+00
          2   -1    0    0  502    0  0.00000000000E+00  0.00000000000E+00  0.19003594988E+04  0.19003594988E+04  0.00000000000E+00 0. -1.
          1   -1    0    0  501    0 -0.00000000000E+00 -0.00000000000E+00 -0.12328256809E+04  0.12328256809E+04  0.00000000000E+00 0. -1.
         25    2    1    2    0    0 -0.52970477311E+02 -0.20171502395E+02  0.39131560424E+03  0.41468826676E+03  0.12500278191E+03 0.  0.
          2    1    1    2  501    0  0.83971452802E+02 -0.98305493088E+01 -0.12193645725E+04  0.12222920294E+04  0.00000000000E+00 0. -1.
          1    1    1    2  502    0 -0.31000975491E+02  0.30002051704E+02  0.14955827861E+04  0.14962048836E+04  0.00000000000E+00 0. -1.
         22    1    3    3    0    0 -0.83807503740E+02  0.20262657998E+02  0.25626625499E+03  0.27038244477E+03  0.00000000000E+00 0.  1.
         22    1    3    3    0    0  0.30837026429E+02 -0.40434160393E+02  0.13504934925E+03  0.14430582199E+03  0.00000000000E+00 0.  1.
</event>
<event>
 7    1  0.7457412E-006  0.7676471E+02  0.7818608E-02  0.1496656E+00
          2   -1    0    0  502    0  0.00000000000E+00  0.00000000000E+00  0.78471352602E+03  0.78471352602E+03  0.00000000000E+00 0. -1.
          1   -1    0    0  501    0 -0.00000000000E+00 -0.00000000000E+00 -0.45399248348E+03  0.45399248348E+03  0.00000000000E+00 0. -1.
         25    2    1    2    0    0 -0.81590177057E+02  0.33117354315E+02 -0.45523485057E+02  0.15953497845E+03  0.12500122203E+03 0.  0.
          2    1    1    2  501    0  0.19376349627E+02  0.11553447800E+02 -0.34908290371E+03  0.34981109008E+03  0.00000000000E+00 0. -1.
          1    1    1    2  502    0  0.62213827429E+02 -0.44670802115E+02  0.72532743131E+03  0.72935994097E+03  0.00000000000E+00 0. -1.
         22    1    3    3    0    0 -0.42675273483E+02  0.42703925851E+02 -0.84353119861E+02  0.10373163973E+03  0.00000000000E+00 0. -1.
         22    1    3    3    0    0 -0.38914903574E+02 -0.95865715362E+01  0.38829634804E+02  0.55803338726E+02  0.00000000000E+00 0. -1.
</event>
<event>
 7    1  0.7457412E-006  0.6764162E+02  0.7818608E-02  0.1467143E+00
          2   -1    0    0  502    0  0.00000000000E+00  0.00000000000E+00  0.30861123119E+04  0.30861123119E+04  0.00000000000E+00 0. -1.
          1   -1    0    0  501    0 -0.00000000000E+00 -0.00000000000E+00 -0.53595811020E+03  0.53595811020E+03  0.00000000000E+00 0. -1.
         25    2    1    2    0    0  0.70597784475E+01 -0.44414570769E+02  0.63189108851E+03  0.64570401617E+03  0.12499933676E+03 0.  0.
          2    1    1    2  501    0 -0.20824201274E+02 -0.23660984116E+02 -0.52808888832E+03  0.52902869818E+03  0.00000000000E+00 0. -1.
          1    1    1    2  502    0  0.13764422827E+02  0.68075554884E+02  0.24463520015E+04  0.24473377077E+04  0.00000000000E+00 0. -1.
         22    1    3    3    0    0  0.64397852802E+02 -0.92899726623E+01  0.28178070792E+03  0.28919501101E+03  0.00000000000E+00 0. -1.
         22    1    3    3    0    0 -0.57338074355E+02 -0.35124598107E+02  0.35011038059E+03  0.35650900516E+03  0.00000000000E+00 0. -1.
</event>
<event>
 7    1  0.7457412E-006  0.7194854E+02  0.7818608E-02  0.1433944E+00
          2   -1    0    0  502    0  0.00000000000E+00  0.00000000000E+00  0.40359608577E+03  0.40359608577E+03  0.00000000000E+00 0. -1.
          1   -1    0    0  501    0 -0.00000000000E+00 -0.00000000000E+00 -0.58689837896E+03  0.58689837896E+03  0.00000000000E+00 0. -1.
         25    2    1    2    0    0  0.10634274745E+03 -0.14716791957E+02  0.20439055930E+02  0.16603636890E+03  0.12499982756E+03 0.  0.
          2    1    1    2  501    0 -0.71025557186E+02  0.11377734592E+01 -0.51047792418E+03  0.51539658068E+03  0.00000000000E+00 0. -1.
          1    1    1    2  502    0 -0.35317190261E+02  0.13579018498E+02  0.30673657506E+03  0.30906151515E+03  0.00000000000E+00 0. -1.
         22    1    3    3    0    0 -0.26129791283E+02 -0.84109841903E+01 -0.11273587319E+02  0.29674979673E+02  0.00000000000E+00 0. -1.
         22    1    3    3    0    0  0.13247253873E+03 -0.63058077664E+01  0.31712643249E+02  0.13636138922E+03  0.00000000000E+00 0. -1.
</event>
<event>
 7    1  0.7457412E-006  0.2441994E+03  0.7818608E-02  0.1217749E+00
          2   -1    0    0  502    0  0.00000000000E+00  0.00000000000E+00  0.21536267834E+04  0.21536267834E+04  0.00000000000E+00 0. -1.
          1   -1    0    0  501    0 -0.00000000000E+00 -0.00000000000E+00 -0.25742734385E+03  0.25742734385E+03  0.00000000000E+00 0. -1.
         25    2    1    2    0    0  0.23912896070E+03 -0.18042400973E+03  0.15433918638E+03  0.35942106657E+03  0.12500974167E+03 0.  0.
          2    1    1    2  501    0 -0.76522175552E+02  0.33587671523E+01 -0.13726653188E+03  0.15719104759E+03  0.00000000000E+00 0. -1.
          1    1    1    2  502    0 -0.16260678514E+03  0.17706524258E+03  0.18791267850E+04  0.18944420131E+04  0.00000000000E+00 0. -1.
         22    1    3    3    0    0  0.21735552642E+03 -0.17681770534E+03  0.17403324041E+03  0.32984162041E+03  0.00000000000E+00 0. -1.
         22    1    3    3    0    0  0.21773434277E+02 -0.36063043920E+01 -0.19694054023E+02  0.29579446166E+02  0.00000000000E+00 0. -1.
</event>
<event>
 7    1  0.8797892E-006  0.9555905E+02  0.7818608E-02  0.1318499E+00
          2   -1    0    0  502    0  0.00000000000E+00  0.00000000000E+00  0.79237052553E+03  0.79237052553E+03  0.00000000000E+00 0. -1.
          1   -1    0    0  501    0 -0.00000000000E+00 -0.00000000000E+00 -0.14242998093E+04  0.14242998093E+04  0.00000000000E+00 0. -1.
         25    2    1    2    0    0 -0.11686960111E+03 -0.73620770454E+02 -0.13011711971E+03  0.22723236728E+03  0.12500224955E+03 0.  0.
          2    1    1    2  501    0  0.21783908007E+02  0.70254988232E+02 -0.12414894436E+04  0.12436664909E+04  0.00000000000E+00 0. -1.
          1    1    1    2  502    0  0.95085693102E+02  0.33657822219E+01  0.73967727954E+03  0.74577147665E+03  0.00000000000E+00 0. -1.
         22    1    3    3    0    0  0.15810860494E+02 -0.48811210552E+02 -0.36329782734E+02  0.62867882886E+02  0.00000000000E+00 0. -1.
         22    1    3    3    0    0 -0.13268046160E+03 -0.24809559903E+02 -0.93787336977E+02  0.16436448440E+03  0.00000000000E+00 0. -1.
</event>
<event>
 7    1  0.7457412E-006  0.1073870E+03  0.7818608E-02  0.1366209E+00
          2   -1    0    0  502    0  0.00000000000E+00  0.00000000000E+00  0.15567306838E+04  0.15567306838E+04  0.00000000000E+00 0. -1.
          1   -1    0    0  501    0 -0.00000000000E+00 -0.00000000000E+00 -0.12398816290E+03  0.12398816290E+03  0.00000000000E+00 0. -1.
         25    2    1    2    0    0  0.68817882072E+02  0.83146438145E+02  0.28527210540E+03  0.32962818603E+03  0.12500134333E+03 0.  0.
          2    1    1    2  501    0  0.27351219304E+02 -0.33637579310E+02 -0.94735509039E+02  0.10418441636E+03  0.00000000000E+00 0. -1.
          1    1    1    2  502    0 -0.96169101376E+02 -0.49508858836E+02  0.12422059245E+04  0.12469062443E+04  0.00000000000E+00 0. -1.
         22    1    3    3    0    0 -0.31177759600E+02  0.33060195899E+02  0.13405255597E+03  0.14154545916E+03  0.00000000000E+00 0.  1.
         22    1    3    3    0    0  0.99995641672E+02  0.50086242246E+02  0.15121954943E+03  0.18808272686E+03  0.00000000000E+00 0.  1.
</event>
<event>
 7    1  0.7457412E-006  0.6722897E+02  0.7818608E-02  0.1414844E+00
          2   -1    0    0  502    0  0.00000000000E+00  0.00000000000E+00  0.70016841971E+03  0.70016841971E+03  0.00000000000E+00 0. -1.
          1   -1    0    0  501    0 -0.00000000000E+00 -0.00000000000E+00 -0.32349148131E+04  0.32349148131E+04  0.00000000000E+00 0. -1.
         25    2    1    2    0    0 -0.58537080813E+02  0.31787404239E+02 -0.11807325637E+04  0.11891962400E+04  0.12498512438E+03 0.  0.
          2    1    1    2  501    0  0.25060890639E+02 -0.64575016050E+02 -0.20485756371E+04  0.20497463555E+04  0.00000000000E+00 0. -1.
          1    1    1    2  502    0  0.33476190174E+02  0.32787611811E+02  0.69456180735E+03  0.69614063739E+03  0.00000000000E+00 0. -1.
         22    1    3    3    0    0  0.35597152751E+00 -0.42322882284E+02 -0.23905939897E+03  0.24277715979E+03  0.00000000000E+00 0.  1.
         22    1    3    3    0    0 -0.58893052340E+02  0.74110286523E+02 -0.94167316473E+03  0.94641908019E+03  0.00000000000E+00 0.  1.
</event>
<event>
 7    1  0.7457412E-006  0.6886095E+02  0.7818608E-02  0.1368227E+00
          2   -1    0    0  502    0  0.00000000000E+00  0.00000000000E+00  0.22041359123E+04  0.22041359123E+04  0.00000000000E+00 0. -1.
          1   -1    0    0  501    0 -0.00000000000E+00 -0.00000000000E+00 -0.31913770075E+03  0.31913770075E+03  0.00000000000E+00 0. -1.
         25    2    1    2    0    0  0.28712756556E+01  0.76436857598E+02  0.68284172090E+03  0.69839014617E+03  0.12500057214E+03 0.  0.
          2    1    1    2  501    0 -0.58304576377E+02 -0.31950462159E+02 -0.30696838916E+03  0.31408573289E+03  0.00000000000E+00 0. -1.
          1    1    1    2  502    0  0.55433300722E+02 -0.44486395440E+02  0.15091248798E+04  0.15107977340E+04  0.00000000000E+00 0. -1.
         22    1    3    3    0    0  0.51084502150E+02  0.79844074558E+02  0.51830909130E+03  0.52690513067E+03  0.00000000000E+00 0.  1.
         22    1    3    3    0    0 -0.48213226494E+02 -0.34072169601E+01  0.16453262960E+03  0.17148501550E+03  0.00000000000E+00 0.  1.
</event>
<event>
 7    1  0.7457412E-006  0.1131479E+03  0.7818608E-02  0.1401552E+00
          2   -1    0    0  502    0  0.00000000000E+00  0.00000000000E+00  0.31707835051E+04  0.31707835051E+04  0.00000000000E+00 0. -1.
          1   -1    0    0  501    0 -0.00000000000E+00 -0.00000000000E+00 -0.13117313080E+04  0.13117313080E+04  0.00000000000E+00 0. -1.
         25    2    1    2    0    0 -0.61740984905E+01  0.10619639281E+03  0.11858227168E+04  0.11971285110E+04  0.12500145177E+03 0.  0.
          2    1    1    2  501    0  0.37058147971E+02 -0.10693061098E+03 -0.13035059813E+04  0.13084094562E+04  0.00000000000E+00 0. -1.
          1    1    1    2  502    0 -0.30884049481E+02  0.73421816808E+00  0.19767354617E+04  0.19769768458E+04  0.00000000000E+00 0. -1.
         22    1    3    3    0    0 -0.37271012673E+02 -0.13948306924E+02  0.26114765719E+03  0.26416241691E+03  0.00000000000E+00 0. -1.
         22    1    3    3    0    0  0.31096914182E+02  0.12014469973E+03  0.92467505959E+03  0.93296609412E+03  0.00000000000E+00 0. -1.
</event>
<event>
 7    1  0.7457412E-006  0.3136786E+03  0.7818608E-02  0.1122345E+00
          2   -1    0    0  502    0  0.00000000000E+00  0.00000000000E+00  0.29735160363E+04  0.29735160363E+04  0.00000000000E+00 0. -1.
          1   -1    0    0  501    0 -0.00000000000E+00 -0.00000000000E+00 -0.21644180841E+03  0.21644180841E+03  0.00000000000E+00 0. -1.
         25    2    1    2    0    0 -0.26504005146E+03 -0.33503429608E+01  0.10312970883E+03  0.31067764653E+03  0.12500963776E+03 0.  0.
          2    1    1    2  501    0 -0.56442380171E+01  0.17778082553E+03 -0.26261577866E+02  0.17979863687E+03  0.00000000000E+00 0. -1.
          1    1    1    2  502    0  0.27068428948E+03 -0.17443048257E+03  0.26802060969E+04  0.26994815613E+04  0.00000000000E+00 0. -1.
         22    1    3    3    0    0 -0.19508417152E+03 -0.53715716037E+02  0.96628119650E+02  0.22423248122E+03  0.00000000000E+00 0.  1.
         22    1    3    3    0    0 -0.69955879941E+02  0.50365373076E+02  0.65015891803E+01  0.86445165309E+02  0.00000000000E+00 0.  1.
</event>
<event>
 7    1  0.7457412E-006  0.1160608E+03  0.7818608E-02  0.1349175E+00
          2   -1    0    0  502    0  0.00000000000E+00  0.00000000000E+00  0.16401178801E+04  0.16401178801E+04  0.00000000000E+00 0. -1.
          1   -1    0    0  501    0 -0.00000000000E+00 -0.00000000000E+00 -0.35181211618E+04  0.35181211618E+04  0.00000000000E+00 0. -1.
         25    2    1    2    0    0  0.59487983603E+02 -0.61138800049E+02 -0.14054200339E+04  0.14135441166E+04  0.12499889960E+03 0.  0.
          2    1    1    2  501    0 -0.91482775110E+02  0.94620366658E+02 -0.21062569261E+04  0.21103649804E+04  0.00000000000E+00 0. -1.
          1    1    1    2  502    0  0.31994791507E+02 -0.33481566610E+02  0.16336736782E+04  0.16343299449E+04  0.00000000000E+00 0. -1.
         22    1    3    3    0    0  0.19969214298E+02 -0.67937166303E+02 -0.33638653861E+03  0.34375882744E+03  0.00000000000E+00 0. -1.
         22    1    3    3    0    0  0.39518769305E+02  0.67983662541E+01 -0.10690334953E+04  0.10697852892E+04  0.00000000000E+00 0. -1.
</event>
<event>
 7    1  0.7457412E-006  0.5947870E+02  0.7818608E-02  0.1461610E+00
          2   -1    0    0  502    0  0.00000000000E+00  0.00000000000E+00  0.90303957672E+01  0.90303957672E+01  0.00000000000E+00 0. -1.
          1   -1    0    0  501    0 -0.00000000000E+00 -0.00000000000E+00 -0.30577007422E+04  0.30577007422E+04  0.00000000000E+00 0. -1.
         25    2    1    2    0    0 -0.96468217664E+01 -0.44169917478E+02 -0.23635294396E+04  0.23672642151E+04  0.12499763750E+03 0.  0.
          2    1    1    2  501    0  0.19104699114E+00  0.80257814869E+02 -0.61318514709E+03  0.61841521485E+03  0.00000000000E+00 0. -1.
          1    1    1    2  502    0  0.94557747752E+01 -0.36087897392E+02 -0.71955759735E+02  0.81051708025E+02  0.00000000000E+00 0. -1.
         22    1    3    3    0    0 -0.43963572733E+02 -0.19170513390E+02 -0.34820170953E+03  0.35148930969E+03  0.00000000000E+00 0. -1.
         22    1    3    3    0    0  0.34316750967E+02 -0.24999404087E+02 -0.20153277301E+04  0.20157749054E+04  0.00000000000E+00 0. -1.
</event>
<event>
 7    1  0.8904152E-006  0.1311384E+03  0.7818608E-02  0.1284843E+00
          2   -1    0    0  502    0  0.00000000000E+00  0.00000000000E+00  0.19186421669E+04  0.19186421669E+04  0.00000000000E+00 0. -1.
          1   -1    0    0  501    0 -0.00000000000E+00 -0.00000000000E+00 -0.10558858359E+04  0.10558858359E+04  0.00000000000E+00 0. -1.
         25    2    1    2    0    0  0.79386776459E+01 -0.15111047022E+03 -0.77327783328E+02  0.21095317051E+03  0.12499702900E+03 0.  0.
          2    1    1    2  501    0 -0.65100397912E+02  0.33116518389E+02 -0.90795631183E+03  0.91088936199E+03  0.00000000000E+00 0. -1.
          1    1    1    2  502    0  0.57161720266E+02  0.11799395183E+03  0.18480404262E+04  0.18526854702E+04  0.00000000000E+00 0. -1.
         22    1    3    3    0    0 -0.53964121592E+02 -0.10022576203E+03 -0.61107994904E+02  0.12919565331E+03  0.00000000000E+00 0.  1.
         22    1    3    3    0    0  0.61902799238E+02 -0.50884708186E+02 -0.16219788424E+02  0.81757517191E+02  0.00000000000E+00 0.  1.
</event>
<event>
 7    1  0.7457412E-006  0.7429042E+02  0.7818608E-02  0.1429412E+00
          2   -1    0    0  502    0  0.00000000000E+00  0.00000000000E+00  0.41913979358E+04  0.41913979358E+04  0.00000000000E+00 0. -1.
          1   -1    0    0  501    0 -0.00000000000E+00 -0.00000000000E+00 -0.29109618265E+02  0.29109618265E+02  0.00000000000E+00 0. -1.
         25    2    1    2    0    0  0.18476556119E+02 -0.34212350158E+02  0.46702537389E+03  0.48502605049E+03  0.12500280705E+03 0.  0.
          2    1    1    2  501    0  0.67070268480E+01 -0.37324995596E+02 -0.14886702073E+01  0.37952017658E+02  0.00000000000E+00 0. -1.
          1    1    1    2  502    0 -0.25183582967E+02  0.71537345754E+02  0.36967516139E+04  0.36975294860E+04  0.00000000000E+00 0. -1.
         22    1    3    3    0    0 -0.27536450609E+02 -0.18248364530E+02  0.27990824651E+02  0.43298327737E+02  0.00000000000E+00 0.  1.
         22    1    3    3    0    0  0.46013006728E+02 -0.15963985629E+02  0.43903454924E+03  0.44172772275E+03  0.00000000000E+00 0.  1.
</event>
<event>
 7    1  0.7457412E-006  0.1467558E+03  0.7818608E-02  0.1299459E+00
          2   -1    0    0  502    0  0.00000000000E+00  0.00000000000E+00  0.52648974522E+03  0.52648974522E+03  0.00000000000E+00 0. -1.
          1   -1    0    0  501    0 -0.00000000000E+00 -0.00000000000E+00 -0.25498744782E+03  0.25498744782E+03  0.00000000000E+00 0. -1.
         25    2    1    2    0    0 -0.15827135102E+03  0.69913326041E+02  0.20972741158E+03  0.29924704097E+03  0.12500204258E+03 0.  0.
          2    1    1    2  501    0  0.10797732377E+03 -0.96616972972E+02 -0.18157864419E+03  0.23230313373E+03  0.00000000000E+00 0. -1.
          1    1    1    2  502    0  0.50294027248E+02  0.26703646931E+02  0.24335353000E+03  0.24992701835E+03  0.00000000000E+00 0. -1.
         22    1    3    3    0    0 -0.12235069221E+03  0.35318065314E+02  0.21417859158E+03  0.24917770107E+03  0.00000000000E+00 0. -1.
         22    1    3    3    0    0 -0.35920658811E+02  0.34595260727E+02 -0.44511799986E+01  0.50069339895E+02  0.00000000000E+00 0. -1.
</event>
<event>
 7    1  0.7457412E-006  0.7216021E+02  0.7818608E-02  0.1423072E+00
          2   -1    0    0  502    0  0.00000000000E+00  0.00000000000E+00  0.48892010332E+03  0.48892010332E+03  0.00000000000E+00 0. -1.
          1   -1    0    0  501    0 -0.00000000000E+00 -0.00000000000E+00 -0.17589593023E+04  0.17589593023E+04  0.00000000000E+00 0. -1.
         25    2    1    2    0    0 -0.77657435513E+02  0.34505289707E+01 -0.35960375147E+03  0.38856470025E+03  0.12500033904E+03 0.  0.
          2    1    1    2  501    0  0.60134776497E+02 -0.40489893747E+02 -0.13830392351E+04  0.13849379584E+04  0.00000000000E+00 0. -1.
          1    1    1    2  502    0  0.17522659016E+02  0.37039364777E+02  0.47260378754E+03  0.47437674702E+03  0.00000000000E+00 0. -1.
         22    1    3    3    0    0 -0.36942213407E+02  0.58651644185E+02 -0.24855966956E+03  0.25804389516E+03  0.00000000000E+00 0. -1.
         22    1    3    3    0    0 -0.40715222106E+02 -0.55201115215E+02 -0.11104408192E+03  0.13052080509E+03  0.00000000000E+00 0. -1.
</event>
<event>
 7    1  0.7457412E-006  0.8837730E+02  0.7818608E-02  0.1443340E+00
          2   -1    0    0  502    0  0.00000000000E+00  0.00000000000E+00  0.81793561896E+03  0.81793561896E+03  0.00000000000E+00 0. -1.
          1   -1    0    0  501    0 -0.00000000000E+00 -0.00000000000E+00 -0.15983843118E+03  0.15983843118E+03  0.00000000000E+00 0. -1.
         25    2    1    2    0    0 -0.38994927811E+02 -0.50706971075E+02  0.16855516974E+03  0.21937950388E+03  0.12499888066E+03 0.  0.
          2    1    1    2  501    0  0.65113685887E+02  0.62629768963E+02 -0.11886955348E+03  0.14930589672E+03  0.00000000000E+00 0. -1.
          1    1    1    2  502    0 -0.26118758076E+02 -0.11922797888E+02  0.60841157153E+03  0.60908864954E+03  0.00000000000E+00 0. -1.
         22    1    3    3    0    0 -0.96789290939E+00 -0.70060034302E+02  0.33344987278E+02  0.77596606883E+02  0.00000000000E+00 0.  1.
         22    1    3    3    0    0 -0.38027034902E+02  0.19353063227E+02  0.13521018246E+03  0.14178289699E+03  0.00000000000E+00 0.  1.
</event>
<event>
 7    1  0.7457412E-006  0.7909436E+02  0.7818608E-02  0.1428959E+00
          2   -1    0    0  502    0  0.00000000000E+00  0.00000000000E+00  0.97871452768E+03  0.97871452768E+03  0.00000000000E+00 0. -1.
          1   -1    0    0  501    0 -0.00000000000E+00 -0.00000000000E+00 -0.16400077627E+03  0.16400077627E+03  0.00000000000E+00 0. -1.
         25    2    1    2    0    0 -0.15001297492E+01 -0.51945761364E+02  0.57492311224E+02  0.14706109710E+03  0.12498395064E+03 0.  0.
          2    1    1    2  501    0  0.24118193814E+02  0.79621145305E+02 -0.10428659706E+03  0.13340505380E+03  0.00000000000E+00 0. -1.
          1    1    1    2  502    0 -0.22618064064E+02 -0.27675383941E+02  0.86150803724E+03  0.86224915305E+03  0.00000000000E+00 0. -1.
         22    1    3    3    0    0  0.40445044578E+01 -0.74854278545E+02 -0.99479857020E+01  0.75620654932E+02  0.00000000000E+00 0.  1.
         22    1    3    3    0    0 -0.55446342069E+01  0.22908517181E+02  0.67440296926E+02  0.71440442169E+02  0.00000000000E+00 0.  1.
</event>
<event>
 7    1  0.7457412E-006  0.1571106E+03  0.7818608E-02  0.1286015E+00
          2   -1    0    0  502    0  0.00000000000E+00  0.00000000000E+00  0.29313595935E+04  0.29313595935E+04  0.00000000000E+00 0. -1.
          1   -1    0    0  501    0 -0.00000000000E+00 -0.00000000000E+00 -0.36364167792E+03  0.36364167792E+03  0.00000000000E+00 0. -1.
         25    2    1    2    0    0 -0.10274193694E+03 -0.14172886526E+03  0.13729380691E+02  0.21553798899E+03  0.12500060780E+03 0.  0.
          2    1    1    2  501    0 -0.27249074658E+02  0.53785799470E+02 -0.25706022638E+03  0.26403671010E+03  0.00000000000E+00 0. -1.
          1    1    1    2  502    0  0.12999101160E+03  0.87943065786E+02  0.28110487612E+04  0.28154265723E+04  0.00000000000E+00 0. -1.
         22    1    3    3    0    0  0.45429378033E+01 -0.55924706365E+02 -0.39061864867E+02  0.68366953660E+02  0.00000000000E+00 0. -1.
         22    1    3    3    0    0 -0.10728487474E+03 -0.85804158891E+02  0.52791245557E+02  0.14717103533E+03  0.00000000000E+00 0. -1.
</event>
<event>
 7    1  0.7457412E-006  0.1120569E+03  0.7818608E-02  0.1386545E+00
          2   -1    0    0  502    0  0.00000000000E+00  0.00000000000E+00  0.18874261935E+04  0.18874261935E+04  0.00000000000E+00 0. -1.
          1   -1    0    0  501    0 -0.00000000000E+00 -0.00000000000E+00 -0.11964297662E+04  0.11964297662E+04  0.00000000000E+00 0. -1.
         25    2    1    2    0    0  0.56843732015E+01 -0.14535690351E+03  0.16863688260E+03  0.25539207233E+03  0.12500308371E+03 0.  0.
          2    1    1    2  501    0  0.40426556224E+01  0.11156294009E+03 -0.11501648147E+04  0.11555698740E+04  0.00000000000E+00 0. -1.
          1    1    1    2  502    0 -0.97270288239E+01  0.33793963420E+02  0.16725243594E+04  0.16728940133E+04  0.00000000000E+00 0. -1.
         22    1    3    3    0    0 -0.49907646210E+02 -0.48654294272E+02  0.10770848774E+03  0.12829314803E+03  0.00000000000E+00 0.  1.
         22    1    3    3    0    0  0.55592019411E+02 -0.96702609238E+02  0.60928394859E+02  0.12709892429E+03  0.00000000000E+00 0.  1.
</event>
<event>
 7    1  0.7457412E-006  0.1073156E+03  0.7818608E-02  0.1285467E+00
          2   -1    0    0  502    0  0.00000000000E+00  0.00000000000E+00  0.25370502718E+04  0.25370502718E+04  0.00000000000E+00 0. -1.
          1   -1    0    0  501    0 -0.00000000000E+00 -0.00000000000E+00 -0.29364677782E+03  0.29364677782E+03  0.00000000000E+00 0. -1.
         25    2    1    2    0    0  0.99721585387E+02  0.13083345832E+03  0.25057524820E+03  0.32476862151E+03  0.12499965640E+03 0.  0.
          2    1    1    2  501    0 -0.23924123144E+01 -0.88696549848E+02 -0.24758611875E+03  0.26300510981E+03  0.00000000000E+00 0. -1.
          1    1    1    2  502    0 -0.97329173072E+02 -0.42136908472E+02  0.22404143645E+04  0.22429233183E+04  0.00000000000E+00 0. -1.
         22    1    3    3    0    0  0.42826609092E+02  0.52256510650E+01  0.14447994295E+03  0.15078421598E+03  0.00000000000E+00 0. -1.
         22    1    3    3    0    0  0.56894976294E+02  0.12560780726E+03  0.10609530525E+03  0.17398440553E+03  0.00000000000E+00 0. -1.
</event>
<event>
 7    1  0.7457412E-006  0.4804385E+02  0.7818608E-02  0.1464936E+00
          2   -1    0    0  502    0  0.00000000000E+00  0.00000000000E+00  0.94986442971E+03  0.94986442971E+03  0.00000000000E+00 0. -1.
          1   -1    0    0  501    0 -0.00000000000E+00 -0.00000000000E+00 -0.11674841650E+04  0.11674841650E+04  0.00000000000E+00 0. -1.
         25    2    1    2    0    0 -0.43909023641E+02 -0.66073332609E+02 -0.14643357192E+02  0.14877600989E+03  0.12500474219E+03 0.  0.
          2    1    1    2  501    0  0.41221157250E+02  0.18268136960E+02 -0.10846565471E+04  0.10855932636E+04  0.00000000000E+00 0. -1.
          1    1    1    2  502    0  0.26878663911E+01  0.47805195649E+02  0.88168016902E+03  0.88297932128E+03  0.00000000000E+00 0. -1.
         22    1    3    3    0    0 -0.84051432269E+02 -0.32535418844E+02  0.10499652051E+02  0.90738301941E+02  0.00000000000E+00 0. -1.
         22    1    3    3    0    0  0.40142408628E+02 -0.33537913765E+02 -0.25143009243E+02  0.58037707949E+02  0.00000000000E+00 0. -1.
</event>
<event>
 7    1  0.7541091E-006  0.8961225E+02  0.7818608E-02  0.1355769E+00
          2   -1    0    0  502    0  0.00000000000E+00  0.00000000000E+00  0.58379304651E+03  0.58379304651E+03  0.00000000000E+00 0. -1.
          1   -1    0    0  501    0 -0.00000000000E+00 -0.00000000000E+00 -0.83424109283E+03  0.83424109283E+03  0.00000000000E+00 0. -1.
         25    2    1    2    0    0 -0.40498472152E+02 -0.10888033700E+02 -0.28707075307E+03  0.31590137485E+03  0.12500154335E+03 0.  0.
          2    1    1    2  501    0 -0.47458821849E+02  0.31043276474E+02 -0.52765081990E+03  0.53068956324E+03  0.00000000000E+00 0. -1.
          1    1    1    2  502    0  0.87957294001E+02 -0.20155242774E+02  0.56427352665E+03  0.57144320126E+03  0.00000000000E+00 0. -1.
         22    1    3    3    0    0  0.16176501294E+02  0.13406704479E+02  0.12628883142E+01  0.21047893149E+02  0.00000000000E+00 0. -1.
         22    1    3    3    0    0 -0.56674973446E+02 -0.24294738179E+02 -0.28833364138E+03  0.29485348170E+03  0.00000000000E+00 0. -1.
</event>
<event>
 7    1  0.7457412E-006  0.8780112E+02  0.7818608E-02  0.1386192E+00
          2   -1    0    0  502    0  0.00000000000E+00  0.00000000000E+00  0.93793253860E+02  0.93793253860E+02  0.00000000000E+00 0. -1.
          1   -1    0    0  501    0 -0.00000000000E+00 -0.00000000000E+00 -0.98176170225E+03  0.98176170225E+03  0.00000000000E+00 0. -1.
         25    2    1    2    0    0  0.21032670237E+01  0.63150475025E+02 -0.89564980899E+02  0.16624999860E+03  0.12499908001E+03 0.  0.
          2    1    1    2  501    0  0.39347990836E+02 -0.80689351139E+02 -0.84192379327E+03  0.84669635020E+03  0.00000000000E+00 0. -1.
          1    1    1    2  502    0 -0.41451257860E+02  0.17538876114E+02  0.43520325778E+02  0.62608607310E+02  0.00000000000E+00 0. -1.
         22    1    3    3    0    0 -0.34145537465E+01  0.13680416473E+02  0.31956535207E+02  0.34928972424E+02  0.00000000000E+00 0. -1.
         22    1    3    3    0    0  0.55178207702E+01  0.49470058552E+02 -0.12152151611E+03  0.13132102618E+03  0.00000000000E+00 0. -1.
</event>
<event>
 7    1  0.7457412E-006  0.1354677E+03  0.7818608E-02  0.1269214E+00
          2   -1    0    0  502    0  0.00000000000E+00  0.00000000000E+00  0.87383324473E+03  0.87383324473E+03  0.00000000000E+00 0. -1.
          1   -1    0    0  501    0 -0.00000000000E+00 -0.00000000000E+00 -0.61316573917E+03  0.61316573917E+03  0.00000000000E+00 0. -1.
         25    2    1    2    0    0 -0.63992868137E+02  0.70371858341E+01  0.30312267823E+02  0.14383495040E+03  0.12500020087E+03 0.  0.
          2    1    1    2  501    0 -0.79146062737E+02 -0.21828738066E+02 -0.54673362598E+03  0.55286368195E+03  0.00000000000E+00 0. -1.
          1    1    1    2  502    0  0.14313893087E+03  0.14791552232E+02  0.77708886372E+03  0.79030035155E+03  0.00000000000E+00 0. -1.
         22    1    3    3    0    0 -0.51502415917E+02 -0.49224366268E+02  0.45123599830E+02  0.84330755607E+02  0.00000000000E+00 0.  1.
         22    1    3    3    0    0 -0.12490452220E+02  0.56261552102E+02 -0.14811332007E+02  0.59504194788E+02  0.00000000000E+00 0.  1.
</event>
<event>
 7    1  0.7457412E-006  0.7690874E+02  0.7818608E-02  0.1360503E+00
          2   -1    0    0  502    0  0.00000000000E+00  0.00000000000E+00  0.21978150210E+03  0.21978150210E+03  0.00000000000E+00 0. -1.
          1   -1    0    0  501    0 -0.00000000000E+00 -0.00000000000E+00 -0.94652297696E+03  0.94652297696E+03  0.00000000000E+00 0. -1.
         25    2    1    2    0    0  0.12456492029E+03  0.43065455001E+02 -0.66669409980E+03  0.69099674494E+03  0.12499770409E+03 0.  0.
          2    1    1    2  501    0 -0.48189399134E+02 -0.41341453958E+02 -0.25664839929E+03  0.26438557990E+03  0.00000000000E+00 0. -1.
          1    1    1    2  502    0 -0.76375521151E+02 -0.17240010431E+01  0.19660102423E+03  0.21092215421E+03  0.00000000000E+00 0. -1.
         22    1    3    3    0    0  0.13227862922E+03  0.30499594676E+02 -0.66162116602E+03  0.67540390016E+03  0.00000000000E+00 0.  1.
         22    1    3    3    0    0 -0.77137089315E+01  0.12565860325E+02 -0.50729337778E+01  0.15592844779E+02  0.00000000000E+00 0.  1.
</event>
<event>
 7    1  0.7457412E-006  0.8863296E+02  0.7818608E-02  0.1328105E+00
          2   -1    0    0  502    0  0.00000000000E+00  0.00000000000E+00  0.34439916621E+03  0.34439916621E+03  0.00000000000E+00 0. -1.
          1   -1    0    0  501    0 -0.00000000000E+00 -0.00000000000E+00 -0.30353284940E+03  0.30353284940E+03  0.00000000000E+00 0. -1.
         25    2    1    2    0    0  0.32069619525E+02  0.11288384050E+03  0.12924054154E+03  0.21471604666E+03  0.12501456384E+03 0.  0.
          2    1    1    2  501    0 -0.64782247357E+02 -0.33240927990E+02 -0.24439716608E+03  0.25501308526E+03  0.00000000000E+00 0. -1.
          1    1    1    2  502    0  0.32712627832E+02 -0.79642912511E+02  0.15602294134E+03  0.17820288370E+03  0.00000000000E+00 0. -1.
         22    1    3    3    0    0 -0.87509709597E+01  0.99821015972E+02  0.26882798171E+02  0.10374728700E+03  0.00000000000E+00 0. -1.
         22    1    3    3    0    0  0.40820590485E+02  0.13062824529E+02  0.10235774337E+03  0.11096875966E+03  0.00000000000E+00 0. -1.
</event>
<event>
 7    1  0.7457412E-006  0.1053856E+03  0.7818608E-02  0.1362971E+00
          2   -1    0    0  502    0  0.00000000000E+00  0.00000000000E+00  0.25759169419E+04  0.25759169419E+04  0.00000000000E+00 0. -1.
          1   -1    0    0  501    0 -0.00000000000E+00 -0.00000000000E+00 -0.13592906952E+04  0.13592906952E+04  0.00000000000E+00 0. -1.
         25    2    1    2    0    0  0.34572016520E+02 -0.81531004286E+02  0.57748555763E+03  0.59745962423E+03  0.12500361726E+03 0.  0.
          2    1    1    2  501    0  0.40341288602E+01  0.10539692291E+03 -0.13469827898E+04  0.13511059994E+04  0.00000000000E+00 0. -1.
          1    1    1    2  502    0 -0.38606145381E+02 -0.23865918619E+02  0.19861234789E+04  0.19866420135E+04  0.00000000000E+00 0. -1.
         22    1    3    3    0    0  0.43963589555E+02 -0.11171057189E+03  0.41930631220E+03  0.43615345067E+03  0.00000000000E+00 0. -1.
         22    1    3    3    0    0 -0.93915730343E+01  0.30179567601E+02  0.15817924543E+03  0.16130617356E+03  0.00000000000E+00 0. -1.
</event>
<event>
 7    1  0.7457412E-006  0.4513905E+02  0.7818608E-02  0.1477137E+00
          2   -1    0    0  502    0  0.00000000000E+00  0.00000000000E+00  0.14640727689E+03  0.14640727689E+03  0.00000000000E+00 0. -1.
          1   -1    0    0  501    0 -0.00000000000E+00 -0.00000000000E+00 -0.70198447277E+03  0.70198447277E+03  0.00000000000E+00 0. -1.
         25    2    1    2    0    0  0.26798184518E+02 -0.70390274783E+01 -0.12241414118E+03  0.17713820622E+03  0.12500012617E+03 0.  0.
          2    1    1    2  501    0 -0.25392128173E+01  0.45105236674E+02 -0.54696439719E+03  0.54882691422E+03  0.00000000000E+00 0. -1.
          1    1    1    2  502    0 -0.24258971701E+02 -0.38066209196E+02  0.11380134249E+03  0.12242662922E+03  0.00000000000E+00 0. -1.
         22    1    3    3    0    0  0.73580048763E+02 -0.22105626050E+02 -0.58788981407E+02  0.96741028596E+02  0.00000000000E+00 0.  1.
         22    1    3    3    0    0 -0.46781864245E+02  0.15066598571E+02 -0.63625159769E+02  0.80397177627E+02  0.00000000000E+00 0.  1.
</event>
<event>
 7    1  0.7457412E-006  0.5247081E+02  0.7818608E-02  0.1443171E+00
          2   -1    0    0  502    0  0.00000000000E+00  0.00000000000E+00  0.79797916789E+02  0.79797916789E+02  0.00000000000E+00 0. -1.
          1   -1    0    0  501    0 -0.00000000000E+00 -0.00000000000E+00 -0.16536793712E+04  0.16536793712E+04  0.00000000000E+00 0. -1.
         25    2    1    2    0    0 -0.20118617189E+02 -0.99625317415E+01 -0.10509117101E+03  0.16484348620E+03  0.12500083969E+03 0.  0.
          2    1    1    2  501    0 -0.18422732767E+01  0.53115720132E+02 -0.15063913831E+04  0.15073286546E+04  0.00000000000E+00 0. -1.
          1    1    1    2  502    0  0.21960890466E+02 -0.43153188391E+02  0.37601099715E+02  0.61305147240E+02  0.00000000000E+00 0. -1.
         22    1    3    3    0    0  0.33505890523E+01  0.31574943783E+02 -0.11220111394E+03  0.11660743326E+03  0.00000000000E+00 0. -1.
         22    1    3    3    0    0 -0.23469206242E+02 -0.41537475525E+02  0.71099429336E+01  0.48236052939E+02  0.00000000000E+00 0. -1.
</event>
<event>
 7    1  0.7457412E-006  0.2255438E+03  0.7818608E-02  0.1224062E+00
          2   -1    0    0  502    0  0.00000000000E+00  0.00000000000E+00  0.10683287124E+03  0.10683287124E+03  0.00000000000E+00 0. -1.
          1   -1    0    0  501    0 -0.00000000000E+00 -0.00000000000E+00 -0.21718557407E+04  0.21718557407E+04  0.00000000000E+00 0. -1.
         25    2    1    2    0    0 -0.42381114627E+02  0.27350890997E+03 -0.67057899625E+03  0.73614119084E+03  0.12499751966E+03 0.  0.
          2    1    1    2  501    0 -0.30545096907E+02 -0.71358479619E+02 -0.13089724111E+04  0.13112718287E+04  0.00000000000E+00 0. -1.
          1    1    1    2  502    0  0.72926211535E+02 -0.20215043035E+03 -0.85471462051E+02  0.23127559241E+03  0.00000000000E+00 0. -1.
         22    1    3    3    0    0 -0.16497691248E+01  0.19267608167E+03 -0.31531110385E+03  0.36952386445E+03  0.00000000000E+00 0. -1.
         22    1    3    3    0    0 -0.40731345503E+02  0.80832828305E+02 -0.35526789240E+03  0.36661732639E+03  0.00000000000E+00 0. -1.
</event>
<event>
 7    1  0.7457412E-006  0.5099139E+02  0.7818608E-02  0.1472644E+00
          2   -1    0    0  502    0  0.00000000000E+00  0.00000000000E+00  0.70735037926E+03  0.70735037926E+03  0.00000000000E+00 0. -1.
          1   -1    0    0  501    0 -0.00000000000E+00 -0.00000000000E+00 -0.13465180708E+03  0.13465180708E+03  0.00000000000E+00 0. -1.
         25    2    1    2    0    0 -0.52406545856E+02  0.71100865272E+02  0.20105423026E+03  0.25268610391E+03  0.12500273802E+03 0.  0.
          2    1    1    2  501    0  0.21749586821E+02 -0.45103148912E+02 -0.10218006844E+03  0.11378974011E+03  0.00000000000E+00 0. -1.
          1    1    1    2  502    0  0.30656959035E+02 -0.25997716360E+02  0.47382441035E+03  0.47552634232E+03  0.00000000000E+00 0. -1.
         22    1    3    3    0    0  0.32143910914E+02  0.58054795472E+02  0.10335193545E+03  0.12282187447E+03  0.00000000000E+00 0.  1.
         22    1    3    3    0    0 -0.84550456770E+02  0.13046069800E+02  0.97702294812E+02  0.12986422944E+03  0.00000000000E+00 0.  1.
</event>
<event>
 7    1  0.7457412E-006  0.1557677E+03  0.7818608E-02  0.1320266E+00
          2   -1    0    0  502    0  0.00000000000E+00  0.00000000000E+00  0.59311333918E+03  0.59311333918E+03  0.00000000000E+00 0. -1.
          1   -1    0    0  501    0 -0.00000000000E+00 -0.00000000000E+00 -0.49411968224E+04  0.49411968224E+04  0.00000000000E+00 0. -1.
         25    2    1    2    0    0  0.14118440559E+03  0.11101019323E+02 -0.25985804228E+03  0.32126086686E+03  0.12500429363E+03 0.  0.
          2    1    1    2  501    0 -0.14655875342E+03 -0.55191132762E+02 -0.46484397146E+04  0.46510770053E+04  0.00000000000E+00 0. -1.
          1    1    1    2  502    0  0.53743478301E+01  0.44090113439E+02  0.56021427361E+03  0.56197228942E+03  0.00000000000E+00 0. -1.
         22    1    3    3    0    0  0.57563395521E+02 -0.29788618010E+01 -0.22025205172E+03  0.22766946306E+03  0.00000000000E+00 0.  1.
         22    1    3    3    0    0  0.83621010067E+02  0.14079881124E+02 -0.39605990556E+02  0.93591403799E+02  0.00000000000E+00 0.  1.
</event>
<event>
 7    1  0.7457412E-006  0.8273431E+02  0.7818608E-02  0.1327970E+00
          2   -1    0    0  502    0  0.00000000000E+00  0.00000000000E+00  0.10224981758E+04  0.10224981758E+04  0.00000000000E+00 0. -1.
          1   -1    0    0  501    0 -0.00000000000E+00 -0.00000000000E+00 -0.28134588558E+03  0.28134588558E+03  0.00000000000E+00 0. -1.
         25    2    1    2    0    0  0.87847961472E+01 -0.13978492330E+03  0.19004667701E+03  0.26713002466E+03  0.12499485272E+03 0.  0.
          2    1    1    2  501    0 -0.41383608306E+02  0.66231541731E+02 -0.23441598557E+03  0.24708313266E+03  0.00000000000E+00 0. -1.
          1    1    1    2  502    0  0.32598812159E+02  0.73553381566E+02  0.78552159877E+03  0.78963090405E+03  0.00000000000E+00 0. -1.
         22    1    3    3    0    0  0.30776327593E+02 -0.12875652256E+03  0.80681828965E+02  0.15503219655E+03  0.00000000000E+00 0.  1.
         22    1    3    3    0    0 -0.21991531446E+02 -0.11028400734E+02  0.10936484805E+03  0.11209782811E+03  0.00000000000E+00 0.  1.
</event>
<event>
 7    1  0.1135442E-005  0.8977023E+02  0.7818608E-02  0.1316301E+00
          2   -1    0    0  502    0  0.00000000000E+00  0.00000000000E+00  0.10619371956E+04  0.10619371956E+04  0.00000000000E+00 0. -1.
          1   -1    0    0  501    0 -0.00000000000E+00 -0.00000000000E+00 -0.19117981041E+04  0.19117981041E+04  0.00000000000E+00 0. -1.
         25    2    1    2    0    0  0.10818680351E+03  0.88023229486E+02 -0.26250180427E+03  0.32246819726E+03  0.12500427039E+03 0.  0.
          2    1    1    2  501    0 -0.19223426017E+02 -0.77508751380E+02 -0.16163813786E+04  0.16183528379E+04  0.00000000000E+00 0. -1.
          1    1    1    2  502    0 -0.88963377497E+02 -0.10514478106E+02  0.10290222744E+04  0.10329142646E+04  0.00000000000E+00 0. -1.
         22    1    3    3    0    0  0.27449887343E+02  0.60836255617E+02 -0.21458671886E+03  0.22472651429E+03  0.00000000000E+00 0. -1.
         22    1    3    3    0    0  0.80736916171E+02  0.27186973869E+02 -0.47915085414E+02  0.97741682977E+02  0.00000000000E+00 0. -1.
</event>
<event>
 7    1  0.7457412E-006  0.9575436E+02  0.7818608E-02  0.1355167E+00
          2   -1    0    0  502    0  0.00000000000E+00  0.00000000000E+00  0.39938190873E+03  0.39938190873E+03  0.00000000000E+00 0. -1.
          1   -1    0    0  501    0 -0.00000000000E+00 -0.00000000000E+00 -0.10243068290E+04  0.10243068290E+04  0.00000000000E+00 0. -1.
         25    2    1    2    0    0 -0.13305330990E+03 -0.38281983808E+02  0.10024971416E+03  0.21176321025E+03  0.12499983387E+03 0.  0.
          2    1    1    2  501    0  0.53271765713E+02 -0.27636187130E+01 -0.95951506221E+03  0.96099670822E+03  0.00000000000E+00 0. -1.
          1    1    1    2  502    0  0.79781544186E+02  0.41045602522E+02  0.23434042774E+03  0.25092881929E+03  0.00000000000E+00 0. -1.
         22    1    3    3    0    0 -0.14283415244E+03 -0.43409876443E+02  0.45724029505E+02  0.15613039214E+03  0.00000000000E+00 0. -1.
         22    1    3    3    0    0  0.97808425388E+01  0.51278926348E+01  0.54525684660E+02  0.55632818114E+02  0.00000000000E+00 0. -1.
</event>
<event>
 7    1  0.7457412E-006  0.9538727E+02  0.7818608E-02  0.1368391E+00
          2   -1    0    0  502    0  0.00000000000E+00  0.00000000000E+00  0.31259364009E+04  0.31259364009E+04  0.00000000000E+00 0. -1.
          1   -1    0    0  501    0 -0.00000000000E+00 -0.00000000000E+00 -0.83093684643E+02  0.83093684643E+02  0.00000000000E+00 0. -1.
         25    2    1    2    0    0 -0.58064701511E+02  0.89753149543E+02  0.74012975176E+03  0.75819334280E+03  0.12505182209E+03 0.  0.
          2    1    1    2  501    0  0.82199598682E+02 -0.48342028750E+02 -0.43018887385E+02  0.10461524955E+03  0.00000000000E+00 0. -1.
          1    1    1    2  502    0 -0.24134897171E+02 -0.41411120794E+02  0.23457318519E+04  0.23462214932E+04  0.00000000000E+00 0. -1.
         22    1    3    3    0    0  0.83591244085E+01 -0.11366246515E+02  0.81732082908E+01  0.16305454746E+02  0.00000000000E+00 0. -1.
         22    1    3    3    0    0 -0.66423825919E+02  0.10111939606E+03  0.73195654347E+03  0.74188788805E+03  0.00000000000E+00 0. -1.
</event>
<event>
 7    1  0.7457412E-006  0.1121451E+03  0.7818608E-02  0.1364733E+00
          2   -1    0    0  502    0  0.00000000000E+00  0.00000000000E+00  0.13887333672E+04  0.13887333672E+04  0.00000000000E+00 0. -1.
          1   -1    0    0  501    0 -0.00000000000E+00 -0.00000000000E+00 -0.35003859732E+03  0.35003859732E+03  0.00000000000E+00 0. -1.
         25    2    1    2    0    0 -0.84002330055E+02  0.92056858315E+02 -0.32346144019E+02  0.17945099344E+03  0.12500211757E+03 0.  0.
          2    1    1    2  501    0  0.97893304288E+02 -0.52390151448E+02 -0.23115971699E+03  0.25644227762E+03  0.00000000000E+00 0. -1.
          1    1    1    2  502    0 -0.13890974233E+02 -0.39666706867E+02  0.13022006309E+04  0.13028786934E+04  0.00000000000E+00 0. -1.
         22    1    3    3    0    0 -0.10599717603E+03  0.98750244833E+02 -0.67222036198E+01  0.14502482616E+03  0.00000000000E+00 0.  1.
         22    1    3    3    0    0  0.21994845971E+02 -0.66933865184E+01 -0.25623940399E+02  0.34426167286E+02  0.00000000000E+00 0.  1.
</event>
<event>
 7    1  0.7457412E-006  0.1408628E+03  0.7818608E-02  0.1246147E+00
          2   -1    0    0  502    0  0.00000000000E+00  0.00000000000E+00  0.27810511572E+04  0.27810511572E+04  0.00000000000E+00 0. -1.
          1   -1    0    0  501    0 -0.00000000000E+00 -0.00000000000E+00 -0.56779157877E+03  0.56779157877E+03  0.00000000000E+00 0. -1.
         25    2    1    2    0    0  0.11352823026E+03  0.13301473787E+02  0.16383435653E+04  0.16470786935E+04  0.12503198141E+03 0.  0.
          2    1    1    2  501    0 -0.89226287391E+02 -0.10940962037E+03 -0.55237045917E+03  0.57012710824E+03  0.00000000000E+00 0. -1.
          1    1    1    2  502    0 -0.24301942869E+02  0.96108146578E+02  0.11272864723E+04  0.11316369342E+04  0.00000000000E+00 0. -1.
         22    1    3    3    0    0  0.10900932554E+03 -0.38299656929E+02  0.12424513305E+04  0.12478121676E+04  0.00000000000E+00 0.  1.
         22    1    3    3    0    0  0.45189047246E+01  0.51601130716E+02  0.39589223481E+03  0.39926652599E+03  0.00000000000E+00 0.  1.
</event>
<event>
 7    1  0.7457412E-006  0.1358536E+03  0.7818608E-02  0.1363813E+00
          2   -1    0    0  502    0  0.00000000000E+00  0.00000000000E+00  0.66939405615E+02  0.66939405615E+02  0.00000000000E+00 0. -1.
          1   -1    0    0  501    0 -0.00000000000E+00 -0.00000000000E+00 -0.19625737817E+04  0.19625737817E+04  0.00000000000E+00 0. -1.
         25    2    1    2    0    0 -0.97595543983E+02  0.63259911260E+02 -0.37554824595E+03  0.41253809147E+03  0.12499794118E+03 0.  0.
          2    1    1    2  501    0  0.13009628501E+03 -0.50375898121E+02 -0.15586739083E+04  0.15649048300E+04  0.00000000000E+00 0. -1.
          1    1    1    2  502    0 -0.32500741028E+02 -0.12884013139E+02  0.38587778172E+02  0.52070265855E+02  0.00000000000E+00 0. -1.
         22    1    3    3    0    0  0.14383480293E+02  0.28758631175E+02 -0.19271586042E+02  0.37487830038E+02  0.00000000000E+00 0.  1.
         22    1    3    3    0    0 -0.11197902428E+03  0.34501280085E+02 -0.35627665991E+03  0.37505026143E+03  0.00000000000E+00 0.  1.
</event>
<event>
 7    1  0.7457412E-006  0.1248539E+03  0.7818608E-02  0.1389147E+00
          2   -1    0    0  502    0  0.00000000000E+00  0.00000000000E+00  0.15318752607E+04  0.15318752607E+04  0.00000000000E+00 0. -1.
          1   -1    0    0  501    0 -0.00000000000E+00 -0.00000000000E+00 -0.46754659023E+03  0.46754659023E+03  0.00000000000E+00 0. -1.
         25    2    1    2    0    0 -0.19618668487E+02  0.12847386620E+03 -0.27694506092E+03  0.33047456451E+03  0.12499777825E+03 0.  0.
          2    1    1    2  501    0  0.46372531316E+02 -0.11299951563E+03 -0.14088777091E+03  0.18646357871E+03  0.00000000000E+00 0. -1.
          1    1    1    2  502    0 -0.26753862829E+02 -0.15474350577E+02  0.14821615023E+04  0.14824837077E+04  0.00000000000E+00 0. -1.
         22    1    3    3    0    0 -0.96288753693E+01  0.13385743580E+03 -0.28602282324E+03  0.31594237414E+03  0.00000000000E+00 0. -1.
         22    1    3    3    0    0 -0.99897931172E+01 -0.53835696009E+01  0.90777623220E+01  0.14532190370E+02  0.00000000000E+00 0. -1.
</event>
<event>
 7    1  0.7457412E-006  0.2062531E+03  0.7818608E-02  0.1307909E+00
          2   -1    0    0  502    0  0.00000000000E+00  0.00000000000E+00  0.26482774749E+03  0.26482774749E+03  0.00000000000E+00 0. -1.
          1   -1    0    0  501    0 -0.00000000000E+00 -0.00000000000E+00 -0.17599876471E+04  0.17599876471E+04  0.00000000000E+00 0. -1.
         25    2    1    2    0    0  0.22895389204E+03  0.78915440054E+02  0.15756111081E+03  0.31479830273E+03  0.12499974561E+03 0.  0.
          2    1    1    2  501    0 -0.19196183874E+03 -0.72775319096E+02 -0.16592953448E+04  0.16719469596E+04  0.00000000000E+00 0. -1.
          1    1    1    2  502    0 -0.36992053302E+02 -0.61401209586E+01  0.65743343883E+01  0.38070132198E+02  0.00000000000E+00 0. -1.
         22    1    3    3    0    0  0.50136392246E+02  0.21362479660E+02  0.10728881136E+03  0.12033662122E+03  0.00000000000E+00 0. -1.
         22    1    3    3    0    0  0.17881749979E+03  0.57552960394E+02  0.50272299450E+02  0.19446168151E+03  0.00000000000E+00 0. -1.
</event>
<event>
 7    1  0.7457412E-006  0.1827986E+03  0.7818608E-02  0.1190543E+00
          2   -1    0    0  502    0  0.00000000000E+00  0.00000000000E+00  0.90091371144E+03  0.90091371144E+03  0.00000000000E+00 0. -1.
          1   -1    0    0  501    0 -0.00000000000E+00 -0.00000000000E+00 -0.55113761052E+03  0.55113761052E+03  0.00000000000E+00 0. -1.
         25    2    1    2    0    0  0.13894571600E+02 -0.10511589748E+03 -0.18929641224E+03  0.25040016771E+03  0.12499880511E+03 0.  0.
          2    1    1    2  501    0  0.13704922294E+03 -0.67548837616E+01 -0.30631163105E+03  0.33564107806E+03  0.00000000000E+00 0. -1.
          1    1    1    2  502    0 -0.15094379454E+03  0.11187078124E+03  0.84538414420E+03  0.86601007620E+03  0.00000000000E+00 0. -1.
         22    1    3    3    0    0  0.21865611290E+02  0.13410898169E+02 -0.95946977102E+02  0.99316562374E+02  0.00000000000E+00 0. -1.
         22    1    3    3    0    0 -0.79710396900E+01 -0.11852679565E+03 -0.93349435136E+02  0.15108360533E+03  0.00000000000E+00 0. -1.
</event>
<event>
 7    1  0.7457412E-006  0.8703493E+02  0.7818608E-02  0.1324659E+00
          2   -1    0    0  502    0  0.00000000000E+00  0.00000000000E+00  0.43357758620E+02  0.43357758620E+02  0.00000000000E+00 0. -1.
          1   -1    0    0  501    0 -0.00000000000E+00 -0.00000000000E+00 -0.18270162480E+04  0.18270162480E+04  0.00000000000E+00 0. -1.
         25    2    1    2    0    0  0.65764233037E+02  0.12306401604E+03 -0.36026754318E+03  0.40606300933E+03  0.12499911395E+03 0.  0.
          2    1    1    2  501    0  0.47365452444E+00 -0.84901819399E+02 -0.13662122090E+04  0.13688478160E+04  0.00000000000E+00 0. -1.
          1    1    1    2  502    0 -0.66237887562E+02 -0.38162196644E+02 -0.57178737243E+02  0.95463181353E+02  0.00000000000E+00 0. -1.
         22    1    3    3    0    0  0.82506641408E+02  0.13028221643E+03 -0.24592183256E+03  0.29027288803E+03  0.00000000000E+00 0. -1.
         22    1    3    3    0    0 -0.16742408370E+02 -0.72182003834E+01 -0.11434571062E+03  0.11579012131E+03  0.00000000000E+00 0. -1.
</event>
<event>
 7    1  0.7457412E-006  0.5385928E+02  0.7818608E-02  0.1500548E+00
          2   -1    0    0  502    0  0.00000000000E+00  0.00000000000E+00  0.10117049861E+04  0.10117049861E+04  0.00000000000E+00 0. -1.
          1   -1    0    0  501    0 -0.00000000000E+00 -0.00000000000E+00 -0.25280098258E+04  0.25280098258E+04  0.00000000000E+00 0. -1.
         25    2    1    2    0    0  0.59154073993E+02  0.96097560285E+01 -0.46159117068E+00  0.13862360925E+03  0.12499896037E+03 0.  0.
          2    1    1    2  501    0 -0.40910799781E+02 -0.35047764702E+02 -0.24579121177E+04  0.24585023933E+04  0.00000000000E+00 0. -1.
          1    1    1    2  502    0 -0.18243274212E+02  0.25438008674E+02  0.94206886915E+03  0.94258880938E+03  0.00000000000E+00 0. -1.
         22    1    3    3    0    0 -0.32142339187E+02  0.30510543351E+02  0.61028710568E+01  0.44735536871E+02  0.00000000000E+00 0.  1.
         22    1    3    3    0    0  0.91296413180E+02 -0.20900787322E+02 -0.65644622274E+01  0.93888072376E+02  0.00000000000E+00 0.  1.
</event>
<event>
 7    1  0.7457412E-006  0.1306160E+03  0.7818608E-02  0.1236307E+00
          2   -1    0    0  502    0  0.00000000000E+00  0.00000000000E+00  0.63759063321E+03  0.63759063321E+03  0.00000000000E+00 0. -1.
          1   -1    0    0  501    0 -0.00000000000E+00 -0.00000000000E+00 -0.14844294498E+03  0.14844294498E+03  0.00000000000E+00 0. -1.
         25    2    1    2    0    0  0.12576203047E+03 -0.35290727774E+02  0.13891902311E+03  0.22800351850E+03  0.12500234275E+03 0.  0.
          2    1    1    2  501    0 -0.55976917904E+02  0.13059377695E+03 -0.42192033070E+02  0.14821712981E+03  0.00000000000E+00 0. -1.
          1    1    1    2  502    0 -0.69785112568E+02 -0.95303049171E+02  0.39242069820E+03  0.40981292988E+03  0.00000000000E+00 0. -1.
         22    1    3    3    0    0  0.42061212864E+02  0.44370482100E+01  0.12788595080E+03  0.13469836464E+03  0.00000000000E+00 0.  1.
         22    1    3    3    0    0  0.83700817608E+02 -0.39727775984E+02  0.11033072309E+02  0.93305153864E+02  0.00000000000E+00 0.  1.
</event>
<event>
 7    1  0.7457412E-006  0.1196194E+03  0.7818608E-02  0.1349483E+00
          2   -1    0    0  502    0  0.00000000000E+00  0.00000000000E+00  0.52987589996E+03  0.52987589996E+03  0.00000000000E+00 0. -1.
          1   -1    0    0  501    0 -0.00000000000E+00 -0.00000000000E+00 -0.21007798799E+03  0.21007798799E+03  0.00000000000E+00 0. -1.
         25    2    1    2    0    0 -0.77246593787E+02  0.26011386221E+01 -0.91099998712E+02  0.17291002443E+03  0.12499945844E+03 0.  0.
          2    1    1    2  501    0 -0.44810017580E+02  0.65070418388E+00 -0.63199443376E+02  0.77476001023E+02  0.00000000000E+00 0. -1.
          1    1    1    2  502    0  0.12205661137E+03 -0.32518428060E+01  0.47409735406E+03  0.48956786249E+03  0.00000000000E+00 0. -1.
         22    1    3    3    0    0  0.94577628051E+01 -0.44175098685E+02 -0.12482815541E+02  0.46869065543E+02  0.00000000000E+00 0. -1.
         22    1    3    3    0    0 -0.86704356592E+02  0.46776237307E+02 -0.78617183171E+02  0.12604095889E+03  0.00000000000E+00 0. -1.
</event>
<event>
 7    1  0.7457412E-006  0.1677953E+03  0.7818608E-02  0.1198763E+00
          2   -1    0    0  502    0  0.00000000000E+00  0.00000000000E+00  0.26111445191E+04  0.26111445191E+04  0.00000000000E+00 0. -1.
          1   -1    0    0  501    0 -0.00000000000E+00 -0.00000000000E+00 -0.12628126169E+04  0.12628126169E+04  0.00000000000E+00 0. -1.
         25    2    1    2    0    0 -0.17514683129E+03 -0.10368438708E+02  0.13539214845E+04  0.13709529992E+04  0.12499929152E+03 0.  0.
          2    1    1    2  501    0  0.10753101739E+03  0.12906754473E+03 -0.12449019476E+04  0.12561855794E+04  0.00000000000E+00 0. -1.
          1    1    1    2  502    0  0.67615813900E+02 -0.11869910602E+03  0.12393123653E+04  0.12468185573E+04  0.00000000000E+00 0. -1.
         22    1    3    3    0    0 -0.36232965859E+02  0.14063045912E+02  0.76879462762E+02  0.86145509865E+02  0.00000000000E+00 0. -1.
         22    1    3    3    0    0 -0.13891386543E+03 -0.24431484621E+02  0.12770420218E+04  0.12848074894E+04  0.00000000000E+00 0. -1.
</event>
<event>
 7    1  0.7457412E-006  0.4943344E+02  0.7818608E-02  0.1565503E+00
          2   -1    0    0  502    0  0.00000000000E+00  0.00000000000E+00  0.86432339761E+02  0.86432339761E+02  0.00000000000E+00 0. -1.
          1   -1    0    0  501    0 -0.00000000000E+00 -0.00000000000E+00 -0.26128163707E+03  0.26128163707E+03  0.00000000000E+00 0. -1.
         25    2    1    2    0    0 -0.38801314997E+02  0.10481685577E+02 -0.12234048377E+03  0.17946534355E+03  0.12500083115E+03 0.  0.
          2    1    1    2  501    0  0.51525157516E+02  0.77757960411E+01 -0.10169188899E+03  0.11426524033E+03  0.00000000000E+00 0. -1.
          1    1    1    2  502    0 -0.12723842519E+02 -0.18257481618E+02  0.49183075455E+02  0.53983392953E+02  0.00000000000E+00 0. -1.
         22    1    3    3    0    0 -0.52036368035E+02 -0.42024038985E+02 -0.32016758643E+02  0.74154408399E+02  0.00000000000E+00 0.  1.
         22    1    3    3    0    0  0.13235053038E+02  0.52505724562E+02 -0.90323725130E+02  0.10531093515E+03  0.00000000000E+00 0.  1.
</event>
<event>
 7    1  0.7457412E-006  0.3362164E+02  0.7818608E-02  0.1640507E+00
          2   -1    0    0  502    0  0.00000000000E+00  0.00000000000E+00  0.28294218145E+03  0.28294218145E+03  0.00000000000E+00 0. -1.
          1   -1    0    0  501    0 -0.00000000000E+00 -0.00000000000E+00 -0.12653449905E+04  0.12653449905E+04  0.00000000000E+00 0. -1.
         25    2    1    2    0    0  0.23583739576E+01 -0.54206769996E+02  0.21818308272E+03  0.25723833275E+03  0.12499506554E+03 0.  0.
          2    1    1    2  501    0 -0.37871848754E+01  0.33387956765E+02 -0.12431713392E+04  0.12436253765E+04  0.00000000000E+00 0. -1.
          1    1    1    2  502    0  0.14288109178E+01  0.20818813231E+02  0.42585447414E+02  0.47423462721E+02  0.00000000000E+00 0. -1.
         22    1    3    3    0    0 -0.85050252157E+01  0.32563810784E+02  0.16647679566E+02  0.37548401586E+02  0.00000000000E+00 0.  1.
         22    1    3    3    0    0  0.10863399173E+02 -0.86770580780E+02  0.20153540316E+03  0.21968993117E+03  0.00000000000E+00 0.  1.
</event>
<event>
 7    1  0.7457412E-006  0.3135135E+02  0.7818608E-02  0.1625045E+00
          2   -1    0    0  502    0  0.00000000000E+00  0.00000000000E+00  0.11409531345E+04  0.11409531345E+04  0.00000000000E+00 0. -1.
          1   -1    0    0  501    0 -0.00000000000E+00 -0.00000000000E+00 -0.81256025236E+03  0.81256025236E+03  0.00000000000E+00 0. -1.
         25    2    1    2    0    0 -0.16015502946E+02 -0.52846831515E+02 -0.11761264407E+03  0.18029385248E+03  0.12499542096E+03 0.  0.
          2    1    1    2  501    0  0.10759596831E+02  0.21974454410E+02 -0.66316039500E+03  0.66361159956E+03  0.00000000000E+00 0. -1.
          1    1    1    2  502    0  0.52559061157E+01  0.30872377105E+02  0.11091659212E+04  0.11096079348E+04  0.00000000000E+00 0. -1.
         22    1    3    3    0    0 -0.40986745175E+02  0.19629137142E+02 -0.73995391579E+01  0.46043126356E+02  0.00000000000E+00 0. -1.
         22    1    3    3    0    0  0.24971242228E+02 -0.72475968657E+02 -0.11021310491E+03  0.13425072612E+03  0.00000000000E+00 0. -1.
</event>
<event>
 7    1  0.7457412E-006  0.4026616E+02  0.7818608E-02  0.1562409E+00
          2   -1    0    0  502    0  0.00000000000E+00  0.00000000000E+00  0.43433202366E+03  0.43433202366E+03  0.00000000000E+00 0. -1.
          1   -1    0    0  501    0 -0.00000000000E+00 -0.00000000000E+00 -0.53519407160E+03  0.53519407160E+03  0.00000000000E+00 0. -1.
         25    2    1    2    0    0 -0.15634115132E+02  0.91774876545E+01 -0.35338049322E+03  0.37525906908E+03  0.12495176709E+03 0.  0.
          2    1    1    2  501    0 -0.24490905356E+02 -0.13277575131E+02 -0.16876918388E+03  0.17105302065E+03  0.00000000000E+00 0. -1.
          1    1    1    2  502    0  0.40125020488E+02  0.41000874765E+01  0.42128762917E+03  0.42321400553E+03  0.00000000000E+00 0. -1.
         22    1    3    3    0    0  0.53170657819E+02 -0.79829634101E+00 -0.11059440918E+03  0.12271462616E+03  0.00000000000E+00 0.  1.
         22    1    3    3    0    0 -0.68804772951E+02  0.99757839955E+01 -0.24278608404E+03  0.25254444292E+03  0.00000000000E+00 0.  1.
</event>
<event>
 7    1  0.7457412E-006  0.5716069E+02  0.7818608E-02  0.1480497E+00
          2   -1    0    0  502    0  0.00000000000E+00  0.00000000000E+00  0.71987625110E+03  0.71987625110E+03  0.00000000000E+00 0. -1.
          1   -1    0    0  501    0 -0.00000000000E+00 -0.00000000000E+00 -0.88017618126E+02  0.88017618126E+02  0.00000000000E+00 0. -1.
         25    2    1    2    0    0 -0.85821151384E+02 -0.14883675539E+02  0.11320119133E+03  0.18980261060E+03  0.12499490969E+03 0.  0.
          2    1    1    2  501    0  0.51918729993E+02  0.15767365664E+02 -0.34236340267E+02  0.64158330238E+02  0.00000000000E+00 0. -1.
          1    1    1    2  502    0  0.33902421391E+02 -0.88369012528E+00  0.55289378190E+03  0.55393292839E+03  0.00000000000E+00 0. -1.
         22    1    3    3    0    0 -0.99195417076E+02 -0.29842372258E+02  0.12814984391E+03  0.16478070411E+03  0.00000000000E+00 0.  1.
         22    1    3    3    0    0  0.13374265692E+02  0.14958696719E+02 -0.14948652581E+02  0.25021906489E+02  0.00000000000E+00 0.  1.
</event>
<event>
 7    1  0.7457412E-006  0.9909553E+02  0.7818608E-02  0.1435506E+00
          2   -1    0    0  502    0  0.00000000000E+00  0.00000000000E+00  0.94506426263E+03  0.94506426263E+03  0.00000000000E+00 0. -1.
          1   -1    0    0  501    0 -0.00000000000E+00 -0.00000000000E+00 -0.44283333129E+03  0.44283333129E+03  0.00000000000E+00 0. -1.
         25    2    1    2    0    0 -0.11288681823E+03  0.46312366197E+02  0.98863124687E+02  0.20071633355E+03  0.12499944054E+03 0.  0.
          2    1    1    2  501    0  0.18834738186E+02 -0.19555755508E+02 -0.38842525998E+03  0.38937303133E+03  0.00000000000E+00 0. -1.
          1    1    1    2  502    0  0.94052080048E+02 -0.26756610690E+02  0.79179306663E+03  0.79780822905E+03  0.00000000000E+00 0. -1.
         22    1    3    3    0    0 -0.72430458697E+02 -0.23179860506E+01  0.11454443104E+03  0.13554324435E+03  0.00000000000E+00 0.  1.
         22    1    3    3    0    0 -0.40456359537E+02  0.48630352248E+02 -0.15681306352E+02  0.65173089198E+02  0.00000000000E+00 0.  1.
</event>
<event>
 7    1  0.7457412E-006  0.1002125E+03  0.7818608E-02  0.1357993E+00
          2   -1    0    0  502    0  0.00000000000E+00  0.00000000000E+00  0.16698011698E+04  0.16698011698E+04  0.00000000000E+00 0. -1.
          1   -1    0    0  501    0 -0.00000000000E+00 -0.00000000000E+00 -0.95147323144E+02  0.95147323144E+02  0.00000000000E+00 0. -1.
         25    2    1    2    0    0 -0.94303772611E+02  0.98867705642E+01  0.34773875409E+03  0.38149530748E+03  0.12500191507E+03 0.  0.
          2    1    1    2  501    0  0.93570180376E+02  0.39875769285E+02 -0.44530867077E+02  0.11103357039E+03  0.00000000000E+00 0. -1.
          1    1    1    2  502    0  0.73359223520E+00 -0.49762539849E+02  0.12714459597E+04  0.12724196151E+04  0.00000000000E+00 0. -1.
         22    1    3    3    0    0 -0.83150822000E+02  0.60446773402E+02  0.26048630201E+03  0.28003747097E+03  0.00000000000E+00 0.  1.
         22    1    3    3    0    0 -0.11152950611E+02 -0.50560002838E+02  0.87252452080E+02  0.10145783651E+03  0.00000000000E+00 0.  1.
</event>
<event>
 7    1  0.7457412E-006  0.6013336E+02  0.7818608E-02  0.1414126E+00
          2   -1    0    0  502    0  0.00000000000E+00  0.00000000000E+00  0.75442147958E+03  0.75442147958E+03  0.00000000000E+00 0. -1.
          1   -1    0    0  501    0 -0.00000000000E+00 -0.00000000000E+00 -0.30646052722E+03  0.30646052722E+03  0.00000000000E+00 0. -1.
         25    2    1    2    0    0 -0.51812732302E+02  0.42402169405E+02  0.18150649739E+03  0.23033352286E+03  0.12500567972E+03 0.  0.
          2    1    1    2  501    0 -0.85638846203E+01 -0.51979003363E+02 -0.27786114477E+03  0.28281084259E+03  0.00000000000E+00 0. -1.
          1    1    1    2  502    0  0.60376616923E+02  0.95768339575E+01  0.54431559974E+03  0.54773764134E+03  0.00000000000E+00 0. -1.
         22    1    3    3    0    0  0.19870901745E+02  0.60814722642E+02  0.11097873647E+03  0.12809981724E+03  0.00000000000E+00 0. -1.
         22    1    3    3    0    0 -0.71683634048E+02 -0.18412553236E+02  0.70527760915E+02  0.10223370563E+03  0.00000000000E+00 0. -1.
</event>
<event>
 7    1  0.7457412E-006  0.2896084E+03  0.7818608E-02  0.1298583E+00
          2   -1    0    0  502    0  0.00000000000E+00  0.00000000000E+00  0.15556030513E+04  0.15556030513E+04  0.00000000000E+00 0. -1.
          1   -1    0    0  501    0 -0.00000000000E+00 -0.00000000000E+00 -0.31887746798E+03  0.31887746798E+03  0.00000000000E+00 0. -1.
         25    2    1    2    0    0  0.18970578078E+03 -0.24405192620E+03  0.25996142864E+03  0.42279674643E+03  0.12501007345E+03 0.  0.
          2    1    1    2  501    0 -0.16145262965E+01  0.29045112506E+02 -0.21968557839E+03  0.22160320081E+03  0.00000000000E+00 0. -1.
          1    1    1    2  502    0 -0.18809125449E+03  0.21500681370E+03  0.11964497331E+04  0.12300805721E+04  0.00000000000E+00 0. -1.
         22    1    3    3    0    0  0.20815489516E+03 -0.21985282301E+03  0.24071621188E+03  0.38679195806E+03  0.00000000000E+00 0.  1.
         22    1    3    3    0    0 -0.18449114377E+02 -0.24199103198E+02  0.19245216763E+02  0.36004788363E+02  0.00000000000E+00 0.  1.
</event>
<event>
 7    1  0.7457412E-006  0.2509019E+03  0.7818608E-02  0.1124359E+00
          2   -1    0    0  502    0  0.00000000000E+00  0.00000000000E+00  0.27545661819E+04  0.27545661819E+04  0.00000000000E+00 0. -1.
          1   -1    0    0  501    0 -0.00000000000E+00 -0.00000000000E+00 -0.35930217915E+03  0.35930217915E+03  0.00000000000E+00 0. -1.
         25    2    1    2    0    0 -0.24465140573E+03 -0.88738060078E+02  0.80336202916E+03  0.85366840330E+03  0.12502175516E+03 0.  0.
          2    1    1    2  501    0  0.22185372919E+03 -0.12693712161E+03 -0.27806794690E+03  0.37769550314E+03  0.00000000000E+00 0. -1.
          1    1    1    2  502    0  0.22797676533E+02  0.21567518169E+03  0.18699699204E+04  0.18825044546E+04  0.00000000000E+00 0. -1.
         22    1    3    3    0    0 -0.18443596428E+03 -0.11700168963E+03  0.55166273002E+03  0.59332772394E+03  0.00000000000E+00 0.  1.
         22    1    3    3    0    0 -0.60215441444E+02  0.28263629550E+02  0.25169929914E+03  0.26034067936E+03  0.00000000000E+00 0.  1.
</event>
<event>
 7    1  0.7457412E-006  0.1265909E+03  0.7818608E-02  0.1281159E+00
          2   -1    0    0  502    0  0.00000000000E+00  0.00000000000E+00  0.23365651481E+04  0.23365651481E+04  0.00000000000E+00 0. -1.
          1   -1    0    0  501    0 -0.00000000000E+00 -0.00000000000E+00 -0.17961218454E+03  0.17961218454E+03  0.00000000000E+00 0. -1.
         25    2    1    2    0    0  0.15542566227E+03 -0.74128992246E+02  0.34515988983E+03  0.40547773917E+03  0.12499841371E+03 0.  0.
          2    1    1    2  501    0 -0.75403245697E+02 -0.21281964267E+02 -0.13705930627E+03  0.15787281242E+03  0.00000000000E+00 0. -1.
          1    1    1    2  502    0 -0.80022416575E+02  0.95410956512E+02  0.19488523800E+04  0.19528267811E+04  0.00000000000E+00 0. -1.
         22    1    3    3    0    0  0.14976670664E+03 -0.78029550937E+02  0.20700131589E+03  0.26714831464E+03  0.00000000000E+00 0. -1.
         22    1    3    3    0    0  0.56589556368E+01  0.39005586909E+01  0.13815857394E+03  0.13832942452E+03  0.00000000000E+00 0. -1.
</event>
<event>
 7    1  0.7457412E-006  0.5526559E+02  0.7818608E-02  0.1438062E+00
          2   -1    0    0  502    0  0.00000000000E+00  0.00000000000E+00  0.12567396836E+04  0.12567396836E+04  0.00000000000E+00 0. -1.
          1   -1    0    0  501    0 -0.00000000000E+00 -0.00000000000E+00 -0.14498226295E+04  0.14498226295E+04  0.00000000000E+00 0. -1.
         25    2    1    2    0    0  0.36194725188E+02  0.49059591547E+02  0.35916960990E+02  0.14363626396E+03  0.12499778631E+03 0.  0.
          2    1    1    2  501    0 -0.47472304100E+02  0.52225984866E+01 -0.13948955826E+04  0.13957129295E+04  0.00000000000E+00 0. -1.
          1    1    1    2  502    0  0.11277578912E+02 -0.54282190033E+02  0.11658956758E+04  0.11672131197E+04  0.00000000000E+00 0. -1.
         22    1    3    3    0    0 -0.12878423944E+02  0.53003971991E+02  0.66245933322E+02  0.85812577935E+02  0.00000000000E+00 0. -1.
         22    1    3    3    0    0  0.49073149132E+02 -0.39443804440E+01 -0.30328972333E+02  0.57823686025E+02  0.00000000000E+00 0. -1.
</event>
<event>
 7    1  0.7457412E-006  0.1192195E+03  0.7818608E-02  0.1300424E+00
          2   -1    0    0  502    0  0.00000000000E+00  0.00000000000E+00  0.16758045003E+04  0.16758045003E+04  0.00000000000E+00 0. -1.
          1   -1    0    0  501    0 -0.00000000000E+00 -0.00000000000E+00 -0.52512053633E+03  0.52512053633E+03  0.00000000000E+00 0. -1.
         25    2    1    2    0    0 -0.23764939913E+02  0.17973039801E+03 -0.77836466125E+01  0.22034839036E+03  0.12500015856E+03 0.  0.
          2    1    1    2  501    0 -0.56131018357E+00 -0.11465313822E+03 -0.40227159830E+03  0.41829187892E+03  0.00000000000E+00 0. -1.
          1    1    1    2  502    0  0.24326250096E+02 -0.65077259795E+02  0.15607392089E+04  0.15622847674E+04  0.00000000000E+00 0. -1.
         22    1    3    3    0    0 -0.54792000174E+02  0.40838224814E+02  0.27600253942E+02  0.73700053641E+02  0.00000000000E+00 0. -1.
         22    1    3    3    0    0  0.31027060261E+02  0.13889217320E+03 -0.35383900554E+02  0.14664833672E+03  0.00000000000E+00 0. -1.
</event>
<event>
 7    1  0.7457412E-006  0.1090169E+03  0.7818608E-02  0.1366415E+00
          2   -1    0    0  502    0  0.00000000000E+00  0.00000000000E+00  0.13877903242E+04  0.13877903242E+04  0.00000000000E+00 0. -1.
          1   -1    0    0  501    0 -0.00000000000E+00 -0.00000000000E+00 -0.27823745527E+03  0.27823745527E+03  0.00000000000E+00 0. -1.
         25    2    1    2    0    0  0.13745274577E+03  0.42176932898E+02  0.28836281318E+03  0.34561648364E+03  0.12500196301E+03 0.  0.
          2    1    1    2  501    0 -0.10712971977E+03 -0.12209041992E+02 -0.23751757983E+03  0.26084562158E+03  0.00000000000E+00 0. -1.
          1    1    1    2  502    0 -0.30323025996E+02 -0.29967890906E+02  0.10587076356E+04  0.10595656742E+04  0.00000000000E+00 0. -1.
         22    1    3    3    0    0 -0.17702324213E+02 -0.15431692117E+02  0.22995690682E+02  0.32868087776E+02  0.00000000000E+00 0.  1.
         22    1    3    3    0    0  0.15515506998E+03  0.57608625014E+02  0.26536712250E+03  0.31274839587E+03  0.00000000000E+00 0.  1.
</event>
<event>
 7    1  0.7457412E-006  0.1215084E+03  0.7818608E-02  0.1290944E+00
          2   -1    0    0  502    0  0.00000000000E+00  0.00000000000E+00  0.14685402339E+04  0.14685402339E+04  0.00000000000E+00 0. -1.
          1   -1    0    0  501    0 -0.00000000000E+00 -0.00000000000E+00 -0.70556623611E+02  0.70556623611E+02  0.00000000000E+00 0. -1.
         25    2    1    2    0    0  0.18884819744E+03  0.27501422276E+00  0.65973812951E+03  0.69752645215E+03  0.12500013845E+03 0.  0.
          2    1    1    2  501    0 -0.11474798010E+03  0.67902202731E+01  0.16652892287E+02  0.11614871867E+03  0.00000000000E+00 0. -1.
          1    1    1    2  502    0 -0.74100217342E+02 -0.70652344959E+01  0.72159258850E+03  0.72542168669E+03  0.00000000000E+00 0. -1.
         22    1    3    3    0    0  0.82939005988E+02 -0.38083968781E+02  0.15075504273E+03  0.17622812007E+03  0.00000000000E+00 0. -1.
         22    1    3    3    0    0  0.10590919145E+03  0.38358983004E+02  0.50898308677E+03  0.52129833208E+03  0.00000000000E+00 0. -1.
</event>
<event>
 7    1  0.7457412E-006  0.5669234E+02  0.7818608E-02  0.1413308E+00
          2   -1    0    0  502    0  0.00000000000E+00  0.00000000000E+00  0.10604567532E+03  0.10604567532E+03  0.00000000000E+00 0. -1.
          1   -1    0    0  501    0 -0.00000000000E+00 -0.00000000000E+00 -0.65564585286E+03  0.65564585286E+03  0.00000000000E+00 0. -1.
         25    2    1    2    0    0  0.82443197865E+01 -0.32774225348E+02 -0.15142654658E+03  0.19923912816E+03  0.12499645005E+03 0.  0.
          2    1    1    2  501    0  0.50594780054E+02  0.24542496207E+02 -0.46766042240E+03  0.47102912497E+03  0.00000000000E+00 0. -1.
          1    1    1    2  502    0 -0.58839099840E+02  0.82317291415E+01  0.69486791449E+02  0.91423275048E+02  0.00000000000E+00 0. -1.
         22    1    3    3    0    0  0.52866528158E+02 -0.57656619835E+02 -0.86589545560E+02  0.11669149502E+03  0.00000000000E+00 0.  1.
         22    1    3    3    0    0 -0.44622208372E+02  0.24882394487E+02 -0.64837001023E+02  0.82547633140E+02  0.00000000000E+00 0.  1.
</event>
<event>
 7    1  0.7457412E-006  0.4135329E+02  0.7818608E-02  0.1607548E+00
          2   -1    0    0  502    0  0.00000000000E+00  0.00000000000E+00  0.10252779826E+04  0.10252779826E+04  0.00000000000E+00 0. -1.
          1   -1    0    0  501    0 -0.00000000000E+00 -0.00000000000E+00 -0.94374237197E+03  0.94374237197E+03  0.00000000000E+00 0. -1.
         25    2    1    2    0    0 -0.20532580879E+02 -0.94499442965E+01 -0.17702021384E+03  0.21788002666E+03  0.12499864634E+03 0.  0.
          2    1    1    2  501    0 -0.10991121274E+02 -0.17380110079E+02 -0.74572412062E+03  0.74600759852E+03  0.00000000000E+00 0. -1.
          1    1    1    2  502    0  0.31523702153E+02  0.26830054376E+02  0.10042799451E+04  0.10051327294E+04  0.00000000000E+00 0. -1.
         22    1    3    3    0    0  0.33215792859E+02  0.36140331361E+02 -0.11073805683E+03  0.12112939229E+03  0.00000000000E+00 0. -1.
         22    1    3    3    0    0 -0.53748373738E+02 -0.45590275657E+02 -0.66282157007E+02  0.96750634372E+02  0.00000000000E+00 0. -1.
</event>
<event>
 7    1  0.7457412E-006  0.1219127E+03  0.7818608E-02  0.1367549E+00
          2   -1    0    0  502    0  0.00000000000E+00  0.00000000000E+00  0.13679736437E+04  0.13679736437E+04  0.00000000000E+00 0. -1.
          1   -1    0    0  501    0 -0.00000000000E+00 -0.00000000000E+00 -0.93786014389E+03  0.93786014389E+03  0.00000000000E+00 0. -1.
         25    2    1    2    0    0 -0.56333121609E+02  0.14116032381E+03  0.83247966339E+02  0.21366910930E+03  0.12499842704E+03 0.  0.
          2    1    1    2  501    0 -0.51795899624E+01 -0.37408445542E+02 -0.86925619138E+03  0.87007617265E+03  0.00000000000E+00 0. -1.
          1    1    1    2  502    0  0.61512711572E+02 -0.10375187827E+03  0.12161217249E+04  0.12220885056E+04  0.00000000000E+00 0. -1.
         22    1    3    3    0    0  0.12788924714E+02 -0.13962562271E+02  0.30392001419E+02  0.35807589848E+02  0.00000000000E+00 0. -1.
         22    1    3    3    0    0 -0.69122046323E+02  0.15512288609E+03  0.52855964920E+02  0.17786151946E+03  0.00000000000E+00 0. -1.
</event>
<event>
 7    1  0.7457412E-006  0.3524892E+02  0.7818608E-02  0.1600524E+00
          2   -1    0    0  502    0  0.00000000000E+00  0.00000000000E+00  0.95400893642E+03  0.95400893642E+03  0.00000000000E+00 0. -1.
          1   -1    0    0  501    0 -0.00000000000E+00 -0.00000000000E+00 -0.12623720392E+02  0.12623720392E+02  0.00000000000E+00 0. -1.
         25    2    1    2    0    0 -0.29421499442E+02  0.43563849046E+02  0.77738139597E+03  0.78911979182E+03  0.12499910984E+03 0.  0.
          2    1    1    2  501    0  0.62564980159E+01 -0.33742654721E+02  0.49213194614E+02  0.59997075255E+02  0.00000000000E+00 0. -1.
          1    1    1    2  502    0  0.23165001426E+02 -0.98211943247E+01  0.11479062545E+03  0.11751578974E+03  0.00000000000E+00 0. -1.
         22    1    3    3    0    0  0.18759338841E+02  0.49514563678E+02  0.13661703851E+03  0.14651900908E+03  0.00000000000E+00 0.  1.
         22    1    3    3    0    0 -0.48180838283E+02 -0.59507146327E+01  0.64076435746E+03  0.64260078274E+03  0.00000000000E+00 0.  1.
</event>
<event>
 7    1  0.7457412E-006  0.1270654E+03  0.7818608E-02  0.1285010E+00
          2   -1    0    0  502    0  0.00000000000E+00  0.00000000000E+00  0.29472811190E+04  0.29472811190E+04  0.00000000000E+00 0. -1.
          1   -1    0    0  501    0 -0.00000000000E+00 -0.00000000000E+00 -0.31418239115E+04  0.31418239115E+04  0.00000000000E+00 0. -1.
         25    2    1    2    0    0  0.65918438614E+02 -0.55320766816E+02 -0.16981608373E+03  0.22773997815E+03  0.12498946982E+03 0.  0.
          2    1    1    2  501    0 -0.12899837356E+03  0.14269500351E+02 -0.29411293238E+04  0.29439914908E+04  0.00000000000E+00 0. -1.
          1    1    1    2  502    0  0.63079934943E+02  0.41051266465E+02  0.29164026150E+04  0.29173735615E+04  0.00000000000E+00 0. -1.
         22    1    3    3    0    0  0.81792619614E+02 -0.84750823048E+02 -0.12403973936E+03  0.17105142961E+03  0.00000000000E+00 0. -1.
         22    1    3    3    0    0 -0.15874181000E+02  0.29430056232E+02 -0.45776344364E+02  0.56688548540E+02  0.00000000000E+00 0. -1.
</event>
<event>
 7    1  0.7457412E-006  0.4388469E+02  0.7818608E-02  0.1528592E+00
          2   -1    0    0  502    0  0.00000000000E+00  0.00000000000E+00  0.33300277716E+03  0.33300277716E+03  0.00000000000E+00 0. -1.
          1   -1    0    0  501    0 -0.00000000000E+00 -0.00000000000E+00 -0.37768411979E+03  0.37768411979E+03  0.00000000000E+00 0. -1.
         25    2    1    2    0    0  0.91819941674E+00  0.14992875593E+02 -0.75721476639E+02  0.14691406646E+03  0.12499748594E+03 0.  0.
          2    1    1    2  501    0  0.22009897861E+02  0.22958891106E+02 -0.26375303303E+03  0.26566371359E+03  0.00000000000E+00 0. -1.
          1    1    1    2  502    0 -0.22928097278E+02 -0.37951766699E+02  0.29479316705E+03  0.29810911690E+03  0.00000000000E+00 0. -1.
         22    1    3    3    0    0  0.51695304175E+02  0.22561212784E+02 -0.77133982024E+02  0.95556600917E+02  0.00000000000E+00 0. -1.
         22    1    3    3    0    0 -0.50777104758E+02 -0.75683371912E+01  0.14125053843E+01  0.51357465542E+02  0.00000000000E+00 0. -1.
</event>
<event>
 7    1  0.7457412E-006  0.9188529E+02  0.7818608E-02  0.1333159E+00
          2   -1    0    0  502    0  0.00000000000E+00  0.00000000000E+00  0.11375939690E+04  0.11375939690E+04  0.00000000000E+00 0. -1.
          1   -1    0    0  501    0 -0.00000000000E+00 -0.00000000000E+00 -0.22480123554E+03  0.22480123554E+03  0.00000000000E+00 0. -1.
         25    2    1    2    0    0  0.14399126494E+03  0.33333532839E+02 -0.42307887058E+02  0.19814195617E+03  0.12500267475E+03 0.  0.
          2    1    1    2  501    0 -0.78408986446E+02 -0.18748969043E+02 -0.87795458201E+02  0.11919536684E+03  0.00000000000E+00 0. -1.
          1    1    1    2  502    0 -0.65582278497E+02 -0.14584563796E+02  0.10428960788E+04  0.10450578816E+04  0.00000000000E+00 0. -1.
         22    1    3    3    0    0  0.59705115777E+02 -0.46238635527E+02 -0.31164884710E+02  0.81694322351E+02  0.00000000000E+00 0.  1.
         22    1    3    3    0    0  0.84286149165E+02  0.79572168366E+02 -0.11143002348E+02  0.11644763381E+03  0.00000000000E+00 0.  1.
</event>
<event>
 7    1  0.7457412E-006  0.1065128E+03  0.7818608E-02  0.1296928E+00
          2   -1    0    0  502    0  0.00000000000E+00  0.00000000000E+00  0.15097528865E+04  0.15097528865E+04  0.00000000000E+00 0. -1.
          1   -1    0    0  501    0 -0.00000000000E+00 -0.00000000000E+00 -0.22203874391E+03  0.22203874391E+03  0.00000000000E+00 0. -1.
         25    2    1    2    0    0  0.71081130406E+02 -0.16398849345E+03  0.28506243410E+03  0.35892834843E+03  0.12499685952E+03 0.  0.
          2    1    1    2  501    0 -0.48198461733E+02  0.64245737521E+02 -0.17406725709E+03  0.19170293814E+03  0.00000000000E+00 0. -1.
          1    1    1    2  502    0 -0.22882668674E+02  0.99742755926E+02  0.11767189656E+04  0.11811603438E+04  0.00000000000E+00 0. -1.
         22    1    3    3    0    0  0.94953392742E+02 -0.64973271176E+02  0.16984367208E+03  0.20514518202E+03  0.00000000000E+00 0. -1.
         22    1    3    3    0    0 -0.23872262336E+02 -0.99015222272E+02  0.11521876202E+03  0.15378316641E+03  0.00000000000E+00 0. -1.
</event>
<event>
 7    1  0.7457412E-006  0.7406204E+02  0.7818608E-02  0.1352817E+00
          2   -1    0    0  502    0  0.00000000000E+00  0.00000000000E+00  0.13629600843E+04  0.13629600843E+04  0.00000000000E+00 0. -1.
          1   -1    0    0  501    0 -0.00000000000E+00 -0.00000000000E+00 -0.49528891250E+03  0.49528891250E+03  0.00000000000E+00 0. -1.
         25    2    1    2    0    0 -0.13043795822E+02 -0.48522803241E+02  0.23076357705E+02  0.13668270245E+03  0.12500015929E+03 0.  0.
          2    1    1    2  501    0  0.74755262790E+02  0.14735981311E+02 -0.43420150764E+03  0.44083607803E+03  0.00000000000E+00 0. -1.
          1    1    1    2  502    0 -0.61711466968E+02  0.33786821929E+02  0.12787963217E+04  0.12807302163E+04  0.00000000000E+00 0. -1.
         22    1    3    3    0    0 -0.51988598760E+02 -0.71530830082E+02  0.23310447048E+02  0.91448624893E+02  0.00000000000E+00 0.  1.
         22    1    3    3    0    0  0.38944802938E+02  0.23008026841E+02 -0.23408934283E+00  0.45234077561E+02  0.00000000000E+00 0.  1.
</event>
<event>
 7    1  0.7457412E-006  0.1019498E+03  0.7818608E-02  0.1346860E+00
          2   -1    0    0  502    0  0.00000000000E+00  0.00000000000E+00  0.18708563325E+04  0.18708563325E+04  0.00000000000E+00 0. -1.
          1   -1    0    0  501    0 -0.00000000000E+00 -0.00000000000E+00 -0.34136845593E+02  0.34136845593E+02  0.00000000000E+00 0. -1.
         25    2    1    2    0    0 -0.13413425822E+03  0.37126116682E+02  0.63623079677E+03  0.66316306240E+03  0.12500109124E+03 0.  0.
          2    1    1    2  501    0  0.81966137657E+02 -0.50175237268E+02  0.95335392901E+02  0.13536927014E+03  0.00000000000E+00 0. -1.
          1    1    1    2  502    0  0.52168120563E+02  0.13049120586E+02  0.11051532972E+04  0.11064608456E+04  0.00000000000E+00 0. -1.
         22    1    3    3    0    0  0.52242791072E+01  0.11837280413E+02  0.27283277257E+03  0.27313940779E+03  0.00000000000E+00 0. -1.
         22    1    3    3    0    0 -0.13935853733E+03  0.25288836269E+02  0.36339802419E+03  0.39002365461E+03  0.00000000000E+00 0. -1.
</event>
<event>
 7    1  0.7457412E-006  0.1572857E+03  0.7818608E-02  0.1250148E+00
          2   -1    0    0  502    0  0.00000000000E+00  0.00000000000E+00  0.23077652272E+04  0.23077652272E+04  0.00000000000E+00 0. -1.
          1   -1    0    0  501    0 -0.00000000000E+00 -0.00000000000E+00 -0.17444775028E+03  0.17444775028E+03  0.00000000000E+00 0. -1.
         25    2    1    2    0    0 -0.69067931894E+01 -0.12837080961E+03 -0.90030353283E+01  0.17953591096E+03  0.12500128050E+03 0.  0.
          2    1    1    2  501    0  0.58950603045E+02  0.19594573956E+03  0.52676371598E+02  0.21129294020E+03  0.00000000000E+00 0. -1.
          1    1    1    2  502    0 -0.52043809856E+02 -0.67574929952E+02  0.20896441407E+04  0.20913841264E+04  0.00000000000E+00 0. -1.
         22    1    3    3    0    0  0.50360260426E+02 -0.72870723984E+02  0.26186442460E+02  0.92368977546E+02  0.00000000000E+00 0.  1.
         22    1    3    3    0    0 -0.57267053615E+02 -0.55500085625E+02 -0.35189477788E+02  0.87166933416E+02  0.00000000000E+00 0.  1.
</event>
<event>
 7    1  0.7457412E-006  0.1064490E+03  0.7818608E-02  0.1457297E+00
          2   -1    0    0  502    0  0.00000000000E+00  0.00000000000E+00  0.25257880438E+04  0.25257880438E+04  0.00000000000E+00 0. -1.
          1   -1    0    0  501    0 -0.00000000000E+00 -0.00000000000E+00 -0.28118597256E+02  0.28118597256E+02  0.00000000000E+00 0. -1.
         25    2    1    2    0    0 -0.46601816521E+02  0.73873307660E+02  0.27920965573E+03  0.31813797388E+03  0.12499897474E+03 0.  0.
          2    1    1    2  501    0 -0.43664777254E+01  0.21061013714E+02  0.84113674904E+01  0.23095097520E+02  0.00000000000E+00 0. -1.
          1    1    1    2  502    0  0.50968294246E+02 -0.94934321374E+02  0.22100484233E+04  0.22126735697E+04  0.00000000000E+00 0. -1.
         22    1    3    3    0    0  0.28807395976E+02  0.67175832834E+02  0.10247673747E+03  0.12587271469E+03  0.00000000000E+00 0. -1.
         22    1    3    3    0    0 -0.75409212497E+02  0.66974748260E+01  0.17673291825E+03  0.19226525919E+03  0.00000000000E+00 0. -1.
</event>
<event>
 7    1  0.7457412E-006  0.2682555E+03  0.7818608E-02  0.1128648E+00
          2   -1    0    0  502    0  0.00000000000E+00  0.00000000000E+00  0.74181908368E+03  0.74181908368E+03  0.00000000000E+00 0. -1.
          1   -1    0    0  501    0 -0.00000000000E+00 -0.00000000000E+00 -0.99150965324E+03  0.99150965324E+03  0.00000000000E+00 0. -1.
         25    2    1    2    0    0  0.99750226276E+02  0.24269128304E+03  0.11094025462E+02  0.29085722443E+03  0.12500272435E+03 0.  0.
          2    1    1    2  501    0  0.91591409903E+02 -0.26262130592E+03 -0.81217789247E+03  0.85848230367E+03  0.00000000000E+00 0. -1.
          1    1    1    2  502    0 -0.19134163618E+03  0.19930022879E+02  0.55139329745E+03  0.58398920882E+03  0.00000000000E+00 0. -1.
         22    1    3    3    0    0  0.14433808868E+02  0.18885644526E+03  0.37255396690E+00  0.18940757786E+03  0.00000000000E+00 0. -1.
         22    1    3    3    0    0  0.85316417408E+02  0.53834837787E+02  0.10721471495E+02  0.10144964657E+03  0.00000000000E+00 0. -1.
</event>
<event>
 7    1  0.7457412E-006  0.1492721E+03  0.7818608E-02  0.1333721E+00
          2   -1    0    0  502    0  0.00000000000E+00  0.00000000000E+00  0.16459354112E+04  0.16459354112E+04  0.00000000000E+00 0. -1.
          1   -1    0    0  501    0 -0.00000000000E+00 -0.00000000000E+00 -0.99449554808E+02  0.99449554808E+02  0.00000000000E+00 0. -1.
         25    2    1    2    0    0  0.85722077293E+02  0.10755788730E+03  0.18523023486E+03  0.26239705345E+03  0.12500000039E+03 0.  0.
          2    1    1    2  501    0 -0.12452745472E+03 -0.93857352757E+02  0.39858695432E+02  0.16095031919E+03  0.00000000000E+00 0. -1.
          1    1    1    2  502    0  0.38805377430E+02 -0.13700534542E+02  0.13213969261E+04  0.13220375934E+04  0.00000000000E+00 0. -1.
         22    1    3    3    0    0  0.17700866192E+02 -0.13173011581E+01  0.11441505162E+03  0.11578367753E+03  0.00000000000E+00 0. -1.
         22    1    3    3    0    0  0.68021211100E+02  0.10887518846E+03  0.70815183245E+02  0.14661337592E+03  0.00000000000E+00 0. -1.
</event>
<event>
 7    1  0.7457412E-006  0.1551399E+03  0.7818608E-02  0.1348100E+00
          2   -1    0    0  502    0  0.00000000000E+00  0.00000000000E+00  0.51824715697E+03  0.51824715697E+03  0.00000000000E+00 0. -1.
          1   -1    0    0  501    0 -0.00000000000E+00 -0.00000000000E+00 -0.93939035382E+03  0.93939035382E+03  0.00000000000E+00 0. -1.
         25    2    1    2    0    0  0.56927117108E+02 -0.17933018313E+03 -0.15682217452E+03  0.27498755010E+03  0.12499978817E+03 0.  0.
          2    1    1    2  501    0 -0.10804745314E+02  0.33253844699E+02 -0.71026722374E+03  0.71112733728E+03  0.00000000000E+00 0. -1.
          1    1    1    2  502    0 -0.46122371794E+02  0.14607633843E+03  0.44594620141E+03  0.47152262341E+03  0.00000000000E+00 0. -1.
         22    1    3    3    0    0  0.26094934516E+00 -0.16304088981E+03 -0.91383867983E+02  0.18690481848E+03  0.00000000000E+00 0. -1.
         22    1    3    3    0    0  0.56666167763E+02 -0.16289293321E+02 -0.65438306537E+02  0.88082731612E+02  0.00000000000E+00 0. -1.
</event>
<event>
 7    1  0.7457412E-006  0.1120682E+03  0.7818608E-02  0.1347068E+00
          2   -1    0    0  502    0  0.00000000000E+00  0.00000000000E+00  0.29861469649E+03  0.29861469649E+03  0.00000000000E+00 0. -1.
          1   -1    0    0  501    0 -0.00000000000E+00 -0.00000000000E+00 -0.58121238863E+03  0.58121238863E+03  0.00000000000E+00 0. -1.
         25    2    1    2    0    0  0.15678342312E+02 -0.14196860101E+03 -0.33675195053E+03  0.38655510243E+03  0.12498830720E+03 0.  0.
          2    1    1    2  501    0  0.28348287715E+02  0.39762248061E+02 -0.20526325876E+03  0.21099210218E+03  0.00000000000E+00 0. -1.
          1    1    1    2  502    0 -0.44026630027E+02  0.10220635295E+03  0.25941751715E+03  0.28227988051E+03  0.00000000000E+00 0. -1.
         22    1    3    3    0    0 -0.29631593423E+02 -0.13857266866E+03 -0.28034700750E+03  0.31412554885E+03  0.00000000000E+00 0.  1.
         22    1    3    3    0    0  0.45309935735E+02 -0.33959323525E+01 -0.56404943031E+02  0.72429553576E+02  0.00000000000E+00 0.  1.
</event>
<event>
 7    1  0.7457412E-006  0.1181024E+03  0.7818608E-02  0.1382545E+00
          2   -1    0    0  502    0  0.00000000000E+00  0.00000000000E+00  0.15291325321E+04  0.15291325321E+04  0.00000000000E+00 0. -1.
          1   -1    0    0  501    0 -0.00000000000E+00 -0.00000000000E+00 -0.10957497823E+04  0.10957497823E+04  0.00000000000E+00 0. -1.
         25    2    1    2    0    0  0.93753813232E+02 -0.18000604853E+02  0.75509695536E+03  0.77130692872E+03  0.12501666701E+03 0.  0.
          2    1    1    2  501    0 -0.11803287234E+03 -0.64608011784E+01 -0.10840424317E+04  0.10904684748E+04  0.00000000000E+00 0. -1.
          1    1    1    2  502    0  0.24279059109E+02  0.24461406031E+02  0.76232822614E+03  0.76310691090E+03  0.00000000000E+00 0. -1.
         22    1    3    3    0    0  0.24803218899E+01  0.41663213499E+02  0.12339369153E+03  0.13026119324E+03  0.00000000000E+00 0.  1.
         22    1    3    3    0    0  0.91273491342E+02 -0.59663818352E+02  0.63170326383E+03  0.64104573548E+03  0.00000000000E+00 0.  1.
</event>
<event>
 7    1  0.7457412E-006  0.6371948E+02  0.7818608E-02  0.1418787E+00
          2   -1    0    0  502    0  0.00000000000E+00  0.00000000000E+00  0.95899798484E+03  0.95899798484E+03  0.00000000000E+00 0. -1.
          1   -1    0    0  501    0 -0.00000000000E+00 -0.00000000000E+00 -0.18364428440E+03  0.18364428440E+03  0.00000000000E+00 0. -1.
         25    2    1    2    0    0 -0.38029239466E+02 -0.31184135629E+02 -0.42929120446E+02  0.14101986861E+03  0.12500008236E+03 0.  0.
          2    1    1    2  501    0 -0.25357913096E+02  0.40702763825E+02 -0.84182531287E+02  0.96883627686E+02  0.00000000000E+00 0. -1.
          1    1    1    2  502    0  0.63387152562E+02 -0.95186281961E+01  0.90246535218E+03  0.90473877294E+03  0.00000000000E+00 0. -1.
         22    1    3    3    0    0 -0.24081096617E+02  0.41362612111E+02  0.11541796382E+02  0.49233910657E+02  0.00000000000E+00 0.  1.
         22    1    3    3    0    0 -0.13948142849E+02 -0.72546747739E+02 -0.54470916828E+02  0.91785957949E+02  0.00000000000E+00 0.  1.
</event>
<event>
 7    1  0.7457412E-006  0.8833980E+02  0.7818608E-02  0.1353609E+00
          2   -1    0    0  502    0  0.00000000000E+00  0.00000000000E+00  0.32544452831E+02  0.32544452831E+02  0.00000000000E+00 0. -1.
          1   -1    0    0  501    0 -0.00000000000E+00 -0.00000000000E+00 -0.20325984664E+04  0.20325984664E+04  0.00000000000E+00 0. -1.
         25    2    1    2    0    0 -0.11212746478E+03 -0.85573217230E+02 -0.98405983126E+03  0.10019450733E+04  0.12499933845E+03 0.  0.
          2    1    1    2  501    0  0.38954112642E+02  0.43763356483E+02 -0.96051485285E+03  0.96230007628E+03  0.00000000000E+00 0. -1.
          1    1    1    2  502    0  0.73173352137E+02  0.41809860747E+02 -0.55479329479E+02  0.10089776964E+03  0.00000000000E+00 0. -1.
         22    1    3    3    0    0 -0.23915047037E+02 -0.95123054693E+02 -0.45003840322E+03  0.46060274574E+03  0.00000000000E+00 0.  1.
         22    1    3    3    0    0 -0.88212417743E+02  0.95498374633E+01 -0.53402142804E+03  0.54134232760E+03  0.00000000000E+00 0.  1.
</event>
<event>
 7    1  0.7457412E-006  0.5034286E+02  0.7818608E-02  0.1540062E+00
          2   -1    0    0  502    0  0.00000000000E+00  0.00000000000E+00  0.88678760277E+03  0.88678760277E+03  0.00000000000E+00 0. -1.
          1   -1    0    0  501    0 -0.00000000000E+00 -0.00000000000E+00 -0.21499624589E+02  0.21499624589E+02  0.00000000000E+00 0. -1.
         25    2    1    2    0    0  0.23933931115E+02  0.45253174312E+02  0.27764097643E+03  0.30875497039E+03  0.12499774839E+03 0.  0.
          2    1    1    2  501    0  0.91563868857E+00 -0.51870527500E+02  0.11470137677E+03  0.12588802901E+03  0.00000000000E+00 0. -1.
          1    1    1    2  502    0 -0.24849569803E+02  0.66173531877E+01  0.47294562499E+03  0.47364422796E+03  0.00000000000E+00 0. -1.
         22    1    3    3    0    0  0.68577489998E+02  0.38859369470E+02  0.11113522478E+03  0.13624962722E+03  0.00000000000E+00 0.  1.
         22    1    3    3    0    0 -0.44643558883E+02  0.63938048419E+01  0.16650575165E+03  0.17250534317E+03  0.00000000000E+00 0.  1.
</event>
<event>
 7    1  0.7457412E-006  0.1729872E+03  0.7818608E-02  0.1259456E+00
          2   -1    0    0  502    0  0.00000000000E+00  0.00000000000E+00  0.65795865541E+03  0.65795865541E+03  0.00000000000E+00 0. -1.
          1   -1    0    0  501    0 -0.00000000000E+00 -0.00000000000E+00 -0.14476891935E+04  0.14476891935E+04  0.00000000000E+00 0. -1.
         25    2    1    2    0    0  0.11614549583E+03 -0.42454829189E+00 -0.36641138787E+03  0.40419263070E+03  0.12499768444E+03 0.  0.
          2    1    1    2  501    0  0.52246503669E+02  0.47657282509E+02 -0.10492092252E+04  0.10515897070E+04  0.00000000000E+00 0. -1.
          1    1    1    2  502    0 -0.16839199950E+03 -0.47232734217E+02  0.62589007496E+03  0.64986551117E+03  0.00000000000E+00 0. -1.
         22    1    3    3    0    0  0.14997313854E+00 -0.44234173524E+02 -0.68902041003E+02  0.81879031831E+02  0.00000000000E+00 0. -1.
         22    1    3    3    0    0  0.11599552269E+03  0.43809625232E+02 -0.29750934686E+03  0.32231359887E+03  0.00000000000E+00 0. -1.
</event>
<event>
 7    1  0.7457412E-006  0.2747065E+03  0.7818608E-02  0.1264661E+00
          2   -1    0    0  502    0  0.00000000000E+00  0.00000000000E+00  0.15378215527E+04  0.15378215527E+04  0.00000000000E+00 0. -1.
          1   -1    0    0  501    0 -0.00000000000E+00 -0.00000000000E+00 -0.42049869465E+03  0.42049869465E+03  0.00000000000E+00 0. -1.
         25    2    1    2    0    0  0.14599187079E+03 -0.24964491993E+03  0.65196682287E+03  0.72410222067E+03  0.12500830158E+03 0.  0.
          2    1    1    2  501    0 -0.10384159777E+03  0.25341483381E+03 -0.33502620147E+03  0.43271781925E+03  0.00000000000E+00 0. -1.
          1    1    1    2  502    0 -0.42150273013E+02 -0.37699138760E+01  0.80038223670E+03  0.80150020748E+03  0.00000000000E+00 0. -1.
         22    1    3    3    0    0  0.81845317587E+02 -0.32670744720E+02  0.16203479300E+03  0.18444865875E+03  0.00000000000E+00 0. -1.
         22    1    3    3    0    0  0.64146553201E+02 -0.21697417521E+03  0.48993202988E+03  0.53965356192E+03  0.00000000000E+00 0. -1.
</event>
<event>
 7    1  0.7457412E-006  0.7082130E+02  0.7818608E-02  0.1501566E+00
          2   -1    0    0  502    0  0.00000000000E+00  0.00000000000E+00  0.57457795625E+03  0.57457795625E+03  0.00000000000E+00 0. -1.
          1   -1    0    0  501    0 -0.00000000000E+00 -0.00000000000E+00 -0.11860478903E+04  0.11860478903E+04  0.00000000000E+00 0. -1.
         25    2    1    2    0    0 -0.67936316855E+02 -0.58324537755E+02  0.64426892725E+01  0.15389520503E+03  0.12500052414E+03 0.  0.
          2    1    1    2  501    0  0.60841237638E+02  0.35773898471E+02 -0.11109185084E+04  0.11131582818E+04  0.00000000000E+00 0. -1.
          1    1    1    2  502    0  0.70950792164E+01  0.22550639284E+02  0.49300588512E+03  0.49357235968E+03  0.00000000000E+00 0. -1.
         22    1    3    3    0    0 -0.95976591258E+02 -0.29646428659E+02 -0.24313700231E+02  0.10335169481E+03  0.00000000000E+00 0. -1.
         22    1    3    3    0    0  0.28040274403E+02 -0.28678109096E+02  0.30756389504E+02  0.50543510219E+02  0.00000000000E+00 0. -1.
</event>
<event>
 7    1  0.7457412E-006  0.8542913E+02  0.7818608E-02  0.1324839E+00
          2   -1    0    0  502    0  0.00000000000E+00  0.00000000000E+00  0.30386475128E+03  0.30386475128E+03  0.00000000000E+00 0. -1.
          1   -1    0    0  501    0 -0.00000000000E+00 -0.00000000000E+00 -0.47639680453E+03  0.47639680453E+03  0.00000000000E+00 0. -1.
         25    2    1    2    0    0 -0.14103078675E+03 -0.43033947893E+02 -0.44249773737E+02  0.19830745393E+03  0.12500480121E+03 0.  0.
          2    1    1    2  501    0  0.77261295572E+02 -0.87745364721E+01 -0.34318326316E+03  0.35188215697E+03  0.00000000000E+00 0. -1.
          1    1    1    2  502    0  0.63769491179E+02  0.51808484365E+02  0.21490098364E+03  0.23007194490E+03  0.00000000000E+00 0. -1.
         22    1    3    3    0    0 -0.84308387619E+02 -0.82501228612E+02 -0.33458056288E+01  0.11800657338E+03  0.00000000000E+00 0.  1.
         22    1    3    3    0    0 -0.56722399132E+02  0.39467280719E+02 -0.40903968108E+02  0.80300880554E+02  0.00000000000E+00 0.  1.
</event>
<event>
 7    1  0.7457412E-006  0.6556724E+02  0.7818608E-02  0.1425325E+00
          2   -1    0    0  502    0  0.00000000000E+00  0.00000000000E+00  0.97679309143E+03  0.97679309143E+03  0.00000000000E+00 0. -1.
          1   -1    0    0  501    0 -0.00000000000E+00 -0.00000000000E+00 -0.73819369357E+03  0.73819369357E+03  0.00000000000E+00 0. -1.
         25    2    1    2    0    0 -0.76477530265E+01  0.41200235510E+02  0.30709563071E+03  0.33419809514E+03  0.12499877145E+03 0.  0.
          2    1    1    2  501    0 -0.43918094872E+02  0.59942406175E+01 -0.72209919290E+03  0.72345834321E+03  0.00000000000E+00 0. -1.
          1    1    1    2  502    0  0.51565847899E+02 -0.47194476127E+02  0.65360296004E+03  0.65733034665E+03  0.00000000000E+00 0. -1.
         22    1    3    3    0    0 -0.55735023807E+02  0.56131759552E+02  0.15557291590E+03  0.17452821969E+03  0.00000000000E+00 0.  1.
         22    1    3    3    0    0  0.48087270781E+02 -0.14931524042E+02  0.15152271481E+03  0.15966987545E+03  0.00000000000E+00 0.  1.
</event>
<event>
 7    1  0.7457412E-006  0.1352851E+03  0.7818608E-02  0.1248955E+00
          2   -1    0    0  502    0  0.00000000000E+00  0.00000000000E+00  0.45447848165E+03  0.45447848165E+03  0.00000000000E+00 0. -1.
          1   -1    0    0  501    0 -0.00000000000E+00 -0.00000000000E+00 -0.86705225048E+03  0.86705225048E+03  0.00000000000E+00 0. -1.
         25    2    1    2    0    0  0.50596655684E+02  0.23787509365E+02 -0.99135916702E+02  0.16904901406E+03  0.12499508793E+03 0.  0.
          2    1    1    2  501    0 -0.12164163810E+03 -0.94663492673E+02 -0.71866757720E+03  0.73501085127E+03  0.00000000000E+00 0. -1.
          1    1    1    2  502    0  0.71044982420E+02  0.70875983308E+02  0.40522972508E+03  0.41747086680E+03  0.00000000000E+00 0. -1.
         22    1    3    3    0    0 -0.17061858175E+02 -0.23081609150E+02 -0.79372259935E+02  0.84402744816E+02  0.00000000000E+00 0. -1.
         22    1    3    3    0    0  0.67658513859E+02  0.46869118515E+02 -0.19763656767E+02  0.84646269243E+02  0.00000000000E+00 0. -1.
</event>
<event>
 7    1  0.7457412E-006  0.2341139E+03  0.7818608E-02  0.1289158E+00
          2   -1    0    0  502    0  0.00000000000E+00  0.00000000000E+00  0.26235786175E+04  0.26235786175E+04  0.00000000000E+00 0. -1.
          1   -1    0    0  501    0 -0.00000000000E+00 -0.00000000000E+00 -0.31100395869E+03  0.31100395869E+03  0.00000000000E+00 0. -1.
         25    2    1    2    0    0 -0.88759613298E+02 -0.18906171353E+03  0.53394950796E+03  0.58681264841E+03  0.12499762717E+03 0.  0.
          2    1    1    2  501    0  0.72825350149E+02  0.22497003324E+03 -0.23522574030E+03  0.33353589969E+03  0.00000000000E+00 0. -1.
          1    1    1    2  502    0  0.15934263150E+02 -0.35908319711E+02  0.20138508911E+04  0.20142340280E+04  0.00000000000E+00 0. -1.
         22    1    3    3    0    0 -0.27708726062E+02 -0.18274377513E+02  0.13796371604E+02  0.35945322962E+02  0.00000000000E+00 0.  1.
         22    1    3    3    0    0 -0.61050887237E+02 -0.17078733602E+03  0.52015313636E+03  0.55086732544E+03  0.00000000000E+00 0.  1.
</event>
<event>
 7    1  0.7457412E-006  0.2926717E+03  0.7818608E-02  0.1216067E+00
          2   -1    0    0  502    0  0.00000000000E+00  0.00000000000E+00  0.87701973796E+03  0.87701973796E+03  0.00000000000E+00 0. -1.
          1   -1    0    0  501    0 -0.00000000000E+00 -0.00000000000E+00 -0.61381689589E+03  0.61381689589E+03  0.00000000000E+00 0. -1.
         25    2    1    2    0    0  0.22186947992E+03 -0.25492517523E+03  0.55907057561E+02  0.36464063073E+03  0.12499711760E+03 0.  0.
          2    1    1    2  501    0 -0.11397669888E+02  0.64048942936E+02 -0.42660087343E+03  0.43153270928E+03  0.00000000000E+00 0. -1.
          1    1    1    2  502    0 -0.21047181004E+03  0.19087623230E+03  0.63389665793E+03  0.69466329384E+03  0.00000000000E+00 0. -1.
         22    1    3    3    0    0  0.13427588856E+02 -0.92655056666E+02  0.33883560514E+02  0.99565834207E+02  0.00000000000E+00 0. -1.
         22    1    3    3    0    0  0.20844189107E+03 -0.16227011857E+03  0.22023497047E+02  0.26507479653E+03  0.00000000000E+00 0. -1.
</event>
<event>
 7    1  0.7457412E-006  0.5617522E+02  0.7818608E-02  0.1510951E+00
          2   -1    0    0  502    0  0.00000000000E+00  0.00000000000E+00  0.92878954513E+02  0.92878954513E+02  0.00000000000E+00 0. -1.
          1   -1    0    0  501    0 -0.00000000000E+00 -0.00000000000E+00 -0.13837574312E+04  0.13837574312E+04  0.00000000000E+00 0. -1.
         25    2    1    2    0    0  0.79866399579E+02  0.72035725884E+01 -0.23228499089E+03  0.27570241044E+03  0.12499987557E+03 0.  0.
          2    1    1    2  501    0 -0.55154702372E+02  0.58723938865E+01 -0.11263089811E+04  0.11276739099E+04  0.00000000000E+00 0. -1.
          1    1    1    2  502    0 -0.24711697208E+02 -0.13075966475E+02  0.67715495277E+02  0.73260065375E+02  0.00000000000E+00 0. -1.
         22    1    3    3    0    0  0.56478181352E+01  0.23084240208E+02 -0.18447776398E+03  0.18600221880E+03  0.00000000000E+00 0.  1.
         22    1    3    3    0    0  0.74218581444E+02 -0.15880667620E+02 -0.47807226902E+02  0.89700191637E+02  0.00000000000E+00 0.  1.
</event>
<event>
 7    1  0.7457412E-006  0.4238692E+02  0.7818608E-02  0.1523214E+00
          2   -1    0    0  502    0  0.00000000000E+00  0.00000000000E+00  0.35929869605E+03  0.35929869605E+03  0.00000000000E+00 0. -1.
          1   -1    0    0  501    0 -0.00000000000E+00 -0.00000000000E+00 -0.49147434363E+03  0.49147434363E+03  0.00000000000E+00 0. -1.
         25    2    1    2    0    0 -0.69400859231E+02  0.29811994939E+02 -0.82760872659E+02  0.16786853675E+03  0.12500099713E+03 0.  0.
          2    1    1    2  501    0  0.37473381784E+02 -0.17765557086E+02 -0.36405988251E+03  0.36641433844E+03  0.00000000000E+00 0. -1.
          1    1    1    2  502    0  0.31927477448E+02 -0.12046437853E+02  0.31464510759E+03  0.31649016448E+03  0.00000000000E+00 0. -1.
         22    1    3    3    0    0  0.32140389408E+02  0.92983167871E+01  0.27096922823E+01  0.33567927530E+02  0.00000000000E+00 0. -1.
         22    1    3    3    0    0 -0.10154124864E+03  0.20513678152E+02 -0.85470564941E+02  0.13430060922E+03  0.00000000000E+00 0. -1.
</event>
<event>
 7    1  0.7457412E-006  0.2280674E+03  0.7818608E-02  0.1160476E+00
          2   -1    0    0  502    0  0.00000000000E+00  0.00000000000E+00  0.21748696752E+04  0.21748696752E+04  0.00000000000E+00 0. -1.
          1   -1    0    0  501    0 -0.00000000000E+00 -0.00000000000E+00 -0.19447135191E+04  0.19447135191E+04  0.00000000000E+00 0. -1.
         25    2    1    2    0    0 -0.45063940031E+02 -0.95109854804E+02 -0.86002630609E+02  0.18465407156E+03  0.12499612193E+03 0.  0.
          2    1    1    2  501    0  0.69066703994E+02 -0.13833105985E+03 -0.17995828934E+04  0.18062126902E+04  0.00000000000E+00 0. -1.
          1    1    1    2  502    0 -0.24002763963E+02  0.23344091465E+03  0.21157416801E+04  0.21287164325E+04  0.00000000000E+00 0. -1.
         22    1    3    3    0    0 -0.43619443589E+02 -0.96938919535E+02 -0.79832827167E+01  0.10659991924E+03  0.00000000000E+00 0. -1.
         22    1    3    3    0    0 -0.14444964422E+01  0.18290647311E+01 -0.78019347892E+02  0.78054152313E+02  0.00000000000E+00 0. -1.
</event>
<event>
 7    1  0.7457412E-006  0.1319416E+03  0.7818608E-02  0.1379478E+00
          2   -1    0    0  502    0  0.00000000000E+00  0.00000000000E+00  0.21609305588E+02  0.21609305588E+02  0.00000000000E+00 0. -1.
          1   -1    0    0  501    0 -0.00000000000E+00 -0.00000000000E+00 -0.29742428432E+04  0.29742428432E+04  0.00000000000E+00 0. -1.
         25    2    1    2    0    0  0.12157255324E+03  0.16520316924E+02 -0.83787392100E+03  0.85598372917E+03  0.12499052174E+03 0.  0.
          2    1    1    2  501    0 -0.12599284103E+03 -0.47839900426E+02 -0.21010953099E+04  0.21054131075E+04  0.00000000000E+00 0. -1.
          1    1    1    2  502    0  0.44202877946E+01  0.31319583502E+02 -0.13664306737E+02  0.34455312123E+02  0.00000000000E+00 0. -1.
         22    1    3    3    0    0  0.50833616801E+02  0.68187053694E+02 -0.34094320483E+03  0.35139123468E+03  0.00000000000E+00 0. -1.
         22    1    3    3    0    0  0.70738936436E+02 -0.51666736770E+02 -0.49693071617E+03  0.50459249449E+03  0.00000000000E+00 0. -1.
</event>
<event>
 7    1  0.7457412E-006  0.5716908E+02  0.7818608E-02  0.1522956E+00
          2   -1    0    0  502    0  0.00000000000E+00  0.00000000000E+00  0.24860163679E+03  0.24860163679E+03  0.00000000000E+00 0. -1.
          1   -1    0    0  501    0 -0.00000000000E+00 -0.00000000000E+00 -0.11903378033E+03  0.11903378033E+03  0.00000000000E+00 0. -1.
         25    2    1    2    0    0 -0.47807947904E+02 -0.33631323138E+02  0.97134408484E+02  0.16875093706E+03  0.12500047867E+03 0.  0.
          2    1    1    2  501    0  0.19134017616E+02 -0.16620220384E+02 -0.73738081922E+02  0.77972091682E+02  0.00000000000E+00 0. -1.
          1    1    1    2  502    0  0.28673930288E+02  0.50251543521E+02  0.10617152990E+03  0.12091238838E+03  0.00000000000E+00 0. -1.
         22    1    3    3    0    0 -0.36739018913E+02 -0.81179406351E+02  0.65247366369E+02  0.11044034745E+03  0.00000000000E+00 0. -1.
         22    1    3    3    0    0 -0.11068928991E+02  0.47548083213E+02  0.31887042116E+02  0.58310589614E+02  0.00000000000E+00 0. -1.
</event>
<event>
 7    1  0.7457412E-006  0.2410308E+03  0.7818608E-02  0.1361231E+00
          2   -1    0    0  502    0  0.00000000000E+00  0.00000000000E+00  0.14013433894E+04  0.14013433894E+04  0.00000000000E+00 0. -1.
          1   -1    0    0  501    0 -0.00000000000E+00 -0.00000000000E+00 -0.67086924807E+02  0.67086924807E+02  0.00000000000E+00 0. -1.
         25    2    1    2    0    0 -0.14236247543E+03  0.19039351290E+03  0.69157836534E+03  0.74190447823E+03  0.12499942100E+03 0.  0.
          2    1    1    2  501    0  0.12925526793E+03 -0.20567950666E+03  0.31287330488E+03  0.39610691569E+03  0.00000000000E+00 0. -1.
          1    1    1    2  502    0  0.13107207495E+02  0.15285993767E+02  0.32980479436E+03  0.33041892028E+03  0.00000000000E+00 0. -1.
         22    1    3    3    0    0 -0.13166388620E+03  0.18385220630E+03  0.69329952031E+03  0.72924703465E+03  0.00000000000E+00 0.  1.
         22    1    3    3    0    0 -0.10698589230E+02  0.65413065936E+01 -0.17211549699E+01  0.12657443577E+02  0.00000000000E+00 0.  1.
</event>
<event>
 7    1  0.7457412E-006  0.5709856E+02  0.7818608E-02  0.1468273E+00
          2   -1    0    0  502    0  0.00000000000E+00  0.00000000000E+00  0.15729888770E+03  0.15729888770E+03  0.00000000000E+00 0. -1.
          1   -1    0    0  501    0 -0.00000000000E+00 -0.00000000000E+00 -0.71811410117E+03  0.71811410117E+03  0.00000000000E+00 0. -1.
         25    2    1    2    0    0  0.33978079278E+02 -0.14231546049E+02 -0.35392556348E+02  0.13504131931E+03  0.12500591227E+03 0.  0.
          2    1    1    2  501    0 -0.55649453125E+02 -0.15804198373E+02 -0.62833750900E+03  0.63099497584E+03  0.00000000000E+00 0. -1.
          1    1    1    2  502    0  0.21671373848E+02  0.30035744422E+02  0.10291485189E+03  0.10937669371E+03  0.00000000000E+00 0. -1.
         22    1    3    3    0    0  0.33049966894E+02 -0.67899575145E+02 -0.29378856330E+02  0.81029437959E+02  0.00000000000E+00 0.  1.
         22    1    3    3    0    0  0.92811238369E+00  0.53668029097E+02 -0.60137000179E+01  0.54011881356E+02  0.00000000000E+00 0.  1.
</event>
<event>
 7    1  0.7457412E-006  0.1161043E+03  0.7818608E-02  0.1353528E+00
          2   -1    0    0  502    0  0.00000000000E+00  0.00000000000E+00  0.28750013833E+03  0.28750013833E+03  0.00000000000E+00 0. -1.
          1   -1    0    0  501    0 -0.00000000000E+00 -0.00000000000E+00 -0.43799854597E+03  0.43799854597E+03  0.00000000000E+00 0. -1.
         25    2    1    2    0    0  0.50152885100E+02 -0.93132316622E+02 -0.29377064437E+03  0.33632492911E+03  0.12499730461E+03 0.  0.
          2    1    1    2  501    0 -0.38161041983E+02 -0.23101902702E+02 -0.10538035824E+03  0.11443331218E+03  0.00000000000E+00 0. -1.
          1    1    1    2  502    0 -0.11991843117E+02  0.11623421932E+03  0.24865259497E+03  0.27474044301E+03  0.00000000000E+00 0. -1.
         22    1    3    3    0    0  0.10943165371E+02 -0.10346817982E+03 -0.26992630848E+03  0.28928468524E+03  0.00000000000E+00 0. -1.
         22    1    3    3    0    0  0.39209719729E+02  0.10335863198E+02 -0.23844335897E+02  0.47040243873E+02  0.00000000000E+00 0. -1.
</event>
<event>
 7    1  0.7457412E-006  0.7078756E+02  0.7818608E-02  0.1435312E+00
          2   -1    0    0  502    0  0.00000000000E+00  0.00000000000E+00  0.14504260991E+04  0.14504260991E+04  0.00000000000E+00 0. -1.
          1   -1    0    0  501    0 -0.00000000000E+00 -0.00000000000E+00 -0.78179923428E+03  0.78179923428E+03  0.00000000000E+00 0. -1.
         25    2    1    2    0    0 -0.63453494683E+02  0.32512245610E+02  0.57496780622E+03  0.59270208316E+03  0.12499755636E+03 0.  0.
          2    1    1    2  501    0  0.70647116426E+02  0.48660927158E+01 -0.77089047630E+03  0.77413617689E+03  0.00000000000E+00 0. -1.
          1    1    1    2  502    0 -0.71936217433E+01 -0.37378338326E+02  0.86454953491E+03  0.86538707333E+03  0.00000000000E+00 0. -1.
         22    1    3    3    0    0  0.60799520136E+01 -0.39108887713E+02  0.23768025111E+03  0.24095305079E+03  0.00000000000E+00 0.  1.
         22    1    3    3    0    0 -0.69533446696E+02  0.71621133323E+02  0.33728755510E+03  0.35174903237E+03  0.00000000000E+00 0.  1.
</event>
<event>
 7    1  0.7457412E-006  0.7052014E+02  0.7818608E-02  0.1408635E+00
          2   -1    0    0  502    0  0.00000000000E+00  0.00000000000E+00  0.19485138051E+04  0.19485138051E+04  0.00000000000E+00 0. -1.
          1   -1    0    0  501    0 -0.00000000000E+00 -0.00000000000E+00 -0.16313380202E+04  0.16313380202E+04  0.00000000000E+00 0. -1.
         25    2    1    2    0    0 -0.70685668101E+02  0.61479269868E+02  0.22342761151E+03  0.27261831210E+03  0.12499872883E+03 0.  0.
          2    1    1    2  501    0  0.68949776077E+02 -0.14628528344E+02 -0.16056462219E+04  0.16071925384E+04  0.00000000000E+00 0. -1.
          1    1    1    2  502    0  0.17358920246E+01 -0.46850741524E+02  0.16993943953E+04  0.17000409748E+04  0.00000000000E+00 0. -1.
         22    1    3    3    0    0 -0.61840350549E+02  0.26840618469E+01  0.19888598872E+03  0.20829563042E+03  0.00000000000E+00 0. -1.
         22    1    3    3    0    0 -0.88453175529E+01  0.58795208021E+02  0.24541622788E+02  0.64322681675E+02  0.00000000000E+00 0. -1.
</event>
<event>
 7    1  0.7457412E-006  0.1055981E+03  0.7818608E-02  0.1294182E+00
          2   -1    0    0  502    0  0.00000000000E+00  0.00000000000E+00  0.80500569552E+03  0.80500569552E+03  0.00000000000E+00 0. -1.
          1   -1    0    0  501    0 -0.00000000000E+00 -0.00000000000E+00 -0.83322855838E+03  0.83322855838E+03  0.00000000000E+00 0. -1.
         25    2    1    2    0    0 -0.12113595607E+03 -0.10994268521E+03 -0.45985462638E+03  0.50383775677E+03  0.12499957546E+03 0.  0.
          2    1    1    2  501    0  0.84383434725E+02  0.35408454469E+02 -0.34316433575E+03  0.35515642192E+03  0.00000000000E+00 0. -1.
          1    1    1    2  502    0  0.36752521344E+02  0.74534230736E+02  0.77479609926E+03  0.77924007520E+03  0.00000000000E+00 0. -1.
         22    1    3    3    0    0 -0.13727691836E+03 -0.73791726722E+02 -0.41854008319E+03  0.44661613549E+03  0.00000000000E+00 0.  1.
         22    1    3    3    0    0  0.16140962293E+02 -0.36150958483E+02 -0.41314543191E+02  0.57221621282E+02  0.00000000000E+00 0.  1.
</event>
<event>
 7    1  0.7457412E-006  0.4299044E+02  0.7818608E-02  0.1516527E+00
          2   -1    0    0  502    0  0.00000000000E+00  0.00000000000E+00  0.48878300836E+02  0.48878300836E+02  0.00000000000E+00 0. -1.
          1   -1    0    0  501    0 -0.00000000000E+00 -0.00000000000E+00 -0.26157533002E+03  0.26157533002E+03  0.00000000000E+00 0. -1.
         25    2    1    2    0    0 -0.16148225674E+01  0.24362412744E+02 -0.15020053632E+03  0.19693332281E+03  0.12500559074E+03 0.  0.
          2    1    1    2  501    0  0.32279540815E+02 -0.41613636774E+02 -0.57515540792E+02  0.77985261129E+02  0.00000000000E+00 0. -1.
          1    1    1    2  502    0 -0.30664718248E+02  0.17251224030E+02 -0.49809520744E+01  0.35535046916E+02  0.00000000000E+00 0. -1.
         22    1    3    3    0    0  0.46685869716E+02  0.43826309053E+02 -0.12182650373E+03  0.13762998513E+03  0.00000000000E+00 0.  1.
         22    1    3    3    0    0 -0.48300692284E+02 -0.19463896308E+02 -0.28374032590E+02  0.59303337680E+02  0.00000000000E+00 0.  1.
</event>
<event>
 7    1  0.7457412E-006  0.1456227E+03  0.7818608E-02  0.1238930E+00
          2   -1    0    0  502    0  0.00000000000E+00  0.00000000000E+00  0.83080177001E+03  0.83080177001E+03  0.00000000000E+00 0. -1.
          1   -1    0    0  501    0 -0.00000000000E+00 -0.00000000000E+00 -0.12042301156E+04  0.12042301156E+04  0.00000000000E+00 0. -1.
         25    2    1    2    0    0 -0.65840367804E+02 -0.76947976687E+02 -0.88919761881E+02  0.18381341989E+03  0.12499881652E+03 0.  0.
          2    1    1    2  501    0  0.73662742944E+02 -0.72209299795E+02 -0.10582131164E+04  0.10632287535E+04  0.00000000000E+00 0. -1.
          1    1    1    2  502    0 -0.78223751393E+01  0.14915727648E+03  0.77370453265E+03  0.78798971219E+03  0.00000000000E+00 0. -1.
         22    1    3    3    0    0 -0.45440264025E+02  0.14584892844E+02 -0.75159241589E+02  0.89030603110E+02  0.00000000000E+00 0.  1.
         22    1    3    3    0    0 -0.20400103779E+02 -0.91532869531E+02 -0.13760520292E+02  0.94782816784E+02  0.00000000000E+00 0.  1.
</event>
<event>
 7    1  0.7457412E-006  0.2839842E+03  0.7818608E-02  0.1299649E+00
          2   -1    0    0  502    0  0.00000000000E+00  0.00000000000E+00  0.10615992057E+04  0.10615992057E+04  0.00000000000E+00 0. -1.
          1   -1    0    0  501    0 -0.00000000000E+00 -0.00000000000E+00 -0.11714784308E+04  0.11714784308E+04  0.00000000000E+00 0. -1.
         25    2    1    2    0    0 -0.17169614637E+03  0.18976365291E+03  0.38443788487E+03  0.47844056703E+03  0.12499231263E+03 0.  0.
          2    1    1    2  501    0  0.18920203224E+03 -0.21335339656E+03 -0.11060400941E+04  0.11422091624E+04  0.00000000000E+00 0. -1.
          1    1    1    2  502    0 -0.17505885868E+02  0.23589743645E+02  0.61172298416E+03  0.61242790710E+03  0.00000000000E+00 0. -1.
         22    1    3    3    0    0 -0.15205835452E+03  0.11918135755E+03  0.19134894289E+03  0.27191976227E+03  0.00000000000E+00 0.  1.
         22    1    3    3    0    0 -0.19637791853E+02  0.70582295362E+02  0.19308894197E+03  0.20652080476E+03  0.00000000000E+00 0.  1.
</event>
<event>
 7    1  0.7457412E-006  0.2253342E+03  0.7818608E-02  0.1257389E+00
          2   -1    0    0  502    0  0.00000000000E+00  0.00000000000E+00  0.36668521449E+03  0.36668521449E+03  0.00000000000E+00 0. -1.
          1   -1    0    0  501    0 -0.00000000000E+00 -0.00000000000E+00 -0.21522987579E+04  0.21522987579E+04  0.00000000000E+00 0. -1.
         25    2    1    2    0    0 -0.26140564637E+03 -0.33918825587E+02 -0.55863621549E+03  0.63022446187E+03  0.12500020958E+03 0.  0.
          2    1    1    2  501    0  0.21757125852E+03  0.31623298586E-01 -0.15478864247E+04  0.15631025677E+04  0.00000000000E+00 0. -1.
          1    1    1    2  502    0  0.43834387853E+02  0.33887202288E+02  0.32090909674E+03  0.32565694282E+03  0.00000000000E+00 0. -1.
         22    1    3    3    0    0 -0.10653500014E+03 -0.75599405822E+02 -0.27290289937E+03  0.30255738116E+03  0.00000000000E+00 0. -1.
         22    1    3    3    0    0 -0.15487064623E+03  0.41680580235E+02 -0.28573331613E+03  0.32766708071E+03  0.00000000000E+00 0. -1.
</event>
<event>
 7    1  0.7457412E-006  0.7596499E+02  0.7818608E-02  0.1402532E+00
          2   -1    0    0  502    0  0.00000000000E+00  0.00000000000E+00  0.14387758944E+04  0.14387758944E+04  0.00000000000E+00 0. -1.
          1   -1    0    0  501    0 -0.00000000000E+00 -0.00000000000E+00 -0.78493709082E+03  0.78493709082E+03  0.00000000000E+00 0. -1.
         25    2    1    2    0    0  0.89588289589E+02  0.77321803836E+02  0.30919775848E+03  0.35388203794E+03  0.12499807978E+03 0.  0.
          2    1    1    2  501    0 -0.65018902120E+02 -0.38836306965E+02 -0.76024193887E+03  0.76400492275E+03  0.00000000000E+00 0. -1.
          1    1    1    2  502    0 -0.24569387469E+02 -0.38485496872E+02  0.11048829839E+04  0.11058260245E+04  0.00000000000E+00 0. -1.
         22    1    3    3    0    0  0.20088444434E+02 -0.10401933013E+02  0.18626942431E+03  0.18763806715E+03  0.00000000000E+00 0.  1.
         22    1    3    3    0    0  0.69499845155E+02  0.87723736850E+02  0.12292833417E+03  0.16624397079E+03  0.00000000000E+00 0.  1.
</event>
<event>
 7    1  0.7457412E-006  0.9004524E+02  0.7818608E-02  0.1354975E+00
          2   -1    0    0  502    0  0.00000000000E+00  0.00000000000E+00  0.11109632651E+04  0.11109632651E+04  0.00000000000E+00 0. -1.
          1   -1    0    0  501    0 -0.00000000000E+00 -0.00000000000E+00 -0.38074695452E+03  0.38074695452E+03  0.00000000000E+00 0. -1.
         25    2    1    2    0    0 -0.64449383071E+02  0.95990113557E+02 -0.83015938368E+02  0.18940506257E+03  0.12495922065E+03 0.  0.
          2    1    1    2  501    0  0.56448989662E+02 -0.64639031310E+01 -0.23929454448E+03  0.24594745271E+03  0.00000000000E+00 0. -1.
          1    1    1    2  502    0  0.80003934088E+01 -0.89526210426E+02  0.10525267934E+04  0.10563577043E+04  0.00000000000E+00 0. -1.
         22    1    3    3    0    0 -0.38836909560E+02  0.70669992036E+02 -0.11552673942E+03  0.14088641112E+03  0.00000000000E+00 0.  1.
         22    1    3    3    0    0 -0.25612473511E+02  0.25320121521E+02  0.32510801051E+02  0.48518651446E+02  0.00000000000E+00 0.  1.
</event>
<event>
 7    1  0.7457412E-006  0.1255832E+03  0.7818608E-02  0.1343795E+00
          2   -1    0    0  502    0  0.00000000000E+00  0.00000000000E+00  0.33217664911E+03  0.33217664911E+03  0.00000000000E+00 0. -1.
          1   -1    0    0  501    0 -0.00000000000E+00 -0.00000000000E+00 -0.35994285820E+03  0.35994285820E+03  0.00000000000E+00 0. -1.
         25    2    1    2    0    0  0.62773416619E+02 -0.57500522945E+02 -0.15672678407E+03  0.21779865896E+03  0.12500463603E+03 0.  0.
          2    1    1    2  501    0  0.40569072723E+02 -0.19053276978E+02 -0.15566435641E+03  0.16198848379E+03  0.00000000000E+00 0. -1.
          1    1    1    2  502    0 -0.10334248934E+03  0.76553799923E+02  0.28462493139E+03  0.31233236456E+03  0.00000000000E+00 0. -1.
         22    1    3    3    0    0  0.37410145367E+02 -0.65249681141E+02 -0.19046579379E+02  0.77587447770E+02  0.00000000000E+00 0. -1.
         22    1    3    3    0    0  0.25363271252E+02  0.77491581964E+01 -0.13768020469E+03  0.14021121119E+03  0.00000000000E+00 0. -1.
</event>
<event>
 7    1  0.7457412E-006  0.1427703E+03  0.7818608E-02  0.1226779E+00
          2   -1    0    0  502    0  0.00000000000E+00  0.00000000000E+00  0.74260493786E+03  0.74260493786E+03  0.00000000000E+00 0. -1.
          1   -1    0    0  501    0 -0.00000000000E+00 -0.00000000000E+00 -0.25582009789E+03  0.25582009789E+03  0.00000000000E+00 0. -1.
         25    2    1    2    0    0  0.78609596959E+01 -0.68851922599E+02  0.12470702043E+03  0.18968115141E+03  0.12499886529E+03 0.  0.
          2    1    1    2  501    0  0.95590207373E+02  0.12808001978E+03 -0.18750939831E+03  0.24637725883E+03  0.00000000000E+00 0. -1.
          1    1    1    2  502    0 -0.10345116707E+03 -0.59228097185E+02  0.54958721785E+03  0.56236662551E+03  0.00000000000E+00 0. -1.
         22    1    3    3    0    0 -0.59847854570E+01  0.22312031433E+02 -0.11019983194E+02  0.25594617270E+02  0.00000000000E+00 0. -1.
         22    1    3    3    0    0  0.13845745153E+02 -0.91163954032E+02  0.13572700362E+03  0.16408653414E+03  0.00000000000E+00 0. -1.
</event>
<event>
 7    1  0.7457412E-006  0.6549336E+02  0.7818608E-02  0.1409036E+00
          2   -1    0    0  502    0  0.00000000000E+00  0.00000000000E+00  0.76193843315E+03  0.76193843315E+03  0.00000000000E+00 0. -1.
          1   -1    0    0  501    0 -0.00000000000E+00 -0.00000000000E+00 -0.54629403259E+02  0.54629403259E+02  0.00000000000E+00 0. -1.
         25    2    1    2    0    0 -0.24696193286E+02  0.81777239296E+02  0.13625666388E+03  0.20368669680E+03  0.12499989268E+03 0.  0.
          2    1    1    2  501    0 -0.20496483652E+02 -0.59639917903E+02  0.30608236292E+02  0.70099142494E+02  0.00000000000E+00 0. -1.
          1    1    1    2  502    0  0.45192676939E+02 -0.22137321393E+02  0.54044412972E+03  0.54278199712E+03  0.00000000000E+00 0. -1.
         22    1    3    3    0    0  0.39213700509E+02  0.57994677551E+02  0.27284058484E+02  0.75136654033E+02  0.00000000000E+00 0. -1.
         22    1    3    3    0    0 -0.63909893796E+02  0.23782561745E+02  0.10897260540E+03  0.12855004277E+03  0.00000000000E+00 0. -1.
</event>
<event>
 7    1  0.7457412E-006  0.7138646E+02  0.7818608E-02  0.1466439E+00
          2   -1    0    0  502    0  0.00000000000E+00  0.00000000000E+00  0.20086309705E+03  0.20086309705E+03  0.00000000000E+00 0. -1.
          1   -1    0    0  501    0 -0.00000000000E+00 -0.00000000000E+00 -0.54761784278E+03  0.54761784278E+03  0.00000000000E+00 0. -1.
         25    2    1    2    0    0 -0.43022048775E+02 -0.67268991702E+01 -0.15781712678E+03  0.20597846718E+03  0.12499894234E+03 0.  0.
          2    1    1    2  501    0 -0.26432270557E+02 -0.14226899255E+02 -0.35762196624E+03  0.35887956242E+03  0.00000000000E+00 0. -1.
          1    1    1    2  502    0  0.69454319332E+02  0.20953798425E+02  0.16868434728E+03  0.18362291023E+03  0.00000000000E+00 0. -1.
         22    1    3    3    0    0  0.77511801146E+01  0.53193409281E+02 -0.67486794610E+02  0.86279122798E+02  0.00000000000E+00 0. -1.
         22    1    3    3    0    0 -0.50773228889E+02 -0.59920308451E+02 -0.90330332165E+02  0.11969934438E+03  0.00000000000E+00 0. -1.
</event>
<event>
 7    1  0.7457412E-006  0.8438343E+02  0.7818608E-02  0.1358949E+00
          2   -1    0    0  502    0  0.00000000000E+00  0.00000000000E+00  0.11314150103E+04  0.11314150103E+04  0.00000000000E+00 0. -1.
          1   -1    0    0  501    0 -0.00000000000E+00 -0.00000000000E+00 -0.11431920279E+03  0.11431920279E+03  0.00000000000E+00 0. -1.
         25    2    1    2    0    0  0.70190765630E+02  0.11254945948E+03  0.19495152627E+03  0.26687825204E+03  0.12499511753E+03 0.  0.
          2    1    1    2  501    0 -0.23734292049E+02 -0.76783070511E+02 -0.56510931352E+02  0.98246841671E+02  0.00000000000E+00 0. -1.
          1    1    1    2  502    0 -0.46456473581E+02 -0.35766388970E+02  0.87865521263E+03  0.88060911941E+03  0.00000000000E+00 0. -1.
         22    1    3    3    0    0  0.60835150606E+02 -0.50432554288E+01  0.43745004874E+02  0.75099769813E+02  0.00000000000E+00 0.  1.
         22    1    3    3    0    0  0.93556150241E+01  0.11759271491E+03  0.15120652139E+03  0.19177848222E+03  0.00000000000E+00 0.  1.
</event>
<event>
 7    1  0.1185865E-005  0.8105934E+02  0.7818608E-02  0.1354193E+00
          2   -1    0    0  502    0  0.00000000000E+00  0.00000000000E+00  0.17732901481E+04  0.17732901481E+04  0.00000000000E+00 0. -1.
          1   -1    0    0  501    0 -0.00000000000E+00 -0.00000000000E+00 -0.77559990463E+03  0.77559990463E+03  0.00000000000E+00 0. -1.
         25    2    1    2    0    0 -0.97853246635E+02 -0.94579075753E+02 -0.11692460984E+03  0.21866944619E+03  0.12499801144E+03 0.  0.
          2    1    1    2  501    0  0.25794894094E+02  0.58063707994E+02 -0.60519178958E+03  0.60851776714E+03  0.00000000000E+00 0. -1.
          1    1    1    2  502    0  0.72058352541E+02  0.36515367760E+02  0.17198066429E+04  0.17217028394E+04  0.00000000000E+00 0. -1.
         22    1    3    3    0    0 -0.66841459132E+02 -0.11578619835E+03 -0.51589796509E+02  0.14330293608E+03  0.00000000000E+00 0. -1.
         22    1    3    3    0    0 -0.31011787503E+02  0.21207122592E+02 -0.65334813333E+02  0.75366510109E+02  0.00000000000E+00 0. -1.
</event>
<event>
 7    1  0.7457412E-006  0.1070650E+03  0.7818608E-02  0.1313507E+00
          2   -1    0    0  502    0  0.00000000000E+00  0.00000000000E+00  0.11249245753E+04  0.11249245753E+04  0.00000000000E+00 0. -1.
          1   -1    0    0  501    0 -0.00000000000E+00 -0.00000000000E+00 -0.13236193623E+04  0.13236193623E+04  0.00000000000E+00 0. -1.
         25    2    1    2    0    0  0.68435574249E+02  0.15384287865E+03 -0.13386724498E+03  0.24879223764E+03  0.12500431631E+03 0.  0.
          2    1    1    2  501    0 -0.51501749839E+01 -0.68470011275E+02 -0.11285986770E+04  0.11306854738E+04  0.00000000000E+00 0. -1.
          1    1    1    2  502    0 -0.63285399265E+02 -0.85372867380E+02  0.10637711351E+04  0.10690662262E+04  0.00000000000E+00 0. -1.
         22    1    3    3    0    0 -0.31284760025E+02  0.72000558906E+02 -0.33546732049E+02  0.85370954801E+02  0.00000000000E+00 0.  1.
         22    1    3    3    0    0  0.99720334274E+02  0.81842319749E+02 -0.10032051293E+03  0.16342128284E+03  0.00000000000E+00 0.  1.
</event>
<event>
 7    1  0.7457412E-006  0.5861831E+02  0.7818608E-02  0.1407984E+00
          2   -1    0    0  502    0  0.00000000000E+00  0.00000000000E+00  0.42144774441E+03  0.42144774441E+03  0.00000000000E+00 0. -1.
          1   -1    0    0  501    0 -0.00000000000E+00 -0.00000000000E+00 -0.37874681119E+03  0.37874681119E+03  0.00000000000E+00 0. -1.
         25    2    1    2    0    0  0.38255912524E+01 -0.53134540086E+02 -0.23806068838E+02  0.13795528387E+03  0.12500806748E+03 0.  0.
          2    1    1    2  501    0 -0.54004846542E+02  0.26756346230E+02 -0.29257075389E+03  0.29871402971E+03  0.00000000000E+00 0. -1.
          1    1    1    2  502    0  0.50179255289E+02  0.26378193856E+02  0.35907775595E+03  0.36352524202E+03  0.00000000000E+00 0. -1.
         22    1    3    3    0    0 -0.31700627418E+01 -0.19703540575E+02 -0.74334021399E+02  0.76966392317E+02  0.00000000000E+00 0.  1.
         22    1    3    3    0    0  0.69956539942E+01 -0.33430999511E+02  0.50527952561E+02  0.60988891555E+02  0.00000000000E+00 0.  1.
</event>
<event>
 7    1  0.7457412E-006  0.1040052E+03  0.7818608E-02  0.1315583E+00
          2   -1    0    0  502    0  0.00000000000E+00  0.00000000000E+00  0.16735162679E+04  0.16735162679E+04  0.00000000000E+00 0. -1.
          1   -1    0    0  501    0 -0.00000000000E+00 -0.00000000000E+00 -0.37459019366E+03  0.37459019366E+03  0.00000000000E+00 0. -1.
         25    2    1    2    0    0 -0.10508132426E+03 -0.11186922416E+03 -0.35004735427E+02  0.20101537079E+03  0.12500015908E+03 0.  0.
          2    1    1    2  501    0  0.38831616889E+02  0.91284605881E+02 -0.24620213227E+03  0.26543598790E+03  0.00000000000E+00 0. -1.
          1    1    1    2  502    0  0.66249707370E+02  0.20584618282E+02  0.15801329419E+04  0.15816551028E+04  0.00000000000E+00 0. -1.
         22    1    3    3    0    0 -0.12358997480E+03 -0.71861089875E+02  0.27285734072E+01  0.14298931156E+03  0.00000000000E+00 0. -1.
         22    1    3    3    0    0  0.18508650539E+02 -0.40008134288E+02 -0.37733308834E+02  0.58026059228E+02  0.00000000000E+00 0. -1.
</event>
<event>
 7    1  0.7457412E-006  0.1551655E+03  0.7818608E-02  0.1361367E+00
          2   -1    0    0  502    0  0.00000000000E+00  0.00000000000E+00  0.26462330346E+03  0.26462330346E+03  0.00000000000E+00 0. -1.
          1   -1    0    0  501    0 -0.00000000000E+00 -0.00000000000E+00 -0.11876198908E+04  0.11876198908E+04  0.00000000000E+00 0. -1.
         25    2    1    2    0    0 -0.36886592209E+01 -0.13873846853E+03  0.92372120897E+01  0.18700923663E+03  0.12500063857E+03 0.  0.
          2    1    1    2  501    0 -0.22058948977E+02 -0.22125573601E+02 -0.10585980637E+04  0.10590590157E+04  0.00000000000E+00 0. -1.
          1    1    1    2  502    0  0.25747608198E+02  0.16086404213E+03  0.12636426431E+03  0.20617494191E+03  0.00000000000E+00 0. -1.
         22    1    3    3    0    0 -0.34526943475E+02 -0.97310610065E+01  0.36954893605E+02  0.51502111951E+02  0.00000000000E+00 0.  1.
         22    1    3    3    0    0  0.30838284254E+02 -0.12900740752E+03 -0.27717681516E+02  0.13550712468E+03  0.00000000000E+00 0.  1.
</event>
<event>
 7    1  0.7457412E-006  0.5008609E+02  0.7818608E-02  0.1447331E+00
          2   -1    0    0  502    0  0.00000000000E+00  0.00000000000E+00  0.54965583235E+02  0.54965583235E+02  0.00000000000E+00 0. -1.
          1   -1    0    0  501    0 -0.00000000000E+00 -0.00000000000E+00 -0.98134709389E+03  0.98134709389E+03  0.00000000000E+00 0. -1.
         25    2    1    2    0    0  0.17292192876E+02  0.52941703394E+02 -0.81375763710E+03  0.82518456776E+03  0.12500494006E+03 0.  0.
          2    1    1    2  501    0 -0.52639247067E+02 -0.18741381131E+02 -0.14285645592E+03  0.15339523035E+03  0.00000000000E+00 0. -1.
          1    1    1    2  502    0  0.35347054191E+02 -0.34200322263E+02  0.30232582359E+02  0.57732879012E+02  0.00000000000E+00 0. -1.
         22    1    3    3    0    0  0.58313328733E+02 -0.12001179058E+02 -0.32068540531E+03  0.32616499167E+03  0.00000000000E+00 0. -1.
         22    1    3    3    0    0 -0.41021135857E+02  0.64942882451E+02 -0.49307223178E+03  0.49901957609E+03  0.00000000000E+00 0. -1.
</event>
<event>
 7    1  0.7457412E-006  0.1150911E+03  0.7818608E-02  0.1317581E+00
          2   -1    0    0  502    0  0.00000000000E+00  0.00000000000E+00  0.32248766481E+03  0.32248766481E+03  0.00000000000E+00 0. -1.
          1   -1    0    0  501    0 -0.00000000000E+00 -0.00000000000E+00 -0.19185542666E+04  0.19185542666E+04  0.00000000000E+00 0. -1.
         25    2    1    2    0    0 -0.16280349032E+02  0.92558188874E+02 -0.48190131179E+03  0.50663859553E+03  0.12498689563E+03 0.  0.
          2    1    1    2  501    0  0.77846345600E+02 -0.93691403459E+02 -0.14185916164E+04  0.14238118930E+04  0.00000000000E+00 0. -1.
          1    1    1    2  502    0 -0.61565996568E+02  0.11332145847E+01  0.30442632645E+03  0.31059144281E+03  0.00000000000E+00 0. -1.
         22    1    3    3    0    0  0.43801688534E+02  0.40928924558E+02 -0.99872803728E+02  0.11648322501E+03  0.00000000000E+00 0. -1.
         22    1    3    3    0    0 -0.60082037566E+02  0.51629264316E+02 -0.38202850806E+03  0.39015537052E+03  0.00000000000E+00 0. -1.
</event>
<event>
 7    1  0.7457412E-006  0.3228598E+03  0.7818608E-02  0.1149353E+00
          2   -1    0    0  502    0  0.00000000000E+00  0.00000000000E+00  0.11283724200E+04  0.11283724200E+04  0.00000000000E+00 0. -1.
          1   -1    0    0  501    0 -0.00000000000E+00 -0.00000000000E+00 -0.40426797797E+03  0.40426797797E+03  0.00000000000E+00 0. -1.
         25    2    1    2    0    0 -0.14484541863E+03  0.34392190241E+03 -0.15916431048E+03  0.42452746021E+03  0.12501126544E+03 0.  0.
          2    1    1    2  501    0  0.14751573737E+03 -0.21948948804E+03  0.54451451069E+02  0.27000275675E+03  0.00000000000E+00 0. -1.
          1    1    1    2  502    0 -0.26703187351E+01 -0.12443241437E+03  0.82881730145E+03  0.83811018102E+03  0.00000000000E+00 0. -1.
         22    1    3    3    0    0 -0.30933093857E+02  0.67355722623E+02 -0.91695784137E+02  0.11790575259E+03  0.00000000000E+00 0. -1.
         22    1    3    3    0    0 -0.11391232477E+03  0.27656617978E+03 -0.67468526340E+02  0.30662170762E+03  0.00000000000E+00 0. -1.
</event>
<event>
 7    1  0.7457412E-006  0.7314729E+02  0.7818608E-02  0.1393571E+00
          2   -1    0    0  502    0  0.00000000000E+00  0.00000000000E+00  0.19523426142E+03  0.19523426142E+03  0.00000000000E+00 0. -1.
          1   -1    0    0  501    0 -0.00000000000E+00 -0.00000000000E+00 -0.17157885936E+04  0.17157885936E+04  0.00000000000E+00 0. -1.
         25    2    1    2    0    0 -0.11744172378E+03 -0.15115655285E+02 -0.10919051241E+03  0.20388307590E+03  0.12499879647E+03 0.  0.
          2    1    1    2  501    0  0.71976560759E+02 -0.78039261929E+01 -0.15540015578E+04  0.15556871048E+04  0.00000000000E+00 0. -1.
          1    1    1    2  502    0  0.45465163021E+02  0.22919581478E+02  0.14263773798E+03  0.15145267432E+03  0.00000000000E+00 0. -1.
         22    1    3    3    0    0 -0.43161649747E+02  0.28503991956E+02  0.13979241111E+02  0.53580077906E+02  0.00000000000E+00 0.  1.
         22    1    3    3    0    0 -0.74280074033E+02 -0.43619647241E+02 -0.12316975352E+03  0.15030299800E+03  0.00000000000E+00 0.  1.
</event>
<event>
 7    1  0.7457412E-006  0.3610691E+02  0.7818608E-02  0.1580237E+00
          2   -1    0    0  502    0  0.00000000000E+00  0.00000000000E+00  0.13850215665E+04  0.13850215665E+04  0.00000000000E+00 0. -1.
          1   -1    0    0  501    0 -0.00000000000E+00 -0.00000000000E+00 -0.64283143162E+03  0.64283143162E+03  0.00000000000E+00 0. -1.
         25    2    1    2    0    0  0.92545983052E+00  0.17068242141E+02  0.18947415484E+03  0.22763468081E+03  0.12499964475E+03 0.  0.
          2    1    1    2  501    0 -0.26229988753E+02  0.91930438122E+01 -0.62315870502E+03  0.62377824265E+03  0.00000000000E+00 0. -1.
          1    1    1    2  502    0  0.25304528923E+02 -0.26261285953E+02  0.11758746850E+04  0.11764400746E+04  0.00000000000E+00 0. -1.
         22    1    3    3    0    0 -0.25792119075E+02  0.58751263821E+02  0.55611121847E+02  0.84909017660E+02  0.00000000000E+00 0. -1.
         22    1    3    3    0    0  0.26717578905E+02 -0.41683021680E+02  0.13386303299E+03  0.14272566315E+03  0.00000000000E+00 0. -1.
</event>
<event>
 7    1  0.7457412E-006  0.1927122E+03  0.7818608E-02  0.1171382E+00
          2   -1    0    0  502    0  0.00000000000E+00  0.00000000000E+00  0.22224865349E+04  0.22224865349E+04  0.00000000000E+00 0. -1.
          1   -1    0    0  501    0 -0.00000000000E+00 -0.00000000000E+00 -0.98088168605E+02  0.98088168605E+02  0.00000000000E+00 0. -1.
         25    2    1    2    0    0 -0.51435110813E+02  0.49979948517E+02  0.69468604616E+02  0.15998010345E+03  0.12499672233E+03 0.  0.
          2    1    1    2  501    0  0.30116153721E+02  0.15854350261E+03  0.90517611359E+02  0.18503097822E+03  0.00000000000E+00 0. -1.
          1    1    1    2  502    0  0.21318957092E+02 -0.20852345113E+03  0.19644121503E+04  0.19755636218E+04  0.00000000000E+00 0. -1.
         22    1    3    3    0    0 -0.20619700325E+02 -0.14452543478E+02 -0.28955250335E+02  0.38372575838E+02  0.00000000000E+00 0. -1.
         22    1    3    3    0    0 -0.30815410488E+02  0.64432491995E+02  0.98423854952E+02  0.12160752761E+03  0.00000000000E+00 0. -1.
</event>
<event>
 7    1  0.7457412E-006  0.6931120E+02  0.7818608E-02  0.1388682E+00
          2   -1    0    0  502    0  0.00000000000E+00  0.00000000000E+00  0.95358784198E+03  0.95358784198E+03  0.00000000000E+00 0. -1.
          1   -1    0    0  501    0 -0.00000000000E+00 -0.00000000000E+00 -0.27584932788E+03  0.27584932788E+03  0.00000000000E+00 0. -1.
         25    2    1    2    0    0  0.98075103261E+02 -0.77207781647E+02 -0.16272951582E+03  0.24017753165E+03  0.12499833584E+03 0.  0.
          2    1    1    2  501    0 -0.43358746383E+02  0.35254267612E+02 -0.62398595574E+02  0.83764127181E+02  0.00000000000E+00 0. -1.
          1    1    1    2  502    0 -0.54716356878E+02  0.41953514035E+02  0.90286662550E+03  0.90549551103E+03  0.00000000000E+00 0. -1.
         22    1    3    3    0    0  0.54938395112E+02 -0.53515525780E+02 -0.17359070816E+03  0.18977848328E+03  0.00000000000E+00 0. -1.
         22    1    3    3    0    0  0.43136708149E+02 -0.23692255866E+02  0.10861192334E+02  0.50399048372E+02  0.00000000000E+00 0. -1.
</event>
<event>
 7    1  0.7457412E-006  0.2104903E+03  0.7818608E-02  0.1284329E+00
          2   -1    0    0  502    0  0.00000000000E+00  0.00000000000E+00  0.10943286442E+03  0.10943286442E+03  0.00000000000E+00 0. -1.
          1   -1    0    0  501    0 -0.00000000000E+00 -0.00000000000E+00 -0.12092543584E+04  0.12092543584E+04  0.00000000000E+00 0. -1.
         25    2    1    2    0    0 -0.45894091205E+02  0.20606382578E+03 -0.23734007757E+03  0.34135637570E+03  0.12500117962E+03 0.  0.
          2    1    1    2  501    0 -0.43596173898E+02 -0.13792892372E+02 -0.72087327396E+03  0.72232205239E+03  0.00000000000E+00 0. -1.
          1    1    1    2  502    0  0.89490265103E+02 -0.19227093341E+03 -0.14160814245E+03  0.25500879473E+03  0.00000000000E+00 0. -1.
         22    1    3    3    0    0  0.22559619373E+01  0.19415338465E+03 -0.20375355671E+03  0.28145361609E+03  0.00000000000E+00 0. -1.
         22    1    3    3    0    0 -0.48150053142E+02  0.11910441127E+02 -0.33586520857E+02  0.59902759608E+02  0.00000000000E+00 0. -1.
</event>
<event>
 7    1  0.7457412E-006  0.2569456E+03  0.7818608E-02  0.1145956E+00
          2   -1    0    0  502    0  0.00000000000E+00  0.00000000000E+00  0.31485155332E+03  0.31485155332E+03  0.00000000000E+00 0. -1.
          1   -1    0    0  501    0 -0.00000000000E+00 -0.00000000000E+00 -0.16188544626E+04  0.16188544626E+04  0.00000000000E+00 0. -1.
         25    2    1    2    0    0  0.50760949669E+01 -0.38581383827E+03 -0.20315339889E+03  0.45362416473E+03  0.12500197921E+03 0.  0.
          2    1    1    2  501    0 -0.68701569540E+02  0.23592021931E+03 -0.12410882012E+04  0.12651791093E+04  0.00000000000E+00 0. -1.
          1    1    1    2  502    0  0.63625474573E+02  0.14989361896E+03  0.14023869086E+03  0.21490274180E+03  0.00000000000E+00 0. -1.
         22    1    3    3    0    0 -0.38170784701E+02 -0.23390570807E+03 -0.70219723204E+02  0.24718353222E+03  0.00000000000E+00 0.  1.
         22    1    3    3    0    0  0.43246879668E+02 -0.15190813020E+03 -0.13293367568E+03  0.20644063251E+03  0.00000000000E+00 0.  1.
</event>
<event>
 7    1  0.7457412E-006  0.7640756E+02  0.7818608E-02  0.1351826E+00
          2   -1    0    0  502    0  0.00000000000E+00  0.00000000000E+00  0.19885366767E+04  0.19885366767E+04  0.00000000000E+00 0. -1.
          1   -1    0    0  501    0 -0.00000000000E+00 -0.00000000000E+00 -0.15211236971E+03  0.15211236971E+03  0.00000000000E+00 0. -1.
         25    2    1    2    0    0 -0.22643591245E+02  0.36536513281E+02  0.40486971837E+02  0.13824419416E+03  0.12499845320E+03 0.  0.
          2    1    1    2  501    0  0.75340666548E+02  0.18791002262E+02 -0.87747748797E+02  0.11717075241E+03  0.00000000000E+00 0. -1.
          1    1    1    2  502    0 -0.52697075303E+02 -0.55327515543E+02  0.18836850839E+04  0.18852340998E+04  0.00000000000E+00 0. -1.
         22    1    3    3    0    0  0.30617618585E+02  0.39652005225E+02  0.62868414078E+02  0.80387546143E+02  0.00000000000E+00 0.  1.
         22    1    3    3    0    0 -0.53261209830E+02 -0.31154919439E+01 -0.22381442241E+02  0.57856648014E+02  0.00000000000E+00 0.  1.
</event>
<event>
 7    1  0.7457412E-006  0.6700820E+02  0.7818608E-02  0.1401737E+00
          2   -1    0    0  502    0  0.00000000000E+00  0.00000000000E+00  0.47312755223E+03  0.47312755223E+03  0.00000000000E+00 0. -1.
          1   -1    0    0  501    0 -0.00000000000E+00 -0.00000000000E+00 -0.25232853954E+03  0.25232853954E+03  0.00000000000E+00 0. -1.
         25    2    1    2    0    0  0.47767543180E+02 -0.18428727164E+02 -0.69631131010E+02  0.15196948618E+03  0.12499949663E+03 0.  0.
          2    1    1    2  501    0 -0.30087062902E+02  0.67424509863E+02 -0.13018182231E+03  0.14966162750E+03  0.00000000000E+00 0. -1.
          1    1    1    2  502    0 -0.17680480277E+02 -0.48995782698E+02  0.42061196601E+03  0.42382497810E+03  0.00000000000E+00 0. -1.
         22    1    3    3    0    0  0.75569687132E+02  0.27620978452E+02 -0.49880579300E+02  0.94666616371E+02  0.00000000000E+00 0.  1.
         22    1    3    3    0    0 -0.27802143952E+02 -0.46049705617E+02 -0.19750551710E+02  0.57302869811E+02  0.00000000000E+00 0.  1.
</event>
<event>
 7    1  0.7457412E-006  0.6841439E+02  0.7818608E-02  0.1443555E+00
          2   -1    0    0  502    0  0.00000000000E+00  0.00000000000E+00  0.33069312836E+03  0.33069312836E+03  0.00000000000E+00 0. -1.
          1   -1    0    0  501    0 -0.00000000000E+00 -0.00000000000E+00 -0.87114435911E+03  0.87114435911E+03  0.00000000000E+00 0. -1.
         25    2    1    2    0    0  0.58320835823E+02  0.85256920693E+02 -0.16602688417E+03  0.23207910881E+03  0.12500289620E+03 0.  0.
          2    1    1    2  501    0 -0.41201470913E+02 -0.52421754271E+02 -0.66927677897E+03  0.67258977720E+03  0.00000000000E+00 0. -1.
          1    1    1    2  502    0 -0.17119364910E+02 -0.32835166422E+02  0.29485243240E+03  0.29716860147E+03  0.00000000000E+00 0. -1.
         22    1    3    3    0    0 -0.14092481155E+02  0.29323169656E+02  0.97071425435E+01  0.33951066554E+02  0.00000000000E+00 0. -1.
         22    1    3    3    0    0  0.72413316978E+02  0.55933751037E+02 -0.17573402672E+03  0.19812804225E+03  0.00000000000E+00 0. -1.
</event>
<event>
 7    1  0.7457412E-006  0.8105198E+02  0.7818608E-02  0.1369902E+00
          2   -1    0    0  502    0  0.00000000000E+00  0.00000000000E+00  0.22085411443E+03  0.22085411443E+03  0.00000000000E+00 0. -1.
          1   -1    0    0  501    0 -0.00000000000E+00 -0.00000000000E+00 -0.79167921094E+03  0.79167921094E+03  0.00000000000E+00 0. -1.
         25    2    1    2    0    0 -0.94174259479E+02 -0.85634606088E+02 -0.31694973446E+03  0.36371008274E+03  0.12500325276E+03 0.  0.
          2    1    1    2  501    0  0.21876754451E+02  0.51230521273E+02 -0.44141041522E+03  0.44491157926E+03  0.00000000000E+00 0. -1.
          1    1    1    2  502    0  0.72297505028E+02  0.34404084815E+02  0.18753505318E+03  0.20391166336E+03  0.00000000000E+00 0. -1.
         22    1    3    3    0    0 -0.13008474088E+02 -0.75770468173E+02 -0.23777721107E+03  0.24989675138E+03  0.00000000000E+00 0.  1.
         22    1    3    3    0    0 -0.81165785391E+02 -0.98641379152E+01 -0.79172523394E+02  0.11381333136E+03  0.00000000000E+00 0.  1.
</event>
<event>
 7    1  0.7457412E-006  0.9045405E+02  0.7818608E-02  0.1487708E+00
          2   -1    0    0  502    0  0.00000000000E+00  0.00000000000E+00  0.90545931418E+03  0.90545931418E+03  0.00000000000E+00 0. -1.
          1   -1    0    0  501    0 -0.00000000000E+00 -0.00000000000E+00 -0.18132624572E+03  0.18132624572E+03  0.00000000000E+00 0. -1.
         25    2    1    2    0    0 -0.14528656612E+02  0.87202349146E+02  0.10520317849E+03  0.18576859622E+03  0.12500772383E+03 0.  0.
          2    1    1    2  501    0 -0.55420124476E+01 -0.90697885607E+02 -0.12625462510E+03  0.15555401221E+03  0.00000000000E+00 0. -1.
          1    1    1    2  502    0  0.20070669059E+02  0.34955364608E+01  0.74518451506E+03  0.74546295147E+03  0.00000000000E+00 0. -1.
         22    1    3    3    0    0 -0.14476771189E+02 -0.25324344149E+02 -0.34171336009E+01  0.29369646111E+02  0.00000000000E+00 0. -1.
         22    1    3    3    0    0 -0.51885422521E-01  0.11252669329E+03  0.10862031210E+03  0.15639895011E+03  0.00000000000E+00 0. -1.
</event>
<event>
 7    1  0.7457412E-006  0.7598596E+02  0.7818608E-02  0.1364819E+00
          2   -1    0    0  502    0  0.00000000000E+00  0.00000000000E+00  0.10210328630E+04  0.10210328630E+04  0.00000000000E+00 0. -1.
          1   -1    0    0  501    0 -0.00000000000E+00 -0.00000000000E+00 -0.87577607185E+03  0.87577607185E+03  0.00000000000E+00 0. -1.
         25    2    1    2    0    0 -0.14538090562E+02  0.59286369564E+02  0.70571475285E+03  0.71929445311E+03  0.12499987280E+03 0.  0.
          2    1    1    2  501    0  0.75647340478E+02 -0.71656600884E+01 -0.86205939148E+03  0.86540179179E+03  0.00000000000E+00 0. -1.
          1    1    1    2  502    0 -0.61109249917E+02 -0.52120709475E+02  0.30160142980E+03  0.31211268997E+03  0.00000000000E+00 0. -1.
         22    1    3    3    0    0  0.36177534667E+02  0.29565222223E+02  0.56317181434E+03  0.56510654645E+03  0.00000000000E+00 0. -1.
         22    1    3    3    0    0 -0.50715625228E+02  0.29721147341E+02  0.14254293851E+03  0.15418790666E+03  0.00000000000E+00 0. -1.
</event>
<event>
 7    1  0.7457412E-006  0.1584501E+03  0.7818608E-02  0.1342692E+00
          2   -1    0    0  502    0  0.00000000000E+00  0.00000000000E+00  0.75279246437E+03  0.75279246437E+03  0.00000000000E+00 0. -1.
          1   -1    0    0  501    0 -0.00000000000E+00 -0.00000000000E+00 -0.10802569609E+04  0.10802569609E+04  0.00000000000E+00 0. -1.
         25    2    1    2    0    0 -0.12730232820E+03 -0.13443253570E+03 -0.62296260098E+02  0.23191467529E+03  0.12500241267E+03 0.  0.
          2    1    1    2  501    0  0.35058745050E+02  0.75511548097E+01 -0.92358896540E+03  0.92428497367E+03  0.00000000000E+00 0. -1.
          1    1    1    2  502    0  0.92243583151E+02  0.12688138089E+03  0.65842072893E+03  0.67684977634E+03  0.00000000000E+00 0. -1.
         22    1    3    3    0    0  0.10451468321E+02  0.72962651536E+01 -0.28743412900E+02  0.31442844343E+02  0.00000000000E+00 0. -1.
         22    1    3    3    0    0 -0.13775379652E+03 -0.14172880086E+03 -0.33552847199E+02  0.20047183095E+03  0.00000000000E+00 0. -1.
</event>
<event>
 7    1  0.7457412E-006  0.1045886E+03  0.7818608E-02  0.1354097E+00
          2   -1    0    0  502    0  0.00000000000E+00  0.00000000000E+00  0.15864971329E+04  0.15864971329E+04  0.00000000000E+00 0. -1.
          1   -1    0    0  501    0 -0.00000000000E+00 -0.00000000000E+00 -0.74109965248E+03  0.74109965248E+03  0.00000000000E+00 0. -1.
         25    2    1    2    0    0  0.92705389419E+02  0.81006274170E+02  0.21480146041E+03  0.27734606117E+03  0.12499945828E+03 0.  0.
          2    1    1    2  501    0  0.62007540873E+01 -0.48890724976E+02 -0.70695134998E+03  0.70866703294E+03  0.00000000000E+00 0. -1.
          1    1    1    2  502    0 -0.98906143507E+02 -0.32115549194E+02  0.13375473700E+04  0.13415836913E+04  0.00000000000E+00 0. -1.
         22    1    3    3    0    0  0.83719050425E+02 -0.90308950443E+01  0.90718334024E+02  0.12377500797E+03  0.00000000000E+00 0.  1.
         22    1    3    3    0    0  0.89863389946E+01  0.90037169214E+02  0.12408312639E+03  0.15357105321E+03  0.00000000000E+00 0.  1.
</event>
<event>
 7    1  0.7457412E-006  0.3689775E+02  0.7818608E-02  0.1544818E+00
          2   -1    0    0  502    0  0.00000000000E+00  0.00000000000E+00  0.24261782565E+03  0.24261782565E+03  0.00000000000E+00 0. -1.
          1   -1    0    0  501    0 -0.00000000000E+00 -0.00000000000E+00 -0.86128416341E+03  0.86128416341E+03  0.00000000000E+00 0. -1.
         25    2    1    2    0    0  0.49726602817E+02  0.36450551088E+02 -0.38740209484E+02  0.14466116263E+03  0.12499868175E+03 0.  0.
          2    1    1    2  501    0 -0.15867018270E+02 -0.33150497306E+02 -0.76761468110E+03  0.76849399242E+03  0.00000000000E+00 0. -1.
          1    1    1    2  502    0 -0.33859584547E+02 -0.33000537819E+01  0.18768855283E+03  0.19074683401E+03  0.00000000000E+00 0. -1.
         22    1    3    3    0    0 -0.30582965348E+02 -0.23807894139E+02 -0.14436984516E+02  0.41358918201E+02  0.00000000000E+00 0. -1.
         22    1    3    3    0    0  0.80309568166E+02  0.60258445227E+02 -0.24303224967E+02  0.10330224443E+03  0.00000000000E+00 0. -1.
</event>
<event>
 7    1  0.7457412E-006  0.1029957E+03  0.7818608E-02  0.1446321E+00
          2   -1    0    0  502    0  0.00000000000E+00  0.00000000000E+00  0.68989943340E+03  0.68989943340E+03  0.00000000000E+00 0. -1.
          1   -1    0    0  501    0 -0.00000000000E+00 -0.00000000000E+00 -0.24303867478E+03  0.24303867478E+03  0.00000000000E+00 0. -1.
         25    2    1    2    0    0  0.67965862302E+02 -0.67548331577E+02  0.32890763759E+02  0.16090115281E+03  0.12500097238E+03 0.  0.
          2    1    1    2  501    0 -0.12951351586E+02 -0.20321097459E+02 -0.17366415377E+03  0.17532804343E+03  0.00000000000E+00 0. -1.
          1    1    1    2  502    0 -0.55014510716E+02  0.87869429036E+02  0.58763414863E+03  0.59670891194E+03  0.00000000000E+00 0. -1.
         22    1    3    3    0    0  0.76638777646E+02 -0.30867616099E+02  0.69791239796E+02  0.10815326678E+03  0.00000000000E+00 0.  1.
         22    1    3    3    0    0 -0.86729153449E+01 -0.36680715478E+02 -0.36900476037E+02  0.52747886027E+02  0.00000000000E+00 0.  1.
</event>
<event>
 7    1  0.7457412E-006  0.7442867E+02  0.7818608E-02  0.1348333E+00
          2   -1    0    0  502    0  0.00000000000E+00  0.00000000000E+00  0.77385476061E+03  0.77385476061E+03  0.00000000000E+00 0. -1.
          1   -1    0    0  501    0 -0.00000000000E+00 -0.00000000000E+00 -0.53644589235E+02  0.53644589235E+02  0.00000000000E+00 0. -1.
         25    2    1    2    0    0 -0.36816530065E+02  0.17240934925E+02  0.11832954870E+03  0.17685929006E+03  0.12499847864E+03 0.  0.
          2    1    1    2  501    0  0.43242716633E+02  0.60578000366E+02  0.42242190048E+02  0.85580542708E+02  0.00000000000E+00 0. -1.
          1    1    1    2  502    0 -0.64261865687E+01 -0.77818935291E+02  0.55963843263E+03  0.56505951708E+03  0.00000000000E+00 0. -1.
         22    1    3    3    0    0  0.87841821741E+01  0.63702042929E+02  0.43300851062E+02  0.77524678861E+02  0.00000000000E+00 0.  1.
         22    1    3    3    0    0 -0.45600712239E+02 -0.46461108003E+02  0.75028697639E+02  0.99334611204E+02  0.00000000000E+00 0.  1.
</event>
<event>
 7    1  0.7457412E-006  0.1955310E+03  0.7818608E-02  0.1278106E+00
          2   -1    0    0  502    0  0.00000000000E+00  0.00000000000E+00  0.45471392988E+03  0.45471392988E+03  0.00000000000E+00 0. -1.
          1   -1    0    0  501    0 -0.00000000000E+00 -0.00000000000E+00 -0.79865424705E+03  0.79865424705E+03  0.00000000000E+00 0. -1.
         25    2    1    2    0    0  0.10772751588E+03  0.11590456281E+03 -0.28255106523E+03  0.34713036407E+03  0.12500119936E+03 0.  0.
          2    1    1    2  501    0  0.52193745806E+02  0.16829335821E+01 -0.45893200461E+03  0.46189349879E+03  0.00000000000E+00 0. -1.
          1    1    1    2  502    0 -0.15992126168E+03 -0.11758749639E+03  0.39754275267E+03  0.44434431407E+03  0.00000000000E+00 0. -1.
         22    1    3    3    0    0  0.28080099029E+02  0.10141306864E+03 -0.22316186634E+03  0.24672721990E+03  0.00000000000E+00 0. -1.
         22    1    3    3    0    0  0.79647416848E+02  0.14491494167E+02 -0.59389198886E+02  0.10040314416E+03  0.00000000000E+00 0. -1.
</event>
<event>
 7    1  0.7457412E-006  0.9186494E+02  0.7818608E-02  0.1369486E+00
          2   -1    0    0  502    0  0.00000000000E+00  0.00000000000E+00  0.52142232351E+03  0.52142232351E+03  0.00000000000E+00 0. -1.
          1   -1    0    0  501    0 -0.00000000000E+00 -0.00000000000E+00 -0.24215502214E+03  0.24215502214E+03  0.00000000000E+00 0. -1.
         25    2    1    2    0    0 -0.57883385157E+01  0.55174080043E+02 -0.15674958348E+03  0.20802267246E+03  0.12500126546E+03 0.  0.
          2    1    1    2  501    0  0.37377522664E+02  0.32175827890E+02 -0.44327323964E+02  0.66311950286E+02  0.00000000000E+00 0. -1.
          1    1    1    2  502    0 -0.31589184148E+02 -0.87349907933E+02  0.48034420882E+03  0.48924272290E+03  0.00000000000E+00 0. -1.
         22    1    3    3    0    0  0.15343548380E+02  0.82237697115E+02 -0.53714506614E+02  0.99416857346E+02  0.00000000000E+00 0.  1.
         22    1    3    3    0    0 -0.21131886896E+02 -0.27063617072E+02 -0.10303507687E+03  0.10860581512E+03  0.00000000000E+00 0.  1.
</event>
<event>
 7    1  0.7457412E-006  0.9706099E+02  0.7818608E-02  0.1396633E+00
          2   -1    0    0  502    0  0.00000000000E+00  0.00000000000E+00  0.86505593550E+03  0.86505593550E+03  0.00000000000E+00 0. -1.
          1   -1    0    0  501    0 -0.00000000000E+00 -0.00000000000E+00 -0.40950676591E+03  0.40950676591E+03  0.00000000000E+00 0. -1.
         25    2    1    2    0    0  0.45451214169E+02 -0.99414721388E+02  0.77075156239E+03  0.78843678021E+03  0.12500194307E+03 0.  0.
          2    1    1    2  501    0 -0.25700621803E+02  0.27232983711E+02 -0.38319227252E+03  0.38501749970E+03  0.00000000000E+00 0. -1.
          1    1    1    2  502    0 -0.19750592366E+02  0.72181737677E+02  0.67989879723E+02  0.10110842150E+03  0.00000000000E+00 0. -1.
         22    1    3    3    0    0  0.83744578025E+02 -0.83432983317E+02  0.65236394950E+03  0.66298788802E+03  0.00000000000E+00 0.  1.
         22    1    3    3    0    0 -0.38293363856E+02 -0.15981738071E+02  0.11838761288E+03  0.12544889219E+03  0.00000000000E+00 0.  1.
</event>
<event>
 7    1  0.7457412E-006  0.1043294E+03  0.7818608E-02  0.1341267E+00
          2   -1    0    0  502    0  0.00000000000E+00  0.00000000000E+00  0.49175181465E+03  0.49175181465E+03  0.00000000000E+00 0. -1.
          1   -1    0    0  501    0 -0.00000000000E+00 -0.00000000000E+00 -0.33699985799E+03  0.33699985799E+03  0.00000000000E+00 0. -1.
         25    2    1    2    0    0  0.62175575848E+02 -0.25869117466E+02  0.93842423703E+02  0.17019787193E+03  0.12500360656E+03 0.  0.
          2    1    1    2  501    0  0.51578511674E+02  0.19498076051E+02 -0.28711130764E+03  0.29235837736E+03  0.00000000000E+00 0. -1.
          1    1    1    2  502    0 -0.11375408752E+03  0.63710414157E+01  0.34802084060E+03  0.36619542335E+03  0.00000000000E+00 0. -1.
         22    1    3    3    0    0  0.80853551582E+02 -0.60840107905E+02  0.57327283659E+02  0.11629803517E+03  0.00000000000E+00 0.  1.
         22    1    3    3    0    0 -0.18677975734E+02  0.34970990439E+02  0.36515140043E+02  0.53899836755E+02  0.00000000000E+00 0.  1.
</event>
<event>
 7    1  0.7457412E-006  0.1699388E+03  0.7818608E-02  0.1288851E+00
          2   -1    0    0  502    0  0.00000000000E+00  0.00000000000E+00  0.23398910014E+04  0.23398910014E+04  0.00000000000E+00 0. -1.
          1   -1    0    0  501    0 -0.00000000000E+00 -0.00000000000E+00 -0.39525997876E+03  0.39525997876E+03  0.00000000000E+00 0. -1.
         25    2    1    2    0    0  0.17717018441E+03 -0.10424728666E+03 -0.22524418607E+03  0.32957381702E+03  0.12500874565E+03 0.  0.
          2    1    1    2  501    0 -0.15860474635E+02  0.51907088400E+02 -0.10827831352E+03  0.12112016208E+03  0.00000000000E+00 0. -1.
          1    1    1    2  502    0 -0.16130970977E+03  0.52340198262E+02  0.22781535223E+04  0.22844570011E+04  0.00000000000E+00 0. -1.
         22    1    3    3    0    0  0.17001095323E+03 -0.71008657064E+02 -0.23058802987E+03  0.29515554055E+03  0.00000000000E+00 0. -1.
         22    1    3    3    0    0  0.71592311744E+01 -0.33238629598E+02  0.53438438032E+01  0.34418276470E+02  0.00000000000E+00 0. -1.
</event>
<event>
 7    1  0.7457412E-006  0.4537677E+02  0.7818608E-02  0.1527111E+00
          2   -1    0    0  502    0  0.00000000000E+00  0.00000000000E+00  0.73258200810E+03  0.73258200810E+03  0.00000000000E+00 0. -1.
          1   -1    0    0  501    0 -0.00000000000E+00 -0.00000000000E+00 -0.31870050710E+04  0.31870050710E+04  0.00000000000E+00 0. -1.
         25    2    1    2    0    0 -0.22977361893E+02  0.44747384679E+02 -0.22004928744E+03  0.25802572021E+03  0.12500118315E+03 0.  0.
          2    1    1    2  501    0  0.41038854374E+02 -0.19476448899E+02 -0.29474544485E+04  0.29478044788E+04  0.00000000000E+00 0. -1.
          1    1    1    2  502    0 -0.18061492481E+02 -0.25270935780E+02  0.71308067298E+03  0.71375688009E+03  0.00000000000E+00 0. -1.
         22    1    3    3    0    0  0.36977070223E+02 -0.23475077745E+02 -0.76766897685E+02  0.88382914512E+02  0.00000000000E+00 0.  1.
         22    1    3    3    0    0 -0.59954432116E+02  0.68222462424E+02 -0.14328238976E+03  0.16964280570E+03  0.00000000000E+00 0.  1.
</event>
<event>
 7    1  0.7457412E-006  0.1737990E+03  0.7818608E-02  0.1255346E+00
          2   -1    0    0  502    0  0.00000000000E+00  0.00000000000E+00  0.10331778717E+04  0.10331778717E+04  0.00000000000E+00 0. -1.
          1   -1    0    0  501    0 -0.00000000000E+00 -0.00000000000E+00 -0.15299505316E+04  0.15299505316E+04  0.00000000000E+00 0. -1.
         25    2    1    2    0    0  0.17417596071E+03  0.14577541664E+03 -0.46455521270E+03  0.53199421714E+03  0.12497425348E+03 0.  0.
          2    1    1    2  501    0 -0.14382130361E+03 -0.79055079726E+02 -0.10237875951E+04  0.10368583861E+04  0.00000000000E+00 0. -1.
          1    1    1    2  502    0 -0.30354657093E+02 -0.66720336911E+02  0.99157014788E+03  0.99427580013E+03  0.00000000000E+00 0. -1.
         22    1    3    3    0    0  0.11858155325E+03  0.15833502036E+03 -0.31518908012E+03  0.37212325871E+03  0.00000000000E+00 0.  1.
         22    1    3    3    0    0  0.55594407460E+02 -0.12559603724E+02 -0.14936613258E+03  0.15987095843E+03  0.00000000000E+00 0.  1.
</event>
<event>
 7    1  0.7457412E-006  0.7325618E+02  0.7818608E-02  0.1375827E+00
          2   -1    0    0  502    0  0.00000000000E+00  0.00000000000E+00  0.20085209376E+04  0.20085209376E+04  0.00000000000E+00 0. -1.
          1   -1    0    0  501    0 -0.00000000000E+00 -0.00000000000E+00 -0.71263916965E+02  0.71263916965E+02  0.00000000000E+00 0. -1.
         25    2    1    2    0    0 -0.34073861361E+02  0.59120644302E+02  0.77256908342E+03  0.78558575236E+03  0.12500282816E+03 0.  0.
          2    1    1    2  501    0 -0.41682150750E+02 -0.41326547775E+02 -0.49948599578E+02  0.77072354589E+02  0.00000000000E+00 0. -1.
          1    1    1    2  502    0  0.75756012111E+02 -0.17794096527E+02  0.12146365368E+04  0.12171267476E+04  0.00000000000E+00 0. -1.
         22    1    3    3    0    0  0.37825638597E+02  0.13801303511E+02  0.10212297041E+03  0.10977411352E+03  0.00000000000E+00 0.  1.
         22    1    3    3    0    0 -0.71899499958E+02  0.45319340792E+02  0.67044611301E+03  0.67581163884E+03  0.00000000000E+00 0.  1.
</event>
<event>
 7    1  0.7457412E-006  0.8846366E+02  0.7818608E-02  0.1367609E+00
          2   -1    0    0  502    0  0.00000000000E+00  0.00000000000E+00  0.46243276210E+03  0.46243276210E+03  0.00000000000E+00 0. -1.
          1   -1    0    0  501    0 -0.00000000000E+00 -0.00000000000E+00 -0.23021905895E+03  0.23021905895E+03  0.00000000000E+00 0. -1.
         25    2    1    2    0    0 -0.89096951299E+02 -0.83097446117E+02 -0.13439963044E+03  0.22029784697E+03  0.12499771373E+03 0.  0.
          2    1    1    2  501    0  0.52833227647E+02  0.45802861572E+02 -0.27268414327E+02  0.75052105179E+02  0.00000000000E+00 0. -1.
          1    1    1    2  502    0  0.36263723652E+02  0.37294584545E+02  0.39388174792E+03  0.39730186890E+03  0.00000000000E+00 0. -1.
         22    1    3    3    0    0 -0.98811749074E+02 -0.11960043536E+02 -0.56888847752E+02  0.11464355802E+03  0.00000000000E+00 0. -1.
         22    1    3    3    0    0  0.97147977748E+01 -0.71137402581E+02 -0.77510782686E+02  0.10565428895E+03  0.00000000000E+00 0. -1.
</event>
<event>
 7    1  0.7457412E-006  0.3408486E+02  0.7818608E-02  0.1625238E+00
          2   -1    0    0  502    0  0.00000000000E+00  0.00000000000E+00  0.97159012505E+03  0.97159012505E+03  0.00000000000E+00 0. -1.
          1   -1    0    0  501    0 -0.00000000000E+00 -0.00000000000E+00 -0.78741763016E+03  0.78741763016E+03  0.00000000000E+00 0. -1.
         25    2    1    2    0    0  0.54594148173E+02 -0.13324469751E+02 -0.15788086273E+02  0.13795805108E+03  0.12500039072E+03 0.  0.
          2    1    1    2  501    0 -0.33465927895E+02  0.56474168601E+01 -0.71000039392E+03  0.71081110080E+03  0.00000000000E+00 0. -1.
          1    1    1    2  502    0 -0.21128220278E+02  0.76770528906E+01  0.90996097508E+03  0.91023860334E+03  0.00000000000E+00 0. -1.
         22    1    3    3    0    0 -0.37096985483E+02  0.13127864097E+02 -0.16124844962E+02  0.42526906456E+02  0.00000000000E+00 0.  1.
         22    1    3    3    0    0  0.91691133656E+02 -0.26452333848E+02  0.33675868937E+00  0.95431144620E+02  0.00000000000E+00 0.  1.
</event>
<event>
 7    1  0.7457412E-006  0.5054277E+02  0.7818608E-02  0.1532771E+00
          2   -1    0    0  502    0  0.00000000000E+00  0.00000000000E+00  0.19311704633E+03  0.19311704633E+03  0.00000000000E+00 0. -1.
          1   -1    0    0  501    0 -0.00000000000E+00 -0.00000000000E+00 -0.41930245625E+03  0.41930245625E+03  0.00000000000E+00 0. -1.
         25    2    1    2    0    0  0.31740238515E+02  0.23695412650E+02 -0.58437571127E+02  0.14355588525E+03  0.12499770858E+03 0.  0.
          2    1    1    2  501    0  0.19274400205E+02 -0.18714258999E+02 -0.31335163616E+03  0.31450115084E+03  0.00000000000E+00 0. -1.
          1    1    1    2  502    0 -0.51014638720E+02 -0.49811536508E+01  0.14560379737E+03  0.15436246650E+03  0.00000000000E+00 0. -1.
         22    1    3    3    0    0  0.45522868835E+02 -0.18506050542E+02  0.20297083915E+02  0.53167444072E+02  0.00000000000E+00 0. -1.
         22    1    3    3    0    0 -0.13782630321E+02  0.42201463191E+02 -0.78734655042E+02  0.90388441178E+02  0.00000000000E+00 0. -1.
</event>
<event>
 7    1  0.7457412E-006  0.3614806E+03  0.7818608E-02  0.1154516E+00
          2   -1    0    0  502    0  0.00000000000E+00  0.00000000000E+00  0.31638627618E+03  0.31638627618E+03  0.00000000000E+00 0. -1.
          1   -1    0    0  501    0 -0.00000000000E+00 -0.00000000000E+00 -0.13921576362E+04  0.13921576362E+04  0.00000000000E+00 0. -1.
         25    2    1    2    0    0 -0.20380650598E+03 -0.32096538477E+03 -0.68911271573E+03  0.79690573285E+03  0.12500616775E+03 0.  0.
          2    1    1    2  501    0 -0.65550350492E+02  0.81498844931E+02 -0.51768708663E+03  0.52814659881E+03  0.00000000000E+00 0. -1.
          1    1    1    2  502    0  0.26935685647E+03  0.23946653984E+03  0.13102844229E+03  0.38349158077E+03  0.00000000000E+00 0. -1.
         22    1    3    3    0    0 -0.14601437560E+03 -0.11931925996E+03 -0.36508974225E+03  0.41091094361E+03  0.00000000000E+00 0.  1.
         22    1    3    3    0    0 -0.57792130381E+02 -0.20164612481E+03 -0.32402297347E+03  0.38599478924E+03  0.00000000000E+00 0.  1.
</event>
<event>
 7    1  0.7457412E-006  0.1495761E+03  0.7818608E-02  0.1338005E+00
          2   -1    0    0  502    0  0.00000000000E+00  0.00000000000E+00  0.38512065108E+03  0.38512065108E+03  0.00000000000E+00 0. -1.
          1   -1    0    0  501    0 -0.00000000000E+00 -0.00000000000E+00 -0.50322481660E+03  0.50322481660E+03  0.00000000000E+00 0. -1.
         25    2    1    2    0    0 -0.20123763283E+02 -0.11396212871E+03  0.22270575513E+02  0.17179737597E+03  0.12500410884E+03 0.  0.
          2    1    1    2  501    0  0.35886553126E+02  0.15025022655E+03 -0.41306364758E+03  0.44100402745E+03  0.00000000000E+00 0. -1.
          1    1    1    2  502    0 -0.15762789843E+02 -0.36288097843E+02  0.27268890655E+03  0.27554406425E+03  0.00000000000E+00 0. -1.
         22    1    3    3    0    0  0.12373051370E+02 -0.77982936901E+02 -0.43453819858E+02  0.90125830416E+02  0.00000000000E+00 0.  1.
         22    1    3    3    0    0 -0.32496814653E+02 -0.35979191804E+02  0.65724395371E+02  0.81671545549E+02  0.00000000000E+00 0.  1.
</event>
<event>
 7    1  0.7457412E-006  0.7909722E+02  0.7818608E-02  0.1398840E+00
          2   -1    0    0  502    0  0.00000000000E+00  0.00000000000E+00  0.26615103276E+03  0.26615103276E+03  0.00000000000E+00 0. -1.
          1   -1    0    0  501    0 -0.00000000000E+00 -0.00000000000E+00 -0.18117685725E+04  0.18117685725E+04  0.00000000000E+00 0. -1.
         25    2    1    2    0    0  0.70297759869E+02 -0.33470793771E+02 -0.51905890692E+03  0.53954438662E+03  0.12499570870E+03 0.  0.
          2    1    1    2  501    0  0.82044668995E+01  0.44399141097E+02 -0.12759210316E+04  0.12767196544E+04  0.00000000000E+00 0. -1.
          1    1    1    2  502    0 -0.78502226769E+02 -0.10928347327E+02  0.24936239878E+03  0.26165556426E+03  0.00000000000E+00 0. -1.
         22    1    3    3    0    0  0.72787317688E+02 -0.47926823057E+02 -0.51750694205E+03  0.52479368237E+03  0.00000000000E+00 0. -1.
         22    1    3    3    0    0 -0.24895578181E+01  0.14456029286E+02 -0.15519648751E+01  0.14750704249E+02  0.00000000000E+00 0. -1.
</event>
<event>
 7    1  0.7457412E-006  0.1209927E+03  0.7818608E-02  0.1284153E+00
          2   -1    0    0  502    0  0.00000000000E+00  0.00000000000E+00  0.81793644812E+03  0.81793644812E+03  0.00000000000E+00 0. -1.
          1   -1    0    0  501    0 -0.00000000000E+00 -0.00000000000E+00 -0.38914140944E+03  0.38914140944E+03  0.00000000000E+00 0. -1.
         25    2    1    2    0    0  0.21196612884E+02 -0.76006063755E+02  0.10803743520E+03  0.18309466043E+03  0.12500139659E+03 0.  0.
          2    1    1    2  501    0  0.79385244333E+02 -0.68667322781E+01 -0.34065665887E+03  0.34985158033E+03  0.00000000000E+00 0. -1.
          1    1    1    2  502    0 -0.10058185722E+03  0.82872796033E+02  0.66141426235E+03  0.67413161680E+03  0.00000000000E+00 0. -1.
         22    1    3    3    0    0 -0.34286545534E+02 -0.39436097227E+02  0.10415638338E+03  0.11653036157E+03  0.00000000000E+00 0.  1.
         22    1    3    3    0    0  0.55483158418E+02 -0.36569966528E+02  0.38810518198E+01  0.66564298863E+02  0.00000000000E+00 0.  1.
</event>
<event>
 7    1  0.7457412E-006  0.1190357E+03  0.7818608E-02  0.1266906E+00
          2   -1    0    0  502    0  0.00000000000E+00  0.00000000000E+00  0.20009924703E+04  0.20009924703E+04  0.00000000000E+00 0. -1.
          1   -1    0    0  501    0 -0.00000000000E+00 -0.00000000000E+00 -0.77926001260E+02  0.77926001260E+02  0.00000000000E+00 0. -1.
         25    2    1    2    0    0 -0.98306816073E+02  0.20753796202E+02  0.61016614803E+03  0.63088964539E+03  0.12499626519E+03 0.  0.
          2    1    1    2  501    0  0.60040105682E+02 -0.10830642540E+03 -0.76076700446E+01  0.12406841950E+03  0.00000000000E+00 0. -1.
          1    1    1    2  502    0  0.38266710391E+02  0.87552629198E+02  0.13205079910E+04  0.13239604066E+04  0.00000000000E+00 0. -1.
         22    1    3    3    0    0 -0.31567406064E+01 -0.42150928885E+02  0.23484787127E+03  0.23862143336E+03  0.00000000000E+00 0.  1.
         22    1    3    3    0    0 -0.95150075467E+02  0.62904725087E+02  0.37531827676E+03  0.39226821203E+03  0.00000000000E+00 0.  1.
</event>
<event>
 7    1  0.7457412E-006  0.6297296E+02  0.7818608E-02  0.1529943E+00
          2   -1    0    0  502    0  0.00000000000E+00  0.00000000000E+00  0.24691941007E+04  0.24691941007E+04  0.00000000000E+00 0. -1.
          1   -1    0    0  501    0 -0.00000000000E+00 -0.00000000000E+00 -0.19845511854E+02  0.19845511854E+02  0.00000000000E+00 0. -1.
         25    2    1    2    0    0  0.26842067689E+02 -0.34720238690E+02  0.33507061681E+03  0.36030644711E+03  0.12498970361E+03 0.  0.
          2    1    1    2  501    0  0.25683997449E+01 -0.21816630145E+02  0.11141174259E+02  0.24631033109E+02  0.00000000000E+00 0. -1.
          1    1    1    2  502    0 -0.29410467434E+02  0.56536868834E+02  0.21031367978E+04  0.21041021324E+04  0.00000000000E+00 0. -1.
         22    1    3    3    0    0  0.68873425189E+02 -0.24357636311E+02  0.11665166442E+03  0.13763885337E+03  0.00000000000E+00 0.  1.
         22    1    3    3    0    0 -0.42031357500E+02 -0.10362602379E+02  0.21841895239E+03  0.22266759374E+03  0.00000000000E+00 0.  1.
</event>
<event>
 7    1  0.7457412E-006  0.9032185E+02  0.7818608E-02  0.1408619E+00
          2   -1    0    0  502    0  0.00000000000E+00  0.00000000000E+00  0.16880218737E+04  0.16880218737E+04  0.00000000000E+00 0. -1.
          1   -1    0    0  501    0 -0.00000000000E+00 -0.00000000000E+00 -0.27687224151E+03  0.27687224151E+03  0.00000000000E+00 0. -1.
         25    2    1    2    0    0  0.70790360582E+02  0.79847591195E+02 -0.66872721242E+01  0.16448802668E+03  0.12499871336E+03 0.  0.
          2    1    1    2  501    0 -0.36439646969E+02  0.35183089033E+01 -0.18825684999E+03  0.19178338806E+03  0.00000000000E+00 0. -1.
          1    1    1    2  502    0 -0.34350713613E+02 -0.83365900099E+02  0.16060937543E+04  0.16086227004E+04  0.00000000000E+00 0. -1.
         22    1    3    3    0    0  0.36246001628E+02 -0.10546833603E+02  0.41738837719E+02  0.56277339198E+02  0.00000000000E+00 0. -1.
         22    1    3    3    0    0  0.34544358954E+02  0.90394424798E+02 -0.48426109844E+02  0.10821068748E+03  0.00000000000E+00 0. -1.
</event>
<event>
 7    1  0.7457412E-006  0.8593462E+02  0.7818608E-02  0.1450959E+00
          2   -1    0    0  502    0  0.00000000000E+00  0.00000000000E+00  0.75718556633E+03  0.75718556633E+03  0.00000000000E+00 0. -1.
          1   -1    0    0  501    0 -0.00000000000E+00 -0.00000000000E+00 -0.10942645145E+03  0.10942645145E+03  0.00000000000E+00 0. -1.
         25    2    1    2    0    0  0.90795863696E+02  0.61936632604E+01  0.84521174775E+02  0.17621347379E+03  0.12500043612E+03 0.  0.
          2    1    1    2  501    0 -0.11039311329E+02  0.25633447871E+02 -0.57411906994E+02  0.63836252310E+02  0.00000000000E+00 0. -1.
          1    1    1    2  502    0 -0.79756552367E+02 -0.31827111131E+02  0.62064984710E+03  0.62656229168E+03  0.00000000000E+00 0. -1.
         22    1    3    3    0    0  0.72145966705E+02  0.55848275578E+02  0.82701781544E+02  0.12314079368E+03  0.00000000000E+00 0.  1.
         22    1    3    3    0    0  0.18649896991E+02 -0.49654612318E+02  0.18193932310E+01  0.53072680108E+02  0.00000000000E+00 0.  1.
</event>
<event>
 7    1  0.7457412E-006  0.9154659E+02  0.7818608E-02  0.1447571E+00
          2   -1    0    0  502    0  0.00000000000E+00  0.00000000000E+00  0.13589233004E+04  0.13589233004E+04  0.00000000000E+00 0. -1.
          1   -1    0    0  501    0 -0.00000000000E+00 -0.00000000000E+00 -0.14972519752E+03  0.14972519752E+03  0.00000000000E+00 0. -1.
         25    2    1    2    0    0  0.69324725331E+02 -0.92042788396E+02  0.50629279568E+02  0.17738451487E+03  0.12499659887E+03 0.  0.
          2    1    1    2  501    0 -0.23086640385E+02  0.13731093174E+02 -0.82553754872E+02  0.86813929340E+02  0.00000000000E+00 0. -1.
          1    1    1    2  502    0 -0.46238084946E+02  0.78311695221E+02  0.12411225782E+04  0.12444500537E+04  0.00000000000E+00 0. -1.
         22    1    3    3    0    0  0.11575180277E+02 -0.37401792336E+02 -0.40581000658E+02  0.56388797494E+02  0.00000000000E+00 0.  1.
         22    1    3    3    0    0  0.57749545054E+02 -0.54640996060E+02  0.91210280226E+02  0.12099571738E+03  0.00000000000E+00 0.  1.
</event>
<event>
 7    1  0.7457412E-006  0.3420167E+02  0.7818608E-02  0.1586598E+00
          2   -1    0    0  502    0  0.00000000000E+00  0.00000000000E+00  0.43354080516E+03  0.43354080516E+03  0.00000000000E+00 0. -1.
          1   -1    0    0  501    0 -0.00000000000E+00 -0.00000000000E+00 -0.16648044204E+03  0.16648044204E+03  0.00000000000E+00 0. -1.
         25    2    1    2    0    0 -0.36767600862E+02 -0.85512265289E+01 -0.68691240820E+02  0.14754125563E+03  0.12499982240E+03 0.  0.
          2    1    1    2  501    0  0.19082438619E+02 -0.20786610378E+02 -0.54158206183E+02  0.61068272708E+02  0.00000000000E+00 0. -1.
          1    1    1    2  502    0  0.17685162243E+02  0.29337836906E+02  0.38990981012E+03  0.39141171887E+03  0.00000000000E+00 0. -1.
         22    1    3    3    0    0 -0.79547399499E+01  0.15596711820E+02  0.33968201769E+02  0.38214840556E+02  0.00000000000E+00 0. -1.
         22    1    3    3    0    0 -0.28812860912E+02 -0.24147938349E+02 -0.10265944259E+03  0.10932641507E+03  0.00000000000E+00 0. -1.
</event>
<event>
 7    1  0.7457412E-006  0.6221555E+02  0.7818608E-02  0.1429238E+00
          2   -1    0    0  502    0  0.00000000000E+00  0.00000000000E+00  0.42708288732E+02  0.42708288732E+02  0.00000000000E+00 0. -1.
          1   -1    0    0  501    0 -0.00000000000E+00 -0.00000000000E+00 -0.41428803333E+03  0.41428803333E+03  0.00000000000E+00 0. -1.
         25    2    1    2    0    0 -0.62314132810E+01 -0.42548737152E+02 -0.12306738300E+03  0.18060885735E+03  0.12499901219E+03 0.  0.
          2    1    1    2  501    0  0.51538089947E+02  0.44350910391E+02 -0.19349192369E+03  0.20509096153E+03  0.00000000000E+00 0. -1.
          1    1    1    2  502    0 -0.45306676666E+02 -0.18021732393E+01 -0.55020437906E+02  0.71296503183E+02  0.00000000000E+00 0. -1.
         22    1    3    3    0    0 -0.81181395357E+01 -0.38785524792E+02 -0.14908067052E+03  0.15425714715E+03  0.00000000000E+00 0.  1.
         22    1    3    3    0    0  0.18867262547E+01 -0.37632123598E+01  0.26013287517E+02  0.26351710204E+02  0.00000000000E+00 0.  1.
</event>
<event>
 7    1  0.7457412E-006  0.1055148E+03  0.7818608E-02  0.1361664E+00
          2   -1    0    0  502    0  0.00000000000E+00  0.00000000000E+00  0.16729550438E+04  0.16729550438E+04  0.00000000000E+00 0. -1.
          1   -1    0    0  501    0 -0.00000000000E+00 -0.00000000000E+00 -0.12763740831E+04  0.12763740831E+04  0.00000000000E+00 0. -1.
         25    2    1    2    0    0  0.58420825005E+02  0.32771161490E+02 -0.10727280858E+03  0.17781723134E+03  0.12499828192E+03 0.  0.
          2    1    1    2  501    0 -0.80092284176E+02 -0.73154308617E+02 -0.11309127970E+04  0.11361030241E+04  0.00000000000E+00 0. -1.
          1    1    1    2  502    0  0.21671459171E+02  0.40383147127E+02  0.16347665662E+04  0.16354088714E+04  0.00000000000E+00 0. -1.
         22    1    3    3    0    0 -0.33823956944E+01 -0.41517590180E+02 -0.15201673089E+02  0.44342324699E+02  0.00000000000E+00 0.  1.
         22    1    3    3    0    0  0.61803220700E+02  0.74288751670E+02 -0.92071135486E+02  0.13347490664E+03  0.00000000000E+00 0.  1.
</event>
<event>
 7    1  0.7457412E-006  0.1528212E+03  0.7818608E-02  0.1271828E+00
          2   -1    0    0  502    0  0.00000000000E+00  0.00000000000E+00  0.19787354060E+04  0.19787354060E+04  0.00000000000E+00 0. -1.
          1   -1    0    0  501    0 -0.00000000000E+00 -0.00000000000E+00 -0.31561955710E+02  0.31561955710E+02  0.00000000000E+00 0. -1.
         25    2    1    2    0    0  0.12252593631E+02 -0.11291480117E+03  0.68879914766E+03  0.70920427120E+03  0.12500621618E+03 0.  0.
          2    1    1    2  501    0 -0.60041276548E+02  0.16537452516E+03  0.36798783790E+03  0.40788323979E+03  0.00000000000E+00 0. -1.
          1    1    1    2  502    0  0.47788682917E+02 -0.52459723988E+02  0.89038646470E+03  0.89320985069E+03  0.00000000000E+00 0. -1.
         22    1    3    3    0    0 -0.75620663968E+01 -0.12277232533E+03  0.37569216992E+03  0.39531612066E+03  0.00000000000E+00 0.  1.
         22    1    3    3    0    0  0.19814660028E+02  0.98575241524E+01  0.31310697774E+03  0.31388815054E+03  0.00000000000E+00 0.  1.
</event>
<event>
 7    1  0.7457412E-006  0.1298201E+03  0.7818608E-02  0.1272723E+00
          2   -1    0    0  502    0  0.00000000000E+00  0.00000000000E+00  0.19941370450E+03  0.19941370450E+03  0.00000000000E+00 0. -1.
          1   -1    0    0  501    0 -0.00000000000E+00 -0.00000000000E+00 -0.11380923322E+04  0.11380923322E+04  0.00000000000E+00 0. -1.
         25    2    1    2    0    0  0.33252768528E+02 -0.15687578771E+03 -0.20966108003E+03  0.29205272920E+03  0.12498507417E+03 0.  0.
          2    1    1    2  501    0 -0.87484764674E+02  0.94282956259E+02 -0.87134346217E+03  0.88078504129E+03  0.00000000000E+00 0. -1.
          1    1    1    2  502    0  0.54231996146E+02  0.62592831456E+02  0.14232591451E+03  0.16466826621E+03  0.00000000000E+00 0. -1.
         22    1    3    3    0    0  0.51038266823E+02 -0.30649418145E+02 -0.12661887219E+03  0.13991651192E+03  0.00000000000E+00 0. -1.
         22    1    3    3    0    0 -0.17785498294E+02 -0.12622636957E+03 -0.83042207834E+02  0.15213621727E+03  0.00000000000E+00 0. -1.
</event>
<event>
 7    1  0.7457412E-006  0.1117491E+03  0.7818608E-02  0.1279180E+00
          2   -1    0    0  502    0  0.00000000000E+00  0.00000000000E+00  0.87179726852E+03  0.87179726852E+03  0.00000000000E+00 0. -1.
          1   -1    0    0  501    0 -0.00000000000E+00 -0.00000000000E+00 -0.41695974154E+04  0.41695974154E+04  0.00000000000E+00 0. -1.
         25    2    1    2    0    0  0.19405206044E+03 -0.40228883127E+01 -0.15781502138E+04  0.15949469063E+04  0.12500060400E+03 0.  0.
          2    1    1    2  501    0 -0.86607158425E+02 -0.26055935559E+02 -0.25786480727E+04  0.25802336317E+04  0.00000000000E+00 0. -1.
          1    1    1    2  502    0 -0.10744490202E+03  0.30078823871E+02  0.85899813959E+03  0.86621414582E+03  0.00000000000E+00 0. -1.
         22    1    3    3    0    0  0.18831912220E+03  0.43147436374E+01 -0.15716992367E+04  0.15829469983E+04  0.00000000000E+00 0.  1.
         22    1    3    3    0    0  0.57329382479E+01 -0.83376319502E+01 -0.64509770687E+01  0.11999908026E+02  0.00000000000E+00 0.  1.
</event>
<event>
 7    1  0.7457412E-006  0.2075614E+03  0.7818608E-02  0.1364824E+00
          2   -1    0    0  502    0  0.00000000000E+00  0.00000000000E+00  0.27505733086E+04  0.27505733086E+04  0.00000000000E+00 0. -1.
          1   -1    0    0  501    0 -0.00000000000E+00 -0.00000000000E+00 -0.86979257755E+03  0.86979257755E+03  0.00000000000E+00 0. -1.
         25    2    1    2    0    0 -0.18410895504E+03  0.19739331480E+02  0.15803527279E+04  0.15960658930E+04  0.12500336620E+03 0.  0.
          2    1    1    2  501    0  0.20628061115E+03 -0.24564601857E+02 -0.84930551422E+03  0.87434259114E+03  0.00000000000E+00 0. -1.
          1    1    1    2  502    0 -0.22171656104E+02  0.48252703779E+01  0.11497335173E+04  0.11499574020E+04  0.00000000000E+00 0. -1.
         22    1    3    3    0    0  0.46149039485E+01  0.31906797005E+02  0.31729992354E+03  0.31893350798E+03  0.00000000000E+00 0.  1.
         22    1    3    3    0    0 -0.18872385899E+03 -0.12167465526E+02  0.12630528044E+04  0.12771323850E+04  0.00000000000E+00 0.  1.
</event>
<event>
 7    1  0.7457412E-006  0.2670254E+02  0.7818608E-02  0.1653535E+00
          2   -1    0    0  502    0  0.00000000000E+00  0.00000000000E+00  0.78296334566E+01  0.78296334566E+01  0.00000000000E+00 0. -1.
          1   -1    0    0  501    0 -0.00000000000E+00 -0.00000000000E+00 -0.13279029966E+04  0.13279029966E+04  0.00000000000E+00 0. -1.
         25    2    1    2    0    0 -0.27423484879E+02 -0.39508404984E+02 -0.89278324237E+03  0.90277174213E+03  0.12498775518E+03 0.  0.
          2    1    1    2  501    0  0.84228863096E+01  0.22905106999E+02 -0.36413088537E+03  0.36494779163E+03  0.00000000000E+00 0. -1.
          1    1    1    2  502    0  0.19000598569E+02  0.16603297986E+02 -0.63159235387E+02  0.68013096273E+02  0.00000000000E+00 0. -1.
         22    1    3    3    0    0 -0.77478248119E+02 -0.21455913368E+02 -0.50642451804E+03  0.51276605545E+03  0.00000000000E+00 0.  1.
         22    1    3    3    0    0  0.50054763240E+02 -0.18052491616E+02 -0.38635872434E+03  0.39000568669E+03  0.00000000000E+00 0.  1.
</event>
<event>
 7    1  0.7457412E-006  0.1600750E+03  0.7818608E-02  0.1265831E+00
          2   -1    0    0  502    0  0.00000000000E+00  0.00000000000E+00  0.21988571781E+03  0.21988571781E+03  0.00000000000E+00 0. -1.
          1   -1    0    0  501    0 -0.00000000000E+00 -0.00000000000E+00 -0.23480240108E+04  0.23480240108E+04  0.00000000000E+00 0. -1.
         25    2    1    2    0    0  0.10113681620E+03  0.15128807664E+03 -0.42678272364E+03  0.48050535954E+03  0.12500067849E+03 0.  0.
          2    1    1    2  501    0 -0.71595279199E+02  0.54138474776E+01 -0.18606350834E+04  0.18620198998E+04  0.00000000000E+00 0. -1.
          1    1    1    2  502    0 -0.29541536999E+02 -0.15670192411E+03  0.15927951399E+03  0.22538446931E+03  0.00000000000E+00 0. -1.
         22    1    3    3    0    0 -0.18429254077E+02  0.24011110782E+02 -0.15158223567E+03  0.15457472309E+03  0.00000000000E+00 0. -1.
         22    1    3    3    0    0  0.11956607028E+03  0.12727696586E+03 -0.27520048797E+03  0.32593063645E+03  0.00000000000E+00 0. -1.
</event>
<event>
 7    1  0.7457412E-006  0.2390988E+03  0.7818608E-02  0.1203939E+00
          2   -1    0    0  502    0  0.00000000000E+00  0.00000000000E+00  0.77132295289E+03  0.77132295289E+03  0.00000000000E+00 0. -1.
          1   -1    0    0  501    0 -0.00000000000E+00 -0.00000000000E+00 -0.53357261423E+03  0.53357261423E+03  0.00000000000E+00 0. -1.
         25    2    1    2    0    0 -0.22672010410E+03 -0.21467335115E+03  0.24073238947E+03  0.41359922205E+03  0.12500231935E+03 0.  0.
          2    1    1    2  501    0  0.14110748933E+03  0.18490490858E+03 -0.41158463309E+03  0.47276110136E+03  0.00000000000E+00 0. -1.
          1    1    1    2  502    0  0.85612614773E+02  0.29768442564E+02  0.40860258228E+03  0.41853524371E+03  0.00000000000E+00 0. -1.
         22    1    3    3    0    0 -0.16376607988E+03 -0.97105524542E+02  0.84818916337E+02  0.20842998916E+03  0.00000000000E+00 0. -1.
         22    1    3    3    0    0 -0.62954024227E+02 -0.11756782660E+03  0.15591347313E+03  0.20516923288E+03  0.00000000000E+00 0. -1.
</event>
<event>
 7    1  0.7457412E-006  0.5631300E+02  0.7818608E-02  0.1526704E+00
          2   -1    0    0  502    0  0.00000000000E+00  0.00000000000E+00  0.11215010289E+02  0.11215010289E+02  0.00000000000E+00 0. -1.
          1   -1    0    0  501    0 -0.00000000000E+00 -0.00000000000E+00 -0.26680185370E+04  0.26680185370E+04  0.00000000000E+00 0. -1.
         25    2    1    2    0    0  0.38959125189E+02  0.58073270609E+02 -0.54686094251E+03  0.56530747443E+03  0.12500132802E+03 0.  0.
          2    1    1    2  501    0 -0.22111366143E+02 -0.11872118335E+02 -0.17943038146E+04  0.17944793225E+04  0.00000000000E+00 0. -1.
          1    1    1    2  502    0 -0.16847759046E+02 -0.46201152274E+02 -0.31563876958E+03  0.31944675036E+03  0.00000000000E+00 0. -1.
         22    1    3    3    0    0  0.65189832993E+02  0.36546514415E+02 -0.50903346190E+03  0.51449045412E+03  0.00000000000E+00 0. -1.
         22    1    3    3    0    0 -0.26230707804E+02  0.21526756194E+02 -0.37827480609E+02  0.50817020312E+02  0.00000000000E+00 0. -1.
</event>
<event>
 7    1  0.7457412E-006  0.5733859E+02  0.7818608E-02  0.1431784E+00
          2   -1    0    0  502    0  0.00000000000E+00  0.00000000000E+00  0.19780318278E+03  0.19780318278E+03  0.00000000000E+00 0. -1.
          1   -1    0    0  501    0 -0.00000000000E+00 -0.00000000000E+00 -0.86307878102E+03  0.86307878102E+03  0.00000000000E+00 0. -1.
         25    2    1    2    0    0  0.13202678346E+02  0.14397417011E+02 -0.23278633812E+03  0.26494581644E+03  0.12500084039E+03 0.  0.
          2    1    1    2  501    0  0.44886155845E+02 -0.17726152999E+02 -0.60857551430E+03  0.61048598681E+03  0.00000000000E+00 0. -1.
          1    1    1    2  502    0 -0.58088834191E+02  0.33287359881E+01  0.17608625417E+03  0.18545016055E+03  0.00000000000E+00 0. -1.
         22    1    3    3    0    0 -0.19618455365E+02 -0.46278028138E+02 -0.14393298646E+03  0.15245735230E+03  0.00000000000E+00 0. -1.
         22    1    3    3    0    0  0.32821133712E+02  0.60675445149E+02 -0.88853351660E+02  0.11248846413E+03  0.00000000000E+00 0. -1.
</event>
<event>
 7    1  0.7457412E-006  0.9989293E+02  0.7818608E-02  0.1441261E+00
          2   -1    0    0  502    0  0.00000000000E+00  0.00000000000E+00  0.80742501774E+02  0.80742501774E+02  0.00000000000E+00 0. -1.
          1   -1    0    0  501    0 -0.00000000000E+00 -0.00000000000E+00 -0.63564973622E+03  0.63564973622E+03  0.00000000000E+00 0. -1.
         25    2    1    2    0    0 -0.43084220187E+02 -0.11525689582E+03 -0.34061455994E+03  0.38312496433E+03  0.12500423106E+03 0.  0.
          2    1    1    2  501    0  0.74445765110E+01  0.24700492670E+02 -0.23278372666E+03  0.23420887996E+03  0.00000000000E+00 0. -1.
          1    1    1    2  502    0  0.35639643676E+02  0.90556403154E+02  0.18491052151E+02  0.99058393704E+02  0.00000000000E+00 0. -1.
         22    1    3    3    0    0 -0.52787125244E+02 -0.13223827227E+02 -0.46215646718E+02  0.71394931190E+02  0.00000000000E+00 0. -1.
         22    1    3    3    0    0  0.97029050566E+01 -0.10203306860E+03 -0.29439891322E+03  0.31173003314E+03  0.00000000000E+00 0. -1.
</event>
<event>
 7    1  0.7457412E-006  0.3047642E+03  0.7818608E-02  0.1181901E+00
          2   -1    0    0  502    0  0.00000000000E+00  0.00000000000E+00  0.10130526389E+04  0.10130526389E+04  0.00000000000E+00 0. -1.
          1   -1    0    0  501    0 -0.00000000000E+00 -0.00000000000E+00 -0.12971001987E+04  0.12971001987E+04  0.00000000000E+00 0. -1.
         25    2    1    2    0    0  0.25984786214E+02 -0.23167612975E+03 -0.13009402293E+02  0.26484379841E+03  0.12499581914E+03 0.  0.
          2    1    1    2  501    0 -0.20985250764E+02 -0.88139832174E+02 -0.11274663270E+04  0.11311009368E+04  0.00000000000E+00 0. -1.
          1    1    1    2  502    0 -0.49995354502E+01  0.31981596192E+03  0.85642816947E+03  0.91420810230E+03  0.00000000000E+00 0. -1.
         22    1    3    3    0    0  0.96254811978E+01 -0.41739307172E+02  0.48328445973E+02  0.64579085947E+02  0.00000000000E+00 0. -1.
         22    1    3    3    0    0  0.16359305016E+02 -0.18993682257E+03 -0.61337848266E+02  0.20026471247E+03  0.00000000000E+00 0. -1.
</event>
<event>
 7    1  0.7457412E-006  0.1149831E+03  0.7818608E-02  0.1296105E+00
          2   -1    0    0  502    0  0.00000000000E+00  0.00000000000E+00  0.37202828209E+03  0.37202828209E+03  0.00000000000E+00 0. -1.
          1   -1    0    0  501    0 -0.00000000000E+00 -0.00000000000E+00 -0.13664135777E+04  0.13664135777E+04  0.00000000000E+00 0. -1.
         25    2    1    2    0    0 -0.90172507406E+01  0.45982100633E+02 -0.38381695188E+02  0.13890427368E+03  0.12500231331E+03 0.  0.
          2    1    1    2  501    0  0.54381850867E+02 -0.10566846791E+03 -0.12705929924E+04  0.12761386144E+04  0.00000000000E+00 0. -1.
          1    1    1    2  502    0 -0.45364600126E+02  0.59686367280E+02  0.31458939196E+03  0.32339897173E+03  0.00000000000E+00 0. -1.
         22    1    3    3    0    0 -0.57294680889E+02 -0.97869395510E+01 -0.62925786243E+01  0.58464187241E+02  0.00000000000E+00 0. -1.
         22    1    3    3    0    0  0.48277430149E+02  0.55769040184E+02 -0.32089116564E+02  0.80440086441E+02  0.00000000000E+00 0. -1.
</event>
<event>
 7    1  0.7457412E-006  0.1900667E+03  0.7818608E-02  0.1231711E+00
          2   -1    0    0  502    0  0.00000000000E+00  0.00000000000E+00  0.25727869922E+04  0.25727869922E+04  0.00000000000E+00 0. -1.
          1   -1    0    0  501    0 -0.00000000000E+00 -0.00000000000E+00 -0.43450005875E+04  0.43450005875E+04  0.00000000000E+00 0. -1.
         25    2    1    2    0    0  0.21834528508E+03 -0.55762479513E+02 -0.68512077165E+03  0.73198547880E+03  0.12501260648E+03 0.  0.
          2    1    1    2  501    0 -0.18642052854E+03 -0.23113342659E+02 -0.36333103563E+04  0.36381631334E+04  0.00000000000E+00 0. -1.
          1    1    1    2  502    0 -0.31924756536E+02  0.78875822173E+02  0.25462175326E+04  0.25476389675E+04  0.00000000000E+00 0. -1.
         22    1    3    3    0    0  0.21392994958E+03 -0.32540370829E+02 -0.66962625729E+03  0.70372169464E+03  0.00000000000E+00 0. -1.
         22    1    3    3    0    0  0.44153354979E+01 -0.23222108684E+02 -0.15494514368E+02  0.28263784156E+02  0.00000000000E+00 0. -1.
</event>
<event>
 7    1  0.7457412E-006  0.4996578E+02  0.7818608E-02  0.1473436E+00
          2   -1    0    0  502    0  0.00000000000E+00  0.00000000000E+00  0.22116973501E+03  0.22116973501E+03  0.00000000000E+00 0. -1.
          1   -1    0    0  501    0 -0.00000000000E+00 -0.00000000000E+00 -0.27636123642E+04  0.27636123642E+04  0.00000000000E+00 0. -1.
         25    2    1    2    0    0 -0.37105107720E+02 -0.37576008093E+02 -0.16025374443E+03  0.20998655559E+03  0.12499738206E+03 0.  0.
          2    1    1    2  501    0  0.50086528899E+02 -0.10932143351E+01 -0.25761270885E+04  0.25766141799E+04  0.00000000000E+00 0. -1.
          1    1    1    2  502    0 -0.12981421179E+02  0.38669222428E+02  0.19393820378E+03  0.19818136377E+03  0.00000000000E+00 0. -1.
         22    1    3    3    0    0  0.18095435865E+01 -0.24659122860E+02 -0.16666226645E+03  0.16848637288E+03  0.00000000000E+00 0. -1.
         22    1    3    3    0    0 -0.38914651307E+02 -0.12916885233E+02  0.64085220202E+01  0.41500182710E+02  0.00000000000E+00 0. -1.
</event>
<event>
 7    1  0.7457412E-006  0.8987746E+02  0.7818608E-02  0.1307881E+00
          2   -1    0    0  502    0  0.00000000000E+00  0.00000000000E+00  0.11177573831E+03  0.11177573831E+03  0.00000000000E+00 0. -1.
          1   -1    0    0  501    0 -0.00000000000E+00 -0.00000000000E+00 -0.26090424532E+04  0.26090424532E+04  0.00000000000E+00 0. -1.
         25    2    1    2    0    0  0.60509375100E+01 -0.17037579175E+03 -0.67109325053E+03  0.70360204372E+03  0.12500064305E+03 0.  0.
          2    1    1    2  501    0 -0.19513190348E+02  0.83832303360E+02 -0.19004371813E+04  0.19023853710E+04  0.00000000000E+00 0. -1.
          1    1    1    2  502    0  0.13462252838E+02  0.86543488391E+02  0.74263716975E+02  0.11483077677E+03  0.00000000000E+00 0. -1.
         22    1    3    3    0    0 -0.46934018293E+02 -0.10925119173E+03 -0.50563673253E+03  0.51942962012E+03  0.00000000000E+00 0. -1.
         22    1    3    3    0    0  0.52984955803E+02 -0.61124600019E+02 -0.16545651800E+03  0.18417242360E+03  0.00000000000E+00 0. -1.
</event>
<event>
 7    1  0.7457412E-006  0.7213526E+02  0.7818608E-02  0.1379004E+00
          2   -1    0    0  502    0  0.00000000000E+00  0.00000000000E+00  0.16528391549E+03  0.16528391549E+03  0.00000000000E+00 0. -1.
          1   -1    0    0  501    0 -0.00000000000E+00 -0.00000000000E+00 -0.10056068968E+04  0.10056068968E+04  0.00000000000E+00 0. -1.
         25    2    1    2    0    0  0.27742309893E+02  0.38571405162E+02  0.47332760290E+02  0.14185570933E+03  0.12500105206E+03 0.  0.
          2    1    1    2  501    0  0.42587446513E+02 -0.58222031123E+02 -0.93772470974E+03  0.94049514978E+03  0.00000000000E+00 0. -1.
          1    1    1    2  502    0 -0.70329756406E+02  0.19650625961E+02  0.50068968153E+02  0.88539953178E+02  0.00000000000E+00 0. -1.
         22    1    3    3    0    0  0.65462356509E+02  0.59364752518E+02  0.43825237902E+02  0.98641499575E+02  0.00000000000E+00 0. -1.
         22    1    3    3    0    0 -0.37720046616E+02 -0.20793347356E+02  0.35075223877E+01  0.43214209750E+02  0.00000000000E+00 0. -1.
</event>
<event>
 7    1  0.7457412E-006  0.3777904E+02  0.7818608E-02  0.1549190E+00
          2   -1    0    0  502    0  0.00000000000E+00  0.00000000000E+00  0.14697243945E+04  0.14697243945E+04  0.00000000000E+00 0. -1.
          1   -1    0    0  501    0 -0.00000000000E+00 -0.00000000000E+00 -0.48276437122E+03  0.48276437122E+03  0.00000000000E+00 0. -1.
         25    2    1    2    0    0 -0.70272732123E-01  0.67647133542E+01  0.10195020172E+04  0.10271598782E+04  0.12500914373E+03 0.  0.
          2    1    1    2  501    0  0.37516952964E+02  0.44423003433E+01 -0.47733199343E+03  0.47882469416E+03  0.00000000000E+00 0. -1.
          1    1    1    2  502    0 -0.37446680232E+02 -0.11207013697E+02  0.44478999953E+03  0.44650419338E+03  0.00000000000E+00 0. -1.
         22    1    3    3    0    0  0.14604004656E+02  0.57664640049E+02  0.30820185133E+03  0.31388989921E+03  0.00000000000E+00 0.  1.
         22    1    3    3    0    0 -0.14674277388E+02 -0.50899926695E+02  0.71130016589E+03  0.71326997900E+03  0.00000000000E+00 0.  1.
</event>
<event>
 7    1  0.7457412E-006  0.3879571E+02  0.7818608E-02  0.1561913E+00
          2   -1    0    0  502    0  0.00000000000E+00  0.00000000000E+00  0.43987601367E+02  0.43987601367E+02  0.00000000000E+00 0. -1.
          1   -1    0    0  501    0 -0.00000000000E+00 -0.00000000000E+00 -0.98009110091E+03  0.98009110091E+03  0.00000000000E+00 0. -1.
         25    2    1    2    0    0 -0.62070146656E+02  0.19161182017E+02 -0.10209262976E+03  0.17397497656E+03  0.12499813364E+03 0.  0.
          2    1    1    2  501    0  0.33069803122E+02 -0.19689044425E+02 -0.81389796933E+03  0.81480744647E+03  0.00000000000E+00 0. -1.
          1    1    1    2  502    0  0.29000343534E+02  0.52786240760E+00 -0.20112900446E+02  0.35296279240E+02  0.00000000000E+00 0. -1.
         22    1    3    3    0    0 -0.45792757197E+02 -0.42984352203E+02 -0.13001999286E+02  0.64138000682E+02  0.00000000000E+00 0.  1.
         22    1    3    3    0    0 -0.16277389459E+02  0.62145534221E+02 -0.89090630475E+02  0.10983697588E+03  0.00000000000E+00 0.  1.
</event>
<event>
 7    1  0.1222151E-005  0.1335908E+03  0.7818608E-02  0.1315469E+00
          2   -1    0    0  502    0  0.00000000000E+00  0.00000000000E+00  0.16168582104E+04  0.16168582104E+04  0.00000000000E+00 0. -1.
          1   -1    0    0  501    0 -0.00000000000E+00 -0.00000000000E+00 -0.15801432396E+04  0.15801432396E+04  0.00000000000E+00 0. -1.
         25    2    1    2    0    0 -0.17674901318E+03 -0.21148530564E+02 -0.35963353419E+03  0.42029389957E+03  0.12499283618E+03 0.  0.
          2    1    1    2  501    0  0.12863542860E+03 -0.35119655736E+01 -0.11862382124E+04  0.11931975963E+04  0.00000000000E+00 0. -1.
          1    1    1    2  502    0  0.48113584583E+02  0.24660496138E+02  0.15825867173E+04  0.15835099541E+04  0.00000000000E+00 0. -1.
         22    1    3    3    0    0 -0.50028230356E+01  0.52973481732E+01  0.96949086088E+01  0.12127711611E+02  0.00000000000E+00 0.  1.
         22    1    3    3    0    0 -0.17174619015E+03 -0.26445878737E+02 -0.36932844279E+03  0.40816618795E+03  0.00000000000E+00 0.  1.
</event>
<event>
 7    1  0.7457412E-006  0.1141154E+03  0.7818608E-02  0.1337102E+00
          2   -1    0    0  502    0  0.00000000000E+00  0.00000000000E+00  0.14079535727E+04  0.14079535727E+04  0.00000000000E+00 0. -1.
          1   -1    0    0  501    0 -0.00000000000E+00 -0.00000000000E+00 -0.29689512298E+03  0.29689512298E+03  0.00000000000E+00 0. -1.
         25    2    1    2    0    0  0.40030181160E+02 -0.67432445135E+02  0.43814710255E+02  0.15393375479E+03  0.12500528776E+03 0.  0.
          2    1    1    2  501    0 -0.22334399463E+02 -0.47254326965E+02 -0.23640384548E+03  0.24211273195E+03  0.00000000000E+00 0. -1.
          1    1    1    2  502    0 -0.17695781697E+02  0.11468677210E+03  0.13036475850E+04  0.13088022090E+04  0.00000000000E+00 0. -1.
         22    1    3    3    0    0 -0.36195016240E+02 -0.17108468962E+02 -0.17740358965E+02  0.43789259494E+02  0.00000000000E+00 0. -1.
         22    1    3    3    0    0  0.76225197400E+02 -0.50323976173E+02  0.61555069219E+02  0.11014449529E+03  0.00000000000E+00 0. -1.
</event>
<event>
 7    1  0.7457412E-006  0.7965845E+02  0.7818608E-02  0.1432982E+00
          2   -1    0    0  502    0  0.00000000000E+00  0.00000000000E+00  0.81595373491E+03  0.81595373491E+03  0.00000000000E+00 0. -1.
          1   -1    0    0  501    0 -0.00000000000E+00 -0.00000000000E+00 -0.21685667442E+04  0.21685667442E+04  0.00000000000E+00 0. -1.
         25    2    1    2    0    0 -0.60371437135E+02 -0.18422598653E+01 -0.80472340125E+02  0.16046585411E+03  0.12500155386E+03 0.  0.
          2    1    1    2  501    0 -0.12090204957E+02 -0.32231507651E+02 -0.20458867206E+04  0.20461763161E+04  0.00000000000E+00 0. -1.
          1    1    1    2  502    0  0.72461642092E+02  0.34073767516E+02  0.77374605146E+03  0.77787830884E+03  0.00000000000E+00 0. -1.
         22    1    3    3    0    0 -0.25610715918E+02  0.21272784531E+02  0.28465762175E+02  0.43803421644E+02  0.00000000000E+00 0.  1.
         22    1    3    3    0    0 -0.34760721216E+02 -0.23115044396E+02 -0.10893810230E+03  0.11666243247E+03  0.00000000000E+00 0.  1.
</event>
<event>
 7    1  0.7457412E-006  0.3282772E+02  0.7818608E-02  0.1581252E+00
          2   -1    0    0  502    0  0.00000000000E+00  0.00000000000E+00  0.83018393388E+03  0.83018393388E+03  0.00000000000E+00 0. -1.
          1   -1    0    0  501    0 -0.00000000000E+00 -0.00000000000E+00 -0.41269898994E+02  0.41269898994E+02  0.00000000000E+00 0. -1.
         25    2    1    2    0    0 -0.28478479320E+02 -0.60522497286E+00  0.17078381832E+03  0.21354682511E+03  0.12499497523E+03 0.  0.
          2    1    1    2  501    0  0.11702263645E+02 -0.28035670889E+02 -0.75845979840E+01  0.31312424742E+02  0.00000000000E+00 0. -1.
          1    1    1    2  502    0  0.16776215674E+02  0.28640895862E+02  0.62571481454E+03  0.62659458302E+03  0.00000000000E+00 0. -1.
         22    1    3    3    0    0  0.33525514222E+02 -0.26941875799E+02  0.18101414730E+02  0.46663540271E+02  0.00000000000E+00 0. -1.
         22    1    3    3    0    0 -0.62003993541E+02  0.26336650826E+02  0.15268240359E+03  0.16688328484E+03  0.00000000000E+00 0. -1.
</event>
<event>
 7    1  0.7457412E-006  0.8270474E+02  0.7818608E-02  0.1359592E+00
          2   -1    0    0  502    0  0.00000000000E+00  0.00000000000E+00  0.16935964170E+04  0.16935964170E+04  0.00000000000E+00 0. -1.
          1   -1    0    0  501    0 -0.00000000000E+00 -0.00000000000E+00 -0.58656026105E+02  0.58656026105E+02  0.00000000000E+00 0. -1.
         25    2    1    2    0    0  0.13267180318E+03  0.37373925523E+02  0.28814824133E+03  0.34300575862E+03  0.12499969517E+03 0.  0.
          2    1    1    2  501    0 -0.52975117377E+02 -0.27083426460E+02 -0.56082090831E+00  0.59499492183E+02  0.00000000000E+00 0. -1.
          1    1    1    2  502    0 -0.79696685804E+02 -0.10290499063E+02  0.13473529705E+04  0.13497471923E+04  0.00000000000E+00 0. -1.
         22    1    3    3    0    0  0.16726115358E+02 -0.40667506971E+02  0.94069187729E+02  0.10383940070E+03  0.00000000000E+00 0. -1.
         22    1    3    3    0    0  0.11594568782E+03  0.78041432493E+02  0.19407905360E+03  0.23916635791E+03  0.00000000000E+00 0. -1.
</event>
<event>
 7    1  0.7457412E-006  0.1089367E+03  0.7818608E-02  0.1462120E+00
          2   -1    0    0  502    0  0.00000000000E+00  0.00000000000E+00  0.11433771438E+03  0.11433771438E+03  0.00000000000E+00 0. -1.
          1   -1    0    0  501    0 -0.00000000000E+00 -0.00000000000E+00 -0.45491697336E+03  0.45491697336E+03  0.00000000000E+00 0. -1.
         25    2    1    2    0    0  0.37488532674E+01 -0.93520252594E+02 -0.13209764884E+03  0.20453565507E+03  0.12499981528E+03 0.  0.
          2    1    1    2  501    0 -0.71730611873E+01  0.11352308649E+03 -0.27371071403E+03  0.29640596982E+03  0.00000000000E+00 0. -1.
          1    1    1    2  502    0  0.34242079199E+01 -0.20002833893E+02  0.65229103880E+02  0.68313062855E+02  0.00000000000E+00 0. -1.
         22    1    3    3    0    0  0.23764226393E+02  0.23849362286E+02 -0.48556069867E+02  0.59086567496E+02  0.00000000000E+00 0.  1.
         22    1    3    3    0    0 -0.20015373125E+02 -0.11736961488E+03 -0.83541578972E+02  0.14544908757E+03  0.00000000000E+00 0.  1.
</event>
<event>
 7    1  0.7457412E-006  0.2931357E+02  0.7818608E-02  0.1652374E+00
          2   -1    0    0  502    0  0.00000000000E+00  0.00000000000E+00  0.18562010898E+04  0.18562010898E+04  0.00000000000E+00 0. -1.
          1   -1    0    0  501    0 -0.00000000000E+00 -0.00000000000E+00 -0.65491782981E+03  0.65491782981E+03  0.00000000000E+00 0. -1.
         25    2    1    2    0    0  0.33819326784E+02 -0.19509237081E+02  0.14423752564E+03  0.19481582342E+03  0.12499753620E+03 0.  0.
          2    1    1    2  501    0 -0.46173760366E+01  0.21895018244E+02 -0.62930257389E+03  0.62970027910E+03  0.00000000000E+00 0. -1.
          1    1    1    2  502    0 -0.29201950748E+02 -0.23857811627E+01  0.16863483082E+04  0.16866028171E+04  0.00000000000E+00 0. -1.
         22    1    3    3    0    0  0.13327336525E+02  0.50440044122E+02  0.89750582672E+02  0.10381224899E+03  0.00000000000E+00 0.  1.
         22    1    3    3    0    0  0.20491990259E+02 -0.69949281203E+02  0.54486942963E+02  0.91003574430E+02  0.00000000000E+00 0.  1.
</event>
<event>
 7    1  0.7457412E-006  0.6234627E+02  0.7818608E-02  0.1488253E+00
          2   -1    0    0  502    0  0.00000000000E+00  0.00000000000E+00  0.27528145144E+04  0.27528145144E+04  0.00000000000E+00 0. -1.
          1   -1    0    0  501    0 -0.00000000000E+00 -0.00000000000E+00 -0.82197623520E+02  0.82197623520E+02  0.00000000000E+00 0. -1.
         25    2    1    2    0    0 -0.81506452021E+02 -0.28735916456E+02  0.59085016380E+03  0.61008112604E+03  0.12500403860E+03 0.  0.
          2    1    1    2  501    0  0.20666001381E+02  0.20974818150E+02 -0.69140115495E+02  0.75149066396E+02  0.00000000000E+00 0. -1.
          1    1    1    2  502    0  0.60840450641E+02  0.77610983066E+01  0.21489068426E+04  0.21497819455E+04  0.00000000000E+00 0. -1.
         22    1    3    3    0    0 -0.22783657529E+02 -0.14822532342E+02  0.50164067776E+03  0.50237652423E+03  0.00000000000E+00 0. -1.
         22    1    3    3    0    0 -0.58722794492E+02 -0.13913384114E+02  0.89209486042E+02  0.10770460181E+03  0.00000000000E+00 0. -1.
</event>
<event>
 7    1  0.7457412E-006  0.3516875E+02  0.7818608E-02  0.1606592E+00
          2   -1    0    0  502    0  0.00000000000E+00  0.00000000000E+00  0.72651302569E+03  0.72651302569E+03  0.00000000000E+00 0. -1.
          1   -1    0    0  501    0 -0.00000000000E+00 -0.00000000000E+00 -0.49047779285E+02  0.49047779285E+02  0.00000000000E+00 0. -1.
         25    2    1    2    0    0  0.85166449987E+01  0.92270748554E+01  0.23440709782E+03  0.26595246808E+03  0.12500542234E+03 0.  0.
          2    1    1    2  501    0 -0.15853922866E+02 -0.32412181736E+02 -0.23082760506E+02  0.42833517573E+02  0.00000000000E+00 0. -1.
          1    1    1    2  502    0  0.73372778673E+01  0.23185106880E+02  0.46614090910E+03  0.46677481933E+03  0.00000000000E+00 0. -1.
         22    1    3    3    0    0 -0.45296986796E+02 -0.19447336160E+02  0.17108194906E+03  0.17804226799E+03  0.00000000000E+00 0.  1.
         22    1    3    3    0    0  0.53813631795E+02  0.28674411015E+02  0.63325148760E+02  0.87910200088E+02  0.00000000000E+00 0.  1.
</event>
<event>
 7    1  0.7457412E-006  0.6179735E+02  0.7818608E-02  0.1427712E+00
          2   -1    0    0  502    0  0.00000000000E+00  0.00000000000E+00  0.42242323468E+03  0.42242323468E+03  0.00000000000E+00 0. -1.
          1   -1    0    0  501    0 -0.00000000000E+00 -0.00000000000E+00 -0.53951264863E+03  0.53951264863E+03  0.00000000000E+00 0. -1.
         25    2    1    2    0    0 -0.87075505567E+01 -0.16220383891E+02 -0.12296731240E+01  0.12635537045E+03  0.12500098102E+03 0.  0.
          2    1    1    2  501    0 -0.34726478073E+02 -0.30444014015E+02 -0.47176035728E+03  0.47401540162E+03  0.00000000000E+00 0. -1.
          1    1    1    2  502    0  0.43434028629E+02  0.46664397906E+02  0.35590061645E+03  0.36156511124E+03  0.00000000000E+00 0. -1.
         22    1    3    3    0    0 -0.14395183167E+02 -0.70189592267E+02  0.44637455563E+01  0.71789450377E+02  0.00000000000E+00 0. -1.
         22    1    3    3    0    0  0.56876326106E+01  0.53969208377E+02 -0.56934186803E+01  0.54565920076E+02  0.00000000000E+00 0. -1.
</event>
<event>
 7    1  0.7457412E-006  0.6763794E+02  0.7818608E-02  0.1430688E+00
          2   -1    0    0  502    0  0.00000000000E+00  0.00000000000E+00  0.21694853805E+04  0.21694853805E+04  0.00000000000E+00 0. -1.
          1   -1    0    0  501    0 -0.00000000000E+00 -0.00000000000E+00 -0.89330740055E+02  0.89330740055E+02  0.00000000000E+00 0. -1.
         25    2    1    2    0    0 -0.33993893737E+02 -0.25514310180E+02  0.36702993318E+03  0.39005311216E+03  0.12499557441E+03 0.  0.
          2    1    1    2  501    0 -0.35385343884E+02  0.21203055591E+02 -0.71627788605E+02  0.82657318059E+02  0.00000000000E+00 0. -1.
          1    1    1    2  502    0  0.69379237621E+02  0.43112545884E+01  0.17847524958E+04  0.17861056903E+04  0.00000000000E+00 0. -1.
         22    1    3    3    0    0 -0.59512445906E+02 -0.61780650771E+02  0.27156858033E+03  0.28479479252E+03  0.00000000000E+00 0. -1.
         22    1    3    3    0    0  0.25518552168E+02  0.36266340591E+02  0.95461352856E+02  0.10525831964E+03  0.00000000000E+00 0. -1.
</event>
<event>
 7    1  0.8178132E-006  0.1346886E+03  0.7818608E-02  0.1298626E+00
          2   -1    0    0  502    0  0.00000000000E+00  0.00000000000E+00  0.28978215037E+04  0.28978215037E+04  0.00000000000E+00 0. -1.
          1   -1    0    0  501    0 -0.00000000000E+00 -0.00000000000E+00 -0.14032197727E+04  0.14032197727E+04  0.00000000000E+00 0. -1.
         25    2    1    2    0    0 -0.12202902917E+03  0.80360780461E+02 -0.18322618847E+03  0.26561290941E+03  0.12501776878E+03 0.  0.
          2    1    1    2  501    0 -0.11348413163E+02 -0.61486270347E+02 -0.11763815060E+04  0.11780419328E+04  0.00000000000E+00 0. -1.
          1    1    1    2  502    0  0.13337744233E+03 -0.18874510115E+02  0.28542094255E+04  0.28573864341E+04  0.00000000000E+00 0. -1.
         22    1    3    3    0    0 -0.14720820990E+03  0.56870574354E+02 -0.14803410797E+03  0.21637609945E+03  0.00000000000E+00 0. -1.
         22    1    3    3    0    0  0.25179180737E+02  0.23490206107E+02 -0.35192080501E+02  0.49236809965E+02  0.00000000000E+00 0. -1.
</event>
<event>
 7    1  0.7457412E-006  0.9183083E+02  0.7818608E-02  0.1453256E+00
          2   -1    0    0  502    0  0.00000000000E+00  0.00000000000E+00  0.23666133212E+04  0.23666133212E+04  0.00000000000E+00 0. -1.
          1   -1    0    0  501    0 -0.00000000000E+00 -0.00000000000E+00 -0.58689256464E+02  0.58689256464E+02  0.00000000000E+00 0. -1.
         25    2    1    2    0    0 -0.28824305476E+02 -0.61189249987E+02  0.14343796687E+04  0.14414040853E+04  0.12500295349E+03 0.  0.
          2    1    1    2  501    0  0.32447373278E+02  0.86612826979E+02 -0.16101332691E+02  0.93882196099E+02  0.00000000000E+00 0. -1.
          1    1    1    2  502    0 -0.36230678023E+01 -0.25423576992E+02  0.88964572870E+03  0.89001629619E+03  0.00000000000E+00 0. -1.
         22    1    3    3    0    0 -0.75160136068E+02 -0.17176090135E+02  0.69315629130E+03  0.69743079105E+03  0.00000000000E+00 0.  1.
         22    1    3    3    0    0  0.46335830592E+02 -0.44013159852E+02  0.74122337739E+03  0.74397329430E+03  0.00000000000E+00 0.  1.
</event>
<event>
 7    1  0.7457412E-006  0.2884072E+02  0.7818608E-02  0.1669498E+00
          2   -1    0    0  502    0  0.00000000000E+00  0.00000000000E+00  0.12055681044E+04  0.12055681044E+04  0.00000000000E+00 0. -1.
          1   -1    0    0  501    0 -0.00000000000E+00 -0.00000000000E+00 -0.66388288833E+02  0.66388288833E+02  0.00000000000E+00 0. -1.
         25    2    1    2    0    0  0.25506033787E+01 -0.80418788343E+01  0.19668012466E+03  0.23319346254E+03  0.12499976856E+03 0.  0.
          2    1    1    2  501    0  0.42190020383E+01 -0.20239217901E+02 -0.45687728095E+02  0.50147725950E+02  0.00000000000E+00 0. -1.
          1    1    1    2  502    0 -0.67696054170E+01  0.28281096735E+02  0.98818741901E+03  0.98861520476E+03  0.00000000000E+00 0. -1.
         22    1    3    3    0    0  0.63685039332E+02 -0.74013218155E+01  0.98012924274E+02  0.11712001163E+03  0.00000000000E+00 0.  1.
         22    1    3    3    0    0 -0.61134435954E+02 -0.64055701882E+00  0.98667200391E+02  0.11607345091E+03  0.00000000000E+00 0.  1.
</event>
<event>
 7    1  0.7457412E-006  0.1091929E+03  0.7818608E-02  0.1348355E+00
          2   -1    0    0  502    0  0.00000000000E+00  0.00000000000E+00  0.41307910360E+03  0.41307910360E+03  0.00000000000E+00 0. -1.
          1   -1    0    0  501    0 -0.00000000000E+00 -0.00000000000E+00 -0.71682136243E+03  0.71682136243E+03  0.00000000000E+00 0. -1.
         25    2    1    2    0    0  0.57063981097E+02  0.27869070599E+02 -0.11733215279E+03  0.18282325632E+03  0.12499810374E+03 0.  0.
          2    1    1    2  501    0  0.49063569219E+02  0.70654547094E+01 -0.55741438589E+03  0.55961410996E+03  0.00000000000E+00 0. -1.
          1    1    1    2  502    0 -0.10612755032E+03 -0.34934525308E+02  0.37100427985E+03  0.38746309974E+03  0.00000000000E+00 0. -1.
         22    1    3    3    0    0 -0.87088711684E+00 -0.18631440284E+02  0.19588290956E+02  0.27047923285E+02  0.00000000000E+00 0. -1.
         22    1    3    3    0    0  0.57934868214E+02  0.46500510883E+02 -0.13692044375E+03  0.15577533304E+03  0.00000000000E+00 0. -1.
</event>
<event>
 7    1  0.7457412E-006  0.1024905E+03  0.7818608E-02  0.1411350E+00
          2   -1    0    0  502    0  0.00000000000E+00  0.00000000000E+00  0.29323790802E+04  0.29323790802E+04  0.00000000000E+00 0. -1.
          1   -1    0    0  501    0 -0.00000000000E+00 -0.00000000000E+00 -0.13643422790E+04  0.13643422790E+04  0.00000000000E+00 0. -1.
         25    2    1    2    0    0 -0.67748222217E+02  0.11063721857E+03 -0.19386951385E+03  0.26465267684E+03  0.12500094085E+03 0.  0.
          2    1    1    2  501    0  0.26726628708E+02 -0.16826323185E+02 -0.11339565868E+04  0.11343963058E+04  0.00000000000E+00 0. -1.
          1    1    1    2  502    0  0.41021593509E+02 -0.93810895385E+02  0.28958629019E+04  0.28976723765E+04  0.00000000000E+00 0. -1.
         22    1    3    3    0    0 -0.93749795126E+02  0.46487533319E+02 -0.81337720121E+02  0.13253655931E+03  0.00000000000E+00 0. -1.
         22    1    3    3    0    0  0.26001572908E+02  0.64149685251E+02 -0.11253179373E+03  0.13211611753E+03  0.00000000000E+00 0. -1.
</event>
<event>
 7    1  0.7457412E-006  0.1846065E+03  0.7818608E-02  0.1364120E+00
          2   -1    0    0  502    0  0.00000000000E+00  0.00000000000E+00  0.43552025083E+03  0.43552025083E+03  0.00000000000E+00 0. -1.
          1   -1    0    0  501    0 -0.00000000000E+00 -0.00000000000E+00 -0.57526716393E+03  0.57526716393E+03  0.00000000000E+00 0. -1.
         25    2    1    2    0    0 -0.17676612491E+03 -0.97011040279E+02  0.14107109072E+03  0.27601269444E+03  0.12499820000E+03 0.  0.
          2    1    1    2  501    0  0.15176911975E+03  0.10281794495E+03 -0.49044361581E+03  0.52358412486E+03  0.00000000000E+00 0. -1.
          1    1    1    2  502    0  0.24997005166E+02 -0.58069046682E+01  0.20962561199E+03  0.21119059546E+03  0.00000000000E+00 0. -1.
         22    1    3    3    0    0 -0.12134482544E+03  0.34765247854E+01  0.59314478632E+02  0.13511054830E+03  0.00000000000E+00 0. -1.
         22    1    3    3    0    0 -0.55421299472E+02 -0.10048756506E+03  0.81756612087E+02  0.14090214614E+03  0.00000000000E+00 0. -1.
</event>
<event>
 7    1  0.7457412E-006  0.1049967E+03  0.7818608E-02  0.1423670E+00
          2   -1    0    0  502    0  0.00000000000E+00  0.00000000000E+00  0.12862807152E+03  0.12862807152E+03  0.00000000000E+00 0. -1.
          1   -1    0    0  501    0 -0.00000000000E+00 -0.00000000000E+00 -0.83467454604E+03  0.83467454604E+03  0.00000000000E+00 0. -1.
         25    2    1    2    0    0 -0.71448886545E+02 -0.50572568467E+02 -0.35297919101E+03  0.38455448623E+03  0.12500126209E+03 0.  0.
          2    1    1    2  501    0  0.99335682612E+02  0.53422342848E+02 -0.45720072085E+03  0.47090765942E+03  0.00000000000E+00 0. -1.
          1    1    1    2  502    0 -0.27886796067E+02 -0.28497743803E+01  0.10413343734E+03  0.10784047191E+03  0.00000000000E+00 0. -1.
         22    1    3    3    0    0 -0.55241941803E+02 -0.68109171024E+02 -0.34960783616E+03  0.36043885809E+03  0.00000000000E+00 0.  1.
         22    1    3    3    0    0 -0.16206944742E+02  0.17536602557E+02 -0.33713548426E+01  0.24115628140E+02  0.00000000000E+00 0.  1.
</event>
<event>
 7    1  0.7457412E-006  0.2199564E+03  0.7818608E-02  0.1286596E+00
          2   -1    0    0  502    0  0.00000000000E+00  0.00000000000E+00  0.70674536555E+03  0.70674536555E+03  0.00000000000E+00 0. -1.
          1   -1    0    0  501    0 -0.00000000000E+00 -0.00000000000E+00 -0.10470142214E+04  0.10470142214E+04  0.00000000000E+00 0. -1.
         25    2    1    2    0    0  0.63729694857E+02  0.20861874527E+03  0.18788216594E+03  0.31385826324E+03  0.12499618491E+03 0.  0.
          2    1    1    2  501    0 -0.22204230179E+02 -0.21911867162E+03 -0.97065577606E+03  0.99532841600E+03  0.00000000000E+00 0. -1.
          1    1    1    2  502    0 -0.41525464678E+02  0.10499926349E+02  0.44250475430E+03  0.44457290768E+03  0.00000000000E+00 0. -1.
         22    1    3    3    0    0  0.26467298371E+02  0.60971765826E+02  0.13875394634E+03  0.15385295492E+03  0.00000000000E+00 0. -1.
         22    1    3    3    0    0  0.37262396486E+02  0.14764697945E+03  0.49128219596E+02  0.16000530832E+03  0.00000000000E+00 0. -1.
</event>
<event>
 7    1  0.7457412E-006  0.1232320E+03  0.7818608E-02  0.1298112E+00
          2   -1    0    0  502    0  0.00000000000E+00  0.00000000000E+00  0.84277404403E+03  0.84277404403E+03  0.00000000000E+00 0. -1.
          1   -1    0    0  501    0 -0.00000000000E+00 -0.00000000000E+00 -0.78944915361E+03  0.78944915361E+03  0.00000000000E+00 0. -1.
         25    2    1    2    0    0  0.15121562875E+03 -0.96343024640E+02 -0.15200070100E+02  0.21909872555E+03  0.12500025852E+03 0.  0.
          2    1    1    2  501    0 -0.11419098769E+03  0.38517487355E+02 -0.66528357688E+03  0.67611050589E+03  0.00000000000E+00 0. -1.
          1    1    1    2  502    0 -0.37024641067E+02  0.57825537285E+02  0.73380853740E+03  0.73701396620E+03  0.00000000000E+00 0. -1.
         22    1    3    3    0    0  0.27893965390E+02 -0.47152425173E+02 -0.57822590860E+02  0.79654733185E+02  0.00000000000E+00 0. -1.
         22    1    3    3    0    0  0.12332166336E+03 -0.49190599467E+02  0.42622520761E+02  0.13944399237E+03  0.00000000000E+00 0. -1.
</event>
<event>
 7    1  0.7457412E-006  0.1230359E+03  0.7818608E-02  0.1270309E+00
          2   -1    0    0  502    0  0.00000000000E+00  0.00000000000E+00  0.64475273873E+03  0.64475273873E+03  0.00000000000E+00 0. -1.
          1   -1    0    0  501    0 -0.00000000000E+00 -0.00000000000E+00 -0.61485286346E+03  0.61485286346E+03  0.00000000000E+00 0. -1.
         25    2    1    2    0    0 -0.13957187843E+03 -0.11996171904E+02  0.16318667504E+03  0.24875767866E+03  0.12500509748E+03 0.  0.
          2    1    1    2  501    0  0.49536497220E+02 -0.74473556056E+02 -0.55956435935E+03  0.56666784571E+03  0.00000000000E+00 0. -1.
          1    1    1    2  502    0  0.90035381208E+02  0.86469727960E+02  0.42627755959E+03  0.44418007782E+03  0.00000000000E+00 0. -1.
         22    1    3    3    0    0 -0.15048931912E+03 -0.43661267105E+00  0.17360228281E+03  0.22974981697E+03  0.00000000000E+00 0. -1.
         22    1    3    3    0    0  0.10917440688E+02 -0.11559559233E+02 -0.10415607776E+02  0.19007861694E+02  0.00000000000E+00 0. -1.
</event>
<event>
 7    1  0.7457412E-006  0.7890352E+02  0.7818608E-02  0.1448183E+00
          2   -1    0    0  502    0  0.00000000000E+00  0.00000000000E+00  0.13393121687E+03  0.13393121687E+03  0.00000000000E+00 0. -1.
          1   -1    0    0  501    0 -0.00000000000E+00 -0.00000000000E+00 -0.35859734265E+03  0.35859734265E+03  0.00000000000E+00 0. -1.
         25    2    1    2    0    0 -0.10634008935E+02  0.72896663768E+02 -0.25855167787E+03  0.29648141595E+03  0.12500101655E+03 0.  0.
          2    1    1    2  501    0  0.41189685120E+02 -0.78272369172E+02 -0.53463896467E+02  0.10335154649E+03  0.00000000000E+00 0. -1.
          1    1    1    2  502    0 -0.30555676185E+02  0.53757054042E+01  0.87349448559E+02  0.92695597087E+02  0.00000000000E+00 0. -1.
         22    1    3    3    0    0  0.17611073453E+02  0.52328830788E+02 -0.25551185652E+03  0.26140919123E+03  0.00000000000E+00 0.  1.
         22    1    3    3    0    0 -0.28245082388E+02  0.20567832980E+02 -0.30398213504E+01  0.35072224715E+02  0.00000000000E+00 0.  1.
</event>
<event>
 7    1  0.7457412E-006  0.4288211E+02  0.7818608E-02  0.1564564E+00
          2   -1    0    0  502    0  0.00000000000E+00  0.00000000000E+00  0.20004954643E+03  0.20004954643E+03  0.00000000000E+00 0. -1.
          1   -1    0    0  501    0 -0.00000000000E+00 -0.00000000000E+00 -0.79226196001E+03  0.79226196001E+03  0.00000000000E+00 0. -1.
         25    2    1    2    0    0 -0.11869701452E+02 -0.33860257619E+02  0.77876316893E+02  0.15157760003E+03  0.12499456483E+03 0.  0.
          2    1    1    2  501    0 -0.12939555816E+02  0.40962445827E+02 -0.75283366697E+03  0.75405827639E+03  0.00000000000E+00 0. -1.
          1    1    1    2  502    0  0.24809257268E+02 -0.71021882083E+01  0.82744936501E+02  0.86675630024E+02  0.00000000000E+00 0. -1.
         22    1    3    3    0    0  0.37091587088E+02  0.19143294886E+02  0.66522123504E+02  0.78533078936E+02  0.00000000000E+00 0.  1.
         22    1    3    3    0    0 -0.48961288540E+02 -0.53003552505E+02  0.11354193389E+02  0.73044521089E+02  0.00000000000E+00 0.  1.
</event>
<event>
 7    1  0.7457412E-006  0.1208977E+03  0.7818608E-02  0.1321432E+00
          2   -1    0    0  502    0  0.00000000000E+00  0.00000000000E+00  0.14743299781E+03  0.14743299781E+03  0.00000000000E+00 0. -1.
          1   -1    0    0  501    0 -0.00000000000E+00 -0.00000000000E+00 -0.33022287137E+03  0.33022287137E+03  0.00000000000E+00 0. -1.
         25    2    1    2    0    0  0.16490663984E+02 -0.10258163500E+03 -0.75100773003E+01  0.16272217893E+03  0.12500868936E+03 0.  0.
          2    1    1    2  501    0 -0.45332791918E+02 -0.33948372727E+02 -0.16564359524E+03  0.17505814656E+03  0.00000000000E+00 0. -1.
          1    1    1    2  502    0  0.28842127934E+02  0.13653000773E+03 -0.96362010108E+01  0.13987554369E+03  0.00000000000E+00 0. -1.
         22    1    3    3    0    0 -0.32278366763E+02 -0.57883629049E+02 -0.50936784801E+02  0.83588058470E+02  0.00000000000E+00 0. -1.
         22    1    3    3    0    0  0.48769030747E+02 -0.44698005950E+02  0.43426707501E+02  0.79134120456E+02  0.00000000000E+00 0. -1.
</event>
<event>
 7    1  0.7457412E-006  0.1057795E+03  0.7818608E-02  0.1322265E+00
          2   -1    0    0  502    0  0.00000000000E+00  0.00000000000E+00  0.43939241809E+03  0.43939241809E+03  0.00000000000E+00 0. -1.
          1   -1    0    0  501    0 -0.00000000000E+00 -0.00000000000E+00 -0.20009865968E+03  0.20009865968E+03  0.00000000000E+00 0. -1.
         25    2    1    2    0    0  0.31998886388E+02  0.48517466693E+02 -0.28748592612E+02  0.14081460321E+03  0.12499759035E+03 0.  0.
          2    1    1    2  501    0  0.63816430930E+02  0.74580572235E+01 -0.97441703457E+02  0.11671780090E+03  0.00000000000E+00 0. -1.
          1    1    1    2  502    0 -0.95815317318E+02 -0.55975523916E+02  0.36548405448E+03  0.38195867366E+03  0.00000000000E+00 0. -1.
         22    1    3    3    0    0  0.56320059669E+01  0.67388228014E+02  0.29791578305E+02  0.73894728526E+02  0.00000000000E+00 0. -1.
         22    1    3    3    0    0  0.26366880421E+02 -0.18870761321E+02 -0.58540170917E+02  0.66919874679E+02  0.00000000000E+00 0. -1.
</event>
<event>
 7    1  0.7457412E-006  0.1897424E+03  0.7818608E-02  0.1162826E+00
          2   -1    0    0  502    0  0.00000000000E+00  0.00000000000E+00  0.20668005317E+04  0.20668005317E+04  0.00000000000E+00 0. -1.
          1   -1    0    0  501    0 -0.00000000000E+00 -0.00000000000E+00 -0.73697158250E+03  0.73697158250E+03  0.00000000000E+00 0. -1.
         25    2    1    2    0    0  0.17231658599E+03  0.25122599776E+03  0.53773100725E+03  0.63054585334E+03  0.12500371692E+03 0.  0.
          2    1    1    2  501    0 -0.27845944602E+01 -0.18826814196E+03 -0.67206217111E+03  0.69793997527E+03  0.00000000000E+00 0. -1.
          1    1    1    2  502    0 -0.16953199153E+03 -0.62957855795E+02  0.14641601130E+04  0.14752862856E+04  0.00000000000E+00 0. -1.
         22    1    3    3    0    0  0.11512859423E+03  0.12829728023E+03  0.18603474816E+03  0.25362119952E+03  0.00000000000E+00 0.  1.
         22    1    3    3    0    0  0.57187991766E+02  0.12292871753E+03  0.35169625909E+03  0.37692465382E+03  0.00000000000E+00 0.  1.
</event>
<event>
 7    1  0.7457412E-006  0.1551189E+03  0.7818608E-02  0.1270077E+00
          2   -1    0    0  502    0  0.00000000000E+00  0.00000000000E+00  0.19168153634E+04  0.19168153634E+04  0.00000000000E+00 0. -1.
          1   -1    0    0  501    0 -0.00000000000E+00 -0.00000000000E+00 -0.80191256299E+02  0.80191256299E+02  0.00000000000E+00 0. -1.
         25    2    1    2    0    0  0.53231663121E+02  0.73770772843E+02  0.89022541919E+03  0.90354872631E+03  0.12499306759E+03 0.  0.
          2    1    1    2  501    0 -0.10312882677E+03 -0.12442661604E+03  0.18302873339E+02  0.16264234646E+03  0.00000000000E+00 0. -1.
          1    1    1    2  502    0  0.49897163649E+02  0.50655843197E+02  0.92809581461E+03  0.93081554697E+03  0.00000000000E+00 0. -1.
         22    1    3    3    0    0  0.13034519376E+02  0.19912672068E+02  0.72205491333E+03  0.72244702994E+03  0.00000000000E+00 0.  1.
         22    1    3    3    0    0  0.40197143745E+02  0.53858100775E+02  0.16817050587E+03  0.18110169637E+03  0.00000000000E+00 0.  1.
</event>
<event>
 7    1  0.7457412E-006  0.1996285E+03  0.7818608E-02  0.1213652E+00
          2   -1    0    0  502    0  0.00000000000E+00  0.00000000000E+00  0.28302848320E+04  0.28302848320E+04  0.00000000000E+00 0. -1.
          1   -1    0    0  501    0 -0.00000000000E+00 -0.00000000000E+00 -0.23100201627E+04  0.23100201627E+04  0.00000000000E+00 0. -1.
         25    2    1    2    0    0 -0.20534569545E+03  0.15484014081E+03  0.84438374803E+02  0.29815552046E+03  0.12499820558E+03 0.  0.
          2    1    1    2  501    0  0.10820521032E+03 -0.16657324496E+03 -0.21977741399E+04  0.22067320144E+04  0.00000000000E+00 0. -1.
          1    1    1    2  502    0  0.97140485129E+02  0.11733104156E+02  0.26336004344E+04  0.26354174599E+04  0.00000000000E+00 0. -1.
         22    1    3    3    0    0 -0.64329726441E+02  0.42611518712E+01  0.64004664235E+02  0.90846398735E+02  0.00000000000E+00 0. -1.
         22    1    3    3    0    0 -0.14101596901E+03  0.15057898893E+03  0.20433710568E+02  0.20730912173E+03  0.00000000000E+00 0. -1.
</event>
<event>
 7    1  0.7457412E-006  0.1285937E+03  0.7818608E-02  0.1257919E+00
          2   -1    0    0  502    0  0.00000000000E+00  0.00000000000E+00  0.86161297405E+03  0.86161297405E+03  0.00000000000E+00 0. -1.
          1   -1    0    0  501    0 -0.00000000000E+00 -0.00000000000E+00 -0.26503953158E+03  0.26503953158E+03  0.00000000000E+00 0. -1.
         25    2    1    2    0    0 -0.10683957178E+03  0.14102506944E+03  0.63521449264E+03  0.67113758437E+03  0.12500176471E+03 0.  0.
          2    1    1    2  501    0  0.11208342098E+02 -0.12751085466E+03 -0.21742815444E+03  0.25230863507E+03  0.00000000000E+00 0. -1.
          1    1    1    2  502    0  0.95631229683E+02 -0.13514214780E+02  0.17878710427E+03  0.20320628619E+03  0.00000000000E+00 0. -1.
         22    1    3    3    0    0 -0.10704815888E+03  0.49147198290E+02  0.43814972247E+03  0.45370688194E+03  0.00000000000E+00 0. -1.
         22    1    3    3    0    0  0.20858709783E+00  0.91877871152E+02  0.19706477017E+03  0.21743070243E+03  0.00000000000E+00 0. -1.
</event>
<event>
 7    1  0.7457412E-006  0.6615892E+02  0.7818608E-02  0.1415065E+00
          2   -1    0    0  502    0  0.00000000000E+00  0.00000000000E+00  0.18130048700E+04  0.18130048700E+04  0.00000000000E+00 0. -1.
          1   -1    0    0  501    0 -0.00000000000E+00 -0.00000000000E+00 -0.71198900610E+03  0.71198900610E+03  0.00000000000E+00 0. -1.
         25    2    1    2    0    0 -0.14027507157E+01  0.10664369020E+03  0.38464038323E+03  0.41826875635E+03  0.12500273502E+03 0.  0.
          2    1    1    2  501    0 -0.16405626222E+02 -0.44613821173E+02 -0.69362331537E+03  0.69525020046E+03  0.00000000000E+00 0. -1.
          1    1    1    2  502    0  0.17808376938E+02 -0.62029869026E+02  0.14099987960E+04  0.14114749193E+04  0.00000000000E+00 0. -1.
         22    1    3    3    0    0 -0.85286983759E+01  0.12122783769E+03  0.20812169741E+03  0.24100532828E+03  0.00000000000E+00 0. -1.
         22    1    3    3    0    0  0.71259476602E+01 -0.14584147493E+02  0.17651868582E+03  0.17726342807E+03  0.00000000000E+00 0. -1.
</event>
<event>
 7    1  0.7457412E-006  0.5843598E+02  0.7818608E-02  0.1411200E+00
          2   -1    0    0  502    0  0.00000000000E+00  0.00000000000E+00  0.14834043094E+03  0.14834043094E+03  0.00000000000E+00 0. -1.
          1   -1    0    0  501    0 -0.00000000000E+00 -0.00000000000E+00 -0.60275442283E+03  0.60275442283E+03  0.00000000000E+00 0. -1.
         25    2    1    2    0    0 -0.17906284739E+02 -0.11245909939E+02 -0.25139522001E+03  0.28155147703E+03  0.12499828820E+03 0.  0.
          2    1    1    2  501    0 -0.30384394885E+02  0.46392558920E+02 -0.32713592327E+03  0.33180324482E+03  0.00000000000E+00 0. -1.
          1    1    1    2  502    0  0.48290679624E+02 -0.35146648981E+02  0.12411715139E+03  0.13774013192E+03  0.00000000000E+00 0. -1.
         22    1    3    3    0    0 -0.16035122745E+02 -0.12165386631E+02  0.83550371695E+01  0.21792852944E+02  0.00000000000E+00 0. -1.
         22    1    3    3    0    0 -0.18711619937E+01  0.91947669156E+00 -0.25975025718E+03  0.25975862409E+03  0.00000000000E+00 0. -1.
</event>
<event>
 7    1  0.7457412E-006  0.8237270E+02  0.7818608E-02  0.1356954E+00
          2   -1    0    0  502    0  0.00000000000E+00  0.00000000000E+00  0.54122731316E+03  0.54122731316E+03  0.00000000000E+00 0. -1.
          1   -1    0    0  501    0 -0.00000000000E+00 -0.00000000000E+00 -0.11666729748E+03  0.11666729748E+03  0.00000000000E+00 0. -1.
         25    2    1    2    0    0  0.14228855513E+02 -0.59718106982E+02  0.28757875958E+03  0.31952390559E+03  0.12500108259E+03 0.  0.
          2    1    1    2  501    0 -0.48536117199E+02 -0.37079909724E+02 -0.78620992121E+02  0.99558700173E+02  0.00000000000E+00 0. -1.
          1    1    1    2  502    0  0.34307261686E+02  0.96798016706E+02  0.21560224822E+03  0.23881200489E+03  0.00000000000E+00 0. -1.
         22    1    3    3    0    0  0.20932246918E+02  0.15540252242E+02  0.44003804696E+01  0.26439019442E+02  0.00000000000E+00 0. -1.
         22    1    3    3    0    0 -0.67033914050E+01 -0.75258359224E+02  0.28317837912E+03  0.29308488615E+03  0.00000000000E+00 0. -1.
</event>
<event>
 7    1  0.7457412E-006  0.2913743E+03  0.7818608E-02  0.1095153E+00
          2   -1    0    0  502    0  0.00000000000E+00  0.00000000000E+00  0.11223716826E+04  0.11223716826E+04  0.00000000000E+00 0. -1.
          1   -1    0    0  501    0 -0.00000000000E+00 -0.00000000000E+00 -0.28022511070E+04  0.28022511070E+04  0.00000000000E+00 0. -1.
         25    2    1    2    0    0  0.12546978629E+03  0.15869998238E+03 -0.29235559379E+03  0.37686288697E+03  0.12500196270E+03 0.  0.
          2    1    1    2  501    0 -0.30333200516E+03  0.72090054846E+02 -0.24378811838E+04  0.24577371600E+04  0.00000000000E+00 0. -1.
          1    1    1    2  502    0  0.17786221888E+03 -0.23079003723E+03  0.10503573532E+04  0.10900227427E+04  0.00000000000E+00 0. -1.
         22    1    3    3    0    0  0.94963641805E+02  0.92434924247E+02 -0.85974009330E+02  0.15796784092E+03  0.00000000000E+00 0.  1.
         22    1    3    3    0    0  0.30506144481E+02  0.66265058135E+02 -0.20638158446E+03  0.21889504605E+03  0.00000000000E+00 0.  1.
</event>
<event>
 7    1  0.7457412E-006  0.1839861E+03  0.7818608E-02  0.1339075E+00
          2   -1    0    0  502    0  0.00000000000E+00  0.00000000000E+00  0.55668106783E+03  0.55668106783E+03  0.00000000000E+00 0. -1.
          1   -1    0    0  501    0 -0.00000000000E+00 -0.00000000000E+00 -0.40101454412E+03  0.40101454412E+03  0.00000000000E+00 0. -1.
         25    2    1    2    0    0  0.10996863683E+03  0.17485184938E+03 -0.41145934263E+02  0.24491736016E+03  0.12500102034E+03 0.  0.
          2    1    1    2  501    0  0.13703496989E+01 -0.31837549331E+02 -0.23882516926E+03  0.24094183713E+03  0.00000000000E+00 0. -1.
          1    1    1    2  502    0 -0.11133898653E+03 -0.14301430005E+03  0.43563762723E+03  0.47183641466E+03  0.00000000000E+00 0. -1.
         22    1    3    3    0    0  0.10997139503E+03  0.84451081979E+02  0.13453207846E+02  0.13930786688E+03  0.00000000000E+00 0.  1.
         22    1    3    3    0    0 -0.27582012481E-02  0.90400767398E+02 -0.54599142109E+02  0.10560949329E+03  0.00000000000E+00 0.  1.
</event>
<event>
 7    1  0.7457412E-006  0.8461117E+02  0.7818608E-02  0.1390368E+00
          2   -1    0    0  502    0  0.00000000000E+00  0.00000000000E+00  0.11627377854E+04  0.11627377854E+04  0.00000000000E+00 0. -1.
          1   -1    0    0  501    0 -0.00000000000E+00 -0.00000000000E+00 -0.17856547277E+03  0.17856547277E+03  0.00000000000E+00 0. -1.
         25    2    1    2    0    0 -0.49190931351E+02 -0.68599401030E+02  0.41748284038E+03  0.44389531468E+03  0.12500201131E+03 0.  0.
          2    1    1    2  501    0 -0.30057925539E+02  0.33705305485E+02 -0.15965542841E+03  0.16591980692E+03  0.00000000000E+00 0. -1.
          1    1    1    2  502    0  0.79248856890E+02  0.34894095545E+02  0.72634490063E+03  0.73148813653E+03  0.00000000000E+00 0. -1.
         22    1    3    3    0    0  0.40494867430E+02 -0.37931676785E+02  0.13603000026E+03  0.14691088238E+03  0.00000000000E+00 0. -1.
         22    1    3    3    0    0 -0.89685798781E+02 -0.30667724245E+02  0.28145284013E+03  0.29698443230E+03  0.00000000000E+00 0. -1.
</event>
<event>
 7    1  0.7457412E-006  0.2184391E+02  0.7818608E-02  0.1724161E+00
          2   -1    0    0  502    0  0.00000000000E+00  0.00000000000E+00  0.12027813942E+04  0.12027813942E+04  0.00000000000E+00 0. -1.
          1   -1    0    0  501    0 -0.00000000000E+00 -0.00000000000E+00 -0.22894105628E+03  0.22894105628E+03  0.00000000000E+00 0. -1.
         25    2    1    2    0    0 -0.32955944226E+01 -0.23897627229E+02  0.18691118715E+03  0.22614696349E+03  0.12499879873E+03 0.  0.
          2    1    1    2  501    0 -0.15330734681E+02  0.15587889359E+02 -0.20864753005E+03  0.20978990804E+03  0.00000000000E+00 0. -1.
          1    1    1    2  502    0  0.18626329104E+02  0.83097378701E+01  0.99557668080E+03  0.99578557894E+03  0.00000000000E+00 0. -1.
         22    1    3    3    0    0 -0.16034615699E+02  0.40200800929E+02  0.13769101802E+03  0.14433305144E+03  0.00000000000E+00 0. -1.
         22    1    3    3    0    0  0.12739021276E+02 -0.64098428158E+02  0.49220169137E+02  0.81813912052E+02  0.00000000000E+00 0. -1.
</event>
<event>
 7    1  0.7457412E-006  0.6929679E+02  0.7818608E-02  0.1497174E+00
          2   -1    0    0  502    0  0.00000000000E+00  0.00000000000E+00  0.47710518127E+03  0.47710518127E+03  0.00000000000E+00 0. -1.
          1   -1    0    0  501    0 -0.00000000000E+00 -0.00000000000E+00 -0.21982438814E+03  0.21982438814E+03  0.00000000000E+00 0. -1.
         25    2    1    2    0    0  0.46338876135E+01 -0.51798963668E+02 -0.98975178757E+01  0.13574997120E+03  0.12500195306E+03 0.  0.
          2    1    1    2  501    0  0.20958685450E+02 -0.13446724178E+02 -0.14295170925E+03  0.14510434888E+03  0.00000000000E+00 0. -1.
          1    1    1    2  502    0 -0.25592573064E+02  0.65245687846E+02  0.41013002026E+03  0.41607524932E+03  0.00000000000E+00 0. -1.
         22    1    3    3    0    0  0.49373028392E+02 -0.67197480415E+02  0.10844820305E+02  0.84088093296E+02  0.00000000000E+00 0.  1.
         22    1    3    3    0    0 -0.44739140778E+02  0.15398516747E+02 -0.20742338181E+02  0.51661877906E+02  0.00000000000E+00 0.  1.
</event>
<event>
 7    1  0.7457412E-006  0.6559171E+02  0.7818608E-02  0.1396815E+00
          2   -1    0    0  502    0  0.00000000000E+00  0.00000000000E+00  0.68175325135E+03  0.68175325135E+03  0.00000000000E+00 0. -1.
          1   -1    0    0  501    0 -0.00000000000E+00 -0.00000000000E+00 -0.12320878450E+04  0.12320878450E+04  0.00000000000E+00 0. -1.
         25    2    1    2    0    0  0.74658861595E+02  0.38924400711E+02  0.37610141676E+02  0.15530974509E+03  0.12497015475E+03 0.  0.
          2    1    1    2  501    0 -0.50690940005E+02  0.22177974379E+02 -0.11707425272E+04  0.11720492733E+04  0.00000000000E+00 0. -1.
          1    1    1    2  502    0 -0.23967921591E+02 -0.61102375090E+02  0.58279779192E+03  0.58648207796E+03  0.00000000000E+00 0. -1.
         22    1    3    3    0    0  0.63815478629E+02  0.38458146135E+02  0.81308453739E+02  0.11028376565E+03  0.00000000000E+00 0.  1.
         22    1    3    3    0    0  0.10843382967E+02  0.46625457536E+00 -0.43698312063E+02  0.45025979441E+02  0.00000000000E+00 0.  1.
</event>
<event>
 7    1  0.7457412E-006  0.1130209E+03  0.7818608E-02  0.1299945E+00
          2   -1    0    0  502    0  0.00000000000E+00  0.00000000000E+00  0.77036034092E+03  0.77036034092E+03  0.00000000000E+00 0. -1.
          1   -1    0    0  501    0 -0.00000000000E+00 -0.00000000000E+00 -0.17581846290E+04  0.17581846290E+04  0.00000000000E+00 0. -1.
         25    2    1    2    0    0 -0.24206261027E+02  0.52183963453E+02  0.54709001971E+02  0.14807674821E+03  0.12499815738E+03 0.  0.
          2    1    1    2  501    0 -0.70226113997E+02  0.22062552646E+02 -0.17053077189E+04  0.17068956850E+04  0.00000000000E+00 0. -1.
          1    1    1    2  502    0  0.94432375024E+02 -0.74246516099E+02  0.66277442888E+03  0.67357253669E+03  0.00000000000E+00 0. -1.
         22    1    3    3    0    0  0.29145716883E+02  0.70039647143E+02  0.10625943780E+02  0.76602452087E+02  0.00000000000E+00 0. -1.
         22    1    3    3    0    0 -0.53351977910E+02 -0.17855683690E+02  0.44083058191E+02  0.71474296124E+02  0.00000000000E+00 0. -1.
</event>
<event>
 7    1  0.7457412E-006  0.5340802E+02  0.7818608E-02  0.1462938E+00
          2   -1    0    0  502    0  0.00000000000E+00  0.00000000000E+00  0.34121921234E+03  0.34121921234E+03  0.00000000000E+00 0. -1.
          1   -1    0    0  501    0 -0.00000000000E+00 -0.00000000000E+00 -0.51074326332E+03  0.51074326332E+03  0.00000000000E+00 0. -1.
         25    2    1    2    0    0 -0.36614302269E+02 -0.10207733623E+02 -0.11837666014E+03  0.17630471363E+03  0.12500205368E+03 0.  0.
          2    1    1    2  501    0 -0.80160871030E+01  0.40360574016E+02 -0.35989878273E+03  0.36224351947E+03  0.00000000000E+00 0. -1.
          1    1    1    2  502    0  0.44630389372E+02 -0.30152840394E+02  0.30875139190E+03  0.31341424256E+03  0.00000000000E+00 0. -1.
         22    1    3    3    0    0  0.27767245541E+02 -0.29813318986E+02 -0.70585889554E+00  0.40747418945E+02  0.00000000000E+00 0.  1.
         22    1    3    3    0    0 -0.64381547810E+02  0.19605585363E+02 -0.11767080125E+03  0.13555729469E+03  0.00000000000E+00 0.  1.
</event>
<event>
 7    1  0.7457412E-006  0.1017366E+03  0.7818608E-02  0.1399651E+00
          2   -1    0    0  502    0  0.00000000000E+00  0.00000000000E+00  0.11163377345E+04  0.11163377345E+04  0.00000000000E+00 0. -1.
          1   -1    0    0  501    0 -0.00000000000E+00 -0.00000000000E+00 -0.21239963430E+03  0.21239963430E+03  0.00000000000E+00 0. -1.
         25    2    1    2    0    0  0.41231353281E+02 -0.70974530765E+02  0.14648573205E+03  0.20933154071E+03  0.12499686288E+03 0.  0.
          2    1    1    2  501    0 -0.76104779503E+02  0.70386557190E+02 -0.16577563913E+03  0.19551922520E+03  0.00000000000E+00 0. -1.
          1    1    1    2  502    0  0.34873426222E+02  0.58797357471E+00  0.92322800731E+03  0.92388660292E+03  0.00000000000E+00 0. -1.
         22    1    3    3    0    0  0.25740437432E+02  0.32873021226E+02  0.61078358870E+02  0.73984941482E+02  0.00000000000E+00 0. -1.
         22    1    3    3    0    0  0.15490915849E+02 -0.10384755199E+03  0.85407373183E+02  0.13534659923E+03  0.00000000000E+00 0. -1.
</event>
<event>
 7    1  0.7457412E-006  0.5213594E+02  0.7818608E-02  0.1532023E+00
          2   -1    0    0  502    0  0.00000000000E+00  0.00000000000E+00  0.14420229570E+04  0.14420229570E+04  0.00000000000E+00 0. -1.
          1   -1    0    0  501    0 -0.00000000000E+00 -0.00000000000E+00 -0.11694207398E+03  0.11694207398E+03  0.00000000000E+00 0. -1.
         25    2    1    2    0    0  0.71450997328E+02 -0.28981765007E+02  0.15027317771E+03  0.21013837016E+03  0.12502367357E+03 0.  0.
          2    1    1    2  501    0 -0.25713871015E+02  0.48775113476E+01 -0.84498843397E+02  0.88459300330E+02  0.00000000000E+00 0. -1.
          1    1    1    2  502    0 -0.45737126313E+02  0.24104253659E+02  0.12593065487E+04  0.12603673604E+04  0.00000000000E+00 0. -1.
         22    1    3    3    0    0 -0.33112032053E+02  0.23376649956E+00  0.61698180516E+02  0.70022330670E+02  0.00000000000E+00 0.  1.
         22    1    3    3    0    0  0.10456302938E+03 -0.29215531507E+02  0.88574997192E+02  0.14011603949E+03  0.00000000000E+00 0.  1.
</event>
<event>
 7    1  0.7457412E-006  0.8645412E+02  0.7818608E-02  0.1363141E+00
          2   -1    0    0  502    0  0.00000000000E+00  0.00000000000E+00  0.29499275061E+02  0.29499275061E+02  0.00000000000E+00 0. -1.
          1   -1    0    0  501    0 -0.00000000000E+00 -0.00000000000E+00 -0.10566446668E+04  0.10566446668E+04  0.00000000000E+00 0. -1.
         25    2    1    2    0    0 -0.44510213766E+02  0.39493918571E+01 -0.52101545274E+03  0.53766027021E+03  0.12499882936E+03 0.  0.
          2    1    1    2  501    0 -0.44684439044E+02  0.32490192120E+02 -0.40519356670E+03  0.40894270769E+03  0.00000000000E+00 0. -1.
          1    1    1    2  502    0  0.89194652810E+02 -0.36439583977E+02 -0.10093637229E+03  0.13954096396E+03  0.00000000000E+00 0. -1.
         22    1    3    3    0    0  0.24048676500E+02  0.70825026696E+01 -0.38004743710E+03  0.38087341091E+03  0.00000000000E+00 0.  1.
         22    1    3    3    0    0 -0.68558890266E+02 -0.31331108125E+01 -0.14096801564E+03  0.15678685930E+03  0.00000000000E+00 0.  1.
</event>
<event>
 7    1  0.7457412E-006  0.1197512E+03  0.7818608E-02  0.1435636E+00
          2   -1    0    0  502    0  0.00000000000E+00  0.00000000000E+00  0.22413043833E+03  0.22413043833E+03  0.00000000000E+00 0. -1.
          1   -1    0    0  501    0 -0.00000000000E+00 -0.00000000000E+00 -0.15793090310E+03  0.15793090310E+03  0.00000000000E+00 0. -1.
         25    2    1    2    0    0  0.42343491232E+02 -0.99750605970E+02  0.61258086489E+02  0.17641079995E+03  0.12500025015E+03 0.  0.
          2    1    1    2  501    0 -0.63910094876E+02  0.10597136177E+03 -0.59572226932E+02  0.13734365644E+03  0.00000000000E+00 0. -1.
          1    1    1    2  502    0  0.21566603644E+02 -0.62207557976E+01  0.64513675672E+02  0.68306885042E+02  0.00000000000E+00 0. -1.
         22    1    3    3    0    0  0.59250629437E+02 -0.11763229431E+02  0.62341643802E+02  0.86807207116E+02  0.00000000000E+00 0. -1.
         22    1    3    3    0    0 -0.16907138204E+02 -0.87987376539E+02 -0.10835573131E+01  0.89603592835E+02  0.00000000000E+00 0. -1.
</event>
<event>
 7    1  0.7457412E-006  0.1265578E+03  0.7818608E-02  0.1310652E+00
          2   -1    0    0  502    0  0.00000000000E+00  0.00000000000E+00  0.19696960177E+03  0.19696960177E+03  0.00000000000E+00 0. -1.
          1   -1    0    0  501    0 -0.00000000000E+00 -0.00000000000E+00 -0.91015880384E+03  0.91015880384E+03  0.00000000000E+00 0. -1.
         25    2    1    2    0    0  0.15299219740E+03  0.82788172439E+02 -0.94780001533E+02  0.23423948436E+03  0.12499757351E+03 0.  0.
          2    1    1    2  501    0 -0.40962956846E+02 -0.43301883368E+02 -0.71641634564E+03  0.71889178409E+03  0.00000000000E+00 0. -1.
          1    1    1    2  502    0 -0.11202924055E+03 -0.39486289071E+02  0.98007145102E+02  0.15399713716E+03  0.00000000000E+00 0. -1.
         22    1    3    3    0    0 -0.15596319500E+02  0.34115382478E+02 -0.74851255898E+01  0.38250903371E+02  0.00000000000E+00 0.  1.
         22    1    3    3    0    0  0.16858851690E+03  0.48672789960E+02 -0.87294875944E+02  0.19598858099E+03  0.00000000000E+00 0.  1.
</event>
<event>
 7    1  0.7457412E-006  0.5827585E+02  0.7818608E-02  0.1437391E+00
          2   -1    0    0  502    0  0.00000000000E+00  0.00000000000E+00  0.10818988225E+04  0.10818988225E+04  0.00000000000E+00 0. -1.
          1   -1    0    0  501    0 -0.00000000000E+00 -0.00000000000E+00 -0.82341936467E+02  0.82341936467E+02  0.00000000000E+00 0. -1.
         25    2    1    2    0    0 -0.61674080576E+02  0.63346771160E+02  0.28355578288E+03  0.32225343337E+03  0.12500755049E+03 0.  0.
          2    1    1    2  501    0  0.54318491174E+02 -0.18424985695E+02 -0.49118036959E+02  0.75515297364E+02  0.00000000000E+00 0. -1.
          1    1    1    2  502    0  0.73555894021E+01 -0.44921785465E+02  0.76511914009E+03  0.76647202822E+03  0.00000000000E+00 0. -1.
         22    1    3    3    0    0  0.10528761506E+02  0.49327737591E+02  0.30995888187E+02  0.59201567540E+02  0.00000000000E+00 0.  1.
         22    1    3    3    0    0 -0.72202842082E+02  0.14019033569E+02  0.25255989470E+03  0.26305186583E+03  0.00000000000E+00 0.  1.
</event>
<event>
 7    1  0.7457412E-006  0.8075784E+02  0.7818608E-02  0.1494160E+00
          2   -1    0    0  502    0  0.00000000000E+00  0.00000000000E+00  0.18069588098E+04  0.18069588098E+04  0.00000000000E+00 0. -1.
          1   -1    0    0  501    0 -0.00000000000E+00 -0.00000000000E+00 -0.27529841541E+02  0.27529841541E+02  0.00000000000E+00 0. -1.
         25    2    1    2    0    0  0.78992375831E+02 -0.10637596315E+02  0.53406021502E+03  0.55425866092E+03  0.12501758290E+03 0.  0.
          2    1    1    2  501    0 -0.74802702517E+02  0.32048830316E+02  0.78214889358E+02  0.11287223195E+03  0.00000000000E+00 0. -1.
          1    1    1    2  502    0 -0.41896733141E+01 -0.21411234002E+02  0.11671538639E+04  0.11673577585E+04  0.00000000000E+00 0. -1.
         22    1    3    3    0    0 -0.26890159253E+02  0.21142659198E+02  0.81410266311E+02  0.88304723336E+02  0.00000000000E+00 0.  1.
         22    1    3    3    0    0  0.10588253508E+03 -0.31780255513E+02  0.45264994871E+03  0.46595393758E+03  0.00000000000E+00 0.  1.
</event>
<event>
 7    1  0.7457412E-006  0.6322554E+02  0.7818608E-02  0.1407481E+00
          2   -1    0    0  502    0  0.00000000000E+00  0.00000000000E+00  0.48470884931E+03  0.48470884931E+03  0.00000000000E+00 0. -1.
          1   -1    0    0  501    0 -0.00000000000E+00 -0.00000000000E+00 -0.84363494050E+03  0.84363494050E+03  0.00000000000E+00 0. -1.
         25    2    1    2    0    0 -0.30430692780E+02 -0.60770465735E+02  0.46785591887E+02  0.14977426371E+03  0.12499744754E+03 0.  0.
          2    1    1    2  501    0 -0.22317708467E+02  0.59388087608E+02 -0.78906014055E+03  0.79160655029E+03  0.00000000000E+00 0. -1.
          1    1    1    2  502    0  0.52748401247E+02  0.13823781266E+01  0.38334845747E+03  0.38696297581E+03  0.00000000000E+00 0. -1.
         22    1    3    3    0    0  0.31425504496E+02 -0.38440665103E+02 -0.22267877555E+02  0.54416040256E+02  0.00000000000E+00 0.  1.
         22    1    3    3    0    0 -0.61856197276E+02 -0.22329800632E+02  0.69053469442E+02  0.95358223451E+02  0.00000000000E+00 0.  1.
</event>
<event>
 7    1  0.7457412E-006  0.1779891E+03  0.7818608E-02  0.1289113E+00
          2   -1    0    0  502    0  0.00000000000E+00  0.00000000000E+00  0.71025483332E+03  0.71025483332E+03  0.00000000000E+00 0. -1.
          1   -1    0    0  501    0 -0.00000000000E+00 -0.00000000000E+00 -0.91134158428E+03  0.91134158428E+03  0.00000000000E+00 0. -1.
         25    2    1    2    0    0  0.13411355039E+03 -0.31507630290E+02 -0.22668019505E+03  0.29324368550E+03  0.12501509148E+03 0.  0.
          2    1    1    2  501    0  0.30142816228E+02 -0.41996409708E+02 -0.63835757399E+03  0.64044725002E+03  0.00000000000E+00 0. -1.
          1    1    1    2  502    0 -0.16425636662E+03  0.73504039999E+02  0.66395101807E+03  0.68790548207E+03  0.00000000000E+00 0. -1.
         22    1    3    3    0    0  0.15441774447E+03 -0.19352385070E+02 -0.16325342524E+03  0.22554608280E+03  0.00000000000E+00 0.  1.
         22    1    3    3    0    0 -0.20304194078E+02 -0.12155245221E+02 -0.63426769806E+02  0.67697602702E+02  0.00000000000E+00 0.  1.
</event>
<event>
 7    1  0.7457412E-006  0.5998406E+02  0.7818608E-02  0.1501665E+00
          2   -1    0    0  502    0  0.00000000000E+00  0.00000000000E+00  0.18639527514E+04  0.18639527514E+04  0.00000000000E+00 0. -1.
          1   -1    0    0  501    0 -0.00000000000E+00 -0.00000000000E+00 -0.41927609232E+03  0.41927609232E+03  0.00000000000E+00 0. -1.
         25    2    1    2    0    0  0.16513773529E+01 -0.59164245956E+02  0.13148462168E+03  0.19082359363E+03  0.12498921194E+03 0.  0.
          2    1    1    2  501    0  0.27148236010E+02  0.64002586727E+01 -0.38857603731E+03  0.38957582934E+03  0.00000000000E+00 0. -1.
          1    1    1    2  502    0 -0.28799613363E+02  0.52763987283E+02  0.17017680747E+04  0.17028294207E+04  0.00000000000E+00 0. -1.
         22    1    3    3    0    0  0.16944510991E+02 -0.12695205964E+02 -0.21519446093E+02  0.30188926237E+02  0.00000000000E+00 0. -1.
         22    1    3    3    0    0 -0.15293133638E+02 -0.46469039992E+02  0.15300406777E+03  0.16063466739E+03  0.00000000000E+00 0. -1.
</event>
<event>
 7    1  0.7457412E-006  0.1380183E+03  0.7818608E-02  0.1239817E+00
          2   -1    0    0  502    0  0.00000000000E+00  0.00000000000E+00  0.16526585335E+04  0.16526585335E+04  0.00000000000E+00 0. -1.
          1   -1    0    0  501    0 -0.00000000000E+00 -0.00000000000E+00 -0.12470362580E+03  0.12470362580E+03  0.00000000000E+00 0. -1.
         25    2    1    2    0    0  0.21754845073E+03  0.41416675376E+02  0.55268518625E+03  0.60838167891E+03  0.12499873089E+03 0.  0.
          2    1    1    2  501    0 -0.13044166487E+03  0.22191690460E+02 -0.47466652774E+02  0.14057233791E+03  0.00000000000E+00 0. -1.
          1    1    1    2  502    0 -0.87106785866E+02 -0.63608365836E+02  0.10227363742E+04  0.10284081425E+04  0.00000000000E+00 0. -1.
         22    1    3    3    0    0  0.21190041992E+03  0.51377728468E+02  0.40252737466E+03  0.45778788352E+03  0.00000000000E+00 0. -1.
         22    1    3    3    0    0  0.56480308125E+01 -0.99610530922E+01  0.15015781159E+03  0.15059379540E+03  0.00000000000E+00 0. -1.
</event>
<event>
 7    1  0.7457412E-006  0.7856981E+02  0.7818608E-02  0.1397388E+00
          2   -1    0    0  502    0  0.00000000000E+00  0.00000000000E+00  0.51869323075E+03  0.51869323075E+03  0.00000000000E+00 0. -1.
          1   -1    0    0  501    0 -0.00000000000E+00 -0.00000000000E+00 -0.42500071216E+03  0.42500071216E+03  0.00000000000E+00 0. -1.
         25    2    1    2    0    0  0.10763077563E+03  0.78504509888E+01 -0.22711421829E+03  0.28080723114E+03  0.12500327781E+03 0.  0.
          2    1    1    2  501    0 -0.69269796029E+02  0.17500492262E+02 -0.16243969545E+03  0.17745767532E+03  0.00000000000E+00 0. -1.
          1    1    1    2  502    0 -0.38360979606E+02 -0.25350943251E+02  0.48324643233E+03  0.48542903646E+03  0.00000000000E+00 0. -1.
         22    1    3    3    0    0  0.12152058945E+02 -0.29023168267E+02 -0.14837022561E+03  0.15166984104E+03  0.00000000000E+00 0. -1.
         22    1    3    3    0    0  0.95478716690E+02  0.36873619256E+02 -0.78743992681E+02  0.12913739010E+03  0.00000000000E+00 0. -1.
</event>
<event>
 7    1  0.7457412E-006  0.2293290E+02  0.7818608E-02  0.1694311E+00
          2   -1    0    0  502    0  0.00000000000E+00  0.00000000000E+00  0.73573064984E+03  0.73573064984E+03  0.00000000000E+00 0. -1.
          1   -1    0    0  501    0 -0.00000000000E+00 -0.00000000000E+00 -0.82920396425E+02  0.82920396425E+02  0.00000000000E+00 0. -1.
         25    2    1    2    0    0 -0.85675918127E+01 -0.63664217242E+01  0.38908415370E+03  0.40880906445E+03  0.12499775022E+03 0.  0.
          2    1    1    2  501    0  0.18063135562E+02 -0.14278457455E+02 -0.70848772511E+02  0.74496307156E+02  0.00000000000E+00 0. -1.
          1    1    1    2  502    0 -0.94955437490E+01  0.20644879179E+02  0.33457487223E+03  0.33534567466E+03  0.00000000000E+00 0. -1.
         22    1    3    3    0    0 -0.62654450010E+02 -0.71555103456E+01  0.13461095995E+03  0.14865023368E+03  0.00000000000E+00 0.  1.
         22    1    3    3    0    0  0.54086858197E+02  0.78908862139E+00  0.25447319375E+03  0.26015883077E+03  0.00000000000E+00 0.  1.
</event>
<event>
 7    1  0.7457412E-006  0.2244929E+03  0.7818608E-02  0.1328340E+00
          2   -1    0    0  502    0  0.00000000000E+00  0.00000000000E+00  0.56817550841E+03  0.56817550841E+03  0.00000000000E+00 0. -1.
          1   -1    0    0  501    0 -0.00000000000E+00 -0.00000000000E+00 -0.79364948302E+03  0.79364948302E+03  0.00000000000E+00 0. -1.
         25    2    1    2    0    0 -0.24368158890E+02  0.21233678687E+03  0.27288303996E+02  0.24910301232E+03  0.12500776370E+03 0.  0.
          2    1    1    2  501    0 -0.27070546835E+02  0.94969548373E+01 -0.65225437260E+03  0.65288496171E+03  0.00000000000E+00 0. -1.
          1    1    1    2  502    0  0.51438705725E+02 -0.22183374171E+03  0.39949209399E+03  0.45983701739E+03  0.00000000000E+00 0. -1.
         22    1    3    3    0    0 -0.47636920662E+02  0.37562470249E+02 -0.24367012596E+02  0.65375581712E+02  0.00000000000E+00 0.  1.
         22    1    3    3    0    0  0.23268761772E+02  0.17477431662E+03  0.51655316593E+02  0.18372743061E+03  0.00000000000E+00 0.  1.
</event>
<event>
 7    1  0.7457412E-006  0.1840241E+03  0.7818608E-02  0.1169202E+00
          2   -1    0    0  502    0  0.00000000000E+00  0.00000000000E+00  0.14008513069E+04  0.14008513069E+04  0.00000000000E+00 0. -1.
          1   -1    0    0  501    0 -0.00000000000E+00 -0.00000000000E+00 -0.31725062049E+04  0.31725062049E+04  0.00000000000E+00 0. -1.
         25    2    1    2    0    0 -0.12999166296E+03 -0.23514136128E+02  0.28096922249E+03  0.33469511625E+03  0.12500547914E+03 0.  0.
          2    1    1    2  501    0  0.11037360442E+03 -0.14863377818E+03 -0.31360298891E+04  0.31414897418E+04  0.00000000000E+00 0. -1.
          1    1    1    2  502    0  0.19618058543E+02  0.17214791430E+03  0.10834057686E+04  0.10971726537E+04  0.00000000000E+00 0. -1.
         22    1    3    3    0    0 -0.14503796921E+03  0.36238749947E+01  0.25833478929E+03  0.29628703707E+03  0.00000000000E+00 0.  1.
         22    1    3    3    0    0  0.15046306246E+02 -0.27138011123E+02  0.22634433207E+02  0.38408079176E+02  0.00000000000E+00 0.  1.
</event>
<event>
 7    1  0.7457412E-006  0.6511976E+02  0.7818608E-02  0.1441724E+00
          2   -1    0    0  502    0  0.00000000000E+00  0.00000000000E+00  0.68789467918E+03  0.68789467918E+03  0.00000000000E+00 0. -1.
          1   -1    0    0  501    0 -0.00000000000E+00 -0.00000000000E+00 -0.19413190573E+04  0.19413190573E+04  0.00000000000E+00 0. -1.
         25    2    1    2    0    0 -0.22259624695E+02 -0.10195955579E+03  0.22888698627E+03  0.28090185742E+03  0.12500143644E+03 0.  0.
          2    1    1    2  501    0  0.16145693797E+02  0.62998819011E+02 -0.19138601570E+04  0.19149648131E+04  0.00000000000E+00 0. -1.
          1    1    1    2  502    0  0.61139308977E+01  0.38960736777E+02  0.43154879264E+03  0.43334706598E+03  0.00000000000E+00 0. -1.
         22    1    3    3    0    0  0.18738089240E+02 -0.76183328060E+02  0.44361549253E+02  0.90127479244E+02  0.00000000000E+00 0. -1.
         22    1    3    3    0    0 -0.40997713934E+02 -0.25776227728E+02  0.18452543701E+03  0.19077437818E+03  0.00000000000E+00 0. -1.
</event>
<event>
 7    1  0.7457412E-006  0.1264527E+03  0.7818608E-02  0.1262116E+00
          2   -1    0    0  502    0  0.00000000000E+00  0.00000000000E+00  0.19125413216E+04  0.19125413216E+04  0.00000000000E+00 0. -1.
          1   -1    0    0  501    0 -0.00000000000E+00 -0.00000000000E+00 -0.55579451698E+03  0.55579451698E+03  0.00000000000E+00 0. -1.
         25    2    1    2    0    0 -0.33105991537E+02 -0.33449162690E+02  0.84340408173E+02  0.15796526695E+03  0.12499947181E+03 0.  0.
          2    1    1    2  501    0  0.35098877577E+02  0.12767598852E+03 -0.50927034566E+03  0.52620278812E+03  0.00000000000E+00 0. -1.
          1    1    1    2  502    0 -0.19928860405E+01 -0.94226825835E+02  0.17816767421E+04  0.17841677835E+04  0.00000000000E+00 0. -1.
         22    1    3    3    0    0 -0.78110911827E+02 -0.23950590614E+02  0.75260102811E+02  0.11108117938E+03  0.00000000000E+00 0.  1.
         22    1    3    3    0    0  0.45004920291E+02 -0.94985720762E+01  0.90803053617E+01  0.46884087570E+02  0.00000000000E+00 0.  1.
</event>
<event>
 7    1  0.7457412E-006  0.1250336E+03  0.7818608E-02  0.1330248E+00
          2   -1    0    0  502    0  0.00000000000E+00  0.00000000000E+00  0.85932990377E+03  0.85932990377E+03  0.00000000000E+00 0. -1.
          1   -1    0    0  501    0 -0.00000000000E+00 -0.00000000000E+00 -0.29514397387E+03  0.29514397387E+03  0.00000000000E+00 0. -1.
         25    2    1    2    0    0 -0.12961349422E+03  0.81514704969E+02  0.32148218073E+02  0.20025747511E+03  0.12500097360E+03 0.  0.
          2    1    1    2  501    0  0.79979091449E+02 -0.91606529318E+02 -0.19261732455E+03  0.22779342616E+03  0.00000000000E+00 0. -1.
          1    1    1    2  502    0  0.49634402770E+02  0.10091824349E+02  0.72465503638E+03  0.72642297638E+03  0.00000000000E+00 0. -1.
         22    1    3    3    0    0 -0.90077128121E+02 -0.10600839783E+02  0.41180367133E+02  0.99609685533E+02  0.00000000000E+00 0.  1.
         22    1    3    3    0    0 -0.39536366098E+02  0.92115544752E+02 -0.90321490608E+01  0.10064778957E+03  0.00000000000E+00 0.  1.
</event>
<event>
 7    1  0.7457412E-006  0.1001588E+03  0.7818608E-02  0.1364675E+00
          2   -1    0    0  502    0  0.00000000000E+00  0.00000000000E+00  0.15408094206E+04  0.15408094206E+04  0.00000000000E+00 0. -1.
          1   -1    0    0  501    0 -0.00000000000E+00 -0.00000000000E+00 -0.37340047170E+02  0.37340047170E+02  0.00000000000E+00 0. -1.
         25    2    1    2    0    0  0.52430738922E+02  0.49640109346E+02  0.74986615585E+03  0.76363410128E+03  0.12499866437E+03 0.  0.
          2    1    1    2  501    0  0.30042038184E+02  0.36250665044E+02 -0.43351918149E+01  0.47280320033E+02  0.00000000000E+00 0. -1.
          1    1    1    2  502    0 -0.82472777106E+02 -0.85890774389E+02  0.75793840939E+03  0.76723504646E+03  0.00000000000E+00 0. -1.
         22    1    3    3    0    0 -0.37000818923E+02  0.33382397668E+01  0.31896067784E+03  0.32111698562E+03  0.00000000000E+00 0.  1.
         22    1    3    3    0    0  0.89431557845E+02  0.46301869579E+02  0.43090547801E+03  0.44251711565E+03  0.00000000000E+00 0.  1.
</event>
<event>
 7    1  0.7457412E-006  0.5514709E+02  0.7818608E-02  0.1484199E+00
          2   -1    0    0  502    0  0.00000000000E+00  0.00000000000E+00  0.90521900120E+01  0.90521900120E+01  0.00000000000E+00 0. -1.
          1   -1    0    0  501    0 -0.00000000000E+00 -0.00000000000E+00 -0.40572147245E+04  0.40572147245E+04  0.00000000000E+00 0. -1.
         25    2    1    2    0    0  0.45173905766E+01 -0.31208622977E+02 -0.25210415666E+04  0.25243356536E+04  0.12500210628E+03 0.  0.
          2    1    1    2  501    0 -0.32990076932E+01  0.65434823063E+02 -0.14899439548E+04  0.14913837829E+04  0.00000000000E+00 0. -1.
          1    1    1    2  502    0 -0.12183828833E+01 -0.34226200086E+02 -0.37177013120E+02  0.50547478016E+02  0.00000000000E+00 0. -1.
         22    1    3    3    0    0  0.49750496345E+02  0.96626297538E+01 -0.18025790766E+04  0.18032913813E+04  0.00000000000E+00 0.  1.
         22    1    3    3    0    0 -0.45233105768E+02 -0.40871252730E+02 -0.71846248998E+03  0.72104427233E+03  0.00000000000E+00 0.  1.
</event>
<event>
 7    1  0.7457412E-006  0.9815176E+02  0.7818608E-02  0.1383853E+00
          2   -1    0    0  502    0  0.00000000000E+00  0.00000000000E+00  0.27051094482E+04  0.27051094482E+04  0.00000000000E+00 0. -1.
          1   -1    0    0  501    0 -0.00000000000E+00 -0.00000000000E+00 -0.10098634263E+03  0.10098634263E+03  0.00000000000E+00 0. -1.
         25    2    1    2    0    0  0.11898673481E+03 -0.28124225701E+02  0.20106168546E+03  0.26645918721E+03  0.12500352779E+03 0.  0.
          2    1    1    2  501    0 -0.82732301199E+02  0.47340377513E+02 -0.34767840807E+02  0.10146205083E+03  0.00000000000E+00 0. -1.
          1    1    1    2  502    0 -0.36254433607E+02 -0.19216151811E+02  0.24378292609E+04  0.24381745528E+04  0.00000000000E+00 0. -1.
         22    1    3    3    0    0 -0.23428074000E+02 -0.21732202177E+02  0.43520656128E+02  0.53992691844E+02  0.00000000000E+00 0.  1.
         22    1    3    3    0    0  0.14241480881E+03 -0.63920235246E+01  0.15754102933E+03  0.21246649537E+03  0.00000000000E+00 0.  1.
</event>
<event>
 7    1  0.7457412E-006  0.1168355E+03  0.7818608E-02  0.1267930E+00
          2   -1    0    0  502    0  0.00000000000E+00  0.00000000000E+00  0.12045825676E+04  0.12045825676E+04  0.00000000000E+00 0. -1.
          1   -1    0    0  501    0 -0.00000000000E+00 -0.00000000000E+00 -0.63650352680E+03  0.63650352680E+03  0.00000000000E+00 0. -1.
         25    2    1    2    0    0  0.18479387901E+03  0.14693346164E+02  0.27640455144E+02  0.22528604195E+03  0.12500053519E+03 0.  0.
          2    1    1    2  501    0 -0.85684312266E+02  0.44140862107E+02 -0.53024329658E+03  0.53893243606E+03  0.00000000000E+00 0. -1.
          1    1    1    2  502    0 -0.99109566744E+02 -0.58834208271E+02  0.10706818822E+04  0.10768676164E+04  0.00000000000E+00 0. -1.
         22    1    3    3    0    0  0.13380153316E+03 -0.25037122097E+02 -0.29184713142E+02  0.13921729505E+03  0.00000000000E+00 0.  1.
         22    1    3    3    0    0  0.50992345850E+02  0.39730468260E+02  0.56825168286E+02  0.86068746907E+02  0.00000000000E+00 0.  1.
</event>
<event>
 7    1  0.7457412E-006  0.7142552E+02  0.7818608E-02  0.1481874E+00
          2   -1    0    0  502    0  0.00000000000E+00  0.00000000000E+00  0.92989784926E+03  0.92989784926E+03  0.00000000000E+00 0. -1.
          1   -1    0    0  501    0 -0.00000000000E+00 -0.00000000000E+00 -0.13174564590E+04  0.13174564590E+04  0.00000000000E+00 0. -1.
         25    2    1    2    0    0  0.88586124284E+01 -0.46583042312E+02  0.13437694331E+03  0.18954728460E+03  0.12499022106E+03 0.  0.
          2    1    1    2  501    0  0.10436074401E+01  0.71571052033E+02 -0.12886425824E+04  0.12906289977E+04  0.00000000000E+00 0. -1.
          1    1    1    2  502    0 -0.99022198685E+01 -0.24988009721E+02  0.76670702936E+03  0.76717802593E+03  0.00000000000E+00 0. -1.
         22    1    3    3    0    0 -0.40117217362E+02  0.24752775517E+02  0.46105869705E+02  0.65938169870E+02  0.00000000000E+00 0.  1.
         22    1    3    3    0    0  0.48975829790E+02 -0.71335817829E+02  0.88271073602E+02  0.12360911473E+03  0.00000000000E+00 0.  1.
</event>
<event>
 7    1  0.7457412E-006  0.9394227E+02  0.7818608E-02  0.1448174E+00
          2   -1    0    0  502    0  0.00000000000E+00  0.00000000000E+00  0.85336051781E+02  0.85336051781E+02  0.00000000000E+00 0. -1.
          1   -1    0    0  501    0 -0.00000000000E+00 -0.00000000000E+00 -0.87181594104E+03  0.87181594104E+03  0.00000000000E+00 0. -1.
         25    2    1    2    0    0  0.14334280304E+01 -0.96903162476E+02 -0.14408372848E+03  0.21395688292E+03  0.12500059728E+03 0.  0.
          2    1    1    2  501    0  0.23919474014E+02  0.90873803400E+02 -0.68599524736E+03  0.69240137838E+03  0.00000000000E+00 0. -1.
          1    1    1    2  502    0 -0.25352902045E+02  0.60293590764E+01  0.43599086575E+02  0.50793731534E+02  0.00000000000E+00 0. -1.
         22    1    3    3    0    0 -0.12938741664E+02 -0.10866890512E+03 -0.54104262184E+02  0.12208035535E+03  0.00000000000E+00 0.  1.
         22    1    3    3    0    0  0.14372169694E+02  0.11765742648E+02 -0.89979466298E+02  0.91876527563E+02  0.00000000000E+00 0.  1.
</event>
<event>
 7    1  0.7457412E-006  0.9720200E+02  0.7818608E-02  0.1413021E+00
          2   -1    0    0  502    0  0.00000000000E+00  0.00000000000E+00  0.68262545158E+03  0.68262545158E+03  0.00000000000E+00 0. -1.
          1   -1    0    0  501    0 -0.00000000000E+00 -0.00000000000E+00 -0.54296720736E+03  0.54296720736E+03  0.00000000000E+00 0. -1.
         25    2    1    2    0    0  0.11104774348E+03  0.16293805801E+02 -0.27592204244E+03  0.32304068115E+03  0.12500087492E+03 0.  0.
          2    1    1    2  501    0 -0.22650201374E+02  0.23821299237E+02 -0.23877927018E+03  0.24103117181E+03  0.00000000000E+00 0. -1.
          1    1    1    2  502    0 -0.88397542108E+02 -0.40115105038E+02  0.65435955685E+03  0.66152080598E+03  0.00000000000E+00 0. -1.
         22    1    3    3    0    0  0.15821493906E+02  0.11630052847E+02  0.97181038770E+01  0.21909343705E+02  0.00000000000E+00 0.  1.
         22    1    3    3    0    0  0.95226249576E+02  0.46637529543E+01 -0.28564014632E+03  0.30113133744E+03  0.00000000000E+00 0.  1.
</event>
<event>
 7    1  0.7457412E-006  0.1532047E+03  0.7818608E-02  0.1257695E+00
          2   -1    0    0  502    0  0.00000000000E+00  0.00000000000E+00  0.31450869801E+04  0.31450869801E+04  0.00000000000E+00 0. -1.
          1   -1    0    0  501    0 -0.00000000000E+00 -0.00000000000E+00 -0.65349566117E+03  0.65349566117E+03  0.00000000000E+00 0. -1.
         25    2    1    2    0    0 -0.12565518844E+03 -0.95047125807E+01  0.32098460713E+02  0.18038098481E+03  0.12500968985E+03 0.  0.
          2    1    1    2  501    0  0.14109385493E+03 -0.70260880228E+02 -0.56807875492E+03  0.58954010804E+03  0.00000000000E+00 0. -1.
          1    1    1    2  502    0 -0.15438666489E+02  0.79765592809E+02  0.30275716131E+04  0.30286615484E+04  0.00000000000E+00 0. -1.
         22    1    3    3    0    0 -0.49730217647E+02  0.57644156448E+02  0.12714963880E+02  0.77185579134E+02  0.00000000000E+00 0.  1.
         22    1    3    3    0    0 -0.75924970797E+02 -0.67148869028E+02  0.19383496833E+02  0.10319540567E+03  0.00000000000E+00 0.  1.
</event>
<event>
 7    1  0.7457412E-006  0.1435321E+03  0.7818608E-02  0.1412101E+00
          2   -1    0    0  502    0  0.00000000000E+00  0.00000000000E+00  0.28387692587E+04  0.28387692587E+04  0.00000000000E+00 0. -1.
          1   -1    0    0  501    0 -0.00000000000E+00 -0.00000000000E+00 -0.44729283378E+02  0.44729283378E+02  0.00000000000E+00 0. -1.
         25    2    1    2    0    0 -0.11733263395E+03 -0.61409164047E+02  0.75707563131E+03  0.77866950690E+03  0.12499862814E+03 0.  0.
          2    1    1    2  501    0 -0.19883581605E+02  0.10359113663E+02 -0.27329923100E+02  0.35349579206E+02  0.00000000000E+00 0. -1.
          1    1    1    2  502    0  0.13721621555E+03  0.51050050384E+02  0.20642942671E+04  0.20694794559E+04  0.00000000000E+00 0. -1.
         22    1    3    3    0    0 -0.66344108008E+02 -0.97448089751E+02  0.44096514087E+03  0.45645145013E+03  0.00000000000E+00 0. -1.
         22    1    3    3    0    0 -0.50988525939E+02  0.36038925704E+02  0.31611049044E+03  0.32221805677E+03  0.00000000000E+00 0. -1.
</event>
<event>
 7    1  0.7457412E-006  0.1096923E+03  0.7818608E-02  0.1277890E+00
          2   -1    0    0  502    0  0.00000000000E+00  0.00000000000E+00  0.37584720212E+03  0.37584720212E+03  0.00000000000E+00 0. -1.
          1   -1    0    0  501    0 -0.00000000000E+00 -0.00000000000E+00 -0.15791643874E+04  0.15791643874E+04  0.00000000000E+00 0. -1.
         25    2    1    2    0    0 -0.85535636898E+02  0.97739845651E+00 -0.22155404153E+03  0.26838156197E+03  0.12500067600E+03 0.  0.
          2    1    1    2  501    0  0.21546278173E+02  0.90755360535E+02 -0.13236400716E+04  0.13269226868E+04  0.00000000000E+00 0. -1.
          1    1    1    2  502    0  0.63989358724E+02 -0.91732758991E+02  0.34187692792E+03  0.35970734069E+03  0.00000000000E+00 0. -1.
         22    1    3    3    0    0 -0.74954402224E+02  0.88239899770E+01 -0.38262113857E+02  0.84616869292E+02  0.00000000000E+00 0. -1.
         22    1    3    3    0    0 -0.10581234674E+02 -0.78465915205E+01 -0.18329192767E+03  0.18376469268E+03  0.00000000000E+00 0. -1.
</event>
<event>
 7    1  0.7457412E-006  0.1488277E+03  0.7818608E-02  0.1353619E+00
          2   -1    0    0  502    0  0.00000000000E+00  0.00000000000E+00  0.44110580237E+03  0.44110580237E+03  0.00000000000E+00 0. -1.
          1   -1    0    0  501    0 -0.00000000000E+00 -0.00000000000E+00 -0.29898039210E+03  0.29898039210E+03  0.00000000000E+00 0. -1.
         25    2    1    2    0    0  0.17012194492E+03 -0.14514220244E+02 -0.10789631100E+03  0.23752005904E+03  0.12498810258E+03 0.  0.
          2    1    1    2  501    0 -0.13538177777E+03  0.16045513519E+02 -0.88322673721E+02  0.16243946242E+03  0.00000000000E+00 0. -1.
          1    1    1    2  502    0 -0.34740167145E+02 -0.15312932748E+01  0.33834439499E+03  0.34012667301E+03  0.00000000000E+00 0. -1.
         22    1    3    3    0    0  0.63271943165E+02 -0.65732960976E+02 -0.31435980514E+02  0.96500683010E+02  0.00000000000E+00 0. -1.
         22    1    3    3    0    0  0.10685000175E+03  0.51218740732E+02 -0.76460330488E+02  0.14101937603E+03  0.00000000000E+00 0. -1.
</event>
<event>
 7    1  0.7457412E-006  0.3339060E+02  0.7818608E-02  0.1574413E+00
          2   -1    0    0  502    0  0.00000000000E+00  0.00000000000E+00  0.73584738359E+03  0.73584738359E+03  0.00000000000E+00 0. -1.
          1   -1    0    0  501    0 -0.00000000000E+00 -0.00000000000E+00 -0.52444892651E+02  0.52444892651E+02  0.00000000000E+00 0. -1.
         25    2    1    2    0    0  0.42385060178E+02 -0.12857374158E+02  0.53252116085E+03  0.54878642646E+03  0.12500379880E+03 0.  0.
          2    1    1    2  501    0 -0.12889611949E+02  0.28368690502E+02 -0.37182308203E+02  0.48512356574E+02  0.00000000000E+00 0. -1.
          1    1    1    2  502    0 -0.29495448229E+02 -0.15511316344E+02  0.18806363829E+03  0.19099349321E+03  0.00000000000E+00 0. -1.
         22    1    3    3    0    0  0.83762926374E+02 -0.24895832660E+02  0.30746276679E+03  0.31963945827E+03  0.00000000000E+00 0. -1.
         22    1    3    3    0    0 -0.41377866197E+02  0.12038458501E+02  0.22505839406E+03  0.22914696819E+03  0.00000000000E+00 0. -1.
</event>
<event>
 7    1  0.7457412E-006  0.5282154E+02  0.7818608E-02  0.1449826E+00
          2   -1    0    0  502    0  0.00000000000E+00  0.00000000000E+00  0.66593391119E+03  0.66593391119E+03  0.00000000000E+00 0. -1.
          1   -1    0    0  501    0 -0.00000000000E+00 -0.00000000000E+00 -0.37365132663E+03  0.37365132663E+03  0.00000000000E+00 0. -1.
         25    2    1    2    0    0 -0.89330095722E+01  0.70133972788E+02  0.37600370079E+03  0.40249267166E+03  0.12499197946E+03 0.  0.
          2    1    1    2  501    0  0.39006137772E+02 -0.35609321593E+02 -0.35655400933E+03  0.36044453684E+03  0.00000000000E+00 0. -1.
          1    1    1    2  502    0 -0.30073128200E+02 -0.34524651194E+02  0.27283289309E+03  0.27664802933E+03  0.00000000000E+00 0. -1.
         22    1    3    3    0    0  0.14765739844E+02  0.68201728217E+02  0.37186748602E+03  0.37835820324E+03  0.00000000000E+00 0. -1.
         22    1    3    3    0    0 -0.23698749416E+02  0.19322445705E+01  0.41362147775E+01  0.24134468415E+02  0.00000000000E+00 0. -1.
</event>
<event>
 7    1  0.7457412E-006  0.7379705E+02  0.7818608E-02  0.1469596E+00
          2   -1    0    0  502    0  0.00000000000E+00  0.00000000000E+00  0.62561954866E+03  0.62561954866E+03  0.00000000000E+00 0. -1.
          1   -1    0    0  501    0 -0.00000000000E+00 -0.00000000000E+00 -0.93515723117E+03  0.93515723117E+03  0.00000000000E+00 0. -1.
         25    2    1    2    0    0  0.34442457146E+02  0.37343191446E+02  0.37958262916E+03  0.40285008088E+03  0.12499767399E+03 0.  0.
          2    1    1    2  501    0 -0.33772251191E+02 -0.65721458148E+02 -0.92117927035E+03  0.92413804333E+03  0.00000000000E+00 0. -1.
          1    1    1    2  502    0 -0.67020595569E+00  0.28378266702E+02  0.23205895867E+03  0.23378865562E+03  0.00000000000E+00 0. -1.
         22    1    3    3    0    0 -0.13100136226E+02  0.58070869607E+02  0.85220046601E+02  0.10395333476E+03  0.00000000000E+00 0.  1.
         22    1    3    3    0    0  0.47542593372E+02 -0.20727678160E+02  0.29436258256E+03  0.29889674612E+03  0.00000000000E+00 0.  1.
</event>
<event>
 7    1  0.7457412E-006  0.6238218E+02  0.7818608E-02  0.1485015E+00
          2   -1    0    0  502    0  0.00000000000E+00  0.00000000000E+00  0.19822861693E+03  0.19822861693E+03  0.00000000000E+00 0. -1.
          1   -1    0    0  501    0 -0.00000000000E+00 -0.00000000000E+00 -0.50345041349E+03  0.50345041349E+03  0.00000000000E+00 0. -1.
         25    2    1    2    0    0  0.18962146612E+02 -0.30473595163E+02  0.57971616960E+01  0.13017856179E+03  0.12499859143E+03 0.  0.
          2    1    1    2  501    0  0.14105943616E+02 -0.26593399321E+02 -0.43235248118E+03  0.43339918610E+03  0.00000000000E+00 0. -1.
          1    1    1    2  502    0 -0.33068090228E+02  0.57066994485E+02  0.12133352293E+03  0.13810128253E+03  0.00000000000E+00 0. -1.
         22    1    3    3    0    0  0.48941389600E+02 -0.51799335972E+02  0.38461706419E+02  0.80979835044E+02  0.00000000000E+00 0. -1.
         22    1    3    3    0    0 -0.29979242988E+02  0.21325740809E+02 -0.32664544723E+02  0.49198726743E+02  0.00000000000E+00 0. -1.
</event>
<event>
 7    1  0.7457412E-006  0.8255398E+02  0.7818608E-02  0.1405307E+00
          2   -1    0    0  502    0  0.00000000000E+00  0.00000000000E+00  0.30975871588E+03  0.30975871588E+03  0.00000000000E+00 0. -1.
          1   -1    0    0  501    0 -0.00000000000E+00 -0.00000000000E+00 -0.51986598021E+03  0.51986598021E+03  0.00000000000E+00 0. -1.
         25    2    1    2    0    0  0.23973747281E+02 -0.38678158615E+02 -0.21166098327E+02  0.13469763390E+03  0.12499883339E+03 0.  0.
          2    1    1    2  501    0 -0.32341008266E+02  0.78924977312E+02 -0.43610521237E+03  0.44436792089E+03  0.00000000000E+00 0. -1.
          1    1    1    2  502    0  0.83672609846E+01 -0.40246818697E+02  0.24716404636E+03  0.25055914129E+03  0.00000000000E+00 0. -1.
         22    1    3    3    0    0  0.46874075374E+02 -0.37237818935E+01 -0.60963524093E+02  0.76990887537E+02  0.00000000000E+00 0. -1.
         22    1    3    3    0    0 -0.22900328093E+02 -0.34954376722E+02  0.39797425767E+02  0.57706746368E+02  0.00000000000E+00 0. -1.
</event>
<event>
 7    1  0.7457412E-006  0.2831847E+02  0.7818608E-02  0.1623168E+00
          2   -1    0    0  502    0  0.00000000000E+00  0.00000000000E+00  0.97151658336E+03  0.97151658336E+03  0.00000000000E+00 0. -1.
          1   -1    0    0  501    0 -0.00000000000E+00 -0.00000000000E+00 -0.11606885998E+03  0.11606885998E+03  0.00000000000E+00 0. -1.
         25    2    1    2    0    0  0.14447638892E+02  0.22221375369E+02 -0.37530000252E+02  0.13317665645E+03  0.12499998845E+03 0.  0.
          2    1    1    2  501    0 -0.29263600802E+02  0.19120648871E+01 -0.23446782668E+02  0.37546849955E+02  0.00000000000E+00 0. -1.
          1    1    1    2  502    0  0.14815961910E+02 -0.24133440256E+02  0.91642450630E+03  0.91686193694E+03  0.00000000000E+00 0. -1.
         22    1    3    3    0    0 -0.21520915126E+02  0.49542549908E+02  0.22108181019E+02  0.58364250250E+02  0.00000000000E+00 0. -1.
         22    1    3    3    0    0  0.35968554018E+02 -0.27321174539E+02 -0.59638181271E+02  0.74812406202E+02  0.00000000000E+00 0. -1.
</event>
<event>
 7    1  0.7457412E-006  0.2042181E+03  0.7818608E-02  0.1269076E+00
          2   -1    0    0  502    0  0.00000000000E+00  0.00000000000E+00  0.24020756372E+04  0.24020756372E+04  0.00000000000E+00 0. -1.
          1   -1    0    0  501    0 -0.00000000000E+00 -0.00000000000E+00 -0.23921195207E+03  0.23921195207E+03  0.00000000000E+00 0. -1.
         25    2    1    2    0    0 -0.17242416114E+03  0.14700931930E+03 -0.65809617300E+02  0.26700911729E+03  0.12498452578E+03 0.  0.
          2    1    1    2  501    0  0.15252093605E+03 -0.96236970168E+02  0.39746705531E+02  0.18467265895E+03  0.00000000000E+00 0. -1.
          1    1    1    2  502    0  0.19903225086E+02 -0.50772349127E+02  0.21889265969E+04  0.21896058131E+04  0.00000000000E+00 0. -1.
         22    1    3    3    0    0 -0.13832301958E+03  0.13077514694E+03  0.89082223416E+00  0.19035805832E+03  0.00000000000E+00 0.  1.
         22    1    3    3    0    0 -0.34101141563E+02  0.16234172351E+02 -0.66700439534E+02  0.76651058974E+02  0.00000000000E+00 0.  1.
</event>
<event>
 7    1  0.7457412E-006  0.1381166E+03  0.7818608E-02  0.1368676E+00
          2   -1    0    0  502    0  0.00000000000E+00  0.00000000000E+00  0.74314274060E+03  0.74314274060E+03  0.00000000000E+00 0. -1.
          1   -1    0    0  501    0 -0.00000000000E+00 -0.00000000000E+00 -0.11813095891E+04  0.11813095891E+04  0.00000000000E+00 0. -1.
         25    2    1    2    0    0  0.97440177979E+02 -0.81778680386E+02 -0.10625620939E+03  0.20761995399E+03  0.12503328521E+03 0.  0.
          2    1    1    2  501    0 -0.83454859710E+02  0.11169551851E+03 -0.10192286905E+04  0.10287214035E+04  0.00000000000E+00 0. -1.
          1    1    1    2  502    0 -0.13985318269E+02 -0.29916838128E+02  0.68731805139E+03  0.68811097222E+03  0.00000000000E+00 0. -1.
         22    1    3    3    0    0  0.10748448024E+03 -0.41330046271E+02 -0.11742941719E+03  0.16447113497E+03  0.00000000000E+00 0. -1.
         22    1    3    3    0    0 -0.10044302260E+02 -0.40448634115E+02  0.11173207805E+02  0.43148819014E+02  0.00000000000E+00 0. -1.
</event>
<event>
 7    1  0.7457412E-006  0.7833146E+02  0.7818608E-02  0.1416422E+00
          2   -1    0    0  502    0  0.00000000000E+00  0.00000000000E+00  0.19665692015E+04  0.19665692015E+04  0.00000000000E+00 0. -1.
          1   -1    0    0  501    0 -0.00000000000E+00 -0.00000000000E+00 -0.21702205656E+03  0.21702205656E+03  0.00000000000E+00 0. -1.
         25    2    1    2    0    0  0.11371290461E+02  0.10224412428E+03 -0.57086958604E+02  0.17165731506E+03  0.12499658306E+03 0.  0.
          2    1    1    2  501    0 -0.29821341517E+02 -0.26249331669E+02 -0.97973246776E+02  0.10572179012E+03  0.00000000000E+00 0. -1.
          1    1    1    2  502    0  0.18450051056E+02 -0.75994792613E+02  0.19046073503E+04  0.19062121528E+04  0.00000000000E+00 0. -1.
         22    1    3    3    0    0  0.54750152087E+02  0.64122460037E+02 -0.73247782086E+02  0.11168933080E+03  0.00000000000E+00 0.  1.
         22    1    3    3    0    0 -0.43378861626E+02  0.38121664245E+02  0.16160823482E+02  0.59967984261E+02  0.00000000000E+00 0.  1.
</event>
<event>
 7    1  0.7457412E-006  0.4519903E+02  0.7818608E-02  0.1585405E+00
          2   -1    0    0  502    0  0.00000000000E+00  0.00000000000E+00  0.72395122761E+03  0.72395122761E+03  0.00000000000E+00 0. -1.
          1   -1    0    0  501    0 -0.00000000000E+00 -0.00000000000E+00 -0.25138301531E+03  0.25138301531E+03  0.00000000000E+00 0. -1.
         25    2    1    2    0    0 -0.20146185138E+02  0.53857098228E+02  0.17022654115E+03  0.21888173670E+03  0.12500273415E+03 0.  0.
          2    1    1    2  501    0  0.19526980022E+02 -0.90174394892E+01 -0.22559333671E+03  0.22661635142E+03  0.00000000000E+00 0. -1.
          1    1    1    2  502    0  0.61920511547E+00 -0.44839658739E+02  0.52793500786E+03  0.52983615480E+03  0.00000000000E+00 0. -1.
         22    1    3    3    0    0 -0.72941290245E+02  0.38142498132E+02  0.10768165516E+03  0.13553826339E+03  0.00000000000E+00 0. -1.
         22    1    3    3    0    0  0.52795105107E+02  0.15714600096E+02  0.62544885988E+02  0.83343473306E+02  0.00000000000E+00 0. -1.
</event>
<event>
 7    1  0.7457412E-006  0.4568862E+02  0.7818608E-02  0.1473250E+00
          2   -1    0    0  502    0  0.00000000000E+00  0.00000000000E+00  0.18322324020E+03  0.18322324020E+03  0.00000000000E+00 0. -1.
          1   -1    0    0  501    0 -0.00000000000E+00 -0.00000000000E+00 -0.62337159828E+03  0.62337159828E+03  0.00000000000E+00 0. -1.
         25    2    1    2    0    0 -0.63065783256E+02  0.20305644845E+02 -0.26712593251E+03  0.30227580161E+03  0.12499913675E+03 0.  0.
          2    1    1    2  501    0  0.40301481734E+02  0.19261635543E+02 -0.33401059557E+03  0.33698412127E+03  0.00000000000E+00 0. -1.
          1    1    1    2  502    0  0.22764301522E+02 -0.39567280388E+02  0.16098816999E+03  0.16733491560E+03  0.00000000000E+00 0. -1.
         22    1    3    3    0    0 -0.71715328620E+00  0.16128698287E+02  0.94645534011E+01  0.18714352470E+02  0.00000000000E+00 0.  1.
         22    1    3    3    0    0 -0.62348629970E+02  0.41769465574E+01 -0.27659048591E+03  0.28356144914E+03  0.00000000000E+00 0.  1.
</event>
<event>
 7    1  0.7457412E-006  0.8874835E+02  0.7818608E-02  0.1370897E+00
          2   -1    0    0  502    0  0.00000000000E+00  0.00000000000E+00  0.12741965348E+03  0.12741965348E+03  0.00000000000E+00 0. -1.
          1   -1    0    0  501    0 -0.00000000000E+00 -0.00000000000E+00 -0.10852133545E+04  0.10852133545E+04  0.00000000000E+00 0. -1.
         25    2    1    2    0    0  0.25698339879E+02 -0.59299664070E+02 -0.24534637945E+03  0.28283776772E+03  0.12500200841E+03 0.  0.
          2    1    1    2  501    0  0.49800778455E+02  0.81191305059E+01 -0.80104782671E+03  0.80263544558E+03  0.00000000000E+00 0. -1.
          1    1    1    2  502    0 -0.75499118334E+02  0.51180533564E+02  0.88600505110E+02  0.12715979471E+03  0.00000000000E+00 0. -1.
         22    1    3    3    0    0  0.21285959007E+02 -0.47065217449E+02 -0.17379539687E+02  0.54500230680E+02  0.00000000000E+00 0.  1.
         22    1    3    3    0    0  0.44123808715E+01 -0.12234446621E+02 -0.22796683976E+03  0.22833753704E+03  0.00000000000E+00 0.  1.
</event>
<event>
 7    1  0.7457412E-006  0.5477499E+02  0.7818608E-02  0.1465892E+00
          2   -1    0    0  502    0  0.00000000000E+00  0.00000000000E+00  0.65046678574E+03  0.65046678574E+03  0.00000000000E+00 0. -1.
          1   -1    0    0  501    0 -0.00000000000E+00 -0.00000000000E+00 -0.12191232484E+03  0.12191232484E+03  0.00000000000E+00 0. -1.
         25    2    1    2    0    0 -0.16634967673E+02  0.15072026758E+02 -0.48478498369E+02  0.13593746595E+03  0.12499976682E+03 0.  0.
          2    1    1    2  501    0  0.49455788019E+01  0.38963032192E+02 -0.14844859720E+02  0.41987456311E+02  0.00000000000E+00 0. -1.
          1    1    1    2  502    0  0.11689388872E+02 -0.54035058950E+02  0.59187781899E+03  0.59445418833E+03  0.00000000000E+00 0. -1.
         22    1    3    3    0    0 -0.50222021204E+02  0.33524907861E+02 -0.69629875713E+02  0.92165560014E+02  0.00000000000E+00 0. -1.
         22    1    3    3    0    0  0.33587053531E+02 -0.18452881103E+02  0.21151377344E+02  0.43771905937E+02  0.00000000000E+00 0. -1.
</event>
<event>
 7    1  0.7457412E-006  0.5475171E+02  0.7818608E-02  0.1430509E+00
          2   -1    0    0  502    0  0.00000000000E+00  0.00000000000E+00  0.25748782074E+04  0.25748782074E+04  0.00000000000E+00 0. -1.
          1   -1    0    0  501    0 -0.00000000000E+00 -0.00000000000E+00 -0.64951021758E+02  0.64951021758E+02  0.00000000000E+00 0. -1.
         25    2    1    2    0    0 -0.17504830057E+02  0.72327239777E+02  0.25788104217E+03  0.29608787345E+03  0.12501099233E+03 0.  0.
          2    1    1    2  501    0 -0.28362027820E+02 -0.42421945060E+02 -0.31217642356E+02  0.59821127029E+02  0.00000000000E+00 0. -1.
          1    1    1    2  502    0  0.45866857878E+02 -0.29905294717E+02  0.22832637859E+04  0.22839202287E+04  0.00000000000E+00 0. -1.
         22    1    3    3    0    0 -0.49321294659E+02 -0.12393831441E+02  0.12850243763E+03  0.13819939813E+03  0.00000000000E+00 0. -1.
         22    1    3    3    0    0  0.31816464602E+02  0.84721071218E+02  0.12937860454E+03  0.15788847533E+03  0.00000000000E+00 0. -1.
</event>
<event>
 7    1  0.7457412E-006  0.4925093E+02  0.7818608E-02  0.1468831E+00
          2   -1    0    0  502    0  0.00000000000E+00  0.00000000000E+00  0.43838437212E+03  0.43838437212E+03  0.00000000000E+00 0. -1.
          1   -1    0    0  501    0 -0.00000000000E+00 -0.00000000000E+00 -0.14920089736E+04  0.14920089736E+04  0.00000000000E+00 0. -1.
         25    2    1    2    0    0 -0.73707872966E+02  0.47408518707E+01  0.79755841589E+02  0.16565429702E+03  0.12500010256E+03 0.  0.
          2    1    1    2  501    0  0.34925909241E+02  0.24682688958E+02 -0.14468651622E+04  0.14474970991E+04  0.00000000000E+00 0. -1.
          1    1    1    2  502    0  0.38781963726E+02 -0.29423540829E+02  0.31348471913E+03  0.31724194961E+03  0.00000000000E+00 0. -1.
         22    1    3    3    0    0 -0.67227585407E+02  0.40626433579E+02  0.65485407823E+00  0.78552429491E+02  0.00000000000E+00 0. -1.
         22    1    3    3    0    0 -0.64802875590E+01 -0.35885581708E+02  0.79100987511E+02  0.87101867526E+02  0.00000000000E+00 0. -1.
</event>
<event>
 7    1  0.7457412E-006  0.6376880E+02  0.7818608E-02  0.1434725E+00
          2   -1    0    0  502    0  0.00000000000E+00  0.00000000000E+00  0.37534686817E+03  0.37534686817E+03  0.00000000000E+00 0. -1.
          1   -1    0    0  501    0 -0.00000000000E+00 -0.00000000000E+00 -0.70334129788E+03  0.70334129788E+03  0.00000000000E+00 0. -1.
         25    2    1    2    0    0 -0.16342698569E+02  0.16488666555E+02 -0.42987061076E+03  0.44827607041E+03  0.12499493343E+03 0.  0.
          2    1    1    2  501    0 -0.13140798190E+02  0.40355415730E+02 -0.25973259779E+03  0.26317724542E+03  0.00000000000E+00 0. -1.
          1    1    1    2  502    0  0.29483496758E+02 -0.56844082284E+02  0.36160877885E+03  0.36723485022E+03  0.00000000000E+00 0. -1.
         22    1    3    3    0    0  0.10067445320E+02  0.67085904034E+02 -0.19125526741E+03  0.20292966587E+03  0.00000000000E+00 0. -1.
         22    1    3    3    0    0 -0.26410143889E+02 -0.50597237479E+02 -0.23861534335E+03  0.24534640454E+03  0.00000000000E+00 0. -1.
</event>
<event>
 7    1  0.7457412E-006  0.4064073E+03  0.7818608E-02  0.1111798E+00
          2   -1    0    0  502    0  0.00000000000E+00  0.00000000000E+00  0.93085471204E+03  0.93085471204E+03  0.00000000000E+00 0. -1.
          1   -1    0    0  501    0 -0.00000000000E+00 -0.00000000000E+00 -0.12037756063E+04  0.12037756063E+04  0.00000000000E+00 0. -1.
         25    2    1    2    0    0  0.31954380532E+03 -0.45067847749E+03 -0.77515216152E+03  0.96005492119E+03  0.12500097846E+03 0.  0.
          2    1    1    2  501    0 -0.10918133360E+03  0.11247578008E+03 -0.26627691082E+03  0.30898989943E+03  0.00000000000E+00 0. -1.
          1    1    1    2  502    0 -0.21036247172E+03  0.33820269740E+03  0.76850817809E+03  0.86558549770E+03  0.00000000000E+00 0. -1.
         22    1    3    3    0    0  0.25080752017E+03 -0.41766249073E+03 -0.70119296948E+03  0.85382547911E+03  0.00000000000E+00 0.  1.
         22    1    3    3    0    0  0.68736285151E+02 -0.33015986755E+02 -0.73959192040E+02  0.10622944208E+03  0.00000000000E+00 0.  1.
</event>
<event>
 7    1  0.7457412E-006  0.1032180E+03  0.7818608E-02  0.1343466E+00
          2   -1    0    0  502    0  0.00000000000E+00  0.00000000000E+00  0.28755934331E+04  0.28755934331E+04  0.00000000000E+00 0. -1.
          1   -1    0    0  501    0 -0.00000000000E+00 -0.00000000000E+00 -0.48683113591E+03  0.48683113591E+03  0.00000000000E+00 0. -1.
         25    2    1    2    0    0  0.13817788845E+03 -0.46577420052E+01  0.58478223342E+03  0.61376829622E+03  0.12500574990E+03 0.  0.
          2    1    1    2  501    0 -0.41844056242E+02  0.35209789860E+02 -0.46962892470E+03  0.47280226444E+03  0.00000000000E+00 0. -1.
          1    1    1    2  502    0 -0.96333832205E+02 -0.30552047855E+02  0.22736089885E+04  0.22758540084E+04  0.00000000000E+00 0. -1.
         22    1    3    3    0    0  0.14826682774E+03 -0.27717306227E+02  0.40394369699E+03  0.43118651603E+03  0.00000000000E+00 0.  1.
         22    1    3    3    0    0 -0.10088939292E+02  0.23059564222E+02  0.18083853643E+03  0.18258178019E+03  0.00000000000E+00 0.  1.
</event>
<event>
 7    1  0.7457412E-006  0.6122518E+02  0.7818608E-02  0.1467898E+00
          2   -1    0    0  502    0  0.00000000000E+00  0.00000000000E+00  0.23888608901E+03  0.23888608901E+03  0.00000000000E+00 0. -1.
          1   -1    0    0  501    0 -0.00000000000E+00 -0.00000000000E+00 -0.12558791448E+03  0.12558791448E+03  0.00000000000E+00 0. -1.
         25    2    1    2    0    0 -0.12350979083E+02  0.27487561906E+02 -0.17047315615E+02  0.12970644272E+03  0.12500015028E+03 0.  0.
          2    1    1    2  501    0 -0.20466422285E+01  0.34573918549E+02 -0.39992535659E+02  0.52905080065E+02  0.00000000000E+00 0. -1.
          1    1    1    2  502    0  0.14397621312E+02 -0.62061480456E+02  0.17033802580E+03  0.18186248071E+03  0.00000000000E+00 0. -1.
         22    1    3    3    0    0  0.28541319949E+02  0.55536184205E+02  0.22405380126E+02  0.66339096761E+02  0.00000000000E+00 0.  1.
         22    1    3    3    0    0 -0.40892299032E+02 -0.28048622299E+02 -0.39452695741E+02  0.63367345962E+02  0.00000000000E+00 0.  1.
</event>
<event>
 7    1  0.7457412E-006  0.1279678E+03  0.7818608E-02  0.1305732E+00
          2   -1    0    0  502    0  0.00000000000E+00  0.00000000000E+00  0.82308951266E+03  0.82308951266E+03  0.00000000000E+00 0. -1.
          1   -1    0    0  501    0 -0.00000000000E+00 -0.00000000000E+00 -0.82073025927E+03  0.82073025927E+03  0.00000000000E+00 0. -1.
         25    2    1    2    0    0 -0.70946990952E+02  0.74488693012E+02 -0.76501035218E+02  0.17904970973E+03  0.12499739698E+03 0.  0.
          2    1    1    2  501    0 -0.51867342900E+02 -0.33323249387E+02 -0.68612852453E+03  0.68889259858E+03  0.00000000000E+00 0. -1.
          1    1    1    2  502    0  0.12281433385E+03 -0.41165443625E+02  0.76498881313E+03  0.77587746362E+03  0.00000000000E+00 0. -1.
         22    1    3    3    0    0  0.52462808409E+01  0.63137140771E+02 -0.79864671836E+02  0.10194208069E+03  0.00000000000E+00 0.  1.
         22    1    3    3    0    0 -0.76193271793E+02  0.11351552240E+02  0.33636366173E+01  0.77107629040E+02  0.00000000000E+00 0.  1.
</event>
<event>
 7    1  0.7457412E-006  0.1375051E+03  0.7818608E-02  0.1337129E+00
          2   -1    0    0  502    0  0.00000000000E+00  0.00000000000E+00  0.22714303010E+04  0.22714303010E+04  0.00000000000E+00 0. -1.
          1   -1    0    0  501    0 -0.00000000000E+00 -0.00000000000E+00 -0.21962669922E+04  0.21962669922E+04  0.00000000000E+00 0. -1.
         25    2    1    2    0    0 -0.11672870443E+03 -0.59385749302E+02  0.39551721223E+02  0.18531324484E+03  0.12499760959E+03 0.  0.
          2    1    1    2  501    0  0.96882305292E+02  0.97943879795E+02 -0.21209334690E+04  0.21254030122E+04  0.00000000000E+00 0. -1.
          1    1    1    2  502    0  0.19846399136E+02 -0.38558130493E+02  0.21565450566E+04  0.21569810361E+04  0.00000000000E+00 0. -1.
         22    1    3    3    0    0 -0.82288085253E+02 -0.33335490302E+02 -0.37980299369E+02  0.96566490194E+02  0.00000000000E+00 0.  1.
         22    1    3    3    0    0 -0.34440619174E+02 -0.26050259000E+02  0.77532020591E+02  0.88746754645E+02  0.00000000000E+00 0.  1.
</event>
<event>
 7    1  0.7457412E-006  0.6663004E+02  0.7818608E-02  0.1455193E+00
          2   -1    0    0  502    0  0.00000000000E+00  0.00000000000E+00  0.19820111722E+04  0.19820111722E+04  0.00000000000E+00 0. -1.
          1   -1    0    0  501    0 -0.00000000000E+00 -0.00000000000E+00 -0.17138696739E+03  0.17138696739E+03  0.00000000000E+00 0. -1.
         25    2    1    2    0    0 -0.59136970766E+02  0.63241928946E+02  0.33138869870E+03  0.36461025182E+03  0.12500177286E+03 0.  0.
          2    1    1    2  501    0  0.34847797935E+02 -0.18116554476E+01 -0.15213243141E+03  0.15608307981E+03  0.00000000000E+00 0. -1.
          1    1    1    2  502    0  0.24289172831E+02 -0.61430273499E+02  0.16313679375E+04  0.16327048080E+04  0.00000000000E+00 0. -1.
         22    1    3    3    0    0 -0.36254554660E+02  0.41961739206E+02  0.32859049437E+03  0.33323699267E+03  0.00000000000E+00 0. -1.
         22    1    3    3    0    0 -0.22882416106E+02  0.21280189741E+02  0.27982043264E+01  0.31373259150E+02  0.00000000000E+00 0. -1.
</event>
<event>
 7    1  0.7457412E-006  0.1520879E+03  0.7818608E-02  0.1279670E+00
          2   -1    0    0  502    0  0.00000000000E+00  0.00000000000E+00  0.68881223689E+03  0.68881223689E+03  0.00000000000E+00 0. -1.
          1   -1    0    0  501    0 -0.00000000000E+00 -0.00000000000E+00 -0.96273704013E+03  0.96273704013E+03  0.00000000000E+00 0. -1.
         25    2    1    2    0    0 -0.11428568809E+03 -0.31782451975E+02  0.11595159610E+03  0.20770804744E+03  0.12500607017E+03 0.  0.
          2    1    1    2  501    0  0.15217610265E+03 -0.22433870204E+02 -0.90829106389E+03  0.92122391496E+03  0.00000000000E+00 0. -1.
          1    1    1    2  502    0 -0.37890414560E+02  0.54216322179E+02  0.51841466456E+03  0.52261731462E+03  0.00000000000E+00 0. -1.
         22    1    3    3    0    0 -0.44384524398E+02  0.46319003983E+02  0.64408981370E+02  0.90906287006E+02  0.00000000000E+00 0. -1.
         22    1    3    3    0    0 -0.69901163692E+02 -0.78101455958E+02  0.51542614725E+02  0.11680176044E+03  0.00000000000E+00 0. -1.
</event>
<event>
 7    1  0.7457412E-006  0.1206526E+03  0.7818608E-02  0.1344186E+00
          2   -1    0    0  502    0  0.00000000000E+00  0.00000000000E+00  0.90624327533E+03  0.90624327533E+03  0.00000000000E+00 0. -1.
          1   -1    0    0  501    0 -0.00000000000E+00 -0.00000000000E+00 -0.31591967230E+04  0.31591967230E+04  0.00000000000E+00 0. -1.
         25    2    1    2    0    0  0.59516868124E+02 -0.57647473441E+02  0.15660546946E+03  0.21683030102E+03  0.12499847035E+03 0.  0.
          2    1    1    2  501    0  0.21708843053E+02 -0.41115861611E+02 -0.31232284513E+04  0.31235745144E+04  0.00000000000E+00 0. -1.
          1    1    1    2  502    0 -0.81225711177E+02  0.98763335052E+02  0.71366953415E+03  0.72503518293E+03  0.00000000000E+00 0. -1.
         22    1    3    3    0    0 -0.18534469574E+02 -0.68650994490E+02  0.71940171328E+02  0.10115272541E+03  0.00000000000E+00 0. -1.
         22    1    3    3    0    0  0.78051337698E+02  0.11003521049E+02  0.84665298134E+02  0.11567757561E+03  0.00000000000E+00 0. -1.
</event>
<event>
 7    1  0.7457412E-006  0.5761006E+02  0.7818608E-02  0.1409804E+00
          2   -1    0    0  502    0  0.00000000000E+00  0.00000000000E+00  0.12804278255E+04  0.12804278255E+04  0.00000000000E+00 0. -1.
          1   -1    0    0  501    0 -0.00000000000E+00 -0.00000000000E+00 -0.81464585449E+02  0.81464585449E+02  0.00000000000E+00 0. -1.
         25    2    1    2    0    0 -0.65242763854E+02 -0.30186652163E+02  0.41895629713E+03  0.44307895859E+03  0.12500692955E+03 0.  0.
          2    1    1    2  501    0  0.52179731529E+02 -0.25160319472E+02 -0.56178994802E+02  0.80696006812E+02  0.00000000000E+00 0. -1.
          1    1    1    2  502    0  0.13063032325E+02  0.55346971635E+02  0.83618593771E+03  0.83811744554E+03  0.00000000000E+00 0. -1.
         22    1    3    3    0    0  0.23105750766E+02  0.90879724992E+01  0.18095660316E+02  0.30723279202E+02  0.00000000000E+00 0. -1.
         22    1    3    3    0    0 -0.88348514620E+02 -0.39274624663E+02  0.40086063681E+03  0.41235567939E+03  0.00000000000E+00 0. -1.
</event>
<event>
 7    1  0.7457412E-006  0.3516895E+02  0.7818608E-02  0.1549443E+00
          2   -1    0    0  502    0  0.00000000000E+00  0.00000000000E+00  0.35694675393E+03  0.35694675393E+03  0.00000000000E+00 0. -1.
          1   -1    0    0  501    0 -0.00000000000E+00 -0.00000000000E+00 -0.95299221398E+03  0.95299221398E+03  0.00000000000E+00 0. -1.
         25    2    1    2    0    0 -0.41078440816E+00 -0.49944219067E+01 -0.86135808501E+02  0.15189504978E+03  0.12501046216E+03 0.  0.
          2    1    1    2  501    0 -0.33573958353E+02  0.11718539703E+02 -0.83267033952E+03  0.83342931864E+03  0.00000000000E+00 0. -1.
          1    1    1    2  502    0  0.33984742762E+02 -0.67241177966E+01  0.32276068797E+03  0.32461459948E+03  0.00000000000E+00 0. -1.
         22    1    3    3    0    0 -0.58873538235E+02  0.82045339173E+00 -0.68976711047E+02  0.90689323048E+02  0.00000000000E+00 0.  1.
         22    1    3    3    0    0  0.58462753827E+02 -0.58148752985E+01 -0.17159097454E+02  0.61205726735E+02  0.00000000000E+00 0.  1.
</event>
<event>
 7    1  0.7457412E-006  0.9130310E+02  0.7818608E-02  0.1302159E+00
          2   -1    0    0  502    0  0.00000000000E+00  0.00000000000E+00  0.15867468842E+03  0.15867468842E+03  0.00000000000E+00 0. -1.
          1   -1    0    0  501    0 -0.00000000000E+00 -0.00000000000E+00 -0.12933342558E+04  0.12933342558E+04  0.00000000000E+00 0. -1.
         25    2    1    2    0    0  0.51938851020E+02  0.32410488750E+02 -0.63791925780E+02  0.15310948019E+03  0.12500007641E+03 0.  0.
          2    1    1    2  501    0  0.18851720425E+02 -0.90072876756E+02 -0.11644938818E+04  0.11681243561E+04  0.00000000000E+00 0. -1.
          1    1    1    2  502    0 -0.70790571445E+02  0.57662388005E+02  0.93626240225E+02  0.13077510793E+03  0.00000000000E+00 0. -1.
         22    1    3    3    0    0  0.85250447548E+02  0.16651042629E+02 -0.93433018340E+01  0.87362425087E+02  0.00000000000E+00 0.  1.
         22    1    3    3    0    0 -0.33311596529E+02  0.15759446121E+02 -0.54448623946E+02  0.65747055105E+02  0.00000000000E+00 0.  1.
</event>
<event>
 7    1  0.7457412E-006  0.4091731E+02  0.7818608E-02  0.1569735E+00
          2   -1    0    0  502    0  0.00000000000E+00  0.00000000000E+00  0.28821829647E+03  0.28821829647E+03  0.00000000000E+00 0. -1.
          1   -1    0    0  501    0 -0.00000000000E+00 -0.00000000000E+00 -0.10902632530E+03  0.10902632530E+03  0.00000000000E+00 0. -1.
         25    2    1    2    0    0  0.21821001755E+02 -0.49625586054E+02 -0.36704025135E+02  0.14110518264E+03  0.12499852879E+03 0.  0.
          2    1    1    2  501    0  0.10032423730E+02  0.24182377166E+02 -0.89186961609E+01  0.27658272406E+02  0.00000000000E+00 0. -1.
          1    1    1    2  502    0 -0.31853425485E+02  0.25443208888E+02  0.22481469247E+03  0.22848116672E+03  0.00000000000E+00 0. -1.
         22    1    3    3    0    0  0.28685726043E+02  0.32032139388E+02 -0.40503103793E+02  0.59071399587E+02  0.00000000000E+00 0. -1.
         22    1    3    3    0    0 -0.68647242879E+01 -0.81657725442E+02  0.37990786576E+01  0.82033783056E+02  0.00000000000E+00 0. -1.
</event>
<event>
 7    1  0.7457412E-006  0.6135754E+02  0.7818608E-02  0.1486341E+00
          2   -1    0    0  502    0  0.00000000000E+00  0.00000000000E+00  0.12172093164E+04  0.12172093164E+04  0.00000000000E+00 0. -1.
          1   -1    0    0  501    0 -0.00000000000E+00 -0.00000000000E+00 -0.12314040839E+03  0.12314040839E+03  0.00000000000E+00 0. -1.
         25    2    1    2    0    0 -0.58414880622E+02 -0.67864811782E+02  0.34136691720E+01  0.15380153058E+03  0.12500130685E+03 0.  0.
          2    1    1    2  501    0  0.12484468656E+02  0.27633136558E+02 -0.42246569985E+02  0.52002162158E+02  0.00000000000E+00 0. -1.
          1    1    1    2  502    0  0.45930411966E+02  0.40231675224E+02  0.11329018088E+04  0.11345460321E+04  0.00000000000E+00 0. -1.
         22    1    3    3    0    0 -0.58523593405E+02 -0.14509724648E+02  0.53508842731E+02  0.80614758852E+02  0.00000000000E+00 0. -1.
         22    1    3    3    0    0  0.10871278333E+00 -0.53355087134E+02 -0.50095173559E+02  0.73186771724E+02  0.00000000000E+00 0. -1.
</event>
<event>
 7    1  0.7457412E-006  0.1678837E+03  0.7818608E-02  0.1263004E+00
          2   -1    0    0  502    0  0.00000000000E+00  0.00000000000E+00  0.22486398065E+04  0.22486398065E+04  0.00000000000E+00 0. -1.
          1   -1    0    0  501    0 -0.00000000000E+00 -0.00000000000E+00 -0.64332771299E+03  0.64332771299E+03  0.00000000000E+00 0. -1.
         25    2    1    2    0    0 -0.20738372046E+03  0.24861818111E+02  0.38384767725E+03  0.45452527139E+03  0.12501226137E+03 0.  0.
          2    1    1    2  501    0  0.15226715872E+03 -0.68620145903E+02 -0.59582520146E+03  0.61879049988E+03  0.00000000000E+00 0. -1.
          1    1    1    2  502    0  0.55116561740E+02  0.43758327791E+02  0.18172896177E+04  0.18186517482E+04  0.00000000000E+00 0. -1.
         22    1    3    3    0    0 -0.17006945309E+02  0.46881658868E+02  0.10408248821E+03  0.11541356280E+03  0.00000000000E+00 0.  1.
         22    1    3    3    0    0 -0.19037677515E+03 -0.22019840757E+02  0.27976518904E+03  0.33911170859E+03  0.00000000000E+00 0.  1.
</event>
<event>
 7    1  0.7457412E-006  0.7084305E+02  0.7818608E-02  0.1366278E+00
          2   -1    0    0  502    0  0.00000000000E+00  0.00000000000E+00  0.81510615747E+02  0.81510615747E+02  0.00000000000E+00 0. -1.
          1   -1    0    0  501    0 -0.00000000000E+00 -0.00000000000E+00 -0.90611987578E+03  0.90611987578E+03  0.00000000000E+00 0. -1.
         25    2    1    2    0    0  0.72521295473E+02 -0.89652851186E+02 -0.36598144427E+03  0.40356455158E+03  0.12499983087E+03 0.  0.
          2    1    1    2  501    0 -0.62288966398E+02  0.24774434431E+02 -0.50128609442E+03  0.50574839238E+03  0.00000000000E+00 0. -1.
          1    1    1    2  502    0 -0.10232329075E+02  0.64878416755E+02  0.42658278657E+02  0.78317547568E+02  0.00000000000E+00 0. -1.
         22    1    3    3    0    0 -0.33129590334E+01 -0.81715981983E+02 -0.11401286159E+03  0.14031183135E+03  0.00000000000E+00 0. -1.
         22    1    3    3    0    0  0.75834254507E+02 -0.79368692028E+01 -0.25196858268E+03  0.26325272023E+03  0.00000000000E+00 0. -1.
</event>
<event>
 7    1  0.7457412E-006  0.9389498E+02  0.7818608E-02  0.1327307E+00
          2   -1    0    0  502    0  0.00000000000E+00  0.00000000000E+00  0.11008855532E+04  0.11008855532E+04  0.00000000000E+00 0. -1.
          1   -1    0    0  501    0 -0.00000000000E+00 -0.00000000000E+00 -0.12909149554E+03  0.12909149554E+03  0.00000000000E+00 0. -1.
         25    2    1    2    0    0 -0.94941078592E+02 -0.12464709113E+03  0.32098549921E+03  0.37842799697E+03  0.12500140982E+03 0.  0.
          2    1    1    2  501    0  0.35766591482E+02  0.59261358294E+02 -0.85484115796E+02  0.10999405305E+03  0.00000000000E+00 0. -1.
          1    1    1    2  502    0  0.59174487110E+02  0.65385732834E+02  0.73629267421E+03  0.74155499869E+03  0.00000000000E+00 0. -1.
         22    1    3    3    0    0 -0.89033228288E+02 -0.23043756153E+02  0.10445565297E+03  0.13917224535E+03  0.00000000000E+00 0. -1.
         22    1    3    3    0    0 -0.59078503039E+01 -0.10160333498E+03  0.21652984624E+03  0.23925575162E+03  0.00000000000E+00 0. -1.
</event>
<event>
 7    1  0.7457412E-006  0.3817847E+02  0.7818608E-02  0.1571476E+00
          2   -1    0    0  502    0  0.00000000000E+00  0.00000000000E+00  0.24792926241E+03  0.24792926241E+03  0.00000000000E+00 0. -1.
          1   -1    0    0  501    0 -0.00000000000E+00 -0.00000000000E+00 -0.19544056531E+03  0.19544056531E+03  0.00000000000E+00 0. -1.
         25    2    1    2    0    0 -0.25131527263E+02  0.11709539977E+02  0.15917604406E+03  0.20428106160E+03  0.12500012855E+03 0.  0.
          2    1    1    2  501    0  0.61866571288E+01  0.27057111608E+02 -0.16456962884E+03  0.16689375288E+03  0.00000000000E+00 0. -1.
          1    1    1    2  502    0  0.18944870134E+02 -0.38766651585E+02  0.57882281889E+02  0.72195013236E+02  0.00000000000E+00 0. -1.
         22    1    3    3    0    0 -0.58124243762E+02  0.40306059115E+02  0.13946668345E+03  0.15637762598E+03  0.00000000000E+00 0.  1.
         22    1    3    3    0    0  0.32992716499E+02 -0.28596519138E+02  0.19709360612E+02  0.47903435624E+02  0.00000000000E+00 0.  1.
</event>
<event>
 7    1  0.7457412E-006  0.5393398E+02  0.7818608E-02  0.1486248E+00
          2   -1    0    0  502    0  0.00000000000E+00  0.00000000000E+00  0.15242016271E+04  0.15242016271E+04  0.00000000000E+00 0. -1.
          1   -1    0    0  501    0 -0.00000000000E+00 -0.00000000000E+00 -0.11838225349E+02  0.11838225349E+02  0.00000000000E+00 0. -1.
         25    2    1    2    0    0 -0.63151589957E+02  0.76391049624E+01  0.12245423814E+04  0.12325483778E+04  0.12499992153E+03 0.  0.
          2    1    1    2  501    0  0.23815981427E+02  0.24986716327E+02  0.53552286358E+02  0.63713297971E+02  0.00000000000E+00 0. -1.
          1    1    1    2  502    0  0.39335608530E+02 -0.32625821290E+02  0.23426873393E+03  0.23977817668E+03  0.00000000000E+00 0. -1.
         22    1    3    3    0    0  0.99011020496E+01  0.30826960739E+02  0.82994945834E+03  0.83058078278E+03  0.00000000000E+00 0. -1.
         22    1    3    3    0    0 -0.73052692007E+02 -0.23187855776E+02  0.39459292308E+03  0.40196759498E+03  0.00000000000E+00 0. -1.
</event>
<event>
 7    1  0.7457412E-006  0.3620242E+02  0.7818608E-02  0.1552718E+00
          2   -1    0    0  502    0  0.00000000000E+00  0.00000000000E+00  0.76284896087E+03  0.76284896087E+03  0.00000000000E+00 0. -1.
          1   -1    0    0  501    0 -0.00000000000E+00 -0.00000000000E+00 -0.59975400275E+02  0.59975400275E+02  0.00000000000E+00 0. -1.
         25    2    1    2    0    0  0.63584236166E+01 -0.66053115284E+01  0.19614513330E+03  0.23277111658E+03  0.12500167880E+03 0.  0.
          2    1    1    2  501    0 -0.37025868926E+02 -0.54589337313E+01 -0.32651657984E+02  0.49667350405E+02  0.00000000000E+00 0. -1.
          1    1    1    2  502    0  0.30667445309E+02  0.12064245260E+02  0.53938008528E+03  0.54038589416E+03  0.00000000000E+00 0. -1.
         22    1    3    3    0    0  0.57241284308E+02 -0.34468505817E+02  0.11536897958E+03  0.13332158104E+03  0.00000000000E+00 0.  1.
         22    1    3    3    0    0 -0.50882860691E+02  0.27863194288E+02  0.80776153727E+02  0.99449535539E+02  0.00000000000E+00 0.  1.
</event>
<event>
 7    1  0.7457412E-006  0.8753916E+02  0.7818608E-02  0.1458343E+00
          2   -1    0    0  502    0  0.00000000000E+00  0.00000000000E+00  0.58964871267E+03  0.58964871267E+03  0.00000000000E+00 0. -1.
          1   -1    0    0  501    0 -0.00000000000E+00 -0.00000000000E+00 -0.96508447645E+02  0.96508447645E+02  0.00000000000E+00 0. -1.
         25    2    1    2    0    0 -0.77514465234E+02 -0.44979553876E+02  0.45352865052E+03  0.47889850419E+03  0.12499555148E+03 0.  0.
          2    1    1    2  501    0  0.85255944904E+02  0.20204283339E+02 -0.58775486017E+02  0.10550519875E+03  0.00000000000E+00 0. -1.
          1    1    1    2  502    0 -0.77414796705E+01  0.24775270537E+02  0.98387100528E+02  0.10175345738E+03  0.00000000000E+00 0. -1.
         22    1    3    3    0    0 -0.93263796062E+02 -0.27368989056E+02  0.44209143447E+03  0.45265001232E+03  0.00000000000E+00 0.  1.
         22    1    3    3    0    0  0.15749330829E+02 -0.17610564820E+02  0.11437216045E+02  0.26248491875E+02  0.00000000000E+00 0.  1.
</event>
<event>
 7    1  0.7457412E-006  0.1185122E+03  0.7818608E-02  0.1313870E+00
          2   -1    0    0  502    0  0.00000000000E+00  0.00000000000E+00  0.20162039995E+04  0.20162039995E+04  0.00000000000E+00 0. -1.
          1   -1    0    0  501    0 -0.00000000000E+00 -0.00000000000E+00 -0.24369708411E+03  0.24369708411E+03  0.00000000000E+00 0. -1.
         25    2    1    2    0    0 -0.73327122470E+02 -0.18570028299E+02  0.67450447872E+01  0.14623426461E+03  0.12496900286E+03 0.  0.
          2    1    1    2  501    0  0.11905632616E+03  0.60182310865E+02 -0.14780314415E+03  0.19910321132E+03  0.00000000000E+00 0. -1.
          1    1    1    2  502    0 -0.45729203686E+02 -0.41612282566E+02  0.19135650147E+04  0.19145636076E+04  0.00000000000E+00 0. -1.
         22    1    3    3    0    0 -0.67683384178E+02 -0.28751837640E+02 -0.49598817293E+02  0.88700345762E+02  0.00000000000E+00 0. -1.
         22    1    3    3    0    0 -0.56437382914E+01  0.10181809341E+02  0.56343862080E+02  0.57533918843E+02  0.00000000000E+00 0. -1.
</event>
<event>
 7    1  0.7457412E-006  0.4251896E+02  0.7818608E-02  0.1499086E+00
          2   -1    0    0  502    0  0.00000000000E+00  0.00000000000E+00  0.12921727617E+04  0.12921727617E+04  0.00000000000E+00 0. -1.
          1   -1    0    0  501    0 -0.00000000000E+00 -0.00000000000E+00 -0.53499270664E+03  0.53499270664E+03  0.00000000000E+00 0. -1.
         25    2    1    2    0    0  0.40649502976E+02  0.77417889974E+01  0.61075572415E+03  0.62478836361E+03  0.12500250931E+03 0.  0.
          2    1    1    2  501    0 -0.91469415153E+01 -0.38994458687E+02 -0.52648493570E+03  0.52800627067E+03  0.00000000000E+00 0. -1.
          1    1    1    2  502    0 -0.31502561461E+02  0.31252669690E+02  0.67290926662E+03  0.67437083407E+03  0.00000000000E+00 0. -1.
         22    1    3    3    0    0 -0.35652748437E+01  0.58753840364E+02  0.37372500709E+03  0.37833200481E+03  0.00000000000E+00 0.  1.
         22    1    3    3    0    0  0.44214777820E+02 -0.51012051366E+02  0.23703071707E+03  0.24645635880E+03  0.00000000000E+00 0.  1.
</event>
<event>
 7    1  0.7457412E-006  0.1981422E+03  0.7818608E-02  0.1190346E+00
          2   -1    0    0  502    0  0.00000000000E+00  0.00000000000E+00  0.12391371419E+04  0.12391371419E+04  0.00000000000E+00 0. -1.
          1   -1    0    0  501    0 -0.00000000000E+00 -0.00000000000E+00 -0.74707275170E+03  0.74707275170E+03  0.00000000000E+00 0. -1.
         25    2    1    2    0    0 -0.71920134694E+02  0.10651518867E+03 -0.12610728934E+03  0.21919530825E+03  0.12500217415E+03 0.  0.
          2    1    1    2  501    0 -0.12009309502E+03 -0.40897151300E+02 -0.55862595187E+03  0.57285066340E+03  0.00000000000E+00 0. -1.
          1    1    1    2  502    0  0.19201322971E+03 -0.65618037373E+02  0.11767976314E+04  0.11941639219E+04  0.00000000000E+00 0. -1.
         22    1    3    3    0    0 -0.54261559840E+02  0.59954610356E+02  0.28954216764E+01  0.80915113829E+02  0.00000000000E+00 0. -1.
         22    1    3    3    0    0 -0.17658574853E+02  0.46560578317E+02 -0.12900271102E+03  0.13828019442E+03  0.00000000000E+00 0. -1.
</event>
<event>
 7    1  0.7457412E-006  0.6935537E+02  0.7818608E-02  0.1362965E+00
          2   -1    0    0  502    0  0.00000000000E+00  0.00000000000E+00  0.20490582633E+04  0.20490582633E+04  0.00000000000E+00 0. -1.
          1   -1    0    0  501    0 -0.00000000000E+00 -0.00000000000E+00 -0.62586370336E+03  0.62586370336E+03  0.00000000000E+00 0. -1.
         25    2    1    2    0    0  0.20883139628E+02 -0.65390795926E+01  0.31261375837E+02  0.13069530416E+03  0.12500049531E+03 0.  0.
          2    1    1    2  501    0 -0.37473496935E+02 -0.60405611010E+02 -0.57334688469E+03  0.57773674888E+03  0.00000000000E+00 0. -1.
          1    1    1    2  502    0  0.16590357308E+02  0.66944690603E+02  0.19652800688E+04  0.19664899136E+04  0.00000000000E+00 0. -1.
         22    1    3    3    0    0  0.59155867415E+02 -0.39163592517E+02 -0.98928638956E+00  0.70951971896E+02  0.00000000000E+00 0.  1.
         22    1    3    3    0    0 -0.38272727787E+02  0.32624512924E+02  0.32250662227E+02  0.59743332263E+02  0.00000000000E+00 0.  1.
</event>
<event>
 7    1  0.7457412E-006  0.7934451E+02  0.7818608E-02  0.1408637E+00
          2   -1    0    0  502    0  0.00000000000E+00  0.00000000000E+00  0.15343015595E+04  0.15343015595E+04  0.00000000000E+00 0. -1.
          1   -1    0    0  501    0 -0.00000000000E+00 -0.00000000000E+00 -0.78360943363E+03  0.78360943363E+03  0.00000000000E+00 0. -1.
         25    2    1    2    0    0 -0.98524149000E+02 -0.35031950748E+02 -0.13659797322E+03  0.21265102862E+03  0.12500883240E+03 0.  0.
          2    1    1    2  501    0  0.59745272219E+02  0.50277677558E+02 -0.60619008276E+03  0.61119862471E+03  0.00000000000E+00 0. -1.
          1    1    1    2  502    0  0.38778876781E+02 -0.15245726810E+02  0.14934801819E+04  0.14940613398E+04  0.00000000000E+00 0. -1.
         22    1    3    3    0    0 -0.41531866339E+02  0.29833845345E+02 -0.11160154397E+03  0.12275935347E+03  0.00000000000E+00 0.  1.
         22    1    3    3    0    0 -0.56992282661E+02 -0.64865796093E+02 -0.24996429254E+02  0.89891675149E+02  0.00000000000E+00 0.  1.
</event>
<event>
 7    1  0.7457412E-006  0.7292743E+02  0.7818608E-02  0.1486163E+00
          2   -1    0    0  502    0  0.00000000000E+00  0.00000000000E+00  0.79635439147E+02  0.79635439147E+02  0.00000000000E+00 0. -1.
          1   -1    0    0  501    0 -0.00000000000E+00 -0.00000000000E+00 -0.77373237555E+03  0.77373237555E+03  0.00000000000E+00 0. -1.
         25    2    1    2    0    0  0.28993884267E+02 -0.38609451303E+02 -0.19092107951E+02  0.13535192775E+03  0.12499720278E+03 0.  0.
          2    1    1    2  501    0 -0.46025323025E+02  0.57646502003E+02 -0.68618071976E+03  0.69013435629E+03  0.00000000000E+00 0. -1.
          1    1    1    2  502    0  0.17031438759E+02 -0.19037050700E+02  0.11175891310E+02  0.27881530663E+02  0.00000000000E+00 0. -1.
         22    1    3    3    0    0 -0.39712991269E+02 -0.33565870667E+02 -0.37421266196E+02  0.64063566189E+02  0.00000000000E+00 0. -1.
         22    1    3    3    0    0  0.68706875536E+02 -0.50435806363E+01  0.18329158245E+02  0.71288361557E+02  0.00000000000E+00 0. -1.
</event>
<event>
 7    1  0.7457412E-006  0.4322970E+02  0.7818608E-02  0.1537599E+00
          2   -1    0    0  502    0  0.00000000000E+00  0.00000000000E+00  0.85732768328E+02  0.85732768328E+02  0.00000000000E+00 0. -1.
          1   -1    0    0  501    0 -0.00000000000E+00 -0.00000000000E+00 -0.26504826612E+03  0.26504826612E+03  0.00000000000E+00 0. -1.
         25    2    1    2    0    0  0.10739244810E+02 -0.10121216499E+02 -0.21506056222E+02  0.12769230405E+03  0.12500017463E+03 0.  0.
          2    1    1    2  501    0 -0.38194813875E+02  0.23246723406E+02 -0.17997132631E+03  0.18544253085E+03  0.00000000000E+00 0. -1.
          1    1    1    2  502    0  0.27455569065E+02 -0.13125506907E+02  0.22161884741E+02  0.37646199536E+02  0.00000000000E+00 0. -1.
         22    1    3    3    0    0 -0.79403507306E+01  0.35357222880E+02 -0.56656398019E+02  0.67254217831E+02  0.00000000000E+00 0. -1.
         22    1    3    3    0    0  0.18679595541E+02 -0.45478439379E+02  0.35150341797E+02  0.60438086224E+02  0.00000000000E+00 0. -1.
</event>
<event>
 7    1  0.7457412E-006  0.1040782E+03  0.7818608E-02  0.1353836E+00
          2   -1    0    0  502    0  0.00000000000E+00  0.00000000000E+00  0.10554979923E+03  0.10554979923E+03  0.00000000000E+00 0. -1.
          1   -1    0    0  501    0 -0.00000000000E+00 -0.00000000000E+00 -0.14070041016E+04  0.14070041016E+04  0.00000000000E+00 0. -1.
         25    2    1    2    0    0 -0.10562403061E+03 -0.43591619812E+02 -0.20699025968E+03  0.26744508257E+03  0.12500095769E+03 0.  0.
          2    1    1    2  501    0  0.17832012682E+01  0.49601551940E+02 -0.11330731615E+04  0.11341597255E+04  0.00000000000E+00 0. -1.
          1    1    1    2  502    0  0.10384082934E+03 -0.60099321283E+01  0.38609118794E+02  0.11094909273E+03  0.00000000000E+00 0. -1.
         22    1    3    3    0    0 -0.57168648464E+02  0.13690439826E+01 -0.19108340078E+03  0.19945674895E+03  0.00000000000E+00 0. -1.
         22    1    3    3    0    0 -0.48455382145E+02 -0.44960663794E+02 -0.15906858906E+02  0.67988333616E+02  0.00000000000E+00 0. -1.
</event>
<event>
 7    1  0.7457412E-006  0.1389640E+03  0.7818608E-02  0.1323556E+00
          2   -1    0    0  502    0  0.00000000000E+00  0.00000000000E+00  0.87756174247E+03  0.87756174247E+03  0.00000000000E+00 0. -1.
          1   -1    0    0  501    0 -0.00000000000E+00 -0.00000000000E+00 -0.29996279508E+03  0.29996279508E+03  0.00000000000E+00 0. -1.
         25    2    1    2    0    0  0.11431176887E+03 -0.68835278335E+02 -0.12640856481E+03  0.22228263973E+03  0.12499988248E+03 0.  0.
          2    1    1    2  501    0  0.22641934533E+02  0.42720441730E+02 -0.11484358280E+03  0.12460634756E+03  0.00000000000E+00 0. -1.
          1    1    1    2  502    0 -0.13695370340E+03  0.26114836604E+02  0.81885109501E+03  0.83063555026E+03  0.00000000000E+00 0. -1.
         22    1    3    3    0    0 -0.14489127436E+02 -0.42389194363E+01  0.14365098209E+02  0.20838889087E+02  0.00000000000E+00 0. -1.
         22    1    3    3    0    0  0.12880089630E+03 -0.64596358899E+02 -0.14077366302E+03  0.20144375064E+03  0.00000000000E+00 0. -1.
</event>
<event>
 7    1  0.7457412E-006  0.1077430E+03  0.7818608E-02  0.1437179E+00
          2   -1    0    0  502    0  0.00000000000E+00  0.00000000000E+00  0.53003406830E+03  0.53003406830E+03  0.00000000000E+00 0. -1.
          1   -1    0    0  501    0 -0.00000000000E+00 -0.00000000000E+00 -0.15729058450E+03  0.15729058450E+03  0.00000000000E+00 0. -1.
         25    2    1    2    0    0 -0.66898611390E+02 -0.11278710155E+03  0.37062357061E+03  0.41253888131E+03  0.12502057038E+03 0.  0.
          2    1    1    2  501    0  0.54973531990E+02  0.91202153357E+02 -0.11404475913E+03  0.15603246163E+03  0.00000000000E+00 0. -1.
          1    1    1    2  502    0  0.11925079400E+02  0.21584948192E+02  0.11616467232E+03  0.11875330986E+03  0.00000000000E+00 0. -1.
         22    1    3    3    0    0 -0.50617880634E+02  0.14573237907E+02  0.11444238092E+03  0.12598256884E+03  0.00000000000E+00 0. -1.
         22    1    3    3    0    0 -0.16280730756E+02 -0.12736033946E+03  0.25618118969E+03  0.28655631246E+03  0.00000000000E+00 0. -1.
</event>
<event>
 7    1  0.7457412E-006  0.1624677E+03  0.7818608E-02  0.1332059E+00
          2   -1    0    0  502    0  0.00000000000E+00  0.00000000000E+00  0.67009472778E+02  0.67009472778E+02  0.00000000000E+00 0. -1.
          1   -1    0    0  501    0 -0.00000000000E+00 -0.00000000000E+00 -0.12111887940E+04  0.12111887940E+04  0.00000000000E+00 0. -1.
         25    2    1    2    0    0 -0.29380483438E+02 -0.18469499873E+03 -0.70859491992E+03  0.74344041706E+03  0.12498575045E+03 0.  0.
          2    1    1    2  501    0  0.27932368276E+02  0.26299178840E+02 -0.35494196771E+03  0.35700933383E+03  0.00000000000E+00 0. -1.
          1    1    1    2  502    0  0.14481151612E+01  0.15839581989E+03 -0.80642433561E+02  0.17774851585E+03  0.00000000000E+00 0. -1.
         22    1    3    3    0    0 -0.60678901609E+02 -0.16477958849E+03 -0.65588864952E+03  0.67898760110E+03  0.00000000000E+00 0. -1.
         22    1    3    3    0    0  0.31298418171E+02 -0.19915410239E+02 -0.52706270405E+02  0.64452815959E+02  0.00000000000E+00 0. -1.
</event>
<event>
 7    1  0.7457412E-006  0.8763964E+02  0.7818608E-02  0.1379809E+00
          2   -1    0    0  502    0  0.00000000000E+00  0.00000000000E+00  0.42917602624E+03  0.42917602624E+03  0.00000000000E+00 0. -1.
          1   -1    0    0  501    0 -0.00000000000E+00 -0.00000000000E+00 -0.15863846881E+03  0.15863846881E+03  0.00000000000E+00 0. -1.
         25    2    1    2    0    0  0.37278376473E+02 -0.20051539050E+02  0.31286693772E+03  0.33955705455E+03  0.12498612326E+03 0.  0.
          2    1    1    2  501    0 -0.76047752858E+02  0.47479655830E+02 -0.12445814960E+03  0.15338647083E+03  0.00000000000E+00 0. -1.
          1    1    1    2  502    0  0.38769376384E+02 -0.27428116780E+02  0.82128769316E+02  0.94870969662E+02  0.00000000000E+00 0. -1.
         22    1    3    3    0    0  0.55958363267E+02 -0.50985713281E+02  0.11022186799E+03  0.13371515083E+03  0.00000000000E+00 0.  1.
         22    1    3    3    0    0 -0.18679986794E+02  0.30934174231E+02  0.20264506973E+03  0.20584190372E+03  0.00000000000E+00 0.  1.
</event>
<event>
 7    1  0.7457412E-006  0.1714712E+03  0.7818608E-02  0.1278893E+00
          2   -1    0    0  502    0  0.00000000000E+00  0.00000000000E+00  0.78661330649E+03  0.78661330649E+03  0.00000000000E+00 0. -1.
          1   -1    0    0  501    0 -0.00000000000E+00 -0.00000000000E+00 -0.16129588608E+04  0.16129588608E+04  0.00000000000E+00 0. -1.
         25    2    1    2    0    0 -0.17722495003E+03 -0.34347277141E+02 -0.30040359782E+02  0.22162181760E+03  0.12500155383E+03 0.  0.
          2    1    1    2  501    0  0.14840075949E+03  0.85945194491E+02 -0.14809062908E+04  0.14908027382E+04  0.00000000000E+00 0. -1.
          1    1    1    2  502    0  0.28824190540E+02 -0.51597917350E+02  0.68460109628E+03  0.68714761155E+03  0.00000000000E+00 0. -1.
         22    1    3    3    0    0 -0.17822188113E+03 -0.15376389987E+02  0.80414827834E+01  0.17906461886E+03  0.00000000000E+00 0. -1.
         22    1    3    3    0    0  0.99693110209E+00 -0.18970887154E+02 -0.38081842566E+02  0.42557198736E+02  0.00000000000E+00 0. -1.
</event>
<event>
 7    1  0.7457412E-006  0.1194279E+03  0.7818608E-02  0.1395565E+00
          2   -1    0    0  502    0  0.00000000000E+00  0.00000000000E+00  0.20203776690E+04  0.20203776690E+04  0.00000000000E+00 0. -1.
          1   -1    0    0  501    0 -0.00000000000E+00 -0.00000000000E+00 -0.75612523332E+03  0.75612523332E+03  0.00000000000E+00 0. -1.
         25    2    1    2    0    0  0.15340361010E+02  0.12154525439E+03  0.65573506948E+03  0.67869175558E+03  0.12500176883E+03 0.  0.
          2    1    1    2  501    0  0.15196656775E+02 -0.11846290143E+03 -0.73968212967E+03  0.74926233746E+03  0.00000000000E+00 0. -1.
          1    1    1    2  502    0 -0.30537017785E+02 -0.30823529549E+01  0.13481994959E+04  0.13485488093E+04  0.00000000000E+00 0. -1.
         22    1    3    3    0    0 -0.34277643733E+02  0.93685078385E+02  0.25301788308E+03  0.27197407952E+03  0.00000000000E+00 0. -1.
         22    1    3    3    0    0  0.49618004743E+02  0.27860176000E+02  0.40271718640E+03  0.40671767606E+03  0.00000000000E+00 0. -1.
</event>
<event>
 7    1  0.7457412E-006  0.7983122E+02  0.7818608E-02  0.1382772E+00
          2   -1    0    0  502    0  0.00000000000E+00  0.00000000000E+00  0.20319340491E+03  0.20319340491E+03  0.00000000000E+00 0. -1.
          1   -1    0    0  501    0 -0.00000000000E+00 -0.00000000000E+00 -0.88909583933E+03  0.88909583933E+03  0.00000000000E+00 0. -1.
         25    2    1    2    0    0 -0.18545831189E+02 -0.73040473415E+02  0.90528535061E+02  0.17174869447E+03  0.12499335895E+03 0.  0.
          2    1    1    2  501    0 -0.48662293778E+02  0.14902942644E+02 -0.81999457871E+03  0.82157241047E+03  0.00000000000E+00 0. -1.
          1    1    1    2  502    0  0.67208124967E+02  0.58137530771E+02  0.43563609228E+02  0.98968139291E+02  0.00000000000E+00 0. -1.
         22    1    3    3    0    0 -0.24328268236E+02  0.10935761508E+02 -0.19625221013E+02  0.33115024006E+02  0.00000000000E+00 0.  1.
         22    1    3    3    0    0  0.57824370466E+01 -0.83976234924E+02  0.11015375607E+03  0.13863367047E+03  0.00000000000E+00 0.  1.
</event>
<event>
 7    1  0.7457412E-006  0.5205394E+02  0.7818608E-02  0.1466113E+00
          2   -1    0    0  502    0  0.00000000000E+00  0.00000000000E+00  0.12287110877E+04  0.12287110877E+04  0.00000000000E+00 0. -1.
          1   -1    0    0  501    0 -0.00000000000E+00 -0.00000000000E+00 -0.13326599830E+03  0.13326599830E+03  0.00000000000E+00 0. -1.
         25    2    1    2    0    0 -0.37886820288E+02  0.64559825592E+02  0.64578542677E+03  0.66201744324E+03  0.12499958197E+03 0.  0.
          2    1    1    2  501    0 -0.63221018285E+01 -0.40775673494E+02 -0.12061594216E+03  0.12747874342E+03  0.00000000000E+00 0. -1.
          1    1    1    2  502    0  0.44208922116E+02 -0.23784152098E+02  0.57027560476E+03  0.57248089930E+03  0.00000000000E+00 0. -1.
         22    1    3    3    0    0  0.40314745170E+02  0.13813027357E+02  0.33057035457E+03  0.33330592212E+03  0.00000000000E+00 0.  1.
         22    1    3    3    0    0 -0.78201565458E+02  0.50746798234E+02  0.31521507220E+03  0.32871152111E+03  0.00000000000E+00 0.  1.
</event>
<event>
 7    1  0.7457412E-006  0.1065544E+03  0.7818608E-02  0.1392859E+00
          2   -1    0    0  502    0  0.00000000000E+00  0.00000000000E+00  0.20428757333E+04  0.20428757333E+04  0.00000000000E+00 0. -1.
          1   -1    0    0  501    0 -0.00000000000E+00 -0.00000000000E+00 -0.83276555508E+03  0.83276555508E+03  0.00000000000E+00 0. -1.
         25    2    1    2    0    0  0.73072502839E+02  0.56378535620E+01  0.38385491854E+03  0.41029266031E+03  0.12499637015E+03 0.  0.
          2    1    1    2  501    0 -0.10482107527E+03 -0.20727057735E+02 -0.81587504941E+03  0.82284212641E+03  0.00000000000E+00 0. -1.
          1    1    1    2  502    0  0.31748572433E+02  0.15089204173E+02  0.16421303091E+04  0.16425065017E+04  0.00000000000E+00 0. -1.
         22    1    3    3    0    0  0.22033725027E+01  0.13677878363E+02 -0.51670828432E+01  0.14786411059E+02  0.00000000000E+00 0.  1.
         22    1    3    3    0    0  0.70869130336E+02 -0.80400248012E+01  0.38902200139E+03  0.39550624925E+03  0.00000000000E+00 0.  1.
</event>
<event>
 7    1  0.7519292E-006  0.9013131E+02  0.7818608E-02  0.1474901E+00
          2   -1    0    0  502    0  0.00000000000E+00  0.00000000000E+00  0.82245370728E+03  0.82245370728E+03  0.00000000000E+00 0. -1.
          1   -1    0    0  501    0 -0.00000000000E+00 -0.00000000000E+00 -0.24017417184E+04  0.24017417184E+04  0.00000000000E+00 0. -1.
         25    2    1    2    0    0  0.48039365709E+02 -0.55260482313E+02 -0.13037473731E+04  0.13117711492E+04  0.12499933367E+03 0.  0.
          2    1    1    2  501    0 -0.20340735696E+01 -0.22285379230E+02 -0.10913840792E+04  0.10916134773E+04  0.00000000000E+00 0. -1.
          1    1    1    2  502    0 -0.46005292139E+02  0.77545861544E+02  0.81584344116E+03  0.82081079917E+03  0.00000000000E+00 0. -1.
         22    1    3    3    0    0  0.53242566858E+02  0.15731574766E+02 -0.90636244690E+03  0.90806119756E+03  0.00000000000E+00 0.  1.
         22    1    3    3    0    0 -0.52032011491E+01 -0.70992057079E+02 -0.39738492618E+03  0.40370995161E+03  0.00000000000E+00 0.  1.
</event>
<event>
 7    1  0.7457412E-006  0.1190146E+03  0.7818608E-02  0.1284625E+00
          2   -1    0    0  502    0  0.00000000000E+00  0.00000000000E+00  0.21717538107E+04  0.21717538107E+04  0.00000000000E+00 0. -1.
          1   -1    0    0  501    0 -0.00000000000E+00 -0.00000000000E+00 -0.30676905022E+03  0.30676905022E+03  0.00000000000E+00 0. -1.
         25    2    1    2    0    0 -0.85766798131E+02  0.51505773069E+02  0.53365894735E+02  0.16876431416E+03  0.12499874676E+03 0.  0.
          2    1    1    2  501    0  0.40216133144E+02 -0.11805488052E+03 -0.23261240779E+03  0.26393716002E+03  0.00000000000E+00 0. -1.
          1    1    1    2  502    0  0.45550664987E+02  0.66549107448E+02  0.20442312735E+04  0.20458213867E+04  0.00000000000E+00 0. -1.
         22    1    3    3    0    0 -0.10776801541E+03  0.62157400614E+02  0.17898584780E+02  0.12568948617E+03  0.00000000000E+00 0.  1.
         22    1    3    3    0    0  0.22001217276E+02 -0.10651627545E+02  0.35467309955E+02  0.43074827991E+02  0.00000000000E+00 0.  1.
</event>
<event>
 7    1  0.7457412E-006  0.6751737E+02  0.7818608E-02  0.1450089E+00
          2   -1    0    0  502    0  0.00000000000E+00  0.00000000000E+00  0.17412360762E+04  0.17412360762E+04  0.00000000000E+00 0. -1.
          1   -1    0    0  501    0 -0.00000000000E+00 -0.00000000000E+00 -0.80632219852E+02  0.80632219852E+02  0.00000000000E+00 0. -1.
         25    2    1    2    0    0 -0.40125011895E+02  0.29262245897E+02  0.22385871090E+02  0.13635938586E+03  0.12500583696E+03 0.  0.
          2    1    1    2  501    0  0.13487969847E+02  0.33108775013E+02 -0.90234211618E+01  0.36871919436E+02  0.00000000000E+00 0. -1.
          1    1    1    2  502    0  0.26637042049E+02 -0.62371020910E+02  0.16472414064E+04  0.16486369908E+04  0.00000000000E+00 0. -1.
         22    1    3    3    0    0  0.30695614433E+02 -0.20959827059E+02 -0.17181105488E+02  0.40947838546E+02  0.00000000000E+00 0.  1.
         22    1    3    3    0    0 -0.70820626329E+02  0.50222072955E+02  0.39566976578E+02  0.95411547315E+02  0.00000000000E+00 0.  1.
</event>
<event>
 7    1  0.7457412E-006  0.2155481E+03  0.7818608E-02  0.1185629E+00
          2   -1    0    0  502    0  0.00000000000E+00  0.00000000000E+00  0.52207087482E+03  0.52207087482E+03  0.00000000000E+00 0. -1.
          1   -1    0    0  501    0 -0.00000000000E+00 -0.00000000000E+00 -0.15037587380E+04  0.15037587380E+04  0.00000000000E+00 0. -1.
         25    2    1    2    0    0  0.45953036857E+02 -0.12992674199E+03  0.35813029416E+02  0.18945311191E+03  0.12496907080E+03 0.  0.
          2    1    1    2  501    0  0.25880094219E+01 -0.12285475660E+03 -0.13834898883E+04  0.13889363773E+04  0.00000000000E+00 0. -1.
          1    1    1    2  502    0 -0.48541046278E+02  0.25278149858E+03  0.36598899576E+03  0.44744012361E+03  0.00000000000E+00 0. -1.
         22    1    3    3    0    0 -0.14870761270E+02 -0.12191597194E+03  0.11123182347E+02  0.12332221593E+03  0.00000000000E+00 0. -1.
         22    1    3    3    0    0  0.60823798127E+02 -0.80107700415E+01  0.24689847069E+02  0.66130895983E+02  0.00000000000E+00 0. -1.
</event>
<event>
 7    1  0.7457412E-006  0.1473490E+03  0.7818608E-02  0.1362616E+00
          2   -1    0    0  502    0  0.00000000000E+00  0.00000000000E+00  0.11878328100E+04  0.11878328100E+04  0.00000000000E+00 0. -1.
          1   -1    0    0  501    0 -0.00000000000E+00 -0.00000000000E+00 -0.78072707388E+02  0.78072707388E+02  0.00000000000E+00 0. -1.
         25    2    1    2    0    0  0.94331085554E+02  0.10196012176E+03  0.21755836378E+03  0.28680087924E+03  0.12501552923E+03 0.  0.
          2    1    1    2  501    0  0.28072159403E+02 -0.16492335254E+02 -0.30374869540E+02  0.44527249581E+02  0.00000000000E+00 0. -1.
          1    1    1    2  502    0 -0.12240324496E+03 -0.85467786507E+02  0.92257660837E+03  0.93457738857E+03  0.00000000000E+00 0. -1.
         22    1    3    3    0    0  0.92010146900E+02  0.12676742303E+03  0.15916679861E+03  0.22331573266E+03  0.00000000000E+00 0.  1.
         22    1    3    3    0    0  0.23209386542E+01 -0.24807301272E+02  0.58391565169E+02  0.63485146574E+02  0.00000000000E+00 0.  1.
</event>
<event>
 7    1  0.7457412E-006  0.9330739E+02  0.7818608E-02  0.1404699E+00
          2   -1    0    0  502    0  0.00000000000E+00  0.00000000000E+00  0.67250502883E+03  0.67250502883E+03  0.00000000000E+00 0. -1.
          1   -1    0    0  501    0 -0.00000000000E+00 -0.00000000000E+00 -0.86328485674E+03  0.86328485674E+03  0.00000000000E+00 0. -1.
         25    2    1    2    0    0 -0.91022941372E+02 -0.36058156008E+02 -0.47153629559E+03  0.49755104000E+03  0.12500077147E+03 0.  0.
          2    1    1    2  501    0  0.23300438639E+02 -0.28152313756E+02 -0.37454595606E+03  0.37632450945E+03  0.00000000000E+00 0. -1.
          1    1    1    2  502    0  0.67722502733E+02  0.64210469763E+02  0.65530242374E+03  0.66191433612E+03  0.00000000000E+00 0. -1.
         22    1    3    3    0    0 -0.95011491922E+02 -0.67765401921E+02 -0.27968163921E+03  0.30305305246E+03  0.00000000000E+00 0. -1.
         22    1    3    3    0    0  0.39885505506E+01  0.31707245914E+02 -0.19185465638E+03  0.19449798753E+03  0.00000000000E+00 0. -1.
</event>
<event>
 7    1  0.7457412E-006  0.6748272E+02  0.7818608E-02  0.1436274E+00
          2   -1    0    0  502    0  0.00000000000E+00  0.00000000000E+00  0.19472301714E+04  0.19472301714E+04  0.00000000000E+00 0. -1.
          1   -1    0    0  501    0 -0.00000000000E+00 -0.00000000000E+00 -0.97680162905E+03  0.97680162905E+03  0.00000000000E+00 0. -1.
         25    2    1    2    0    0  0.41432438792E+02  0.25334543358E+00  0.25987125688E+03  0.29133183538E+03  0.12499782794E+03 0.  0.
          2    1    1    2  501    0  0.17858404461E+02 -0.35390028880E+02 -0.95995172330E+03  0.96076984123E+03  0.00000000000E+00 0. -1.
          1    1    1    2  502    0 -0.59290843253E+02  0.35136683446E+02  0.16705090087E+04  0.16719301238E+04  0.00000000000E+00 0. -1.
         22    1    3    3    0    0 -0.12801097148E+02 -0.34960221278E+01 -0.96340367551E+01  0.16398320741E+02  0.00000000000E+00 0. -1.
         22    1    3    3    0    0  0.54233535941E+02  0.37493675614E+01  0.26950529363E+03  0.27493351464E+03  0.00000000000E+00 0. -1.
</event>
<event>
 7    1  0.7457412E-006  0.9174303E+02  0.7818608E-02  0.1335943E+00
          2   -1    0    0  502    0  0.00000000000E+00  0.00000000000E+00  0.11178947172E+04  0.11178947172E+04  0.00000000000E+00 0. -1.
          1   -1    0    0  501    0 -0.00000000000E+00 -0.00000000000E+00 -0.23289451645E+03  0.23289451645E+03  0.00000000000E+00 0. -1.
         25    2    1    2    0    0  0.10822892710E+03  0.59637669434E+02  0.97375963068E+02  0.20093922699E+03  0.12499736990E+03 0.  0.
          2    1    1    2  501    0 -0.62761458927E+02  0.19333937565E+02 -0.17293159778E+03  0.18498145685E+03  0.00000000000E+00 0. -1.
          1    1    1    2  502    0 -0.45467468177E+02 -0.78971606999E+02  0.96055583549E+03  0.96486854984E+03  0.00000000000E+00 0. -1.
         22    1    3    3    0    0  0.35739957817E+02  0.23424075545E+02 -0.28408628136E+02  0.51313565969E+02  0.00000000000E+00 0.  1.
         22    1    3    3    0    0  0.72488969286E+02  0.36213593889E+02  0.12578459120E+03  0.14962566102E+03  0.00000000000E+00 0.  1.
</event>
<event>
 7    1  0.7457412E-006  0.4639063E+02  0.7818608E-02  0.1556202E+00
          2   -1    0    0  502    0  0.00000000000E+00  0.00000000000E+00  0.44960460216E+03  0.44960460216E+03  0.00000000000E+00 0. -1.
          1   -1    0    0  501    0 -0.00000000000E+00 -0.00000000000E+00 -0.15790065800E+04  0.15790065800E+04  0.00000000000E+00 0. -1.
         25    2    1    2    0    0 -0.38785092117E+02 -0.27564015114E+01 -0.13737590104E+04  0.13799818354E+04  0.12499666505E+03 0.  0.
          2    1    1    2  501    0  0.16711956542E+01 -0.25096166960E+02 -0.20014129725E+03  0.20171551590E+03  0.00000000000E+00 0. -1.
          1    1    1    2  502    0  0.37113896463E+02  0.27852568471E+02  0.44449832988E+03  0.44691383078E+03  0.00000000000E+00 0. -1.
         22    1    3    3    0    0  0.37956960804E+02 -0.16526016146E+02 -0.78388195716E+03  0.78497437082E+03  0.00000000000E+00 0. -1.
         22    1    3    3    0    0 -0.76742052922E+02  0.13769614634E+02 -0.58987705327E+03  0.59500746461E+03  0.00000000000E+00 0. -1.
</event>
<event>
 7    1  0.7457412E-006  0.1445525E+03  0.7818608E-02  0.1287567E+00
          2   -1    0    0  502    0  0.00000000000E+00  0.00000000000E+00  0.84668557007E+03  0.84668557007E+03  0.00000000000E+00 0. -1.
          1   -1    0    0  501    0 -0.00000000000E+00 -0.00000000000E+00 -0.64401943121E+03  0.64401943121E+03  0.00000000000E+00 0. -1.
         25    2    1    2    0    0  0.50063565789E+02  0.10588636993E+03  0.42478440824E+03  0.45802272916E+03  0.12499897197E+03 0.  0.
          2    1    1    2  501    0  0.41384342250E+00  0.64581304952E+02 -0.60610482928E+03  0.60953587285E+03  0.00000000000E+00 0. -1.
          1    1    1    2  502    0 -0.50477409212E+02 -0.17046767488E+03  0.38398655990E+03  0.42314639926E+03  0.00000000000E+00 0. -1.
         22    1    3    3    0    0  0.80724273295E+02  0.11205925628E+03  0.31668135357E+03  0.34548627312E+03  0.00000000000E+00 0.  1.
         22    1    3    3    0    0 -0.30660707505E+02 -0.61728863447E+01  0.10810305466E+03  0.11253645604E+03  0.00000000000E+00 0.  1.
</event>
<event>
 7    1  0.7457412E-006  0.8931320E+02  0.7818608E-02  0.1420336E+00
          2   -1    0    0  502    0  0.00000000000E+00  0.00000000000E+00  0.16130436950E+04  0.16130436950E+04  0.00000000000E+00 0. -1.
          1   -1    0    0  501    0 -0.00000000000E+00 -0.00000000000E+00 -0.19566666297E+03  0.19566666297E+03  0.00000000000E+00 0. -1.
         25    2    1    2    0    0  0.25249564730E+02  0.11864646400E+03  0.76988845736E+02  0.19043803607E+03  0.12499935711E+03 0.  0.
          2    1    1    2  501    0  0.19813823373E+00 -0.33807191997E+02 -0.13553799507E+03  0.13969077849E+03  0.00000000000E+00 0. -1.
          1    1    1    2  502    0 -0.25447702963E+02 -0.84839272000E+02  0.14759261814E+04  0.14785815434E+04  0.00000000000E+00 0. -1.
         22    1    3    3    0    0  0.74834479736E+02  0.77769131631E+02  0.34130118196E+02  0.11319497409E+03  0.00000000000E+00 0.  1.
         22    1    3    3    0    0 -0.49584915006E+02  0.40877332367E+02  0.42858727540E+02  0.77243061980E+02  0.00000000000E+00 0.  1.
</event>
<event>
 7    1  0.7457412E-006  0.7218443E+02  0.7818608E-02  0.1377397E+00
          2   -1    0    0  502    0  0.00000000000E+00  0.00000000000E+00  0.20456093741E+04  0.20456093741E+04  0.00000000000E+00 0. -1.
          1   -1    0    0  501    0 -0.00000000000E+00 -0.00000000000E+00 -0.26749844876E+03  0.26749844876E+03  0.00000000000E+00 0. -1.
         25    2    1    2    0    0 -0.19185618570E+02  0.24592599830E+02  0.18860048665E+03  0.22840599963E+03  0.12500509259E+03 0.  0.
          2    1    1    2  501    0 -0.15842884724E+02 -0.71828216697E+02 -0.24165042073E+03  0.25259694288E+03  0.00000000000E+00 0. -1.
          1    1    1    2  502    0  0.35028503294E+02  0.47235616867E+02  0.18311608594E+04  0.18321048803E+04  0.00000000000E+00 0. -1.
         22    1    3    3    0    0 -0.67247490191E+02  0.39690770954E+02  0.10604068825E+03  0.13168982421E+03  0.00000000000E+00 0.  1.
         22    1    3    3    0    0  0.48061871621E+02 -0.15098171124E+02  0.82559798399E+02  0.96716175414E+02  0.00000000000E+00 0.  1.
</event>
<event>
 7    1  0.7457412E-006  0.2780537E+02  0.7818608E-02  0.1635173E+00
          2   -1    0    0  502    0  0.00000000000E+00  0.00000000000E+00  0.13397418191E+04  0.13397418191E+04  0.00000000000E+00 0. -1.
          1   -1    0    0  501    0 -0.00000000000E+00 -0.00000000000E+00 -0.57969085326E+02  0.57969085326E+02  0.00000000000E+00 0. -1.
         25    2    1    2    0    0 -0.24119447183E+02  0.89997816901E+01  0.38449445447E+03  0.40512225397E+03  0.12500124534E+03 0.  0.
          2    1    1    2  501    0  0.22227074782E+02  0.16947757474E+02 -0.43361246684E+02  0.51589408319E+02  0.00000000000E+00 0. -1.
          1    1    1    2  502    0  0.18923724009E+01 -0.25947539165E+02  0.94063952595E+03  0.94099924210E+03  0.00000000000E+00 0. -1.
         22    1    3    3    0    0 -0.29873747580E+02  0.18662476557E+02  0.39069517003E+03  0.39227980410E+03  0.00000000000E+00 0. -1.
         22    1    3    3    0    0  0.57543003978E+01 -0.96626948668E+01 -0.62007155526E+01  0.12842449864E+02  0.00000000000E+00 0. -1.
</event>
<event>
 7    1  0.7457412E-006  0.2429464E+03  0.7818608E-02  0.1254029E+00
          2   -1    0    0  502    0  0.00000000000E+00  0.00000000000E+00  0.18835488226E+04  0.18835488226E+04  0.00000000000E+00 0. -1.
          1   -1    0    0  501    0 -0.00000000000E+00 -0.00000000000E+00 -0.46975712629E+03  0.46975712629E+03  0.00000000000E+00 0. -1.
         25    2    1    2    0    0  0.24035663398E+03  0.17888564074E+02  0.70413871031E+03  0.75467045969E+03  0.12499946858E+03 0.  0.
          2    1    1    2  501    0 -0.24072231895E+03  0.35237066728E+02 -0.41052423009E+03  0.47719915047E+03  0.00000000000E+00 0. -1.
          1    1    1    2  502    0  0.36568496898E+00 -0.53125630802E+02  0.11201772160E+04  0.11214363387E+04  0.00000000000E+00 0. -1.
         22    1    3    3    0    0  0.12755844651E+03 -0.44596868676E+02  0.27222561691E+03  0.30391910844E+03  0.00000000000E+00 0.  1.
         22    1    3    3    0    0  0.11279818747E+03  0.62485432750E+02  0.43191309340E+03  0.45075135125E+03  0.00000000000E+00 0.  1.
</event>
<event>
 7    1  0.7457412E-006  0.1289360E+03  0.7818608E-02  0.1280857E+00
          2   -1    0    0  502    0  0.00000000000E+00  0.00000000000E+00  0.15292131455E+04  0.15292131455E+04  0.00000000000E+00 0. -1.
          1   -1    0    0  501    0 -0.00000000000E+00 -0.00000000000E+00 -0.15780293910E+04  0.15780293910E+04  0.00000000000E+00 0. -1.
         25    2    1    2    0    0 -0.22561805030E+02  0.70705997560E+02  0.22528411963E+03  0.26811366086E+03  0.12499450964E+03 0.  0.
          2    1    1    2  501    0  0.35896249200E+02  0.68284746287E+02 -0.15518532289E+04  0.15537695425E+04  0.00000000000E+00 0. -1.
          1    1    1    2  502    0 -0.13334444171E+02 -0.13899074385E+03  0.12777528637E+04  0.12853593330E+04  0.00000000000E+00 0. -1.
         22    1    3    3    0    0  0.10213716516E+02 -0.33713369267E+02  0.44116293420E+02  0.56454925539E+02  0.00000000000E+00 0.  1.
         22    1    3    3    0    0 -0.32775521546E+02  0.10441936683E+03  0.18116782621E+03  0.21165873532E+03  0.00000000000E+00 0.  1.
</event>
<event>
 7    1  0.7457412E-006  0.5118462E+02  0.7818608E-02  0.1491337E+00
          2   -1    0    0  502    0  0.00000000000E+00  0.00000000000E+00  0.10040077628E+04  0.10040077628E+04  0.00000000000E+00 0. -1.
          1   -1    0    0  501    0 -0.00000000000E+00 -0.00000000000E+00 -0.16473901081E+03  0.16473901081E+03  0.00000000000E+00 0. -1.
         25    2    1    2    0    0 -0.85770924000E+02  0.42116001176E+01  0.12663296114E+02  0.15218353131E+03  0.12500031662E+03 0.  0.
          2    1    1    2  501    0  0.34942910903E+02 -0.33555937182E+01 -0.91007639192E+02  0.97543105460E+02  0.00000000000E+00 0. -1.
          1    1    1    2  502    0  0.50828013097E+02 -0.85600639941E+00  0.91761309510E+03  0.91902013687E+03  0.00000000000E+00 0. -1.
         22    1    3    3    0    0 -0.10518389103E+03 -0.20025246661E+02  0.36406752736E+02  0.11309338213E+03  0.00000000000E+00 0.  1.
         22    1    3    3    0    0  0.19412967035E+02  0.24236846778E+02 -0.23743456622E+02  0.39090149184E+02  0.00000000000E+00 0.  1.
</event>
<event>
 7    1  0.7457412E-006  0.1130310E+03  0.7818608E-02  0.1392094E+00
          2   -1    0    0  502    0  0.00000000000E+00  0.00000000000E+00  0.39843190664E+03  0.39843190664E+03  0.00000000000E+00 0. -1.
          1   -1    0    0  501    0 -0.00000000000E+00 -0.00000000000E+00 -0.47716338443E+03  0.47716338443E+03  0.00000000000E+00 0. -1.
         25    2    1    2    0    0  0.38096228899E+02  0.11991011021E+03  0.31277907758E+03  0.35956338580E+03  0.12500127941E+03 0.  0.
          2    1    1    2  501    0 -0.17329992471E+02 -0.28483539707E+02 -0.41743026800E+03  0.41875967967E+03  0.00000000000E+00 0. -1.
          1    1    1    2  502    0 -0.20766236428E+02 -0.91426570502E+02  0.25919712637E+02  0.97272225596E+02  0.00000000000E+00 0. -1.
         22    1    3    3    0    0  0.65675782309E+02  0.66875929979E+02  0.93929162297E+02  0.13269659348E+03  0.00000000000E+00 0. -1.
         22    1    3    3    0    0 -0.27579553410E+02  0.53034180231E+02  0.21884991528E+03  0.22686679232E+03  0.00000000000E+00 0. -1.
</event>
<event>
 7    1  0.7457412E-006  0.5868851E+02  0.7818608E-02  0.1490587E+00
          2   -1    0    0  502    0  0.00000000000E+00  0.00000000000E+00  0.10373222115E+04  0.10373222115E+04  0.00000000000E+00 0. -1.
          1   -1    0    0  501    0 -0.00000000000E+00 -0.00000000000E+00 -0.39497627619E+03  0.39497627619E+03  0.00000000000E+00 0. -1.
         25    2    1    2    0    0 -0.17874564393E+02  0.30024527326E+02  0.14256761548E+03  0.19279776434E+03  0.12499792260E+03 0.  0.
          2    1    1    2  501    0  0.97468318738E+01  0.29191211265E+02 -0.36819144359E+03  0.36947539387E+03  0.00000000000E+00 0. -1.
          1    1    1    2  502    0  0.81277325195E+01 -0.59215738591E+02  0.86796976342E+03  0.87002532948E+03  0.00000000000E+00 0. -1.
         22    1    3    3    0    0 -0.50311632715E+02 -0.24904864022E+02  0.10419016591E+03  0.11835160882E+03  0.00000000000E+00 0. -1.
         22    1    3    3    0    0  0.32437068322E+02  0.54929391348E+02  0.38377449578E+02  0.74446155517E+02  0.00000000000E+00 0. -1.
</event>
<event>
 7    1  0.7457412E-006  0.1150530E+03  0.7818608E-02  0.1284974E+00
          2   -1    0    0  502    0  0.00000000000E+00  0.00000000000E+00  0.71746201840E+02  0.71746201840E+02  0.00000000000E+00 0. -1.
          1   -1    0    0  501    0 -0.00000000000E+00 -0.00000000000E+00 -0.82024196753E+03  0.82024196753E+03  0.00000000000E+00 0. -1.
         25    2    1    2    0    0 -0.17655024452E+03  0.11209010806E+02 -0.25245110773E+03  0.33264452489E+03  0.12500074950E+03 0.  0.
          2    1    1    2  501    0  0.98701667776E+02 -0.40417718751E+02 -0.45363542477E+03  0.46600505342E+03  0.00000000000E+00 0. -1.
          1    1    1    2  502    0  0.77848576749E+02  0.29208707946E+02 -0.42409233188E+02  0.93338591061E+02  0.00000000000E+00 0. -1.
         22    1    3    3    0    0 -0.28171346991E+02  0.54918935397E+02 -0.65553798603E+02  0.90038962498E+02  0.00000000000E+00 0.  1.
         22    1    3    3    0    0 -0.14837889753E+03 -0.43709924591E+02 -0.18689730913E+03  0.24260556239E+03  0.00000000000E+00 0.  1.
</event>
<event>
 7    1  0.7457412E-006  0.1547185E+03  0.7818608E-02  0.1359193E+00
          2   -1    0    0  502    0  0.00000000000E+00  0.00000000000E+00  0.12902047710E+04  0.12902047710E+04  0.00000000000E+00 0. -1.
          1   -1    0    0  501    0 -0.00000000000E+00 -0.00000000000E+00 -0.15958142712E+04  0.15958142712E+04  0.00000000000E+00 0. -1.
         25    2    1    2    0    0  0.47528340570E+01 -0.12487449189E+03  0.79012006167E+03  0.80964859091E+03  0.12499960306E+03 0.  0.
          2    1    1    2  501    0 -0.18274490952E+02  0.15377898799E+03 -0.15817453847E+04  0.15893081502E+04  0.00000000000E+00 0. -1.
          1    1    1    2  502    0  0.13521656895E+02 -0.28904496106E+02  0.48601582283E+03  0.48706230109E+03  0.00000000000E+00 0. -1.
         22    1    3    3    0    0  0.23805687355E+02 -0.49493167321E+02  0.62199804407E+03  0.62441800998E+03  0.00000000000E+00 0. -1.
         22    1    3    3    0    0 -0.19052853298E+02 -0.75381324566E+02  0.16812201760E+03  0.18523058094E+03  0.00000000000E+00 0. -1.
</event>
<event>
 7    1  0.1278356E-005  0.8532413E+02  0.7818608E-02  0.1337210E+00
          2   -1    0    0  502    0  0.00000000000E+00  0.00000000000E+00  0.12404527642E+04  0.12404527642E+04  0.00000000000E+00 0. -1.
          1   -1    0    0  501    0 -0.00000000000E+00 -0.00000000000E+00 -0.12884217015E+04  0.12884217015E+04  0.00000000000E+00 0. -1.
         25    2    1    2    0    0  0.77368810225E+02 -0.80551738331E+01 -0.19999465563E+03  0.24833832641E+03  0.12499297366E+03 0.  0.
          2    1    1    2  501    0 -0.29882888127E+02 -0.63121421000E+02 -0.10616016620E+04  0.10638963246E+04  0.00000000000E+00 0. -1.
          1    1    1    2  502    0 -0.47485922098E+02  0.71176594833E+02  0.12136273803E+04  0.12166398147E+04  0.00000000000E+00 0. -1.
         22    1    3    3    0    0  0.32538999394E+01  0.45803257023E+02 -0.28894561763E+02  0.54253312509E+02  0.00000000000E+00 0. -1.
         22    1    3    3    0    0  0.74114910286E+02 -0.53858430856E+02 -0.17110009386E+03  0.19408501390E+03  0.00000000000E+00 0. -1.
</event>
<event>
 7    1  0.7457412E-006  0.9173607E+02  0.7818608E-02  0.1390576E+00
          2   -1    0    0  502    0  0.00000000000E+00  0.00000000000E+00  0.75360250648E+03  0.75360250648E+03  0.00000000000E+00 0. -1.
          1   -1    0    0  501    0 -0.00000000000E+00 -0.00000000000E+00 -0.10031806316E+04  0.10031806316E+04  0.00000000000E+00 0. -1.
         25    2    1    2    0    0  0.86344442001E+02  0.33958729905E+01 -0.52786628606E+02  0.16086312471E+03  0.12499448834E+03 0.  0.
          2    1    1    2  501    0 -0.80867370946E+02 -0.44617702755E+02 -0.89335487485E+03  0.89811647547E+03  0.00000000000E+00 0. -1.
          1    1    1    2  502    0 -0.54770710551E+01  0.41221829764E+02  0.69656337830E+03  0.69780353793E+03  0.00000000000E+00 0. -1.
         22    1    3    3    0    0  0.10315402957E+03 -0.34442338568E+02 -0.49015676508E+02  0.11928774055E+03  0.00000000000E+00 0.  1.
         22    1    3    3    0    0 -0.16809587571E+02  0.37838211558E+02 -0.37709520974E+01  0.41575384159E+02  0.00000000000E+00 0.  1.
</event>
<event>
 7    1  0.7457412E-006  0.1128634E+03  0.7818608E-02  0.1384863E+00
          2   -1    0    0  502    0  0.00000000000E+00  0.00000000000E+00  0.23957095203E+04  0.23957095203E+04  0.00000000000E+00 0. -1.
          1   -1    0    0  501    0 -0.00000000000E+00 -0.00000000000E+00 -0.47625817895E+03  0.47625817895E+03  0.00000000000E+00 0. -1.
         25    2    1    2    0    0  0.57938632345E+02 -0.77256594810E+02  0.66088518455E+02  0.17122708491E+03  0.12500222308E+03 0.  0.
          2    1    1    2  501    0 -0.19590111963E+02 -0.29476873936E+02 -0.42153462118E+03  0.42301784293E+03  0.00000000000E+00 0. -1.
          1    1    1    2  502    0 -0.38348520382E+02  0.10673346875E+03  0.22748974441E+04  0.22777227714E+04  0.00000000000E+00 0. -1.
         22    1    3    3    0    0 -0.19702777313E+02 -0.32131126334E+02 -0.23468814996E+02  0.44400382776E+02  0.00000000000E+00 0.  1.
         22    1    3    3    0    0  0.77641409659E+02 -0.45125468476E+02  0.89557333451E+02  0.12682670213E+03  0.00000000000E+00 0.  1.
</event>
<event>
 7    1  0.7457412E-006  0.6641397E+02  0.7818608E-02  0.1445155E+00
          2   -1    0    0  502    0  0.00000000000E+00  0.00000000000E+00  0.14415767290E+04  0.14415767290E+04  0.00000000000E+00 0. -1.
          1   -1    0    0  501    0 -0.00000000000E+00 -0.00000000000E+00 -0.81630956890E+03  0.81630956890E+03  0.00000000000E+00 0. -1.
         25    2    1    2    0    0  0.65139900881E+02 -0.89642389260E+01  0.17799540108E+03  0.22722625224E+03  0.12500337050E+03 0.  0.
          2    1    1    2  501    0 -0.14608981943E+02 -0.34748628920E+02 -0.79034382970E+03  0.79124222505E+03  0.00000000000E+00 0. -1.
          1    1    1    2  502    0 -0.50530918938E+02  0.43712867846E+02  0.12376155887E+04  0.12394178206E+04  0.00000000000E+00 0. -1.
         22    1    3    3    0    0  0.86596158600E+02  0.18256588836E+02  0.16999871358E+03  0.19165531649E+03  0.00000000000E+00 0.  1.
         22    1    3    3    0    0 -0.21456257719E+02 -0.27220827762E+02  0.79966874995E+01  0.35570935753E+02  0.00000000000E+00 0.  1.
</event>
<event>
 7    1  0.7457412E-006  0.1540096E+03  0.7818608E-02  0.1260610E+00
          2   -1    0    0  502    0  0.00000000000E+00  0.00000000000E+00  0.67018576686E+03  0.67018576686E+03  0.00000000000E+00 0. -1.
          1   -1    0    0  501    0 -0.00000000000E+00 -0.00000000000E+00 -0.20167615674E+04  0.20167615674E+04  0.00000000000E+00 0. -1.
         25    2    1    2    0    0 -0.13323189318E+03  0.13036490030E+02 -0.23435823255E+03  0.29743845275E+03  0.12500065831E+03 0.  0.
          2    1    1    2  501    0 -0.78288102805E+01 -0.78144728331E+02 -0.17405160381E+04  0.17422869935E+04  0.00000000000E+00 0. -1.
          1    1    1    2  502    0  0.14106070346E+03  0.65108238301E+02  0.62829847012E+03  0.64722188800E+03  0.00000000000E+00 0. -1.
         22    1    3    3    0    0  0.62729848202E+01 -0.28925216647E+02 -0.12730737652E+02  0.32219406851E+02  0.00000000000E+00 0.  1.
         22    1    3    3    0    0 -0.13950487800E+03  0.41961706677E+02 -0.22162749489E+03  0.26521904590E+03  0.00000000000E+00 0.  1.
</event>
<event>
 7    1  0.7457412E-006  0.7649730E+02  0.7818608E-02  0.1462597E+00
          2   -1    0    0  502    0  0.00000000000E+00  0.00000000000E+00  0.14906674258E+04  0.14906674258E+04  0.00000000000E+00 0. -1.
          1   -1    0    0  501    0 -0.00000000000E+00 -0.00000000000E+00 -0.10798226958E+04  0.10798226958E+04  0.00000000000E+00 0. -1.
         25    2    1    2    0    0 -0.86890978868E+02 -0.35146303971E+02  0.85782667275E+03  0.87193867712E+03  0.12500060511E+03 0.  0.
          2    1    1    2  501    0  0.15776176241E+02  0.24094719408E+02 -0.10705032010E+04  0.10708905390E+04  0.00000000000E+00 0. -1.
          1    1    1    2  502    0  0.71114802627E+02  0.11051584563E+02  0.62352125832E+03  0.62766090546E+03  0.00000000000E+00 0. -1.
         22    1    3    3    0    0  0.27531386875E+02  0.76784496923E+01  0.27266305991E+03  0.27415703546E+03  0.00000000000E+00 0. -1.
         22    1    3    3    0    0 -0.11442236574E+03 -0.42824753663E+02  0.58516361284E+03  0.59778164166E+03  0.00000000000E+00 0. -1.
</event>
<event>
 7    1  0.7457412E-006  0.7076192E+02  0.7818608E-02  0.1370641E+00
          2   -1    0    0  502    0  0.00000000000E+00  0.00000000000E+00  0.21086640450E+04  0.21086640450E+04  0.00000000000E+00 0. -1.
          1   -1    0    0  501    0 -0.00000000000E+00 -0.00000000000E+00 -0.99262558498E+02  0.99262558498E+02  0.00000000000E+00 0. -1.
         25    2    1    2    0    0  0.17914952147E+02 -0.83088370935E+02  0.95306632743E+02  0.17869800741E+03  0.12500000284E+03 0.  0.
          2    1    1    2  501    0 -0.61806157819E+02  0.37313089231E+02 -0.34210531474E+02  0.79891352699E+02  0.00000000000E+00 0. -1.
          1    1    1    2  502    0  0.43891205672E+02  0.45775281704E+02  0.19483053853E+04  0.19493372434E+04  0.00000000000E+00 0. -1.
         22    1    3    3    0    0 -0.30851810900E+02 -0.75112073510E+02  0.10027971272E+03  0.12903363362E+03  0.00000000000E+00 0. -1.
         22    1    3    3    0    0  0.48766763048E+02 -0.79762974255E+01 -0.49730799767E+01  0.49664373783E+02  0.00000000000E+00 0. -1.
</event>
<event>
 7    1  0.7457412E-006  0.5214680E+02  0.7818608E-02  0.1482870E+00
          2   -1    0    0  502    0  0.00000000000E+00  0.00000000000E+00  0.32748950787E+02  0.32748950787E+02  0.00000000000E+00 0. -1.
          1   -1    0    0  501    0 -0.00000000000E+00 -0.00000000000E+00 -0.16112202436E+04  0.16112202436E+04  0.00000000000E+00 0. -1.
         25    2    1    2    0    0 -0.11582568499E+02  0.17782554085E+02 -0.28974704732E+03  0.31627394878E+03  0.12500193647E+03 0.  0.
          2    1    1    2  501    0 -0.50208936187E+01  0.36211855853E+02 -0.12664425215E+04  0.12669700739E+04  0.00000000000E+00 0. -1.
          1    1    1    2  502    0  0.16603462118E+02 -0.53994409938E+02 -0.22281724028E+02  0.60725171754E+02  0.00000000000E+00 0. -1.
         22    1    3    3    0    0  0.45871604899E+02  0.36519710988E+02 -0.88595165532E+02  0.10624027853E+03  0.00000000000E+00 0.  1.
         22    1    3    3    0    0 -0.57454173398E+02 -0.18737156903E+02 -0.20115188179E+03  0.21003367025E+03  0.00000000000E+00 0.  1.
</event>
<event>
 7    1  0.7457412E-006  0.1155804E+03  0.7818608E-02  0.1375964E+00
          2   -1    0    0  502    0  0.00000000000E+00  0.00000000000E+00  0.56293191377E+03  0.56293191377E+03  0.00000000000E+00 0. -1.
          1   -1    0    0  501    0 -0.00000000000E+00 -0.00000000000E+00 -0.46440750680E+03  0.46440750680E+03  0.00000000000E+00 0. -1.
         25    2    1    2    0    0  0.57299493478E+02 -0.58314777279E+02 -0.18545600555E+03  0.23812385945E+03  0.12500078896E+03 0.  0.
          2    1    1    2  501    0  0.12783015625E+02 -0.34892998750E+02 -0.24486324420E+03  0.24766698449E+03  0.00000000000E+00 0. -1.
          1    1    1    2  502    0 -0.70082509103E+02  0.93207776028E+02  0.52884365672E+03  0.54154857662E+03  0.00000000000E+00 0. -1.
         22    1    3    3    0    0  0.32657661387E+01  0.13692872963E+01 -0.15018526559E+03  0.15022700881E+03  0.00000000000E+00 0.  1.
         22    1    3    3    0    0  0.54033727339E+02 -0.59684064575E+02 -0.35270739961E+02  0.87896850636E+02  0.00000000000E+00 0.  1.
</event>
<event>
 7    1  0.7457412E-006  0.4093120E+02  0.7818608E-02  0.1511563E+00
          2   -1    0    0  502    0  0.00000000000E+00  0.00000000000E+00  0.61813999166E+03  0.61813999166E+03  0.00000000000E+00 0. -1.
          1   -1    0    0  501    0 -0.00000000000E+00 -0.00000000000E+00 -0.25170938457E+03  0.25170938457E+03  0.00000000000E+00 0. -1.
         25    2    1    2    0    0  0.45973010067E+02  0.40412525984E+02  0.20330717718E+03  0.24638495459E+03  0.12500019057E+03 0.  0.
          2    1    1    2  501    0 -0.55311176099E+01 -0.37809513413E+02 -0.22752909398E+03  0.23071549834E+03  0.00000000000E+00 0. -1.
          1    1    1    2  502    0 -0.40441892457E+02 -0.26030125713E+01  0.39065252389E+03  0.39274892331E+03  0.00000000000E+00 0. -1.
         22    1    3    3    0    0  0.58037125521E+02 -0.18804363162E+02  0.16220603227E+03  0.17329947754E+03  0.00000000000E+00 0. -1.
         22    1    3    3    0    0 -0.12064115454E+02  0.59216889146E+02  0.41101144914E+02  0.73085477046E+02  0.00000000000E+00 0. -1.
</event>
<event>
 7    1  0.7457412E-006  0.7273015E+02  0.7818608E-02  0.1418534E+00
          2   -1    0    0  502    0  0.00000000000E+00  0.00000000000E+00  0.99096860862E+02  0.99096860862E+02  0.00000000000E+00 0. -1.
          1   -1    0    0  501    0 -0.00000000000E+00 -0.00000000000E+00 -0.35580490693E+04  0.35580490693E+04  0.00000000000E+00 0. -1.
         25    2    1    2    0    0 -0.15323540560E+02  0.11327014798E+03 -0.16463463389E+04  0.16550372368E+04  0.12500820078E+03 0.  0.
          2    1    1    2  501    0  0.25944524635E+01 -0.42016203365E+02 -0.18932656719E+04  0.18937336130E+04  0.00000000000E+00 0. -1.
          1    1    1    2  502    0  0.12729088097E+02 -0.71253944610E+02  0.80659802429E+02  0.10837508032E+03  0.00000000000E+00 0. -1.
         22    1    3    3    0    0  0.26960909947E+02  0.23752498975E+02 -0.10432847531E+04  0.10439033231E+04  0.00000000000E+00 0.  1.
         22    1    3    3    0    0 -0.42284450507E+02  0.89517649000E+02 -0.60306158582E+03  0.61113391374E+03  0.00000000000E+00 0.  1.
</event>
<event>
 7    1  0.7457412E-006  0.5392755E+02  0.7818608E-02  0.1429349E+00
          2   -1    0    0  502    0  0.00000000000E+00  0.00000000000E+00  0.35335840791E+03  0.35335840791E+03  0.00000000000E+00 0. -1.
          1   -1    0    0  501    0 -0.00000000000E+00 -0.00000000000E+00 -0.12306051189E+03  0.12306051189E+03  0.00000000000E+00 0. -1.
         25    2    1    2    0    0  0.21053389029E+01  0.19301687257E+02  0.26971094789E+02  0.12933819935E+03  0.12499576903E+03 0.  0.
          2    1    1    2  501    0 -0.56032051939E+02 -0.19601529362E+02 -0.56359101292E+02  0.81854499548E+02  0.00000000000E+00 0. -1.
          1    1    1    2  502    0  0.53926713036E+02  0.29984210492E+00  0.25968590252E+03  0.26522622090E+03  0.00000000000E+00 0. -1.
         22    1    3    3    0    0 -0.32354336385E+00 -0.56455618266E+01  0.74973088214E+02  0.75186042621E+02  0.00000000000E+00 0.  1.
         22    1    3    3    0    0  0.24288822667E+01  0.24947249084E+02 -0.48001993425E+02  0.54152156732E+02  0.00000000000E+00 0.  1.
</event>
<event>
 7    1  0.7457412E-006  0.9642737E+02  0.7818608E-02  0.1331568E+00
          2   -1    0    0  502    0  0.00000000000E+00  0.00000000000E+00  0.90219139210E+02  0.90219139210E+02  0.00000000000E+00 0. -1.
          1   -1    0    0  501    0 -0.00000000000E+00 -0.00000000000E+00 -0.19326639387E+04  0.19326639387E+04  0.00000000000E+00 0. -1.
         25    2    1    2    0    0  0.76901156617E+01 -0.14024596649E+03 -0.13264381544E+03  0.23010348371E+03  0.12500064978E+03 0.  0.
          2    1    1    2  501    0  0.24897625115E+02  0.59954435827E+02 -0.17047438056E+04  0.17059794456E+04  0.00000000000E+00 0. -1.
          1    1    1    2  502    0 -0.32587740777E+02  0.80291530662E+02 -0.50571784700E+01  0.86800148612E+02  0.00000000000E+00 0. -1.
         22    1    3    3    0    0  0.48260326729E+02 -0.51830951764E+02 -0.10901003822E+03  0.12999498117E+03  0.00000000000E+00 0.  1.
         22    1    3    3    0    0 -0.40570211067E+02 -0.88415014725E+02 -0.23633777222E+02  0.10010850254E+03  0.00000000000E+00 0.  1.
</event>
<event>
 7    1  0.7457412E-006  0.1583630E+03  0.7818608E-02  0.1304667E+00
          2   -1    0    0  502    0  0.00000000000E+00  0.00000000000E+00  0.64473809202E+03  0.64473809202E+03  0.00000000000E+00 0. -1.
          1   -1    0    0  501    0 -0.00000000000E+00 -0.00000000000E+00 -0.75547294056E+03  0.75547294056E+03  0.00000000000E+00 0. -1.
         25    2    1    2    0    0 -0.12754826004E+03 -0.46872379541E+02  0.23390432043E+03  0.29799112449E+03  0.12498760161E+03 0.  0.
          2    1    1    2  501    0  0.15911941202E+03  0.77087968087E+01 -0.71292877074E+03  0.73051067411E+03  0.00000000000E+00 0. -1.
          1    1    1    2  502    0 -0.31571151984E+02  0.39163582733E+02  0.36828960178E+03  0.37170923398E+03  0.00000000000E+00 0. -1.
         22    1    3    3    0    0 -0.15833514390E+02 -0.59456001261E+02  0.38576240471E+02  0.72621226875E+02  0.00000000000E+00 0. -1.
         22    1    3    3    0    0 -0.11171474565E+03  0.12583621720E+02  0.19532807996E+03  0.22536989762E+03  0.00000000000E+00 0. -1.
</event>
<event>
 7    1  0.7457412E-006  0.6707177E+02  0.7818608E-02  0.1371463E+00
          2   -1    0    0  502    0  0.00000000000E+00  0.00000000000E+00  0.22576169940E+03  0.22576169940E+03  0.00000000000E+00 0. -1.
          1   -1    0    0  501    0 -0.00000000000E+00 -0.00000000000E+00 -0.98541268819E+03  0.98541268819E+03  0.00000000000E+00 0. -1.
         25    2    1    2    0    0 -0.58848868587E+01  0.61987972917E+02 -0.13090328744E+03  0.19141005764E+03  0.12499999528E+03 0.  0.
          2    1    1    2  501    0 -0.56780495820E+02 -0.34526599195E+02 -0.81687935039E+03  0.81957793031E+03  0.00000000000E+00 0. -1.
          1    1    1    2  502    0  0.62665382679E+02 -0.27461373722E+02  0.18813164904E+03  0.20018639965E+03  0.00000000000E+00 0. -1.
         22    1    3    3    0    0 -0.27302715032E+02 -0.14700337561E+02 -0.10215267075E+03  0.10675535730E+03  0.00000000000E+00 0.  1.
         22    1    3    3    0    0  0.21417828174E+02  0.76688310478E+02 -0.28750616698E+02  0.84654700331E+02  0.00000000000E+00 0.  1.
</event>
<event>
 7    1  0.7457412E-006  0.6229633E+02  0.7818608E-02  0.1493968E+00
          2   -1    0    0  502    0  0.00000000000E+00  0.00000000000E+00  0.89808868255E+03  0.89808868255E+03  0.00000000000E+00 0. -1.
          1   -1    0    0  501    0 -0.00000000000E+00 -0.00000000000E+00 -0.60659831193E+03  0.60659831193E+03  0.00000000000E+00 0. -1.
         25    2    1    2    0    0 -0.61904247537E+02 -0.23918415788E+02 -0.59612679523E+02  0.15356894731E+03  0.12500209414E+03 0.  0.
          2    1    1    2  501    0  0.18848895523E+02 -0.21136681335E+02 -0.49846424639E+03  0.49926810942E+03  0.00000000000E+00 0. -1.
          1    1    1    2  502    0  0.43055352014E+02  0.45055097123E+02  0.84956729653E+03  0.85184993775E+03  0.00000000000E+00 0. -1.
         22    1    3    3    0    0 -0.87696403114E+02 -0.52785855228E+02 -0.48679930758E+02  0.11334346602E+03  0.00000000000E+00 0. -1.
         22    1    3    3    0    0  0.25792155576E+02  0.28867439441E+02 -0.10932748765E+02  0.40225481286E+02  0.00000000000E+00 0. -1.
</event>
<event>
 7    1  0.7457412E-006  0.2728213E+02  0.7818608E-02  0.1661191E+00
          2   -1    0    0  502    0  0.00000000000E+00  0.00000000000E+00  0.12139338847E+04  0.12139338847E+04  0.00000000000E+00 0. -1.
          1   -1    0    0  501    0 -0.00000000000E+00 -0.00000000000E+00 -0.95327024793E+03  0.95327024793E+03  0.00000000000E+00 0. -1.
         25    2    1    2    0    0 -0.43182158982E+02  0.68349398281E+01 -0.87815672911E+02  0.15889572684E+03  0.12499937737E+03 0.  0.
          2    1    1    2  501    0  0.22135362703E+02 -0.15820320459E+02 -0.82958039967E+03  0.83002644315E+03  0.00000000000E+00 0. -1.
          1    1    1    2  502    0  0.21046796279E+02  0.89853806308E+01  0.11780597093E+04  0.11782819626E+04  0.00000000000E+00 0. -1.
         22    1    3    3    0    0  0.26618750075E+02  0.37166719903E+02 -0.43203160696E+01  0.45919364704E+02  0.00000000000E+00 0.  1.
         22    1    3    3    0    0 -0.69800909056E+02 -0.30331780075E+02 -0.83495356842E+02  0.11297636214E+03  0.00000000000E+00 0.  1.
</event>
<event>
 7    1  0.9695993E-006  0.7383356E+02  0.7818608E-02  0.1349540E+00
          2   -1    0    0  502    0  0.00000000000E+00  0.00000000000E+00  0.19696893355E+04  0.19696893355E+04  0.00000000000E+00 0. -1.
          1   -1    0    0  501    0 -0.00000000000E+00 -0.00000000000E+00 -0.28179562990E+04  0.28179562990E+04  0.00000000000E+00 0. -1.
         25    2    1    2    0    0  0.10830480792E+02  0.95519877044E+02 -0.22686485438E+03  0.27628515840E+03  0.12499792149E+03 0.  0.
          2    1    1    2  501    0  0.49567447325E+02 -0.53004457020E+02 -0.25651667240E+04  0.25661930415E+04  0.00000000000E+00 0. -1.
          1    1    1    2  502    0 -0.60397928117E+02 -0.42515420025E+02  0.19437646148E+04  0.19451674346E+04  0.00000000000E+00 0. -1.
         22    1    3    3    0    0  0.56653558703E+02  0.73395384280E+02 -0.85808427801E+02  0.12633128840E+03  0.00000000000E+00 0.  1.
         22    1    3    3    0    0 -0.45823077911E+02  0.22124492765E+02 -0.14105642658E+03  0.14995387000E+03  0.00000000000E+00 0.  1.
</event>
<event>
 7    1  0.7457412E-006  0.4140416E+02  0.7818608E-02  0.1601068E+00
          2   -1    0    0  502    0  0.00000000000E+00  0.00000000000E+00  0.52716019993E+03  0.52716019993E+03  0.00000000000E+00 0. -1.
          1   -1    0    0  501    0 -0.00000000000E+00 -0.00000000000E+00 -0.32882146769E+03  0.32882146769E+03  0.00000000000E+00 0. -1.
         25    2    1    2    0    0 -0.24295346669E+02 -0.39447979676E+02 -0.66604484567E+02  0.14903175131E+03  0.12501159371E+03 0.  0.
          2    1    1    2  501    0  0.21270554918E+02 -0.18475299964E+01 -0.21960265591E+03  0.22063811175E+03  0.00000000000E+00 0. -1.
          1    1    1    2  502    0  0.30247917518E+01  0.41295509673E+02  0.48454587272E+03  0.48631180456E+03  0.00000000000E+00 0. -1.
         22    1    3    3    0    0 -0.35134011223E+02 -0.82105508862E+02 -0.44425538062E+02  0.99746387214E+02  0.00000000000E+00 0. -1.
         22    1    3    3    0    0  0.10838664554E+02  0.42657529186E+02 -0.22178946504E+02  0.49285364091E+02  0.00000000000E+00 0. -1.
</event>
<event>
 7    1  0.7457412E-006  0.1156005E+03  0.7818608E-02  0.1268630E+00
          2   -1    0    0  502    0  0.00000000000E+00  0.00000000000E+00  0.35495345790E+04  0.35495345790E+04  0.00000000000E+00 0. -1.
          1   -1    0    0  501    0 -0.00000000000E+00 -0.00000000000E+00 -0.53671034311E+03  0.53671034311E+03  0.00000000000E+00 0. -1.
         25    2    1    2    0    0 -0.11450544205E+02  0.31179839534E+02  0.11459612095E+04  0.11532373683E+04  0.12500414558E+03 0.  0.
          2    1    1    2  501    0  0.10730527877E+03 -0.44361078298E+02 -0.52575990550E+03  0.53842901700E+03  0.00000000000E+00 0. -1.
          1    1    1    2  502    0 -0.95854734562E+02  0.13181238764E+02  0.23926229319E+04  0.23945785369E+04  0.00000000000E+00 0. -1.
         22    1    3    3    0    0  0.26608591794E+02  0.23739521738E+02  0.10364397311E+04  0.10370529872E+04  0.00000000000E+00 0.  1.
         22    1    3    3    0    0 -0.38059135998E+02  0.74403177960E+01  0.10952147840E+03  0.11618438102E+03  0.00000000000E+00 0.  1.
</event>
<event>
 7    1  0.7457412E-006  0.3251330E+02  0.7818608E-02  0.1651418E+00
          2   -1    0    0  502    0  0.00000000000E+00  0.00000000000E+00  0.93064609130E+01  0.93064609130E+01  0.00000000000E+00 0. -1.
          1   -1    0    0  501    0 -0.00000000000E+00 -0.00000000000E+00 -0.17897082560E+04  0.17897082560E+04  0.00000000000E+00 0. -1.
         25    2    1    2    0    0 -0.15416697898E+02  0.14296136421E+02 -0.64492897616E+03  0.65726760995E+03  0.12500109083E+03 0.  0.
          2    1    1    2  501    0 -0.18697536881E+02 -0.78623764789E+01 -0.10393423402E+04  0.10395402421E+04  0.00000000000E+00 0. -1.
          1    1    1    2  502    0  0.34114234779E+02 -0.64337599420E+01 -0.96130478765E+02  0.10220686488E+03  0.00000000000E+00 0. -1.
         22    1    3    3    0    0 -0.80005352668E+00 -0.13639783552E+02 -0.22877530049E+01  0.13853432600E+02  0.00000000000E+00 0.  1.
         22    1    3    3    0    0 -0.14616644372E+02  0.27935919973E+02 -0.64264122315E+03  0.64341417735E+03  0.00000000000E+00 0.  1.
</event>
<event>
 7    1  0.7457412E-006  0.3073325E+03  0.7818608E-02  0.1225302E+00
          2   -1    0    0  502    0  0.00000000000E+00  0.00000000000E+00  0.15645144016E+04  0.15645144016E+04  0.00000000000E+00 0. -1.
          1   -1    0    0  501    0 -0.00000000000E+00 -0.00000000000E+00 -0.43338879073E+03  0.43338879073E+03  0.00000000000E+00 0. -1.
         25    2    1    2    0    0  0.10759646999E+03  0.31988514007E+03  0.69066661732E+02  0.36646733577E+03  0.12499840491E+03 0.  0.
          2    1    1    2  501    0 -0.12887034849E+03 -0.26783120798E+03 -0.20631833924E+03  0.36181263078E+03  0.00000000000E+00 0. -1.
          1    1    1    2  502    0  0.21273878502E+02 -0.52053932095E+02  0.12683772884E+04  0.12696232257E+04  0.00000000000E+00 0. -1.
         22    1    3    3    0    0  0.59742391876E+02  0.19645046682E+03 -0.20914760933E+02  0.20639613981E+03  0.00000000000E+00 0. -1.
         22    1    3    3    0    0  0.47854078114E+02  0.12343467325E+03  0.89981422666E+02  0.16007119596E+03  0.00000000000E+00 0. -1.
</event>
<event>
 7    1  0.7457412E-006  0.1228780E+03  0.7818608E-02  0.1329233E+00
          2   -1    0    0  502    0  0.00000000000E+00  0.00000000000E+00  0.12882503648E+04  0.12882503648E+04  0.00000000000E+00 0. -1.
          1   -1    0    0  501    0 -0.00000000000E+00 -0.00000000000E+00 -0.61631089548E+03  0.61631089548E+03  0.00000000000E+00 0. -1.
         25    2    1    2    0    0 -0.96036782767E+02  0.25996779954E+02  0.13938119372E+03  0.21201770747E+03  0.12500197961E+03 0.  0.
          2    1    1    2  501    0  0.12265987906E+03  0.18672210229E+02 -0.57273888015E+03  0.58602382392E+03  0.00000000000E+00 0. -1.
          1    1    1    2  502    0 -0.26623096293E+02 -0.44668990183E+02  0.11052971557E+04  0.11065197288E+04  0.00000000000E+00 0. -1.
         22    1    3    3    0    0 -0.10008419342E+03  0.36551530112E+02  0.42876466789E+02  0.11485317380E+03  0.00000000000E+00 0.  1.
         22    1    3    3    0    0  0.40474106580E+01 -0.10554750159E+02  0.96504726932E+02  0.97164533674E+02  0.00000000000E+00 0.  1.
</event>
<event>
 7    1  0.7457412E-006  0.9297693E+02  0.7818608E-02  0.1398697E+00
          2   -1    0    0  502    0  0.00000000000E+00  0.00000000000E+00  0.64493467045E+02  0.64493467045E+02  0.00000000000E+00 0. -1.
          1   -1    0    0  501    0 -0.00000000000E+00 -0.00000000000E+00 -0.10671272774E+04  0.10671272774E+04  0.00000000000E+00 0. -1.
         25    2    1    2    0    0 -0.10894343583E+03  0.69354015132E+02 -0.16297337039E+03  0.24261285940E+03  0.12498811329E+03 0.  0.
          2    1    1    2  501    0  0.77668398484E+02 -0.46980016180E+02 -0.84528474615E+03  0.85014457836E+03  0.00000000000E+00 0. -1.
          1    1    1    2  502    0  0.31275037349E+02 -0.22373998951E+02  0.56243061419E+01  0.38863306728E+02  0.00000000000E+00 0. -1.
         22    1    3    3    0    0 -0.11537077653E+03  0.90153561326E+02 -0.16517949267E+03  0.22073138765E+03  0.00000000000E+00 0. -1.
         22    1    3    3    0    0  0.64273406933E+01 -0.20799546194E+02  0.22061222808E+01  0.21881471746E+02  0.00000000000E+00 0. -1.
</event>
<event>
 7    1  0.7457412E-006  0.2115137E+03  0.7818608E-02  0.1255267E+00
          2   -1    0    0  502    0  0.00000000000E+00  0.00000000000E+00  0.65360936761E+03  0.65360936761E+03  0.00000000000E+00 0. -1.
          1   -1    0    0  501    0 -0.00000000000E+00 -0.00000000000E+00 -0.53129750859E+03  0.53129750859E+03  0.00000000000E+00 0. -1.
         25    2    1    2    0    0  0.86979235207E+02  0.15650451916E+03 -0.12617446172E+03  0.25219718189E+03  0.12499748752E+03 0.  0.
          2    1    1    2  501    0 -0.84665285217E+02 -0.21673789699E+03 -0.30070533875E+03  0.38021997221E+03  0.00000000000E+00 0. -1.
          1    1    1    2  502    0 -0.23139499893E+01  0.60233377832E+02  0.54919165949E+03  0.55248972210E+03  0.00000000000E+00 0. -1.
         22    1    3    3    0    0 -0.13478285105E+02  0.18195825843E+02 -0.67930923477E+02  0.71605604613E+02  0.00000000000E+00 0. -1.
         22    1    3    3    0    0  0.10045752031E+03  0.13830869332E+03 -0.58243538243E+02  0.18059157727E+03  0.00000000000E+00 0. -1.
</event>
<event>
 7    1  0.7457412E-006  0.8571655E+02  0.7818608E-02  0.1381684E+00
          2   -1    0    0  502    0  0.00000000000E+00  0.00000000000E+00  0.15839511351E+04  0.15839511351E+04  0.00000000000E+00 0. -1.
          1   -1    0    0  501    0 -0.00000000000E+00 -0.00000000000E+00 -0.11712153786E+03  0.11712153786E+03  0.00000000000E+00 0. -1.
         25    2    1    2    0    0 -0.62564931182E+02 -0.31584640830E+02  0.99759000769E+03  0.10078303711E+04  0.12499709333E+03 0.  0.
          2    1    1    2  501    0  0.42470868970E+02  0.74977958236E+02 -0.94262911013E+02  0.12771438965E+03  0.00000000000E+00 0. -1.
          1    1    1    2  502    0  0.20094062212E+02 -0.43393317406E+02  0.56350250052E+03  0.56552791215E+03  0.00000000000E+00 0. -1.
         22    1    3    3    0    0 -0.32958416453E+02 -0.27786255599E+02  0.90430121657E+02  0.10017953942E+03  0.00000000000E+00 0.  1.
         22    1    3    3    0    0 -0.29606514730E+02 -0.37983852311E+01  0.90715988604E+03  0.90765083170E+03  0.00000000000E+00 0.  1.
</event>
<event>
 7    1  0.7457412E-006  0.1312030E+03  0.7818608E-02  0.1266876E+00
          2   -1    0    0  502    0  0.00000000000E+00  0.00000000000E+00  0.82705537122E+03  0.82705537122E+03  0.00000000000E+00 0. -1.
          1   -1    0    0  501    0 -0.00000000000E+00 -0.00000000000E+00 -0.60414790217E+03  0.60414790217E+03  0.00000000000E+00 0. -1.
         25    2    1    2    0    0  0.63193428356E+02  0.51412581159E+02  0.11992176733E+03  0.19142175757E+03  0.12499758438E+03 0.  0.
          2    1    1    2  501    0 -0.13461704797E+03 -0.22400933598E+01 -0.55755148033E+03  0.57357686568E+03  0.00000000000E+00 0. -1.
          1    1    1    2  502    0  0.71423619610E+02 -0.49172487799E+02  0.66053718206E+03  0.66620465015E+03  0.00000000000E+00 0. -1.
         22    1    3    3    0    0 -0.29896767115E+02 -0.11194338827E+02  0.49707061436E+02  0.59075560617E+02  0.00000000000E+00 0. -1.
         22    1    3    3    0    0  0.93090195471E+02  0.62606919986E+02  0.70214705892E+02  0.13234619695E+03  0.00000000000E+00 0. -1.
</event>
<event>
 7    1  0.7457412E-006  0.1045699E+03  0.7818608E-02  0.1407189E+00
          2   -1    0    0  502    0  0.00000000000E+00  0.00000000000E+00  0.96365234470E+03  0.96365234470E+03  0.00000000000E+00 0. -1.
          1   -1    0    0  501    0 -0.00000000000E+00 -0.00000000000E+00 -0.27290145959E+03  0.27290145959E+03  0.00000000000E+00 0. -1.
         25    2    1    2    0    0 -0.79849780554E+02 -0.80779232792E+02 -0.34570409703E+01  0.16891858606E+03  0.12498106129E+03 0.  0.
          2    1    1    2  501    0 -0.11318542849E+02  0.29906852416E+02 -0.18222327881E+03  0.18500770950E+03  0.00000000000E+00 0. -1.
          1    1    1    2  502    0  0.91168323403E+02  0.50872380376E+02  0.87643120489E+03  0.88262750874E+03  0.00000000000E+00 0. -1.
         22    1    3    3    0    0 -0.12934646542E+02 -0.84888390760E+02 -0.37534822827E+02  0.93713429622E+02  0.00000000000E+00 0.  1.
         22    1    3    3    0    0 -0.66915134012E+02  0.41091579682E+01  0.34077781857E+02  0.75205156441E+02  0.00000000000E+00 0.  1.
</event>
<event>
 7    1  0.7457412E-006  0.1381790E+03  0.7818608E-02  0.1323905E+00
          2   -1    0    0  502    0  0.00000000000E+00  0.00000000000E+00  0.59239633936E+03  0.59239633936E+03  0.00000000000E+00 0. -1.
          1   -1    0    0  501    0 -0.00000000000E+00 -0.00000000000E+00 -0.67856534981E+03  0.67856534981E+03  0.00000000000E+00 0. -1.
         25    2    1    2    0    0  0.24422516066E+02  0.99783005247E+02 -0.13729043340E+03  0.21219358913E+03  0.12499739491E+03 0.  0.
          2    1    1    2  501    0  0.42470353679E+02  0.23365652285E+02 -0.49376972312E+03  0.49614335037E+03  0.00000000000E+00 0. -1.
          1    1    1    2  502    0 -0.66892869745E+02 -0.12314865753E+03  0.54489114608E+03  0.56262474967E+03  0.00000000000E+00 0. -1.
         22    1    3    3    0    0 -0.42880630721E+02  0.80392102086E+02 -0.86899769809E+02  0.12590952530E+03  0.00000000000E+00 0. -1.
         22    1    3    3    0    0  0.67303146786E+02  0.19390903161E+02 -0.50390663592E+02  0.86284063824E+02  0.00000000000E+00 0. -1.
</event>
<event>
 7    1  0.7457412E-006  0.1012708E+03  0.7818608E-02  0.1320766E+00
          2   -1    0    0  502    0  0.00000000000E+00  0.00000000000E+00  0.22808384678E+04  0.22808384678E+04  0.00000000000E+00 0. -1.
          1   -1    0    0  501    0 -0.00000000000E+00 -0.00000000000E+00 -0.14379348760E+03  0.14379348760E+03  0.00000000000E+00 0. -1.
         25    2    1    2    0    0 -0.46980915125E+01 -0.11262828730E+03  0.27125602804E+03  0.31923709897E+03  0.12500115779E+03 0.  0.
          2    1    1    2  501    0 -0.57181037528E+02  0.84398758559E+02 -0.97419594704E+02  0.14100850659E+03  0.00000000000E+00 0. -1.
          1    1    1    2  502    0  0.61879129040E+02  0.28229528740E+02  0.19632085469E+04  0.19643863499E+04  0.00000000000E+00 0. -1.
         22    1    3    3    0    0  0.13078201713E+02 -0.39686021365E+02  0.43945474868E+01  0.42015850574E+02  0.00000000000E+00 0.  1.
         22    1    3    3    0    0 -0.17776293226E+02 -0.72942265934E+02  0.26686148055E+03  0.27722124840E+03  0.00000000000E+00 0.  1.
</event>
<event>
 7    1  0.7457412E-006  0.1597822E+03  0.7818608E-02  0.1263966E+00
          2   -1    0    0  502    0  0.00000000000E+00  0.00000000000E+00  0.29979818140E+03  0.29979818140E+03  0.00000000000E+00 0. -1.
          1   -1    0    0  501    0 -0.00000000000E+00 -0.00000000000E+00 -0.99605101483E+03  0.99605101483E+03  0.00000000000E+00 0. -1.
         25    2    1    2    0    0 -0.28357795865E+02 -0.22562602359E+03 -0.97702552167E+02  0.27727541828E+03  0.12499840708E+03 0.  0.
          2    1    1    2  501    0  0.21480227887E+02  0.15269807859E+03 -0.79452816800E+03  0.80935351556E+03  0.00000000000E+00 0. -1.
          1    1    1    2  502    0  0.68775679784E+01  0.72927945003E+02  0.19597788674E+03  0.20922026239E+03  0.00000000000E+00 0. -1.
         22    1    3    3    0    0 -0.35002905948E+02 -0.21909009832E+03 -0.48382911548E+02  0.22708276186E+03  0.00000000000E+00 0. -1.
         22    1    3    3    0    0  0.66451100822E+01 -0.65359252765E+01 -0.49319640619E+02  0.50192656415E+02  0.00000000000E+00 0. -1.
</event>
<event>
 7    1  0.7457412E-006  0.6794960E+02  0.7818608E-02  0.1453786E+00
          2   -1    0    0  502    0  0.00000000000E+00  0.00000000000E+00  0.87743836894E+02  0.87743836894E+02  0.00000000000E+00 0. -1.
          1   -1    0    0  501    0 -0.00000000000E+00 -0.00000000000E+00 -0.23611114529E+03  0.23611114529E+03  0.00000000000E+00 0. -1.
         25    2    1    2    0    0 -0.46159917181E+02 -0.61019689961E+02 -0.14947594911E+03  0.20933778018E+03  0.12500042533E+03 0.  0.
          2    1    1    2  501    0 -0.14738279028E+02  0.31272409532E+02 -0.24168486673E+02  0.42181704739E+02  0.00000000000E+00 0. -1.
          1    1    1    2  502    0  0.60898196208E+02  0.29747280429E+02  0.25277127393E+02  0.72335497258E+02  0.00000000000E+00 0. -1.
         22    1    3    3    0    0  0.20321674357E+02  0.18691156610E+02 -0.79496962636E+02  0.84155195041E+02  0.00000000000E+00 0.  1.
         22    1    3    3    0    0 -0.66481591538E+02 -0.79710846571E+02 -0.69978986475E+02  0.12518258514E+03  0.00000000000E+00 0.  1.
</event>
<event>
 7    1  0.7457412E-006  0.6357340E+02  0.7818608E-02  0.1482122E+00
          2   -1    0    0  502    0  0.00000000000E+00  0.00000000000E+00  0.26127842198E+04  0.26127842198E+04  0.00000000000E+00 0. -1.
          1   -1    0    0  501    0 -0.00000000000E+00 -0.00000000000E+00 -0.12112877831E+02  0.12112877831E+02  0.00000000000E+00 0. -1.
         25    2    1    2    0    0 -0.19769111183E+02 -0.71658494569E+02  0.99286911189E+03  0.10034643705E+04  0.12500364760E+03 0.  0.
          2    1    1    2  501    0 -0.19814637060E+02  0.22718608911E+02  0.30529751356E+02  0.42904787035E+02  0.00000000000E+00 0. -1.
          1    1    1    2  502    0  0.39583748242E+02  0.48939885658E+02  0.15772724787E+04  0.15785279401E+04  0.00000000000E+00 0. -1.
         22    1    3    3    0    0 -0.23682810587E+02 -0.56371347359E+02  0.17377428126E+03  0.18421754843E+03  0.00000000000E+00 0.  1.
         22    1    3    3    0    0  0.39136994041E+01 -0.15287147210E+02  0.81909483063E+03  0.81924682207E+03  0.00000000000E+00 0.  1.
</event>
<event>
 7    1  0.7457412E-006  0.2997002E+03  0.7818608E-02  0.1264792E+00
          2   -1    0    0  502    0  0.00000000000E+00  0.00000000000E+00  0.21781535306E+04  0.21781535306E+04  0.00000000000E+00 0. -1.
          1   -1    0    0  501    0 -0.00000000000E+00 -0.00000000000E+00 -0.31793119358E+03  0.31793119358E+03  0.00000000000E+00 0. -1.
         25    2    1    2    0    0  0.66328297914E+02 -0.26150059412E+03  0.65454700985E+03  0.71891438415E+03  0.12499639918E+03 0.  0.
          2    1    1    2  501    0 -0.94383582586E+02  0.28821491777E+03 -0.20493689287E+03  0.36602626893E+03  0.00000000000E+00 0. -1.
          1    1    1    2  502    0  0.28055284672E+02 -0.26714323644E+02  0.14106122201E+04  0.14111440711E+04  0.00000000000E+00 0. -1.
         22    1    3    3    0    0 -0.31083075638E+02 -0.12995897219E+03  0.28964267200E+03  0.31898020234E+03  0.00000000000E+00 0. -1.
         22    1    3    3    0    0  0.97411373552E+02 -0.13154162193E+03  0.36490433784E+03  0.39993418180E+03  0.00000000000E+00 0. -1.
</event>
<event>
 7    1  0.7457412E-006  0.7707484E+02  0.7818608E-02  0.1485168E+00
          2   -1    0    0  502    0  0.00000000000E+00  0.00000000000E+00  0.36233292787E+03  0.36233292787E+03  0.00000000000E+00 0. -1.
          1   -1    0    0  501    0 -0.00000000000E+00 -0.00000000000E+00 -0.10542830876E+03  0.10542830876E+03  0.00000000000E+00 0. -1.
         25    2    1    2    0    0  0.37334634802E+02  0.75329540728E+02 -0.14945945506E+02  0.15138117595E+03  0.12499785792E+03 0.  0.
          2    1    1    2  501    0 -0.24334760887E+02  0.40733327495E+00 -0.84295059062E+01  0.25756612309E+02  0.00000000000E+00 0. -1.
          1    1    1    2  502    0 -0.12999873915E+02 -0.75736874003E+02  0.28028007052E+03  0.29062344836E+03  0.00000000000E+00 0. -1.
         22    1    3    3    0    0 -0.28663768175E+02  0.55564290745E+02  0.29769530097E+02  0.69247577100E+02  0.00000000000E+00 0. -1.
         22    1    3    3    0    0  0.65998402977E+02  0.19765249984E+02 -0.44715475603E+02  0.82133598855E+02  0.00000000000E+00 0. -1.
</event>
<event>
 7    1  0.7457412E-006  0.9390910E+02  0.7818608E-02  0.1415946E+00
          2   -1    0    0  502    0  0.00000000000E+00  0.00000000000E+00  0.13019937380E+04  0.13019937380E+04  0.00000000000E+00 0. -1.
          1   -1    0    0  501    0 -0.00000000000E+00 -0.00000000000E+00 -0.54931000602E+02  0.54931000602E+02  0.00000000000E+00 0. -1.
         25    2    1    2    0    0 -0.71840926092E+02  0.60955907572E+02  0.44340426920E+03  0.47022770621E+03  0.12502003204E+03 0.  0.
          2    1    1    2  501    0  0.46365064494E+02 -0.82339023297E+02  0.13053814533E+02  0.95393060738E+02  0.00000000000E+00 0. -1.
          1    1    1    2  502    0  0.25475861598E+02  0.21383115725E+02  0.79060465371E+03  0.79130397170E+03  0.00000000000E+00 0. -1.
         22    1    3    3    0    0 -0.73757239301E+02  0.71262557628E+02  0.18432521730E+03  0.21093664500E+03  0.00000000000E+00 0. -1.
         22    1    3    3    0    0  0.19163132088E+01 -0.10306650056E+02  0.25907905190E+03  0.25929106121E+03  0.00000000000E+00 0. -1.
</event>
<event>
 7    1  0.7457412E-006  0.1094810E+03  0.7818608E-02  0.1392951E+00
          2   -1    0    0  502    0  0.00000000000E+00  0.00000000000E+00  0.63797642847E+03  0.63797642847E+03  0.00000000000E+00 0. -1.
          1   -1    0    0  501    0 -0.00000000000E+00 -0.00000000000E+00 -0.11767058254E+03  0.11767058254E+03  0.00000000000E+00 0. -1.
         25    2    1    2    0    0 -0.95822543081E+02  0.54584684340E+02  0.53207610409E+03  0.55757632699E+03  0.12499972939E+03 0.  0.
          2    1    1    2  501    0  0.74058614270E+02 -0.80949112538E+02 -0.70287567726E+02  0.13029880792E+03  0.00000000000E+00 0. -1.
          1    1    1    2  502    0  0.21763928810E+02  0.26364428198E+02  0.58517309567E+02  0.67771876103E+02  0.00000000000E+00 0. -1.
         22    1    3    3    0    0 -0.12170206273E+03  0.22020827546E+02  0.36433162013E+03  0.38475165802E+03  0.00000000000E+00 0.  1.
         22    1    3    3    0    0  0.25879519653E+02  0.32563856794E+02  0.16774448395E+03  0.17282466897E+03  0.00000000000E+00 0.  1.
</event>
<event>
 7    1  0.7457412E-006  0.3306458E+03  0.7818608E-02  0.1216207E+00
          2   -1    0    0  502    0  0.00000000000E+00  0.00000000000E+00  0.34756307124E+03  0.34756307124E+03  0.00000000000E+00 0. -1.
          1   -1    0    0  501    0 -0.00000000000E+00 -0.00000000000E+00 -0.61941614956E+03  0.61941614956E+03  0.00000000000E+00 0. -1.
         25    2    1    2    0    0 -0.66085587784E+01 -0.37558481434E+03 -0.27988180746E+03  0.48483650159E+03  0.12499992526E+03 0.  0.
          2    1    1    2  501    0 -0.66590464208E+00  0.57494440757E+02 -0.12475942230E+03  0.13737164045E+03  0.00000000000E+00 0. -1.
          1    1    1    2  502    0  0.72744634205E+01  0.31809037358E+03  0.13278815145E+03  0.34477107876E+03  0.00000000000E+00 0. -1.
         22    1    3    3    0    0 -0.58952679004E+02 -0.20023744790E+03 -0.11394364099E+03  0.23781002339E+03  0.00000000000E+00 0. -1.
         22    1    3    3    0    0  0.52344120226E+02 -0.17534736643E+03 -0.16593816647E+03  0.24702647819E+03  0.00000000000E+00 0. -1.
</event>
<event>
 7    1  0.7457412E-006  0.1377000E+03  0.7818608E-02  0.1301531E+00
          2   -1    0    0  502    0  0.00000000000E+00  0.00000000000E+00  0.15974828765E+04  0.15974828765E+04  0.00000000000E+00 0. -1.
          1   -1    0    0  501    0 -0.00000000000E+00 -0.00000000000E+00 -0.13193072477E+04  0.13193072477E+04  0.00000000000E+00 0. -1.
         25    2    1    2    0    0 -0.16288437764E+03 -0.48031559761E+02 -0.91339259840E+03  0.93741651539E+03  0.12500133316E+03 0.  0.
          2    1    1    2  501    0  0.25382335988E+02  0.53860406425E+02 -0.38864452782E+03  0.39317906273E+03  0.00000000000E+00 0. -1.
          1    1    1    2  502    0  0.13750204165E+03 -0.58288466640E+01  0.15802127550E+04  0.15861945461E+04  0.00000000000E+00 0. -1.
         22    1    3    3    0    0 -0.13568594129E+03 -0.57729845665E+02 -0.88399628601E+03  0.89621026741E+03  0.00000000000E+00 0.  1.
         22    1    3    3    0    0 -0.27198436354E+02  0.96982859040E+01 -0.29396312394E+02  0.41206247972E+02  0.00000000000E+00 0.  1.
</event>
<event>
 7    1  0.7457412E-006  0.8733972E+02  0.7818608E-02  0.1374883E+00
          2   -1    0    0  502    0  0.00000000000E+00  0.00000000000E+00  0.12469714465E+04  0.12469714465E+04  0.00000000000E+00 0. -1.
          1   -1    0    0  501    0 -0.00000000000E+00 -0.00000000000E+00 -0.12380865607E+04  0.12380865607E+04  0.00000000000E+00 0. -1.
         25    2    1    2    0    0  0.83632721420E+02  0.10140265395E+03  0.54695231535E+03  0.57624526394E+03  0.12499935452E+03 0.  0.
          2    1    1    2  501    0 -0.40206595252E+02 -0.77406247545E+02 -0.12209842793E+04  0.12240959553E+04  0.00000000000E+00 0. -1.
          1    1    1    2  502    0 -0.43426126168E+02 -0.23996406405E+02  0.68291684978E+03  0.68471678792E+03  0.00000000000E+00 0. -1.
         22    1    3    3    0    0  0.30061278767E+02  0.20223687484E+02  0.38945262095E+03  0.39113427615E+03  0.00000000000E+00 0. -1.
         22    1    3    3    0    0  0.53571442652E+02  0.81178966466E+02  0.15749969440E+03  0.18511098779E+03  0.00000000000E+00 0. -1.
</event>
<event>
 7    1  0.7457412E-006  0.9591552E+02  0.7818608E-02  0.1302961E+00
          2   -1    0    0  502    0  0.00000000000E+00  0.00000000000E+00  0.21010880103E+04  0.21010880103E+04  0.00000000000E+00 0. -1.
          1   -1    0    0  501    0 -0.00000000000E+00 -0.00000000000E+00 -0.81755574655E+03  0.81755574655E+03  0.00000000000E+00 0. -1.
         25    2    1    2    0    0 -0.53983455873E+02  0.16124459954E+03  0.30779464695E+03  0.37319820849E+03  0.12500129497E+03 0.  0.
          2    1    1    2  501    0  0.10572218039E+01 -0.84357851266E+02 -0.78134449380E+03  0.78588585862E+03  0.00000000000E+00 0. -1.
          1    1    1    2  502    0  0.52926234069E+02 -0.76886748271E+02  0.17570821106E+04  0.17595596897E+04  0.00000000000E+00 0. -1.
         22    1    3    3    0    0  0.15504884139E+02  0.10690006735E+03  0.98960193262E+02  0.14649623095E+03  0.00000000000E+00 0.  1.
         22    1    3    3    0    0 -0.69488340012E+02  0.54344532186E+02  0.20883445369E+03  0.22670197754E+03  0.00000000000E+00 0.  1.
</event>
<event>
 7    1  0.7457412E-006  0.4344458E+02  0.7818608E-02  0.1517767E+00
          2   -1    0    0  502    0  0.00000000000E+00  0.00000000000E+00  0.38539706378E+02  0.38539706378E+02  0.00000000000E+00 0. -1.
          1   -1    0    0  501    0 -0.00000000000E+00 -0.00000000000E+00 -0.55023104922E+03  0.55023104922E+03  0.00000000000E+00 0. -1.
         25    2    1    2    0    0 -0.28739601189E+02  0.48765170997E+00 -0.38636994616E+03  0.40710370744E+03  0.12500196332E+03 0.  0.
          2    1    1    2  501    0  0.41396537136E+02 -0.32612104374E+02 -0.13573217704E+03  0.14560373115E+03  0.00000000000E+00 0. -1.
          1    1    1    2  502    0 -0.12656935947E+02  0.32124452664E+02  0.10410780359E+02  0.36063317016E+02  0.00000000000E+00 0. -1.
         22    1    3    3    0    0  0.38262149463E+02 -0.10624574255E+02 -0.49520492541E+02  0.63475608238E+02  0.00000000000E+00 0. -1.
         22    1    3    3    0    0 -0.67001750652E+02  0.11112225965E+02 -0.33684945362E+03  0.34362809920E+03  0.00000000000E+00 0. -1.
</event>
<event>
 7    1  0.7457412E-006  0.8233916E+02  0.7818608E-02  0.1434925E+00
          2   -1    0    0  502    0  0.00000000000E+00  0.00000000000E+00  0.12674178413E+04  0.12674178413E+04  0.00000000000E+00 0. -1.
          1   -1    0    0  501    0 -0.00000000000E+00 -0.00000000000E+00 -0.15592326572E+03  0.15592326572E+03  0.00000000000E+00 0. -1.
         25    2    1    2    0    0 -0.24664650184E+02 -0.44821280052E+02  0.74485462681E+03  0.75699978402E+03  0.12499186302E+03 0.  0.
          2    1    1    2  501    0  0.49182901822E+02  0.66638328813E+02 -0.13783249388E+03  0.16080242868E+03  0.00000000000E+00 0. -1.
          1    1    1    2  502    0 -0.24518251638E+02 -0.21817048761E+02  0.50447244265E+03  0.50553889432E+03  0.00000000000E+00 0. -1.
         22    1    3    3    0    0  0.25684689872E+02 -0.42898088512E+01  0.32163098154E+02  0.41383216848E+02  0.00000000000E+00 0.  1.
         22    1    3    3    0    0 -0.50349340056E+02 -0.40531471201E+02  0.71269152865E+03  0.71561656717E+03  0.00000000000E+00 0.  1.
</event>
<event>
 7    1  0.7457412E-006  0.4332449E+02  0.7818608E-02  0.1515152E+00
          2   -1    0    0  502    0  0.00000000000E+00  0.00000000000E+00  0.10497235491E+04  0.10497235491E+04  0.00000000000E+00 0. -1.
          1   -1    0    0  501    0 -0.00000000000E+00 -0.00000000000E+00 -0.22715266197E+02  0.22715266197E+02  0.00000000000E+00 0. -1.
         25    2    1    2    0    0  0.19903667137E+02  0.11442441980E+02  0.21156483578E+03  0.24682363287E+03  0.12504055567E+03 0.  0.
          2    1    1    2  501    0 -0.40417118216E+02  0.26717872747E+02  0.12887833497E+03  0.13768447042E+03  0.00000000000E+00 0. -1.
          1    1    1    2  502    0  0.20513451078E+02 -0.38160314727E+02  0.68656511214E+03  0.68793071199E+03  0.00000000000E+00 0. -1.
         22    1    3    3    0    0 -0.12079465744E+02 -0.53441118546E+02  0.90290277183E+02  0.10561344989E+03  0.00000000000E+00 0. -1.
         22    1    3    3    0    0  0.31983132881E+02  0.64883560526E+02  0.12127455860E+03  0.14121018298E+03  0.00000000000E+00 0. -1.
</event>
<event>
 7    1  0.7457412E-006  0.6005592E+02  0.7818608E-02  0.1442752E+00
          2   -1    0    0  502    0  0.00000000000E+00  0.00000000000E+00  0.57463296165E+03  0.57463296165E+03  0.00000000000E+00 0. -1.
          1   -1    0    0  501    0 -0.00000000000E+00 -0.00000000000E+00 -0.15792226529E+03  0.15792226529E+03  0.00000000000E+00 0. -1.
         25    2    1    2    0    0  0.29249854189E+02  0.20985321923E+02  0.92524652321E+02  0.15963190264E+03  0.12500238137E+03 0.  0.
          2    1    1    2  501    0 -0.13842427943E+02 -0.60525973853E+02 -0.11553382321E+03  0.13116047662E+03  0.00000000000E+00 0. -1.
          1    1    1    2  502    0 -0.15407426246E+02  0.39540651930E+02  0.43971986725E+03  0.44176284768E+03  0.00000000000E+00 0. -1.
         22    1    3    3    0    0  0.33899975014E+02  0.41161690949E+02  0.11639760411E+03  0.12803083750E+03  0.00000000000E+00 0. -1.
         22    1    3    3    0    0 -0.46501208248E+01 -0.20176369026E+02 -0.23872951792E+02  0.31601065141E+02  0.00000000000E+00 0. -1.
</event>
<event>
 7    1  0.7457412E-006  0.2811378E+03  0.7818608E-02  0.1283239E+00
          2   -1    0    0  502    0  0.00000000000E+00  0.00000000000E+00  0.14481362199E+04  0.14481362199E+04  0.00000000000E+00 0. -1.
          1   -1    0    0  501    0 -0.00000000000E+00 -0.00000000000E+00 -0.62231756765E+03  0.62231756765E+03  0.00000000000E+00 0. -1.
         25    2    1    2    0    0  0.22654784659E+03 -0.21614767692E+03 -0.11046757833E+03  0.35478488294E+03  0.12500192905E+03 0.  0.
          2    1    1    2  501    0 -0.28798632588E+02  0.19160370757E+02 -0.37419590064E+03  0.37579123607E+03  0.00000000000E+00 0. -1.
          1    1    1    2  502    0 -0.19774921400E+03  0.19698730616E+03  0.13104821312E+04  0.13398776685E+04  0.00000000000E+00 0. -1.
         22    1    3    3    0    0  0.34109763468E+02 -0.75911201813E+02  0.16637646020E+02  0.84869298274E+02  0.00000000000E+00 0. -1.
         22    1    3    3    0    0  0.19243808312E+03 -0.14023647511E+03 -0.12710522435E+03  0.26991558466E+03  0.00000000000E+00 0. -1.
</event>
<event>
 7    1  0.7659725E-006  0.1117344E+03  0.7818608E-02  0.1339297E+00
          2   -1    0    0  502    0  0.00000000000E+00  0.00000000000E+00  0.12166386876E+04  0.12166386876E+04  0.00000000000E+00 0. -1.
          1   -1    0    0  501    0 -0.00000000000E+00 -0.00000000000E+00 -0.13241214447E+04  0.13241214447E+04  0.00000000000E+00 0. -1.
         25    2    1    2    0    0 -0.20746706822E+02  0.71191508346E+02 -0.95074816557E+02  0.17367837970E+03  0.12500520840E+03 0.  0.
          2    1    1    2  501    0 -0.49639988499E+02  0.16695988797E+02 -0.11864736588E+04  0.11876289940E+04  0.00000000000E+00 0. -1.
          1    1    1    2  502    0  0.70386695320E+02 -0.87887497143E+02  0.11740657182E+04  0.11794527586E+04  0.00000000000E+00 0. -1.
         22    1    3    3    0    0 -0.29204805893E+02  0.65180295554E+02  0.63669736195E+01  0.71707251856E+02  0.00000000000E+00 0. -1.
         22    1    3    3    0    0  0.84580990710E+01  0.60112127923E+01 -0.10144179018E+03  0.10197112784E+03  0.00000000000E+00 0. -1.
</event>
<event>
 7    1  0.7457412E-006  0.8494563E+02  0.7818608E-02  0.1465855E+00
          2   -1    0    0  502    0  0.00000000000E+00  0.00000000000E+00  0.10769368374E+04  0.10769368374E+04  0.00000000000E+00 0. -1.
          1   -1    0    0  501    0 -0.00000000000E+00 -0.00000000000E+00 -0.10737299450E+04  0.10737299450E+04  0.00000000000E+00 0. -1.
         25    2    1    2    0    0 -0.57660030693E+01  0.76398208073E+02 -0.66833469087E+03  0.68422654479E+03  0.12499909037E+03 0.  0.
          2    1    1    2  501    0 -0.25183990074E+02  0.27397661617E+01 -0.39535462533E+03  0.39616539405E+03  0.00000000000E+00 0. -1.
          1    1    1    2  502    0  0.30949993143E+02 -0.79137974235E+02  0.10668962085E+04  0.10702748436E+04  0.00000000000E+00 0. -1.
         22    1    3    3    0    0  0.25050662484E+02  0.38135755880E+02 -0.58999088936E+03  0.59175258436E+03  0.00000000000E+00 0. -1.
         22    1    3    3    0    0 -0.30816665553E+02  0.38262452193E+02 -0.78343801509E+02  0.92473960435E+02  0.00000000000E+00 0. -1.
</event>
<event>
 7    1  0.7457412E-006  0.1128370E+03  0.7818608E-02  0.1297038E+00
          2   -1    0    0  502    0  0.00000000000E+00  0.00000000000E+00  0.53882928171E+03  0.53882928171E+03  0.00000000000E+00 0. -1.
          1   -1    0    0  501    0 -0.00000000000E+00 -0.00000000000E+00 -0.13485115814E+04  0.13485115814E+04  0.00000000000E+00 0. -1.
         25    2    1    2    0    0 -0.68382378160E+02 -0.13617645657E+03 -0.46612077777E+03  0.50607713939E+03  0.12500125833E+03 0.  0.
          2    1    1    2  501    0 -0.21117167981E+01  0.10848706882E+03 -0.85620628751E+03  0.86305452332E+03  0.00000000000E+00 0. -1.
          1    1    1    2  502    0  0.70494094958E+02  0.27689387751E+02  0.51264476562E+03  0.51820920036E+03  0.00000000000E+00 0. -1.
         22    1    3    3    0    0 -0.26826181803E+01 -0.43017323965E+02 -0.23661274807E+02  0.49168511538E+02  0.00000000000E+00 0.  1.
         22    1    3    3    0    0 -0.65699759980E+02 -0.93159132603E+02 -0.44245950296E+03  0.45690862785E+03  0.00000000000E+00 0.  1.
</event>
<event>
 7    1  0.7457412E-006  0.9582553E+02  0.7818608E-02  0.1309234E+00
          2   -1    0    0  502    0  0.00000000000E+00  0.00000000000E+00  0.22772611979E+04  0.22772611979E+04  0.00000000000E+00 0. -1.
          1   -1    0    0  501    0 -0.00000000000E+00 -0.00000000000E+00 -0.19563480934E+03  0.19563480934E+03  0.00000000000E+00 0. -1.
         25    2    1    2    0    0 -0.16746424648E+03  0.83035756266E+01  0.11959179738E+03  0.24091684024E+03  0.12500201076E+03 0.  0.
          2    1    1    2  501    0  0.77173983696E+02  0.20080606958E+02 -0.12202533445E+03  0.14577117953E+03  0.00000000000E+00 0. -1.
          1    1    1    2  502    0  0.90290262782E+02 -0.28384182585E+02  0.20840599256E+04  0.20862079874E+04  0.00000000000E+00 0. -1.
         22    1    3    3    0    0 -0.18316612860E+03 -0.10289324285E+02  0.11385557434E+03  0.21591385474E+03  0.00000000000E+00 0. -1.
         22    1    3    3    0    0  0.15701882121E+02  0.18592899911E+02  0.57362230391E+01  0.25002985502E+02  0.00000000000E+00 0. -1.
</event>
<event>
 7    1  0.7457412E-006  0.4201628E+02  0.7818608E-02  0.1502316E+00
          2   -1    0    0  502    0  0.00000000000E+00  0.00000000000E+00  0.78307026800E+03  0.78307026800E+03  0.00000000000E+00 0. -1.
          1   -1    0    0  501    0 -0.00000000000E+00 -0.00000000000E+00 -0.84675829628E+02  0.84675829628E+02  0.00000000000E+00 0. -1.
         25    2    1    2    0    0  0.59978640849E+02 -0.47928176381E+02  0.13354714580E+03  0.19837956704E+03  0.12500026007E+03 0.  0.
          2    1    1    2  501    0 -0.23170035314E+02  0.33206975401E+02 -0.43673322943E+02  0.59555964342E+02  0.00000000000E+00 0. -1.
          1    1    1    2  502    0 -0.36808605534E+02  0.14721200980E+02  0.60852061552E+03  0.60981056625E+03  0.00000000000E+00 0. -1.
         22    1    3    3    0    0  0.39811170113E+02  0.30772297828E+02  0.97041950578E+02  0.10931149871E+03  0.00000000000E+00 0. -1.
         22    1    3    3    0    0  0.20167470736E+02 -0.78700474209E+02  0.36505195221E+02  0.89068068323E+02  0.00000000000E+00 0. -1.
</event>
<event>
 7    1  0.7457412E-006  0.1264028E+03  0.7818608E-02  0.1249152E+00
          2   -1    0    0  502    0  0.00000000000E+00  0.00000000000E+00  0.10375394101E+04  0.10375394101E+04  0.00000000000E+00 0. -1.
          1   -1    0    0  501    0 -0.00000000000E+00 -0.00000000000E+00 -0.38899704090E+03  0.38899704090E+03  0.00000000000E+00 0. -1.
         25    2    1    2    0    0 -0.23528235336E+02  0.42026577785E+02 -0.12368025024E+03  0.18232310167E+03  0.12500039202E+03 0.  0.
          2    1    1    2  501    0  0.75477210020E+02  0.76117118449E+02 -0.21942166606E+03  0.24420584041E+03  0.00000000000E+00 0. -1.
          1    1    1    2  502    0 -0.51948974684E+02 -0.11814369623E+03  0.99164428550E+03  0.10000075089E+04  0.00000000000E+00 0. -1.
         22    1    3    3    0    0 -0.29983084294E+02  0.76597198808E+02 -0.39821400670E+02  0.91388512190E+02  0.00000000000E+00 0. -1.
         22    1    3    3    0    0  0.64548489588E+01 -0.34570621023E+02 -0.83858849566E+02  0.90934589478E+02  0.00000000000E+00 0. -1.
</event>
<event>
 7    1  0.7457412E-006  0.8543689E+02  0.7818608E-02  0.1424368E+00
          2   -1    0    0  502    0  0.00000000000E+00  0.00000000000E+00  0.19587228869E+04  0.19587228869E+04  0.00000000000E+00 0. -1.
          1   -1    0    0  501    0 -0.00000000000E+00 -0.00000000000E+00 -0.96371300388E+03  0.96371300388E+03  0.00000000000E+00 0. -1.
         25    2    1    2    0    0 -0.29672831672E+02 -0.44074736191E+02  0.16260974741E+03  0.21186971912E+03  0.12499515438E+03 0.  0.
          2    1    1    2  501    0 -0.25143231399E+02 -0.23280834612E+02 -0.93770558637E+03  0.93833146918E+03  0.00000000000E+00 0. -1.
          1    1    1    2  502    0  0.54816063070E+02  0.67355570803E+02  0.17701057220E+04  0.17722347025E+04  0.00000000000E+00 0. -1.
         22    1    3    3    0    0 -0.37439643157E+02 -0.85444619004E+02  0.10396682822E+03  0.13968396890E+03  0.00000000000E+00 0. -1.
         22    1    3    3    0    0  0.77668114849E+01  0.41369882813E+02  0.58642919184E+02  0.72185750222E+02  0.00000000000E+00 0. -1.
</event>
<event>
 7    1  0.7457412E-006  0.3620110E+02  0.7818608E-02  0.1614810E+00
          2   -1    0    0  502    0  0.00000000000E+00  0.00000000000E+00  0.89556752553E+03  0.89556752553E+03  0.00000000000E+00 0. -1.
          1   -1    0    0  501    0 -0.00000000000E+00 -0.00000000000E+00 -0.15275611868E+03  0.15275611868E+03  0.00000000000E+00 0. -1.
         25    2    1    2    0    0  0.87139039059E+01  0.57977166417E+02 -0.80236961993E+02  0.15968676391E+03  0.12499843419E+03 0.  0.
          2    1    1    2  501    0 -0.35418341993E+01 -0.22219792381E+02 -0.28506199686E+02  0.36316211029E+02  0.00000000000E+00 0. -1.
          1    1    1    2  502    0 -0.51720697065E+01 -0.35757374036E+02  0.85155456852E+03  0.85232066928E+03  0.00000000000E+00 0. -1.
         22    1    3    3    0    0  0.46284879885E+02  0.20384298099E+02 -0.92243822697E+02  0.10519853868E+03  0.00000000000E+00 0. -1.
         22    1    3    3    0    0 -0.37570975979E+02  0.37592868318E+02  0.12006860704E+02  0.54488225227E+02  0.00000000000E+00 0. -1.
</event>
<event>
 7    1  0.7457412E-006  0.1145732E+03  0.7818608E-02  0.1272365E+00
          2   -1    0    0  502    0  0.00000000000E+00  0.00000000000E+00  0.12793224492E+04  0.12793224492E+04  0.00000000000E+00 0. -1.
          1   -1    0    0  501    0 -0.00000000000E+00 -0.00000000000E+00 -0.40441509591E+03  0.40441509591E+03  0.00000000000E+00 0. -1.
         25    2    1    2    0    0  0.10702203698E+03 -0.17121776838E+03  0.82024756354E+03  0.85393164115E+03  0.12499576656E+03 0.  0.
          2    1    1    2  501    0 -0.37947301322E+02  0.10722154545E+03 -0.37400678178E+03  0.39091882828E+03  0.00000000000E+00 0. -1.
          1    1    1    2  502    0 -0.69074735659E+02  0.63996222930E+02  0.42866657156E+03  0.43888707571E+03  0.00000000000E+00 0. -1.
         22    1    3    3    0    0  0.13255734602E+03 -0.11547162164E+03  0.62806311952E+03  0.65220275029E+03  0.00000000000E+00 0. -1.
         22    1    3    3    0    0 -0.25535309035E+02 -0.55746146744E+02  0.19218444402E+03  0.20172889086E+03  0.00000000000E+00 0. -1.
</event>
<event>
 7    1  0.7457412E-006  0.8061667E+02  0.7818608E-02  0.1478168E+00
          2   -1    0    0  502    0  0.00000000000E+00  0.00000000000E+00  0.11108208826E+04  0.11108208826E+04  0.00000000000E+00 0. -1.
          1   -1    0    0  501    0 -0.00000000000E+00 -0.00000000000E+00 -0.23159035817E+03  0.23159035817E+03  0.00000000000E+00 0. -1.
         25    2    1    2    0    0  0.32006488598E+02 -0.77021158657E+02  0.27195539961E+03  0.31073529021E+03  0.12506001366E+03 0.  0.
          2    1    1    2  501    0 -0.24225464650E+02 -0.32730056492E+01 -0.20950267633E+03  0.21092405527E+03  0.00000000000E+00 0. -1.
          1    1    1    2  502    0 -0.77810239481E+01  0.80294164306E+02  0.81677780111E+03  0.82075189524E+03  0.00000000000E+00 0. -1.
         22    1    3    3    0    0  0.45978933770E+02  0.17090089125E+02  0.13777440489E+03  0.14624609444E+03  0.00000000000E+00 0.  1.
         22    1    3    3    0    0 -0.13972445172E+02 -0.94111247782E+02  0.13418099472E+03  0.16448919578E+03  0.00000000000E+00 0.  1.
</event>
<event>
 7    1  0.7457412E-006  0.2191567E+03  0.7818608E-02  0.1242870E+00
          2   -1    0    0  502    0  0.00000000000E+00  0.00000000000E+00  0.50934649027E+03  0.50934649027E+03  0.00000000000E+00 0. -1.
          1   -1    0    0  501    0 -0.00000000000E+00 -0.00000000000E+00 -0.15877650620E+04  0.15877650620E+04  0.00000000000E+00 0. -1.
         25    2    1    2    0    0 -0.62030129968E+02 -0.23026450312E+03 -0.61657820289E+03  0.67280238016E+03  0.12499953621E+03 0.  0.
          2    1    1    2  501    0  0.10858514739E+03  0.18368275635E+03 -0.92866424184E+03  0.95286272007E+03  0.00000000000E+00 0. -1.
          1    1    1    2  502    0 -0.46555017422E+02  0.46581746777E+02  0.46682387297E+03  0.47144645206E+03  0.00000000000E+00 0. -1.
         22    1    3    3    0    0 -0.87079150777E+02 -0.18850866981E+03 -0.39851726488E+03  0.44937101320E+03  0.00000000000E+00 0. -1.
         22    1    3    3    0    0  0.25049020809E+02 -0.41755833309E+02 -0.21806093801E+03  0.22343136696E+03  0.00000000000E+00 0. -1.
</event>
<event>
 7    1  0.7457412E-006  0.2294437E+03  0.7818608E-02  0.1353682E+00
          2   -1    0    0  502    0  0.00000000000E+00  0.00000000000E+00  0.26204461527E+04  0.26204461527E+04  0.00000000000E+00 0. -1.
          1   -1    0    0  501    0 -0.00000000000E+00 -0.00000000000E+00 -0.12507389648E+03  0.12507389648E+03  0.00000000000E+00 0. -1.
         25    2    1    2    0    0 -0.23293635671E+03  0.81183122747E+02  0.74319276452E+03  0.79297589954E+03  0.12500098526E+03 0.  0.
          2    1    1    2  501    0  0.22394883523E+02 -0.25871606694E+01 -0.92000103278E+02  0.94721925717E+02  0.00000000000E+00 0. -1.
          1    1    1    2  502    0  0.21054147319E+03 -0.78595962078E+02  0.18441795950E+04  0.18578222239E+04  0.00000000000E+00 0. -1.
         22    1    3    3    0    0 -0.22881340865E+03  0.45842376506E+02  0.69457829660E+03  0.73273194933E+03  0.00000000000E+00 0.  1.
         22    1    3    3    0    0 -0.41229480640E+01  0.35340746241E+02  0.48614467921E+02  0.60243950210E+02  0.00000000000E+00 0.  1.
</event>
<event>
 7    1  0.7457412E-006  0.2200023E+03  0.7818608E-02  0.1270532E+00
          2   -1    0    0  502    0  0.00000000000E+00  0.00000000000E+00  0.31736919679E+03  0.31736919679E+03  0.00000000000E+00 0. -1.
          1   -1    0    0  501    0 -0.00000000000E+00 -0.00000000000E+00 -0.12580016849E+04  0.12580016849E+04  0.00000000000E+00 0. -1.
         25    2    1    2    0    0  0.29806742883E+02  0.18462839933E+03 -0.14546655382E+03  0.26788592484E+03  0.12500505064E+03 0.  0.
          2    1    1    2  501    0 -0.68261074984E+02 -0.21645040178E+03 -0.10364928242E+04  0.10610502935E+04  0.00000000000E+00 0. -1.
          1    1    1    2  502    0  0.38454332102E+02  0.31822002455E+02  0.24132688990E+03  0.24643466332E+03  0.00000000000E+00 0. -1.
         22    1    3    3    0    0  0.65257068488E+02  0.16431122655E+03 -0.88303659145E+02  0.19762135608E+03  0.00000000000E+00 0. -1.
         22    1    3    3    0    0 -0.35450325606E+02  0.20317172774E+02 -0.57162894679E+02  0.70264568761E+02  0.00000000000E+00 0. -1.
</event>
<event>
 7    1  0.7457412E-006  0.1266852E+03  0.7818608E-02  0.1257140E+00
          2   -1    0    0  502    0  0.00000000000E+00  0.00000000000E+00  0.23176158477E+04  0.23176158477E+04  0.00000000000E+00 0. -1.
          1   -1    0    0  501    0 -0.00000000000E+00 -0.00000000000E+00 -0.71647237137E+02  0.71647237137E+02  0.00000000000E+00 0. -1.
         25    2    1    2    0    0 -0.68218630577E+01  0.98039598899E+02  0.50612174908E+03  0.53051245008E+03  0.12500373607E+03 0.  0.
          2    1    1    2  501    0  0.10482521123E+03 -0.85572023367E+02  0.20846949831E+02  0.13691417535E+03  0.00000000000E+00 0. -1.
          1    1    1    2  502    0 -0.98003348176E+02 -0.12467575532E+02  0.17189999116E+04  0.17218364594E+04  0.00000000000E+00 0. -1.
         22    1    3    3    0    0  0.46606898110E+02  0.57016197154E+02  0.38444093556E+03  0.39143055913E+03  0.00000000000E+00 0.  1.
         22    1    3    3    0    0 -0.53428761168E+02  0.41023401745E+02  0.12168081352E+03  0.13908189095E+03  0.00000000000E+00 0.  1.
</event>
<event>
 7    1  0.7457412E-006  0.1446980E+03  0.7818608E-02  0.1234262E+00
          2   -1    0    0  502    0  0.00000000000E+00  0.00000000000E+00  0.62964739156E+03  0.62964739156E+03  0.00000000000E+00 0. -1.
          1   -1    0    0  501    0 -0.00000000000E+00 -0.00000000000E+00 -0.53312121406E+03  0.53312121406E+03  0.00000000000E+00 0. -1.
         25    2    1    2    0    0  0.14261091525E+03  0.19832647767E+02 -0.18656634016E+03  0.26676442531E+03  0.12500020904E+03 0.  0.
          2    1    1    2  501    0 -0.10228962943E+03 -0.12097151140E+03 -0.28041663976E+03  0.32207261093E+03  0.00000000000E+00 0. -1.
          1    1    1    2  502    0 -0.40321285820E+02  0.10113886363E+03  0.56350915743E+03  0.57393156938E+03  0.00000000000E+00 0. -1.
         22    1    3    3    0    0  0.99411921019E+02  0.67579513614E+02 -0.15166429104E+03  0.19352461827E+03  0.00000000000E+00 0. -1.
         22    1    3    3    0    0  0.43198994233E+02 -0.47746865847E+02 -0.34902049123E+02  0.73239807031E+02  0.00000000000E+00 0. -1.
</event>
<event>
 7    1  0.7457412E-006  0.2218796E+03  0.7818608E-02  0.1294750E+00
          2   -1    0    0  502    0  0.00000000000E+00  0.00000000000E+00  0.49680781508E+03  0.49680781508E+03  0.00000000000E+00 0. -1.
          1   -1    0    0  501    0 -0.00000000000E+00 -0.00000000000E+00 -0.28151565427E+03  0.28151565427E+03  0.00000000000E+00 0. -1.
         25    2    1    2    0    0  0.13114552242E+03 -0.13913828547E+03 -0.11484345414E+03  0.25568630739E+03  0.12501143266E+03 0.  0.
          2    1    1    2  501    0  0.11239990967E+02 -0.37702958082E+02 -0.59705495857E+02  0.71502424299E+02  0.00000000000E+00 0. -1.
          1    1    1    2  502    0 -0.14238551339E+03  0.17684124355E+03  0.38984111081E+03  0.45113473766E+03  0.00000000000E+00 0. -1.
         22    1    3    3    0    0  0.12940918457E+03 -0.15676225905E+03 -0.12143974136E+03  0.23678841546E+03  0.00000000000E+00 0.  1.
         22    1    3    3    0    0  0.17363378459E+01  0.17623973587E+02  0.65962872246E+01  0.18897891927E+02  0.00000000000E+00 0.  1.
</event>
<event>
 7    1  0.7457412E-006  0.4663674E+02  0.7818608E-02  0.1530849E+00
          2   -1    0    0  502    0  0.00000000000E+00  0.00000000000E+00  0.31486148723E+03  0.31486148723E+03  0.00000000000E+00 0. -1.
          1   -1    0    0  501    0 -0.00000000000E+00 -0.00000000000E+00 -0.10284087587E+03  0.10284087587E+03  0.00000000000E+00 0. -1.
         25    2    1    2    0    0 -0.29253485788E+02  0.14588831532E+02  0.75296393920E+02  0.14954085996E+03  0.12499728566E+03 0.  0.
          2    1    1    2  501    0 -0.18194400659E+02 -0.23202602697E+02 -0.59335746746E+02  0.66258039732E+02  0.00000000000E+00 0. -1.
          1    1    1    2  502    0  0.47447886447E+02  0.86137711650E+01  0.19605996418E+03  0.20190346341E+03  0.00000000000E+00 0. -1.
         22    1    3    3    0    0 -0.52189280401E+02 -0.13001250580E+02 -0.12045766062E+02  0.55116730540E+02  0.00000000000E+00 0. -1.
         22    1    3    3    0    0  0.22935794613E+02  0.27590082112E+02  0.87342159982E+02  0.94424129415E+02  0.00000000000E+00 0. -1.
</event>
<event>
 7    1  0.7457412E-006  0.6436885E+02  0.7818608E-02  0.1522447E+00
          2   -1    0    0  502    0  0.00000000000E+00  0.00000000000E+00  0.26410052862E+04  0.26410052862E+04  0.00000000000E+00 0. -1.
          1   -1    0    0  501    0 -0.00000000000E+00 -0.00000000000E+00 -0.25638078882E+02  0.25638078882E+02  0.00000000000E+00 0. -1.
         25    2    1    2    0    0  0.49061815964E+02  0.27272335960E+02  0.28648213884E+03  0.31756530015E+03  0.12499944758E+03 0.  0.
          2    1    1    2  501    0 -0.66443320426E+01  0.21586641954E+02  0.35741276612E+01  0.22867108424E+02  0.00000000000E+00 0. -1.
          1    1    1    2  502    0 -0.42417483921E+02 -0.48858977914E+02  0.23253109408E+04  0.23262109565E+04  0.00000000000E+00 0. -1.
         22    1    3    3    0    0 -0.27112161758E+02 -0.23242571816E+02  0.35061154094E+02  0.50045688987E+02  0.00000000000E+00 0.  1.
         22    1    3    3    0    0  0.76173977721E+02  0.50514907775E+02  0.25142098474E+03  0.26751961117E+03  0.00000000000E+00 0.  1.
</event>
<event>
 7    1  0.7917134E-006  0.1511247E+03  0.7818608E-02  0.1286106E+00
          2   -1    0    0  502    0  0.00000000000E+00  0.00000000000E+00  0.21225676616E+04  0.21225676616E+04  0.00000000000E+00 0. -1.
          1   -1    0    0  501    0 -0.00000000000E+00 -0.00000000000E+00 -0.14080234724E+04  0.14080234724E+04  0.00000000000E+00 0. -1.
         25    2    1    2    0    0  0.93576244065E+02  0.40756177305E+02 -0.17652134079E+03  0.23916965801E+03  0.12499904847E+03 0.  0.
          2    1    1    2  501    0 -0.15591564436E+03 -0.34736673729E+02 -0.11943906705E+04  0.12050250613E+04  0.00000000000E+00 0. -1.
          1    1    1    2  502    0  0.62339400298E+02 -0.60195035753E+01  0.20854562004E+04  0.20863964147E+04  0.00000000000E+00 0. -1.
         22    1    3    3    0    0 -0.66187161757E+01  0.58294591413E+02 -0.77599738150E+02  0.97281992952E+02  0.00000000000E+00 0.  1.
         22    1    3    3    0    0  0.10019496024E+03 -0.17538414108E+02 -0.98921602635E+02  0.14188766506E+03  0.00000000000E+00 0.  1.
</event>
<event>
 7    1  0.7457412E-006  0.1159611E+03  0.7818608E-02  0.1314150E+00
          2   -1    0    0  502    0  0.00000000000E+00  0.00000000000E+00  0.34120531210E+03  0.34120531210E+03  0.00000000000E+00 0. -1.
          1   -1    0    0  501    0 -0.00000000000E+00 -0.00000000000E+00 -0.83142721798E+03  0.83142721798E+03  0.00000000000E+00 0. -1.
         25    2    1    2    0    0  0.76713388991E+02 -0.67131320847E+02  0.42646504322E+02  0.16683895488E+03  0.12499981698E+03 0.  0.
          2    1    1    2  501    0 -0.32955362742E+02  0.11249538387E+03 -0.76055927477E+03  0.76953991304E+03  0.00000000000E+00 0. -1.
          1    1    1    2  502    0 -0.43758026249E+02 -0.45364063021E+02  0.22769086457E+03  0.23625366216E+03  0.00000000000E+00 0. -1.
         22    1    3    3    0    0  0.36556508324E+02 -0.38491250722E+02  0.86070342666E+02  0.10112397624E+03  0.00000000000E+00 0.  1.
         22    1    3    3    0    0  0.40156880667E+02 -0.28640070125E+02 -0.43423838344E+02  0.65714978644E+02  0.00000000000E+00 0.  1.
</event>
<event>
 7    1  0.7457412E-006  0.6031866E+02  0.7818608E-02  0.1532910E+00
          2   -1    0    0  502    0  0.00000000000E+00  0.00000000000E+00  0.41870593218E+03  0.41870593218E+03  0.00000000000E+00 0. -1.
          1   -1    0    0  501    0 -0.00000000000E+00 -0.00000000000E+00 -0.48285304273E+03  0.48285304273E+03  0.00000000000E+00 0. -1.
         25    2    1    2    0    0 -0.21004450282E+02 -0.46777685307E+02  0.20882992731E+03  0.24872641753E+03  0.12500221383E+03 0.  0.
          2    1    1    2  501    0  0.15475316062E+02 -0.16319519146E+02 -0.45734004406E+03  0.45789270361E+03  0.00000000000E+00 0. -1.
          1    1    1    2  502    0  0.55291342204E+01  0.63097204454E+02  0.18436300621E+03  0.19493985378E+03  0.00000000000E+00 0. -1.
         22    1    3    3    0    0 -0.68262846527E+02 -0.47122394878E+02  0.98974220810E+02  0.12913648865E+03  0.00000000000E+00 0. -1.
         22    1    3    3    0    0  0.47258396245E+02  0.34470957012E+00  0.10985570649E+03  0.11958992888E+03  0.00000000000E+00 0. -1.
</event>
<event>
 7    1  0.7457412E-006  0.8342248E+02  0.7818608E-02  0.1410062E+00
          2   -1    0    0  502    0  0.00000000000E+00  0.00000000000E+00  0.69534112007E+03  0.69534112007E+03  0.00000000000E+00 0. -1.
          1   -1    0    0  501    0 -0.00000000000E+00 -0.00000000000E+00 -0.56611690038E+03  0.56611690038E+03  0.00000000000E+00 0. -1.
         25    2    1    2    0    0  0.97500830643E+02  0.43573471462E+02 -0.76798132308E+02  0.18146637733E+03  0.12500813408E+03 0.  0.
          2    1    1    2  501    0 -0.81716957086E+02 -0.76996885449E+01 -0.43252429191E+03  0.44024335245E+03  0.00000000000E+00 0. -1.
          1    1    1    2  502    0 -0.15783873557E+02 -0.35873782917E+02  0.63854664391E+03  0.63974829067E+03  0.00000000000E+00 0. -1.
         22    1    3    3    0    0 -0.17621392711E+02 -0.15858858745E+02  0.97772771931E+01  0.25643947261E+02  0.00000000000E+00 0.  1.
         22    1    3    3    0    0  0.11512222335E+03  0.59432330207E+02 -0.86575409501E+02  0.15582243007E+03  0.00000000000E+00 0.  1.
</event>
<event>
 7    1  0.7457412E-006  0.4206355E+03  0.7818608E-02  0.1172605E+00
          2   -1    0    0  502    0  0.00000000000E+00  0.00000000000E+00  0.32403557510E+04  0.32403557510E+04  0.00000000000E+00 0. -1.
          1   -1    0    0  501    0 -0.00000000000E+00 -0.00000000000E+00 -0.74719320055E+03  0.74719320055E+03  0.00000000000E+00 0. -1.
         25    2    1    2    0    0 -0.27330344964E+03 -0.30108446764E+03  0.14485606762E+04  0.15097355908E+04  0.12500755651E+03 0.  0.
          2    1    1    2  501    0 -0.66827251346E+02  0.29158173138E+02 -0.68773117930E+03  0.69158532052E+03  0.00000000000E+00 0. -1.
          1    1    1    2  502    0  0.34013070099E+03  0.27192629450E+03  0.17323330535E+04  0.17862280402E+04  0.00000000000E+00 0. -1.
         22    1    3    3    0    0 -0.90834758624E+02 -0.18441898800E+03  0.61249208045E+03  0.64607109913E+03  0.00000000000E+00 0. -1.
         22    1    3    3    0    0 -0.18246869102E+03 -0.11666547964E+03  0.83606859579E+03  0.86366449169E+03  0.00000000000E+00 0. -1.
</event>
<event>
 7    1  0.7457412E-006  0.1504781E+03  0.7818608E-02  0.1238863E+00
          2   -1    0    0  502    0  0.00000000000E+00  0.00000000000E+00  0.14356919333E+04  0.14356919333E+04  0.00000000000E+00 0. -1.
          1   -1    0    0  501    0 -0.00000000000E+00 -0.00000000000E+00 -0.30184822472E+03  0.30184822472E+03  0.00000000000E+00 0. -1.
         25    2    1    2    0    0 -0.10263246811E+03 -0.14660027453E+02  0.38890815596E+03  0.42145341469E+03  0.12500034827E+03 0.  0.
          2    1    1    2  501    0 -0.63421072235E+02  0.77177025752E+02 -0.26889330320E+03  0.28684862596E+03  0.00000000000E+00 0. -1.
          1    1    1    2  502    0  0.16605354034E+03 -0.62516998300E+02  0.10138288558E+04  0.10292381174E+04  0.00000000000E+00 0. -1.
         22    1    3    3    0    0 -0.43282840119E+02  0.48057616687E+02  0.24711005704E+03  0.25543359031E+03  0.00000000000E+00 0.  1.
         22    1    3    3    0    0 -0.59349627989E+02 -0.62717644140E+02  0.14179809893E+03  0.16601982438E+03  0.00000000000E+00 0.  1.
</event>
<event>
 7    1  0.7457412E-006  0.4898788E+02  0.7818608E-02  0.1502233E+00
          2   -1    0    0  502    0  0.00000000000E+00  0.00000000000E+00  0.52887150634E+03  0.52887150634E+03  0.00000000000E+00 0. -1.
          1   -1    0    0  501    0 -0.00000000000E+00 -0.00000000000E+00 -0.30706865966E+03  0.30706865966E+03  0.00000000000E+00 0. -1.
         25    2    1    2    0    0 -0.23589843053E+02  0.15629813107E+02  0.36190534718E+03  0.38392836426E+03  0.12499894726E+03 0.  0.
          2    1    1    2  501    0 -0.16339097061E+02  0.29840527913E+02 -0.28915201615E+03  0.29114654668E+03  0.00000000000E+00 0. -1.
          1    1    1    2  502    0  0.39928940114E+02 -0.45470341020E+02  0.14904951565E+03  0.16086525506E+03  0.00000000000E+00 0. -1.
         22    1    3    3    0    0 -0.32289662692E+02  0.60220459757E+02  0.29663434666E+03  0.30440279517E+03  0.00000000000E+00 0.  1.
         22    1    3    3    0    0  0.86998196394E+01 -0.44590646650E+02  0.65271000522E+02  0.79525569093E+02  0.00000000000E+00 0.  1.
</event>
<event>
 7    1  0.7457412E-006  0.6164814E+02  0.7818608E-02  0.1412887E+00
          2   -1    0    0  502    0  0.00000000000E+00  0.00000000000E+00  0.34950555452E+02  0.34950555452E+02  0.00000000000E+00 0. -1.
          1   -1    0    0  501    0 -0.00000000000E+00 -0.00000000000E+00 -0.22833365319E+04  0.22833365319E+04  0.00000000000E+00 0. -1.
         25    2    1    2    0    0  0.13993804716E+02 -0.68070375987E+00 -0.54164893145E+03  0.55606455324E+03  0.12501172948E+03 0.  0.
          2    1    1    2  501    0 -0.65333134077E+02  0.81639287303E+01 -0.17090225582E+04  0.17102903767E+04  0.00000000000E+00 0. -1.
          1    1    1    2  502    0  0.51339329361E+02 -0.74832249705E+01  0.22855132823E+01  0.51932157342E+02  0.00000000000E+00 0. -1.
         22    1    3    3    0    0 -0.31609922347E+02 -0.46881928418E+02 -0.18122352822E+03  0.18983958908E+03  0.00000000000E+00 0. -1.
         22    1    3    3    0    0  0.45603727063E+02  0.46201224658E+02 -0.36042540323E+03  0.36622496416E+03  0.00000000000E+00 0. -1.
</event>
<event>
 7    1  0.7457412E-006  0.1763081E+03  0.7818608E-02  0.1377807E+00
          2   -1    0    0  502    0  0.00000000000E+00  0.00000000000E+00  0.34583712302E+03  0.34583712302E+03  0.00000000000E+00 0. -1.
          1   -1    0    0  501    0 -0.00000000000E+00 -0.00000000000E+00 -0.22504572837E+03  0.22504572837E+03  0.00000000000E+00 0. -1.
         25    2    1    2    0    0  0.35430365705E+02 -0.18499019337E+03  0.67594128404E+02  0.23594636275E+03  0.12500014978E+03 0.  0.
          2    1    1    2  501    0  0.12231534781E+02  0.20644585619E+02 -0.10147594920E+03  0.10427453009E+03  0.00000000000E+00 0. -1.
          1    1    1    2  502    0 -0.47661900486E+02  0.16434560775E+03  0.15467321544E+03  0.23066195854E+03  0.00000000000E+00 0. -1.
         22    1    3    3    0    0 -0.38231073203E+02 -0.51763838421E+02 -0.99239481984E+01  0.65112169939E+02  0.00000000000E+00 0. -1.
         22    1    3    3    0    0  0.73661438908E+02 -0.13322635494E+03  0.77518076602E+02  0.17083419281E+03  0.00000000000E+00 0. -1.
</event>
<event>
 7    1  0.7457412E-006  0.1452006E+03  0.7818608E-02  0.1284212E+00
          2   -1    0    0  502    0  0.00000000000E+00  0.00000000000E+00  0.92342559051E+03  0.92342559051E+03  0.00000000000E+00 0. -1.
          1   -1    0    0  501    0 -0.00000000000E+00 -0.00000000000E+00 -0.47810243605E+03  0.47810243605E+03  0.00000000000E+00 0. -1.
         25    2    1    2    0    0  0.12887074117E+03  0.83644477759E+01 -0.27359939350E+03  0.32735262101E+03  0.12500191375E+03 0.  0.
          2    1    1    2  501    0  0.49749367146E+01 -0.66173485256E+02 -0.16524288627E+03  0.17806990652E+03  0.00000000000E+00 0. -1.
          1    1    1    2  502    0 -0.13384567789E+03  0.57809037480E+02  0.88416543423E+03  0.89610549903E+03  0.00000000000E+00 0. -1.
         22    1    3    3    0    0  0.11894813650E+03  0.48305957209E+02 -0.15191935084E+03  0.19890101518E+03  0.00000000000E+00 0.  1.
         22    1    3    3    0    0  0.99226046754E+01 -0.39941509433E+02 -0.12168004266E+03  0.12845160583E+03  0.00000000000E+00 0.  1.
</event>
<event>
 7    1  0.7457412E-006  0.4713067E+02  0.7818608E-02  0.1488559E+00
          2   -1    0    0  502    0  0.00000000000E+00  0.00000000000E+00  0.84719491488E+03  0.84719491488E+03  0.00000000000E+00 0. -1.
          1   -1    0    0  501    0 -0.00000000000E+00 -0.00000000000E+00 -0.74215748731E+03  0.74215748731E+03  0.00000000000E+00 0. -1.
         25    2    1    2    0    0  0.63730657096E+02 -0.26701078170E+01  0.38846599421E+03  0.41303715352E+03  0.12500054161E+03 0.  0.
          2    1    1    2  501    0 -0.36228330527E+02  0.30135733537E+02 -0.72826296084E+03  0.72978599226E+03  0.00000000000E+00 0. -1.
          1    1    1    2  502    0 -0.27502326568E+02 -0.27465625720E+02  0.44483439419E+03  0.44652925640E+03  0.00000000000E+00 0. -1.
         22    1    3    3    0    0  0.43297304936E+02 -0.63024876758E+02  0.22138028427E+03  0.23421362464E+03  0.00000000000E+00 0. -1.
         22    1    3    3    0    0  0.20433352160E+02  0.60354768941E+02  0.16708570994E+03  0.17882352888E+03  0.00000000000E+00 0. -1.
</event>
<event>
 7    1  0.7457412E-006  0.1127591E+03  0.7818608E-02  0.1298106E+00
          2   -1    0    0  502    0  0.00000000000E+00  0.00000000000E+00  0.35157272062E+03  0.35157272062E+03  0.00000000000E+00 0. -1.
          1   -1    0    0  501    0 -0.00000000000E+00 -0.00000000000E+00 -0.68238467566E+03  0.68238467566E+03  0.00000000000E+00 0. -1.
         25    2    1    2    0    0  0.63136269632E+01  0.16401695520E+03 -0.27806500131E+03  0.34624573966E+03  0.12499817519E+03 0.  0.
          2    1    1    2  501    0 -0.38036853738E+02 -0.96007722534E+02 -0.35839997280E+03  0.37298099889E+03  0.00000000000E+00 0. -1.
          1    1    1    2  502    0  0.31723226775E+02 -0.68009232664E+02  0.30565301907E+03  0.31473065773E+03  0.00000000000E+00 0. -1.
         22    1    3    3    0    0 -0.12136093714E+02 -0.17923910541E+02 -0.17110033270E+02  0.27591748372E+02  0.00000000000E+00 0. -1.
         22    1    3    3    0    0  0.18449720677E+02  0.18194086574E+03 -0.26095496805E+03  0.31865399129E+03  0.00000000000E+00 0. -1.
</event>
<event>
 7    1  0.7457412E-006  0.4409244E+02  0.7818608E-02  0.1522880E+00
          2   -1    0    0  502    0  0.00000000000E+00  0.00000000000E+00  0.43913771561E+03  0.43913771561E+03  0.00000000000E+00 0. -1.
          1   -1    0    0  501    0 -0.00000000000E+00 -0.00000000000E+00 -0.25127453224E+03  0.25127453224E+03  0.00000000000E+00 0. -1.
         25    2    1    2    0    0 -0.30779660284E+02 -0.30028383530E+01  0.22966706113E+03  0.26329698360E+03  0.12498775173E+03 0.  0.
          2    1    1    2  501    0 -0.76479307758E+00 -0.32868758375E+02 -0.23031308576E+03  0.23264792640E+03  0.00000000000E+00 0. -1.
          1    1    1    2  502    0  0.31544453362E+02  0.35871596728E+02  0.18850920800E+03  0.19446733785E+03  0.00000000000E+00 0. -1.
         22    1    3    3    0    0  0.35947122751E+02  0.42820025135E+01  0.16449240879E+02  0.39763157634E+02  0.00000000000E+00 0.  1.
         22    1    3    3    0    0 -0.66726783035E+02 -0.72848408664E+01  0.21321782025E+03  0.22353382597E+03  0.00000000000E+00 0.  1.
</event>
<event>
 7    1  0.7457412E-006  0.1098753E+03  0.7818608E-02  0.1276194E+00
          2   -1    0    0  502    0  0.00000000000E+00  0.00000000000E+00  0.10675348929E+04  0.10675348929E+04  0.00000000000E+00 0. -1.
          1   -1    0    0  501    0 -0.00000000000E+00 -0.00000000000E+00 -0.10680087823E+04  0.10680087823E+04  0.00000000000E+00 0. -1.
         25    2    1    2    0    0  0.32238248516E+01 -0.53747304916E+02 -0.51121353490E+01  0.13619764723E+03  0.12499799739E+03 0.  0.
          2    1    1    2  501    0 -0.93427185361E+02 -0.15134750131E+02 -0.99188006414E+03  0.99638534778E+03  0.00000000000E+00 0. -1.
          1    1    1    2  502    0  0.90203360510E+02  0.68882055048E+02  0.99651831003E+03  0.10029606802E+04  0.00000000000E+00 0. -1.
         22    1    3    3    0    0 -0.28634259421E+01  0.35229785081E+02 -0.26866638384E+02  0.44397671369E+02  0.00000000000E+00 0.  1.
         22    1    3    3    0    0  0.60872507938E+01 -0.88977089997E+02  0.21754503035E+02  0.91799975866E+02  0.00000000000E+00 0.  1.
</event>
<event>
 7    1  0.7457412E-006  0.1556606E+03  0.7818608E-02  0.1233747E+00
          2   -1    0    0  502    0  0.00000000000E+00  0.00000000000E+00  0.46116990592E+03  0.46116990592E+03  0.00000000000E+00 0. -1.
          1   -1    0    0  501    0 -0.00000000000E+00 -0.00000000000E+00 -0.34509564766E+03  0.34509564766E+03  0.00000000000E+00 0. -1.
         25    2    1    2    0    0  0.30096677180E+02 -0.18159835707E+03 -0.49842347412E+02  0.22800761987E+03  0.12497776545E+03 0.  0.
          2    1    1    2  501    0 -0.10470430020E+03  0.11241454937E+03 -0.16890503549E+03  0.22831761300E+03  0.00000000000E+00 0. -1.
          1    1    1    2  502    0  0.74607623020E+02  0.69183807699E+02  0.33482164117E+03  0.34994032071E+03  0.00000000000E+00 0. -1.
         22    1    3    3    0    0  0.29900480003E+02 -0.33013770321E+02  0.35231990674E+02  0.56791204442E+02  0.00000000000E+00 0. -1.
         22    1    3    3    0    0  0.19619717719E+00 -0.14858458675E+03 -0.85074338085E+02  0.17121641543E+03  0.00000000000E+00 0. -1.
</event>
<event>
 7    1  0.7457412E-006  0.4851275E+02  0.7818608E-02  0.1582376E+00
          2   -1    0    0  502    0  0.00000000000E+00  0.00000000000E+00  0.53378445193E+03  0.53378445193E+03  0.00000000000E+00 0. -1.
          1   -1    0    0  501    0 -0.00000000000E+00 -0.00000000000E+00 -0.17018241803E+03  0.17018241803E+03  0.00000000000E+00 0. -1.
         25    2    1    2    0    0 -0.34162991869E+02 -0.44555825127E+02  0.40988873293E+03  0.43218792071E+03  0.12500117544E+03 0.  0.
          2    1    1    2  501    0  0.20411306505E+02  0.42325483989E+00 -0.15359074864E+03  0.15494166207E+03  0.00000000000E+00 0. -1.
          1    1    1    2  502    0  0.13751685364E+02  0.44132570287E+02  0.10730404962E+03  0.11683728717E+03  0.00000000000E+00 0. -1.
         22    1    3    3    0    0 -0.24550821979E+02  0.42660817571E+02  0.14092296759E+03  0.14927146750E+03  0.00000000000E+00 0.  1.
         22    1    3    3    0    0 -0.96121698901E+01 -0.87216642698E+02  0.26896576534E+03  0.28291645321E+03  0.00000000000E+00 0.  1.
</event>
<event>
 7    1  0.7457412E-006  0.1623530E+03  0.7818608E-02  0.1380874E+00
          2   -1    0    0  502    0  0.00000000000E+00  0.00000000000E+00  0.89853115881E+02  0.89853115881E+02  0.00000000000E+00 0. -1.
          1   -1    0    0  501    0 -0.00000000000E+00 -0.00000000000E+00 -0.11178171403E+04  0.11178171403E+04  0.00000000000E+00 0. -1.
         25    2    1    2    0    0 -0.10653253499E+03  0.98086384815E+02 -0.24838282932E+03  0.31350048246E+03  0.12497360802E+03 0.  0.
          2    1    1    2  501    0  0.11336620538E+03 -0.12256461356E+03 -0.82521599293E+03  0.84193551772E+03  0.00000000000E+00 0. -1.
          1    1    1    2  502    0 -0.68336703805E+01  0.24478228745E+02  0.45634797798E+02  0.52234256034E+02  0.00000000000E+00 0. -1.
         22    1    3    3    0    0  0.16447849111E+02  0.35691839497E+02 -0.14306550559E+02  0.41822440579E+02  0.00000000000E+00 0.  1.
         22    1    3    3    0    0 -0.12298038411E+03  0.62394545318E+02 -0.23407627876E+03  0.27167804188E+03  0.00000000000E+00 0.  1.
</event>
<event>
 7    1  0.7457412E-006  0.6433808E+02  0.7818608E-02  0.1469485E+00
          2   -1    0    0  502    0  0.00000000000E+00  0.00000000000E+00  0.99302047922E+03  0.99302047922E+03  0.00000000000E+00 0. -1.
          1   -1    0    0  501    0 -0.00000000000E+00 -0.00000000000E+00 -0.33600160146E+02  0.33600160146E+02  0.00000000000E+00 0. -1.
         25    2    1    2    0    0  0.28274199285E+02 -0.45442055067E+02  0.70609814376E+03  0.71907166897E+03  0.12500026311E+03 0.  0.
          2    1    1    2  501    0 -0.24424307567E+01  0.65304902962E+02  0.15052855421E+02  0.67061794453E+02  0.00000000000E+00 0. -1.
          1    1    1    2  502    0 -0.25831768529E+02 -0.19862847895E+02  0.23826931989E+03  0.24048717594E+03  0.00000000000E+00 0. -1.
         22    1    3    3    0    0  0.68663290299E+02  0.54263809074E+01  0.42667175991E+03  0.43219542310E+03  0.00000000000E+00 0.  1.
         22    1    3    3    0    0 -0.40389091013E+02 -0.50868435975E+02  0.27942638385E+03  0.28687624586E+03  0.00000000000E+00 0.  1.
</event>
<event>
 7    1  0.1140572E-005  0.9551951E+02  0.7818608E-02  0.1321168E+00
          2   -1    0    0  502    0  0.00000000000E+00  0.00000000000E+00  0.27194177850E+04  0.27194177850E+04  0.00000000000E+00 0. -1.
          1   -1    0    0  501    0 -0.00000000000E+00 -0.00000000000E+00 -0.14504056998E+04  0.14504056998E+04  0.00000000000E+00 0. -1.
         25    2    1    2    0    0 -0.62977391162E+02  0.35203219491E+02 -0.12085671161E+03  0.18824374664E+03  0.12499577972E+03 0.  0.
          2    1    1    2  501    0  0.93349867176E+02  0.29912831759E+02 -0.12935201023E+04  0.12972290585E+04  0.00000000000E+00 0. -1.
          1    1    1    2  502    0 -0.30372476013E+02 -0.65116051250E+02  0.26833888991E+04  0.26843506796E+04  0.00000000000E+00 0. -1.
         22    1    3    3    0    0 -0.80077643124E+02  0.67431123715E+02 -0.10560527819E+03  0.14870057214E+03  0.00000000000E+00 0. -1.
         22    1    3    3    0    0  0.17100251962E+02 -0.32227904225E+02 -0.15251433414E+02  0.39543174494E+02  0.00000000000E+00 0. -1.
</event>
<event>
 7    1  0.7457412E-006  0.8338665E+02  0.7818608E-02  0.1351458E+00
          2   -1    0    0  502    0  0.00000000000E+00  0.00000000000E+00  0.72408738615E+03  0.72408738615E+03  0.00000000000E+00 0. -1.
          1   -1    0    0  501    0 -0.00000000000E+00 -0.00000000000E+00 -0.66400615071E+02  0.66400615071E+02  0.00000000000E+00 0. -1.
         25    2    1    2    0    0 -0.59319224607E+02  0.91721414937E+02  0.57838481639E+03  0.60173565537E+03  0.12500085900E+03 0.  0.
          2    1    1    2  501    0  0.58225275921E+02 -0.24613821760E+02 -0.22258520120E+02  0.67018390727E+02  0.00000000000E+00 0. -1.
          1    1    1    2  502    0  0.10939486862E+01 -0.67107593177E+02  0.10156047481E+03  0.12173395512E+03  0.00000000000E+00 0. -1.
         22    1    3    3    0    0  0.75370950516E+00  0.98266480519E+02  0.43815790388E+03  0.44904255701E+03  0.00000000000E+00 0.  1.
         22    1    3    3    0    0 -0.60072934113E+02 -0.65450655822E+01  0.14022691251E+03  0.15269309836E+03  0.00000000000E+00 0.  1.
</event>
<event>
 7    1  0.7457412E-006  0.4170410E+02  0.7818608E-02  0.1546507E+00
          2   -1    0    0  502    0  0.00000000000E+00  0.00000000000E+00  0.13945312023E+03  0.13945312023E+03  0.00000000000E+00 0. -1.
          1   -1    0    0  501    0 -0.00000000000E+00 -0.00000000000E+00 -0.20949469067E+03  0.20949469067E+03  0.00000000000E+00 0. -1.
         25    2    1    2    0    0 -0.19622550266E+02  0.35234528166E+02 -0.19207011454E+02  0.13274826935E+03  0.12500670891E+03 0.  0.
          2    1    1    2  501    0  0.40128866579E+02 -0.13649780787E+02 -0.12728464483E+03  0.13415671156E+03  0.00000000000E+00 0. -1.
          1    1    1    2  502    0 -0.20506316313E+02 -0.21584747378E+02  0.76450085841E+02  0.82042829993E+02  0.00000000000E+00 0. -1.
         22    1    3    3    0    0 -0.27126619493E+02  0.20616845967E+02 -0.70816192316E+02  0.78586518671E+02  0.00000000000E+00 0.  1.
         22    1    3    3    0    0  0.75040692267E+01  0.14617682199E+02  0.51609180862E+02  0.54161750684E+02  0.00000000000E+00 0.  1.
</event>
<event>
 7    1  0.7457412E-006  0.8664471E+02  0.7818608E-02  0.1347801E+00
          2   -1    0    0  502    0  0.00000000000E+00  0.00000000000E+00  0.31203833859E+03  0.31203833859E+03  0.00000000000E+00 0. -1.
          1   -1    0    0  501    0 -0.00000000000E+00 -0.00000000000E+00 -0.16454991973E+04  0.16454991973E+04  0.00000000000E+00 0. -1.
         25    2    1    2    0    0  0.48247512393E+01 -0.13974518329E+03 -0.10971255435E+03  0.21728741127E+03  0.12499992015E+03 0.  0.
          2    1    1    2  501    0  0.20940785286E+02  0.59170248511E+02 -0.14743859977E+04  0.14757214185E+04  0.00000000000E+00 0. -1.
          1    1    1    2  502    0 -0.25765536525E+02  0.80574934775E+02  0.25063769339E+03  0.26452870607E+03  0.00000000000E+00 0. -1.
         22    1    3    3    0    0 -0.22015198545E+02  0.77850916567E+01  0.10008288149E+02  0.25405559446E+02  0.00000000000E+00 0.  1.
         22    1    3    3    0    0  0.26839949785E+02 -0.14753027494E+03 -0.11972084250E+03  0.19188185182E+03  0.00000000000E+00 0.  1.
</event>
<event>
 7    1  0.7457412E-006  0.2001649E+03  0.7818608E-02  0.1322562E+00
          2   -1    0    0  502    0  0.00000000000E+00  0.00000000000E+00  0.97451400073E+03  0.97451400073E+03  0.00000000000E+00 0. -1.
          1   -1    0    0  501    0 -0.00000000000E+00 -0.00000000000E+00 -0.11098076490E+04  0.11098076490E+04  0.00000000000E+00 0. -1.
         25    2    1    2    0    0 -0.48741800494E+02 -0.18536418577E+03 -0.81401265211E+02  0.24287101542E+03  0.12499807866E+03 0.  0.
          2    1    1    2  501    0 -0.33795092912E+02  0.21692711995E+01 -0.93606875500E+03  0.93668112404E+03  0.00000000000E+00 0. -1.
          1    1    1    2  502    0  0.82536893406E+02  0.18319491457E+03  0.88217637194E+03  0.90476951027E+03  0.00000000000E+00 0. -1.
         22    1    3    3    0    0  0.15969210798E+02 -0.15473457779E+03 -0.41890215435E+02  0.16109809250E+03  0.00000000000E+00 0. -1.
         22    1    3    3    0    0 -0.64711011292E+02 -0.30629607977E+02 -0.39511049776E+02  0.81772922913E+02  0.00000000000E+00 0. -1.
</event>
<event>
 7    1  0.7457412E-006  0.6342579E+02  0.7818608E-02  0.1443516E+00
          2   -1    0    0  502    0  0.00000000000E+00  0.00000000000E+00  0.45203366804E+03  0.45203366804E+03  0.00000000000E+00 0. -1.
          1   -1    0    0  501    0 -0.00000000000E+00 -0.00000000000E+00 -0.23159389575E+03  0.23159389575E+03  0.00000000000E+00 0. -1.
         25    2    1    2    0    0 -0.25790838903E+02 -0.56675324798E+01 -0.16424901054E+03  0.20808657722E+03  0.12499999144E+03 0.  0.
          2    1    1    2  501    0 -0.28641291805E+02 -0.27856943330E+02 -0.33716967104E+02  0.52279697385E+02  0.00000000000E+00 0. -1.
          1    1    1    2  502    0  0.54432130708E+02  0.33524475810E+02  0.41840574994E+03  0.42326128918E+03  0.00000000000E+00 0. -1.
         22    1    3    3    0    0 -0.57619897167E+02 -0.28761852138E+02 -0.35648450236E+02  0.73607803202E+02  0.00000000000E+00 0. -1.
         22    1    3    3    0    0  0.31829058264E+02  0.23094319658E+02 -0.12860056031E+03  0.13447877402E+03  0.00000000000E+00 0. -1.
</event>
<event>
 7    1  0.7457412E-006  0.1760306E+03  0.7818608E-02  0.1340500E+00
          2   -1    0    0  502    0  0.00000000000E+00  0.00000000000E+00  0.38036030158E+03  0.38036030158E+03  0.00000000000E+00 0. -1.
          1   -1    0    0  501    0 -0.00000000000E+00 -0.00000000000E+00 -0.22997259845E+03  0.22997259845E+03  0.00000000000E+00 0. -1.
         25    2    1    2    0    0  0.15649335929E+03 -0.10268769113E+03  0.11889281046E+03  0.25454876089E+03  0.12499855150E+03 0.  0.
          2    1    1    2  501    0 -0.15905836390E+03  0.69889474466E+02 -0.11322367292E+03  0.20737333936E+03  0.00000000000E+00 0. -1.
          1    1    1    2  502    0  0.25650046087E+01  0.32798216669E+02  0.14471856559E+03  0.14841079979E+03  0.00000000000E+00 0. -1.
         22    1    3    3    0    0  0.10203945740E+02 -0.54129922186E+02  0.77263312315E+02  0.94888294401E+02  0.00000000000E+00 0. -1.
         22    1    3    3    0    0  0.14628941355E+03 -0.48557768948E+02  0.41629498141E+02  0.15966046649E+03  0.00000000000E+00 0. -1.
</event>
<event>
 7    1  0.7457412E-006  0.2736116E+03  0.7818608E-02  0.1187837E+00
          2   -1    0    0  502    0  0.00000000000E+00  0.00000000000E+00  0.97939708540E+03  0.97939708540E+03  0.00000000000E+00 0. -1.
          1   -1    0    0  501    0 -0.00000000000E+00 -0.00000000000E+00 -0.12504784723E+03  0.12504784723E+03  0.00000000000E+00 0. -1.
         25    2    1    2    0    0  0.17316073816E+03 -0.15816759195E+03  0.36412618280E+03  0.45079215445E+03  0.12499624446E+03 0.  0.
          2    1    1    2  501    0  0.34449206686E+02 -0.87953219169E+02  0.46152703303E+02  0.10513129232E+03  0.00000000000E+00 0. -1.
          1    1    1    2  502    0 -0.20760994484E+03  0.24612081111E+03  0.44407035207E+03  0.54852148586E+03  0.00000000000E+00 0. -1.
         22    1    3    3    0    0  0.10708304944E+03 -0.11660213850E+03  0.32916603068E+03  0.36525759942E+03  0.00000000000E+00 0.  1.
         22    1    3    3    0    0  0.66077688723E+02 -0.41565453448E+02  0.34960152113E+02  0.85534555024E+02  0.00000000000E+00 0.  1.
</event>
<event>
 7    1  0.7457412E-006  0.1136594E+03  0.7818608E-02  0.1446497E+00
          2   -1    0    0  502    0  0.00000000000E+00  0.00000000000E+00  0.13869763766E+04  0.13869763766E+04  0.00000000000E+00 0. -1.
          1   -1    0    0  501    0 -0.00000000000E+00 -0.00000000000E+00 -0.54516794427E+03  0.54516794427E+03  0.00000000000E+00 0. -1.
         25    2    1    2    0    0  0.72222184689E+02  0.10141564487E+03  0.25372881447E+03  0.30903842020E+03  0.12500102753E+03 0.  0.
          2    1    1    2  501    0 -0.50415323676E+02 -0.10163635004E+03 -0.51118566021E+03  0.52362432307E+03  0.00000000000E+00 0. -1.
          1    1    1    2  502    0 -0.21806861012E+02  0.22070517310E+00  0.10992652781E+04  0.10994815776E+04  0.00000000000E+00 0. -1.
         22    1    3    3    0    0  0.50713271479E+02  0.11805328963E+03  0.25066198488E+03  0.28167329615E+03  0.00000000000E+00 0.  1.
         22    1    3    3    0    0  0.21508913210E+02 -0.16637644764E+02  0.30668295855E+01  0.27365124053E+02  0.00000000000E+00 0.  1.
</event>
<event>
 7    1  0.8271093E-006  0.7704427E+02  0.7818608E-02  0.1488546E+00
          2   -1    0    0  502    0  0.00000000000E+00  0.00000000000E+00  0.15426453466E+04  0.15426453466E+04  0.00000000000E+00 0. -1.
          1   -1    0    0  501    0 -0.00000000000E+00 -0.00000000000E+00 -0.87847526765E+03  0.87847526765E+03  0.00000000000E+00 0. -1.
         25    2    1    2    0    0 -0.12996340298E+01 -0.86055546689E+02 -0.12183256655E+03  0.19461558022E+03  0.12499921451E+03 0.  0.
          2    1    1    2  501    0 -0.20425281414E+02  0.12175982885E+02 -0.71907027330E+03  0.71946334488E+03  0.00000000000E+00 0. -1.
          1    1    1    2  502    0  0.21724915444E+02  0.73879563805E+02  0.15050729188E+04  0.15070416891E+04  0.00000000000E+00 0. -1.
         22    1    3    3    0    0  0.39654565223E+02 -0.77076917938E+01 -0.93380548790E+02  0.10174389391E+03  0.00000000000E+00 0.  1.
         22    1    3    3    0    0 -0.40954199253E+02 -0.78347854896E+02 -0.28452017761E+02  0.92871686309E+02  0.00000000000E+00 0.  1.
</event>
<event>
 7    1  0.7457412E-006  0.7374130E+02  0.7818608E-02  0.1472523E+00
          2   -1    0    0  502    0  0.00000000000E+00  0.00000000000E+00  0.20833010001E+03  0.20833010001E+03  0.00000000000E+00 0. -1.
          1   -1    0    0  501    0 -0.00000000000E+00 -0.00000000000E+00 -0.34526775335E+03  0.34526775335E+03  0.00000000000E+00 0. -1.
         25    2    1    2    0    0 -0.52112830716E+02 -0.60762972343E+02  0.10500339198E+03  0.18182651600E+03  0.12500913431E+03 0.  0.
          2    1    1    2  501    0  0.64409863480E+02  0.35809257010E+02 -0.29918396765E+03  0.30812656474E+03  0.00000000000E+00 0. -1.
          1    1    1    2  502    0 -0.12297032764E+02  0.24953715333E+02  0.57242922332E+02  0.63644772612E+02  0.00000000000E+00 0. -1.
         22    1    3    3    0    0 -0.59443505786E+02 -0.85438837560E+02  0.11417770331E+03  0.15449878083E+03  0.00000000000E+00 0. -1.
         22    1    3    3    0    0  0.73306750701E+01  0.24675865217E+02 -0.91743113327E+01  0.27327735172E+02  0.00000000000E+00 0. -1.
</event>
<event>
 7    1  0.7457412E-006  0.8246350E+02  0.7818608E-02  0.1474857E+00
          2   -1    0    0  502    0  0.00000000000E+00  0.00000000000E+00  0.75764206976E+03  0.75764206976E+03  0.00000000000E+00 0. -1.
          1   -1    0    0  501    0 -0.00000000000E+00 -0.00000000000E+00 -0.10123210033E+03  0.10123210033E+03  0.00000000000E+00 0. -1.
         25    2    1    2    0    0  0.11656733427E+02  0.80929067303E+02  0.16972430617E+03  0.22605821608E+03  0.12494232103E+03 0.  0.
          2    1    1    2  501    0 -0.35393957383E+02 -0.75000290485E+02 -0.49162736272E+02  0.96409286015E+02  0.00000000000E+00 0. -1.
          1    1    1    2  502    0  0.23737223956E+02 -0.59287768174E+01  0.53584839953E+03  0.53640666800E+03  0.00000000000E+00 0. -1.
         22    1    3    3    0    0  0.50275962536E+02  0.16420890488E+02  0.13145133305E+03  0.14169252279E+03  0.00000000000E+00 0. -1.
         22    1    3    3    0    0 -0.38619229109E+02  0.64508176815E+02  0.38272973112E+02  0.84365693287E+02  0.00000000000E+00 0. -1.
</event>
<event>
 7    1  0.7457412E-006  0.8270641E+02  0.7818608E-02  0.1394547E+00
          2   -1    0    0  502    0  0.00000000000E+00  0.00000000000E+00  0.27900096811E+04  0.27900096811E+04  0.00000000000E+00 0. -1.
          1   -1    0    0  501    0 -0.00000000000E+00 -0.00000000000E+00 -0.58349389457E+03  0.58349389457E+03  0.00000000000E+00 0. -1.
         25    2    1    2    0    0 -0.29717227361E+02  0.69622279005E+02 -0.31557886690E+03  0.34777149106E+03  0.12499845370E+03 0.  0.
          2    1    1    2  501    0  0.71614450986E+02 -0.54097431115E+02 -0.24363554963E+03  0.25964098807E+03  0.00000000000E+00 0. -1.
          1    1    1    2  502    0 -0.41897223625E+02 -0.15524847890E+02  0.27657302031E+04  0.27660910965E+04  0.00000000000E+00 0. -1.
         22    1    3    3    0    0  0.44096236600E+02  0.31589429907E+02 -0.70145829843E+02  0.88672473793E+02  0.00000000000E+00 0. -1.
         22    1    3    3    0    0 -0.73813463961E+02  0.38032849098E+02 -0.24543303705E+03  0.25909901727E+03  0.00000000000E+00 0. -1.
</event>
<event>
 7    1  0.7457412E-006  0.5061913E+02  0.7818608E-02  0.1468612E+00
          2   -1    0    0  502    0  0.00000000000E+00  0.00000000000E+00  0.23539027338E+04  0.23539027338E+04  0.00000000000E+00 0. -1.
          1   -1    0    0  501    0 -0.00000000000E+00 -0.00000000000E+00 -0.28771798283E+03  0.28771798283E+03  0.00000000000E+00 0. -1.
         25    2    1    2    0    0 -0.15990438157E+02 -0.84070223141E+02  0.17732025717E+03  0.23321861410E+03  0.12499980731E+03 0.  0.
          2    1    1    2  501    0  0.25279138971E+02  0.43441614111E+02 -0.25713337043E+03  0.26199957804E+03  0.00000000000E+00 0. -1.
          1    1    1    2  502    0 -0.92887008131E+01  0.40628609030E+02  0.21459978643E+04  0.21464025245E+04  0.00000000000E+00 0. -1.
         22    1    3    3    0    0  0.37437722466E+02 -0.13605160997E+02  0.58120300766E+01  0.40254976870E+02  0.00000000000E+00 0.  1.
         22    1    3    3    0    0 -0.53428160624E+02 -0.70465062144E+02  0.17150822709E+03  0.19296363723E+03  0.00000000000E+00 0.  1.
</event>
<event>
 7    1  0.7457412E-006  0.4254856E+02  0.7818608E-02  0.1606007E+00
          2   -1    0    0  502    0  0.00000000000E+00  0.00000000000E+00  0.10919526001E+03  0.10919526001E+03  0.00000000000E+00 0. -1.
          1   -1    0    0  501    0 -0.00000000000E+00 -0.00000000000E+00 -0.42495077294E+03  0.42495077294E+03  0.00000000000E+00 0. -1.
         25    2    1    2    0    0  0.36192456355E+02 -0.40717065216E+02 -0.47838451033E+02  0.14450510734E+03  0.12500174140E+03 0.  0.
          2    1    1    2  501    0 -0.36960503332E+02  0.20560951561E+02 -0.32570202994E+03  0.32843666641E+03  0.00000000000E+00 0. -1.
          1    1    1    2  502    0  0.76804697664E+00  0.20156113654E+02  0.57784968042E+02  0.61204259210E+02  0.00000000000E+00 0. -1.
         22    1    3    3    0    0 -0.34248878597E+02  0.96528920083E+01 -0.45650131947E+02  0.57880035902E+02  0.00000000000E+00 0. -1.
         22    1    3    3    0    0  0.70441334952E+02 -0.50369957224E+02 -0.21883190852E+01  0.86625071434E+02  0.00000000000E+00 0. -1.
</event>
<event>
 7    1  0.7457412E-006  0.3206104E+02  0.7818608E-02  0.1583412E+00
          2   -1    0    0  502    0  0.00000000000E+00  0.00000000000E+00  0.67228921404E+03  0.67228921404E+03  0.00000000000E+00 0. -1.
          1   -1    0    0  501    0 -0.00000000000E+00 -0.00000000000E+00 -0.75695338550E+03  0.75695338550E+03  0.00000000000E+00 0. -1.
         25    2    1    2    0    0 -0.11582633994E+02 -0.36080868070E+02 -0.49475773027E+03  0.51170887214E+03  0.12499908685E+03 0.  0.
          2    1    1    2  501    0  0.30623451083E+02  0.12004824154E+02 -0.25229712205E+03  0.25443220974E+03  0.00000000000E+00 0. -1.
          1    1    1    2  502    0 -0.19040817089E+02  0.24076043916E+02  0.66239068087E+03  0.66310151765E+03  0.00000000000E+00 0. -1.
         22    1    3    3    0    0 -0.13422150036E+02  0.23069182083E+02 -0.39366383595E+03  0.39456755696E+03  0.00000000000E+00 0.  1.
         22    1    3    3    0    0  0.18395160429E+01 -0.59150050153E+02 -0.10109389432E+03  0.11714131518E+03  0.00000000000E+00 0.  1.
</event>
<event>
 7    1  0.7457412E-006  0.6349410E+02  0.7818608E-02  0.1432482E+00
          2   -1    0    0  502    0  0.00000000000E+00  0.00000000000E+00  0.49253438666E+03  0.49253438666E+03  0.00000000000E+00 0. -1.
          1   -1    0    0  501    0 -0.00000000000E+00 -0.00000000000E+00 -0.52767776682E+03  0.52767776682E+03  0.00000000000E+00 0. -1.
         25    2    1    2    0    0  0.84536754279E+02 -0.28087028522E+02 -0.11473104086E+03  0.19163441242E+03  0.12500076917E+03 0.  0.
          2    1    1    2  501    0 -0.44197864467E+02  0.43966024233E+02 -0.37085267314E+03  0.37605606987E+03  0.00000000000E+00 0. -1.
          1    1    1    2  502    0 -0.40338889812E+02 -0.15878995711E+02  0.45044033384E+03  0.45252167118E+03  0.00000000000E+00 0. -1.
         22    1    3    3    0    0  0.62700937194E+02  0.39342235919E+02 -0.90083385269E+02  0.11659431956E+03  0.00000000000E+00 0.  1.
         22    1    3    3    0    0  0.21835817085E+02 -0.67429264441E+02 -0.24647655595E+02  0.75040092865E+02  0.00000000000E+00 0.  1.
</event>
<event>
 7    1  0.7457412E-006  0.9347430E+02  0.7818608E-02  0.1477434E+00
          2   -1    0    0  502    0  0.00000000000E+00  0.00000000000E+00  0.82071895083E+03  0.82071895083E+03  0.00000000000E+00 0. -1.
          1   -1    0    0  501    0 -0.00000000000E+00 -0.00000000000E+00 -0.55460448564E+03  0.55460448564E+03  0.00000000000E+00 0. -1.
         25    2    1    2    0    0  0.92158837164E+02 -0.46526269333E+02  0.30843861324E+03  0.34843406067E+03  0.12495587820E+03 0.  0.
          2    1    1    2  501    0 -0.19191583397E+02 -0.89904719672E+01 -0.53012414189E+03  0.53054759568E+03  0.00000000000E+00 0. -1.
          1    1    1    2  502    0 -0.72967253767E+02  0.55516741300E+02  0.48779999386E+03  0.49634178012E+03  0.00000000000E+00 0. -1.
         22    1    3    3    0    0 -0.11813936303E+02  0.17304301304E+02  0.52224710219E+01  0.21593567055E+02  0.00000000000E+00 0.  1.
         22    1    3    3    0    0  0.10397277347E+03 -0.63830570637E+02  0.30321614221E+03  0.32684049362E+03  0.00000000000E+00 0.  1.
</event>
<event>
 7    1  0.7457412E-006  0.1036095E+03  0.7818608E-02  0.1395764E+00
          2   -1    0    0  502    0  0.00000000000E+00  0.00000000000E+00  0.54892246764E+03  0.54892246764E+03  0.00000000000E+00 0. -1.
          1   -1    0    0  501    0 -0.00000000000E+00 -0.00000000000E+00 -0.48366216231E+02  0.48366216231E+02  0.00000000000E+00 0. -1.
         25    2    1    2    0    0 -0.66800119528E+02 -0.10212213146E+03  0.30955033831E+03  0.35543875144E+03  0.12499643344E+03 0.  0.
          2    1    1    2  501    0  0.32699136232E+02  0.13357449099E+02  0.89215484257E+01  0.36431428507E+02  0.00000000000E+00 0. -1.
          1    1    1    2  502    0  0.34100983295E+02  0.88764682363E+02  0.18208436467E+03  0.20541850392E+03  0.00000000000E+00 0. -1.
         22    1    3    3    0    0 -0.47052024690E+02 -0.64468027536E+01  0.23146620374E+02  0.52832000983E+02  0.00000000000E+00 0. -1.
         22    1    3    3    0    0 -0.19748094838E+02 -0.95675328708E+02  0.28640371793E+03  0.30260675045E+03  0.00000000000E+00 0. -1.
</event>
<event>
 7    1  0.7457412E-006  0.4309328E+02  0.7818608E-02  0.1511200E+00
          2   -1    0    0  502    0  0.00000000000E+00  0.00000000000E+00  0.10842086060E+03  0.10842086060E+03  0.00000000000E+00 0. -1.
          1   -1    0    0  501    0 -0.00000000000E+00 -0.00000000000E+00 -0.13158988049E+04  0.13158988049E+04  0.00000000000E+00 0. -1.
         25    2    1    2    0    0 -0.96693040453E+01 -0.43866494194E+02 -0.13666878357E+03  0.19058366615E+03  0.12500405052E+03 0.  0.
          2    1    1    2  501    0  0.35334037488E+02  0.86777279705E+01 -0.11461417898E+04  0.11467191458E+04  0.00000000000E+00 0. -1.
          1    1    1    2  502    0 -0.25664733442E+02  0.35188766223E+02  0.75332628994E+02  0.87016853552E+02  0.00000000000E+00 0. -1.
         22    1    3    3    0    0  0.52671854970E+00  0.43281802579E+02 -0.31031893028E+02  0.53259461618E+02  0.00000000000E+00 0.  1.
         22    1    3    3    0    0 -0.10196022595E+02 -0.87148296773E+02 -0.10563689055E+03  0.13732420454E+03  0.00000000000E+00 0.  1.
</event>
<event>
 7    1  0.7457412E-006  0.9518499E+02  0.7818608E-02  0.1475206E+00
          2   -1    0    0  502    0  0.00000000000E+00  0.00000000000E+00  0.67150382391E+03  0.67150382391E+03  0.00000000000E+00 0. -1.
          1   -1    0    0  501    0 -0.00000000000E+00 -0.00000000000E+00 -0.49414881955E+02  0.49414881955E+02  0.00000000000E+00 0. -1.
         25    2    1    2    0    0  0.38097126026E+02 -0.97838653020E+02  0.43859099514E+03  0.46797893074E+03  0.12497369947E+03 0.  0.
          2    1    1    2  501    0 -0.49396388741E+02  0.79967181177E+02  0.30985962652E+02  0.98969102085E+02  0.00000000000E+00 0. -1.
          1    1    1    2  502    0  0.11299262716E+02  0.17871471843E+02  0.15251198416E+03  0.15397067303E+03  0.00000000000E+00 0. -1.
         22    1    3    3    0    0  0.56040189462E+02 -0.11179661012E+03  0.42115453800E+03  0.43932918153E+03  0.00000000000E+00 0.  1.
         22    1    3    3    0    0 -0.17943063436E+02  0.13957957101E+02  0.17436457145E+02  0.28649749208E+02  0.00000000000E+00 0.  1.
</event>
<event>
 7    1  0.7457412E-006  0.7070970E+02  0.7818608E-02  0.1369808E+00
          2   -1    0    0  502    0  0.00000000000E+00  0.00000000000E+00  0.29626337299E+03  0.29626337299E+03  0.00000000000E+00 0. -1.
          1   -1    0    0  501    0 -0.00000000000E+00 -0.00000000000E+00 -0.92392016951E+03  0.92392016951E+03  0.00000000000E+00 0. -1.
         25    2    1    2    0    0  0.81697746639E+02  0.21759702754E+02 -0.44297240335E+02  0.15727302993E+03  0.12499821587E+03 0.  0.
          2    1    1    2  501    0 -0.32880083541E+02 -0.62997034075E+02 -0.81730794839E+03  0.82039137532E+03  0.00000000000E+00 0. -1.
          1    1    1    2  502    0 -0.48817663098E+02  0.41237331320E+02  0.23394839220E+03  0.24251913726E+03  0.00000000000E+00 0. -1.
         22    1    3    3    0    0  0.40516450084E+02  0.60383367545E+02  0.16224556354E+02  0.74504832276E+02  0.00000000000E+00 0.  1.
         22    1    3    3    0    0  0.41181296555E+02 -0.38623664791E+02 -0.60521796689E+02  0.82768197650E+02  0.00000000000E+00 0.  1.
</event>
<event>
 7    1  0.7457412E-006  0.1875927E+03  0.7818608E-02  0.1341550E+00
          2   -1    0    0  502    0  0.00000000000E+00  0.00000000000E+00  0.24386541844E+04  0.24386541844E+04  0.00000000000E+00 0. -1.
          1   -1    0    0  501    0 -0.00000000000E+00 -0.00000000000E+00 -0.35845281956E+03  0.35845281956E+03  0.00000000000E+00 0. -1.
         25    2    1    2    0    0 -0.38648881039E+02 -0.19300496838E+03  0.60847907375E+03  0.65162476264E+03  0.12499357690E+03 0.  0.
          2    1    1    2  501    0  0.64077566704E+02  0.17599817373E+03 -0.31070460799E+03  0.36279284053E+03  0.00000000000E+00 0. -1.
          1    1    1    2  502    0 -0.25428685665E+02  0.17006794651E+02  0.17824268991E+04  0.17826894008E+04  0.00000000000E+00 0. -1.
         22    1    3    3    0    0 -0.95549279839E+01 -0.19501945214E+03  0.57488423845E+03  0.60713735759E+03  0.00000000000E+00 0.  1.
         22    1    3    3    0    0 -0.29093953055E+02  0.20144837582E+01  0.33594835305E+02  0.44487405053E+02  0.00000000000E+00 0.  1.
</event>
<event>
 7    1  0.7457412E-006  0.8985677E+02  0.7818608E-02  0.1414011E+00
          2   -1    0    0  502    0  0.00000000000E+00  0.00000000000E+00  0.39836925416E+02  0.39836925416E+02  0.00000000000E+00 0. -1.
          1   -1    0    0  501    0 -0.00000000000E+00 -0.00000000000E+00 -0.18354170020E+04  0.18354170020E+04  0.00000000000E+00 0. -1.
         25    2    1    2    0    0 -0.69229728410E+02  0.92646813045E+02 -0.25509117124E+03  0.30670690683E+03  0.12498573433E+03 0.  0.
          2    1    1    2  501    0  0.67636675601E+02 -0.57397420048E+02 -0.15288065380E+04  0.15313780116E+04  0.00000000000E+00 0. -1.
          1    1    1    2  502    0  0.15930528097E+01 -0.35249392998E+02 -0.11682367340E+02  0.37169009008E+02  0.00000000000E+00 0. -1.
         22    1    3    3    0    0  0.32741957894E+02  0.16757425428E+01 -0.38013816073E+02  0.50198547112E+02  0.00000000000E+00 0. -1.
         22    1    3    3    0    0 -0.10197168630E+03  0.90971070503E+02 -0.21707735517E+03  0.25650835971E+03  0.00000000000E+00 0. -1.
</event>
<event>
 7    1  0.7457412E-006  0.8413573E+02  0.7818608E-02  0.1370168E+00
          2   -1    0    0  502    0  0.00000000000E+00  0.00000000000E+00  0.12105219205E+04  0.12105219205E+04  0.00000000000E+00 0. -1.
          1   -1    0    0  501    0 -0.00000000000E+00 -0.00000000000E+00 -0.78928190677E+03  0.78928190677E+03  0.00000000000E+00 0. -1.
         25    2    1    2    0    0  0.10444993496E+03 -0.88881109265E+02 -0.25479453348E+03  0.31520725750E+03  0.12500288154E+03 0.  0.
          2    1    1    2  501    0 -0.43315538081E+02  0.31479472969E+02 -0.50136405876E+03  0.50421534335E+03  0.00000000000E+00 0. -1.
          1    1    1    2  502    0 -0.61134396880E+02  0.57401636296E+02  0.11773986059E+04  0.11803812264E+04  0.00000000000E+00 0. -1.
         22    1    3    3    0    0  0.63533304387E+01  0.29137469357E+02 -0.61927697473E+02  0.68734246504E+02  0.00000000000E+00 0. -1.
         22    1    3    3    0    0  0.98096604522E+02 -0.11801857862E+03 -0.19286683601E+03  0.24647301100E+03  0.00000000000E+00 0. -1.
</event>
<event>
 7    1  0.7457412E-006  0.7512024E+02  0.7818608E-02  0.1352127E+00
          2   -1    0    0  502    0  0.00000000000E+00  0.00000000000E+00  0.52796319799E+03  0.52796319799E+03  0.00000000000E+00 0. -1.
          1   -1    0    0  501    0 -0.00000000000E+00 -0.00000000000E+00 -0.12920488366E+03  0.12920488366E+03  0.00000000000E+00 0. -1.
         25    2    1    2    0    0 -0.21394489637E+02  0.47905173683E+02  0.31904867150E+03  0.34664221475E+03  0.12496455662E+03 0.  0.
          2    1    1    2  501    0  0.62601371506E+02  0.41522505863E+02 -0.88212548859E+02  0.11586416177E+03  0.00000000000E+00 0. -1.
          1    1    1    2  502    0 -0.41206881869E+02 -0.89427679546E+02  0.16792219169E+03  0.19466170513E+03  0.00000000000E+00 0. -1.
         22    1    3    3    0    0 -0.71596563377E+02  0.35390198385E+02  0.15115250233E+03  0.17095500283E+03  0.00000000000E+00 0.  1.
         22    1    3    3    0    0  0.50202073740E+02  0.12514975298E+02  0.16789616916E+03  0.17568721193E+03  0.00000000000E+00 0.  1.
</event>
<event>
 7    1  0.7457412E-006  0.4221258E+03  0.7818608E-02  0.1176494E+00
          2   -1    0    0  502    0  0.00000000000E+00  0.00000000000E+00  0.10177726932E+04  0.10177726932E+04  0.00000000000E+00 0. -1.
          1   -1    0    0  501    0 -0.00000000000E+00 -0.00000000000E+00 -0.10693135249E+04  0.10693135249E+04  0.00000000000E+00 0. -1.
         25    2    1    2    0    0 -0.48323515655E+03 -0.27684221066E+02  0.23022265646E+03  0.55037013496E+03  0.12498872463E+03 0.  0.
          2    1    1    2  501    0  0.41412206508E+03  0.20190165398E+02 -0.85978247883E+03  0.95453163303E+03  0.00000000000E+00 0. -1.
          1    1    1    2  502    0  0.69113091477E+02  0.74940556678E+01  0.57801899076E+03  0.58218445012E+03  0.00000000000E+00 0. -1.
         22    1    3    3    0    0 -0.89246438997E+02  0.41287645279E+02  0.28382892657E+02  0.10234835183E+03  0.00000000000E+00 0. -1.
         22    1    3    3    0    0 -0.39398871755E+03 -0.68971866345E+02  0.20183976380E+03  0.44802178313E+03  0.00000000000E+00 0. -1.
</event>
<event>
 7    1  0.7457412E-006  0.7103562E+02  0.7818608E-02  0.1411899E+00
          2   -1    0    0  502    0  0.00000000000E+00  0.00000000000E+00  0.15987826975E+03  0.15987826975E+03  0.00000000000E+00 0. -1.
          1   -1    0    0  501    0 -0.00000000000E+00 -0.00000000000E+00 -0.54906335725E+03  0.54906335725E+03  0.00000000000E+00 0. -1.
         25    2    1    2    0    0 -0.97162653155E+01 -0.53625626004E+02 -0.94294505861E+02  0.16578973308E+03  0.12499867273E+03 0.  0.
          2    1    1    2  501    0 -0.34179382851E+02  0.65108538133E+02 -0.41150392847E+03  0.41802252942E+03  0.00000000000E+00 0. -1.
          1    1    1    2  502    0  0.43895648167E+02 -0.11482912129E+02  0.11661334684E+03  0.12512936450E+03  0.00000000000E+00 0. -1.
         22    1    3    3    0    0 -0.41115500420E+02 -0.78505151514E+02 -0.88621491958E+02  0.12532881562E+03  0.00000000000E+00 0.  1.
         22    1    3    3    0    0  0.31399235105E+02  0.24879525510E+02 -0.56730139035E+01  0.40460917458E+02  0.00000000000E+00 0.  1.
</event>
<event>
 7    1  0.7457412E-006  0.8348031E+02  0.7818608E-02  0.1468717E+00
          2   -1    0    0  502    0  0.00000000000E+00  0.00000000000E+00  0.86402648037E+03  0.86402648037E+03  0.00000000000E+00 0. -1.
          1   -1    0    0  501    0 -0.00000000000E+00 -0.00000000000E+00 -0.47274468836E+03  0.47274468836E+03  0.00000000000E+00 0. -1.
         25    2    1    2    0    0 -0.38730583317E+02  0.86218321013E+02  0.35607598706E+03  0.38903513254E+03  0.12499827531E+03 0.  0.
          2    1    1    2  501    0  0.24585567460E+02 -0.57640622282E+01 -0.45251627615E+03  0.45322031588E+03  0.00000000000E+00 0. -1.
          1    1    1    2  502    0  0.14145015857E+02 -0.80454258785E+02  0.48772208111E+03  0.49451572031E+03  0.00000000000E+00 0. -1.
         22    1    3    3    0    0  0.30040965805E+02  0.26265144598E+02  0.28618740410E+02  0.49105496127E+02  0.00000000000E+00 0. -1.
         22    1    3    3    0    0 -0.68771549122E+02  0.59953176415E+02  0.32745724665E+03  0.33992963641E+03  0.00000000000E+00 0. -1.
</event>
<event>
 7    1  0.7457412E-006  0.4818063E+02  0.7818608E-02  0.1469590E+00
          2   -1    0    0  502    0  0.00000000000E+00  0.00000000000E+00  0.30545371111E+04  0.30545371111E+04  0.00000000000E+00 0. -1.
          1   -1    0    0  501    0 -0.00000000000E+00 -0.00000000000E+00 -0.18665623400E+03  0.18665623400E+03  0.00000000000E+00 0. -1.
         25    2    1    2    0    0 -0.16105979462E+02  0.85625774756E+02  0.32849680339E+03  0.36211393681E+03  0.12500071009E+03 0.  0.
          2    1    1    2  501    0 -0.49415580259E+01 -0.47579214643E+02 -0.16630151024E+03  0.17304448264E+03  0.00000000000E+00 0. -1.
          1    1    1    2  502    0  0.21047537488E+02 -0.38046560113E+02  0.27056855840E+04  0.27060349257E+04  0.00000000000E+00 0. -1.
         22    1    3    3    0    0  0.43990670478E+02  0.62564679723E+02  0.10748188703E+03  0.13191616382E+03  0.00000000000E+00 0.  1.
         22    1    3    3    0    0 -0.60096649940E+02  0.23061095033E+02  0.22101491635E+03  0.23019777299E+03  0.00000000000E+00 0.  1.
</event>
<event>
 7    1  0.7457412E-006  0.1312013E+03  0.7818608E-02  0.1294142E+00
          2   -1    0    0  502    0  0.00000000000E+00  0.00000000000E+00  0.70781195970E+03  0.70781195970E+03  0.00000000000E+00 0. -1.
          1   -1    0    0  501    0 -0.00000000000E+00 -0.00000000000E+00 -0.21797478942E+03  0.21797478942E+03  0.00000000000E+00 0. -1.
         25    2    1    2    0    0 -0.44460152721E+02 -0.13888600456E+03 -0.18283475259E+02  0.19293677613E+03  0.12499714665E+03 0.  0.
          2    1    1    2  501    0 -0.21533198486E+02  0.12784096805E+03 -0.72398452909E+02  0.14848746658E+03  0.00000000000E+00 0. -1.
          1    1    1    2  502    0  0.65993351207E+02  0.11045036513E+02  0.58051909845E+03  0.58436250641E+03  0.00000000000E+00 0. -1.
         22    1    3    3    0    0 -0.30623118721E+02 -0.10728659743E+03 -0.69307567691E+02  0.13134583483E+03  0.00000000000E+00 0.  1.
         22    1    3    3    0    0 -0.13837034000E+02 -0.31599407130E+02  0.51024092432E+02  0.61590941293E+02  0.00000000000E+00 0.  1.
</event>
<event>
 7    1  0.7457412E-006  0.9701397E+02  0.7818608E-02  0.1399849E+00
          2   -1    0    0  502    0  0.00000000000E+00  0.00000000000E+00  0.43879502637E+04  0.43879502637E+04  0.00000000000E+00 0. -1.
          1   -1    0    0  501    0 -0.00000000000E+00 -0.00000000000E+00 -0.22566782623E+02  0.22566782623E+02  0.00000000000E+00 0. -1.
         25    2    1    2    0    0  0.11584317000E+03  0.24024773607E+02  0.23791877914E+04  0.23854048131E+04  0.12499898310E+03 0.  0.
          2    1    1    2  501    0 -0.25212910738E+02 -0.26418680711E+02 -0.32830781545E+00  0.36520478425E+02  0.00000000000E+00 0. -1.
          1    1    1    2  502    0 -0.90630259267E+02  0.23939071036E+01  0.19865239975E+04  0.19885917548E+04  0.00000000000E+00 0. -1.
         22    1    3    3    0    0  0.72053286506E+02  0.54560610766E+02  0.76279693772E+03  0.76813260869E+03  0.00000000000E+00 0. -1.
         22    1    3    3    0    0  0.43789883499E+02 -0.30535837159E+02  0.16163908537E+04  0.16172722044E+04  0.00000000000E+00 0. -1.
</event>
<event>
 7    1  0.7457412E-006  0.1033593E+03  0.7818608E-02  0.1300978E+00
          2   -1    0    0  502    0  0.00000000000E+00  0.00000000000E+00  0.25262131109E+03  0.25262131109E+03  0.00000000000E+00 0. -1.
          1   -1    0    0  501    0 -0.00000000000E+00 -0.00000000000E+00 -0.22416393725E+03  0.22416393725E+03  0.00000000000E+00 0. -1.
         25    2    1    2    0    0  0.50215527682E+02 -0.50644535107E+02  0.42498120436E+02  0.15006720120E+03  0.12501042548E+03 0.  0.
          2    1    1    2  501    0  0.73189889724E+02  0.31621277220E+02 -0.13247773954E+03  0.15461893999E+03  0.00000000000E+00 0. -1.
          1    1    1    2  502    0 -0.12340541741E+03  0.19023257887E+02  0.11843699294E+03  0.17209910715E+03  0.00000000000E+00 0. -1.
         22    1    3    3    0    0 -0.96910228984E+00  0.23387597281E+02 -0.27452583707E+02  0.36077184175E+02  0.00000000000E+00 0.  1.
         22    1    3    3    0    0  0.51184629972E+02 -0.74032132388E+02  0.69950704143E+02  0.11399001702E+03  0.00000000000E+00 0.  1.
</event>
<event>
 7    1  0.7457412E-006  0.1756766E+03  0.7818608E-02  0.1329591E+00
          2   -1    0    0  502    0  0.00000000000E+00  0.00000000000E+00  0.10070838274E+04  0.10070838274E+04  0.00000000000E+00 0. -1.
          1   -1    0    0  501    0 -0.00000000000E+00 -0.00000000000E+00 -0.11448859504E+04  0.11448859504E+04  0.00000000000E+00 0. -1.
         25    2    1    2    0    0  0.15634254613E+03 -0.41814269913E+02 -0.76337733934E+03  0.79029253830E+03  0.12500363583E+03 0.  0.
          2    1    1    2  501    0  0.12332883329E+01 -0.36236862358E+02 -0.35935147250E+03  0.36117601247E+03  0.00000000000E+00 0. -1.
          1    1    1    2  502    0 -0.15757583446E+03  0.78051132272E+02  0.98492668881E+03  0.10005012270E+04  0.00000000000E+00 0. -1.
         22    1    3    3    0    0 -0.19591602688E+02 -0.15460357325E+02 -0.65370414132E+02  0.69972455925E+02  0.00000000000E+00 0. -1.
         22    1    3    3    0    0  0.17593414882E+03 -0.26353912588E+02 -0.69800692521E+03  0.72032008237E+03  0.00000000000E+00 0. -1.
</event>
<event>
 7    1  0.7457412E-006  0.1504439E+03  0.7818608E-02  0.1237478E+00
          2   -1    0    0  502    0  0.00000000000E+00  0.00000000000E+00  0.15264790362E+04  0.15264790362E+04  0.00000000000E+00 0. -1.
          1   -1    0    0  501    0 -0.00000000000E+00 -0.00000000000E+00 -0.12676892642E+03  0.12676892642E+03  0.00000000000E+00 0. -1.
         25    2    1    2    0    0 -0.45963639978E+02  0.16465784199E+03  0.29599495823E+03  0.36394926740E+03  0.12498477035E+03 0.  0.
          2    1    1    2  501    0 -0.72812719587E+02 -0.70477301624E+02 -0.58655067881E+02  0.11708611859E+03  0.00000000000E+00 0. -1.
          1    1    1    2  502    0  0.11877635957E+03 -0.94180540363E+02  0.11623702194E+04  0.11722125766E+04  0.00000000000E+00 0. -1.
         22    1    3    3    0    0 -0.14066239898E+02  0.10657131028E+03  0.69613259361E+02  0.12806759605E+03  0.00000000000E+00 0.  1.
         22    1    3    3    0    0 -0.31897400080E+02  0.58086531707E+02  0.22638169887E+03  0.23588167135E+03  0.00000000000E+00 0.  1.
</event>
<event>
 7    1  0.7457412E-006  0.1165226E+03  0.7818608E-02  0.1332953E+00
          2   -1    0    0  502    0  0.00000000000E+00  0.00000000000E+00  0.12404905217E+04  0.12404905217E+04  0.00000000000E+00 0. -1.
          1   -1    0    0  501    0 -0.00000000000E+00 -0.00000000000E+00 -0.63695000667E+03  0.63695000667E+03  0.00000000000E+00 0. -1.
         25    2    1    2    0    0 -0.42383184287E+02  0.53851668427E+02  0.10319004774E+03  0.17598729554E+03  0.12500802269E+03 0.  0.
          2    1    1    2  501    0 -0.23303644958E+02  0.47684987732E+02 -0.59604763963E+03  0.59840597142E+03  0.00000000000E+00 0. -1.
          1    1    1    2  502    0  0.65686829246E+02 -0.10153665616E+03  0.10963981069E+04  0.11030472614E+04  0.00000000000E+00 0. -1.
         22    1    3    3    0    0  0.35444746504E+02 -0.34676126144E+01  0.14361265451E+01  0.35642907449E+02  0.00000000000E+00 0.  1.
         22    1    3    3    0    0 -0.77827930791E+02  0.57319281041E+02  0.10175392120E+03  0.14034438809E+03  0.00000000000E+00 0.  1.
</event>
<event>
 7    1  0.7457412E-006  0.6915358E+02  0.7818608E-02  0.1392501E+00
          2   -1    0    0  502    0  0.00000000000E+00  0.00000000000E+00  0.12273303524E+04  0.12273303524E+04  0.00000000000E+00 0. -1.
          1   -1    0    0  501    0 -0.00000000000E+00 -0.00000000000E+00 -0.74740603733E+02  0.74740603733E+02  0.00000000000E+00 0. -1.
         25    2    1    2    0    0  0.45384216064E+02 -0.38911782754E+02  0.13341716343E+03  0.19234975481E+03  0.12499773907E+03 0.  0.
          2    1    1    2  501    0 -0.73638864790E+02 -0.74801831241E+01 -0.13823822307E+02  0.75297633498E+02  0.00000000000E+00 0. -1.
          1    1    1    2  502    0  0.28254648726E+02  0.46391965878E+02  0.10329964076E+04  0.10344235678E+04  0.00000000000E+00 0. -1.
         22    1    3    3    0    0 -0.18005995794E+02  0.75393344377E+00  0.11355921094E+03  0.11498034045E+03  0.00000000000E+00 0. -1.
         22    1    3    3    0    0  0.63390211858E+02 -0.39665716198E+02  0.19857952484E+02  0.77369414356E+02  0.00000000000E+00 0. -1.
</event>
<event>
 7    1  0.2078785E-005  0.4945025E+02  0.7818608E-02  0.1484658E+00
          2   -1    0    0  502    0  0.00000000000E+00  0.00000000000E+00  0.23504852629E+04  0.23504852629E+04  0.00000000000E+00 0. -1.
          1   -1    0    0  501    0 -0.00000000000E+00 -0.00000000000E+00 -0.15465615966E+04  0.15465615966E+04  0.00000000000E+00 0. -1.
         25    2    1    2    0    0  0.14327406463E+02 -0.31558373778E+02 -0.23209160171E+03  0.26588067623E+03  0.12499926750E+03 0.  0.
          2    1    1    2  501    0 -0.48182238841E+02  0.14145618379E+02 -0.12969342620E+04  0.12979060469E+04  0.00000000000E+00 0. -1.
          1    1    1    2  502    0  0.33854832378E+02  0.17412755399E+02  0.23329495300E+04  0.23332601363E+04  0.00000000000E+00 0. -1.
         22    1    3    3    0    0 -0.31567052183E+02 -0.64706138156E+02 -0.11248726491E+03  0.13355428809E+03  0.00000000000E+00 0.  1.
         22    1    3    3    0    0  0.45894458645E+02  0.33147764378E+02 -0.11960433680E+03  0.13232638814E+03  0.00000000000E+00 0.  1.
</event>
<event>
 7    1  0.7457412E-006  0.3588482E+02  0.7818608E-02  0.1579232E+00
          2   -1    0    0  502    0  0.00000000000E+00  0.00000000000E+00  0.37719505353E+03  0.37719505353E+03  0.00000000000E+00 0. -1.
          1   -1    0    0  501    0 -0.00000000000E+00 -0.00000000000E+00 -0.13934707747E+04  0.13934707747E+04  0.00000000000E+00 0. -1.
         25    2    1    2    0    0 -0.26131055550E+02 -0.56021927489E+02 -0.61946590767E+03  0.63496780655E+03  0.12499926463E+03 0.  0.
          2    1    1    2  501    0  0.18815397885E+02  0.20925158074E+02 -0.76512489905E+03  0.76564220925E+03  0.00000000000E+00 0. -1.
          1    1    1    2  502    0  0.73156576650E+01  0.35096769415E+02  0.36831508555E+03  0.37005581243E+03  0.00000000000E+00 0. -1.
         22    1    3    3    0    0 -0.19812237886E+02  0.19764192328E+02 -0.42854938240E+03  0.42946213014E+03  0.00000000000E+00 0.  1.
         22    1    3    3    0    0 -0.63188176635E+01 -0.75786119817E+02 -0.19091652528E+03  0.20550567641E+03  0.00000000000E+00 0.  1.
</event>
<event>
 7    1  0.7457412E-006  0.7342189E+02  0.7818608E-02  0.1439564E+00
          2   -1    0    0  502    0  0.00000000000E+00  0.00000000000E+00  0.76615112729E+03  0.76615112729E+03  0.00000000000E+00 0. -1.
          1   -1    0    0  501    0 -0.00000000000E+00 -0.00000000000E+00 -0.67623875595E+03  0.67623875595E+03  0.00000000000E+00 0. -1.
         25    2    1    2    0    0  0.87541332514E+02  0.63557420255E+02  0.30782895943E+02  0.16815144575E+03  0.12499716580E+03 0.  0.
          2    1    1    2  501    0 -0.59477096094E+02 -0.41740838625E+02 -0.60490483337E+03  0.60925337915E+03  0.00000000000E+00 0. -1.
          1    1    1    2  502    0 -0.28064236420E+02 -0.21816581631E+02  0.66403430877E+03  0.66498505835E+03  0.00000000000E+00 0. -1.
         22    1    3    3    0    0  0.99383839300E+01  0.83745749336E+02  0.23985159482E+02  0.87677875672E+02  0.00000000000E+00 0.  1.
         22    1    3    3    0    0  0.77602948584E+02 -0.20188329081E+02  0.67977364613E+01  0.80473570078E+02  0.00000000000E+00 0.  1.
</event>
<event>
 7    1  0.7457412E-006  0.3976615E+02  0.7818608E-02  0.1561496E+00
          2   -1    0    0  502    0  0.00000000000E+00  0.00000000000E+00  0.43734203351E+03  0.43734203351E+03  0.00000000000E+00 0. -1.
          1   -1    0    0  501    0 -0.00000000000E+00 -0.00000000000E+00 -0.40165024241E+03  0.40165024241E+03  0.00000000000E+00 0. -1.
         25    2    1    2    0    0 -0.33325012183E+02  0.54420507913E+02 -0.18068524249E+03  0.22878839862E+03  0.12499930548E+03 0.  0.
          2    1    1    2  501    0  0.27061467728E+02 -0.26748392150E+02 -0.19458161482E+03  0.19826700266E+03  0.00000000000E+00 0. -1.
          1    1    1    2  502    0  0.62635444550E+01 -0.27672115763E+02  0.41095864841E+03  0.41193687464E+03  0.00000000000E+00 0. -1.
         22    1    3    3    0    0  0.42379732708E+02  0.48474037332E+02 -0.84847474464E+02  0.10651229019E+03  0.00000000000E+00 0. -1.
         22    1    3    3    0    0 -0.75704744892E+02  0.59464705814E+01 -0.95837768028E+02  0.12227610843E+03  0.00000000000E+00 0. -1.
</event>
<event>
 7    1  0.7457412E-006  0.5963697E+02  0.7818608E-02  0.1426845E+00
          2   -1    0    0  502    0  0.00000000000E+00  0.00000000000E+00  0.18109444571E+03  0.18109444571E+03  0.00000000000E+00 0. -1.
          1   -1    0    0  501    0 -0.00000000000E+00 -0.00000000000E+00 -0.65229012135E+03  0.65229012135E+03  0.00000000000E+00 0. -1.
         25    2    1    2    0    0  0.46898242059E+00 -0.10720398393E+03 -0.44601446521E+03  0.47544385938E+03  0.12500018455E+03 0.  0.
          2    1    1    2  501    0 -0.18756839115E+01  0.48135200972E+02 -0.18309981331E+03  0.18933055062E+03  0.00000000000E+00 0. -1.
          1    1    1    2  502    0  0.14067014909E+01  0.59068782955E+02  0.15791860288E+03  0.16861015706E+03  0.00000000000E+00 0. -1.
         22    1    3    3    0    0 -0.17978690204E+02 -0.78202757202E+02 -0.43018097396E+03  0.43760093109E+03  0.00000000000E+00 0. -1.
         22    1    3    3    0    0  0.18447672624E+02 -0.29001226724E+02 -0.15833491252E+02  0.37842928295E+02  0.00000000000E+00 0. -1.
</event>
<event>
 7    1  0.7457412E-006  0.7357560E+02  0.7818608E-02  0.1404537E+00
          2   -1    0    0  502    0  0.00000000000E+00  0.00000000000E+00  0.13046939904E+04  0.13046939904E+04  0.00000000000E+00 0. -1.
          1   -1    0    0  501    0 -0.00000000000E+00 -0.00000000000E+00 -0.79707915293E+02  0.79707915293E+02  0.00000000000E+00 0. -1.
         25    2    1    2    0    0 -0.39411516188E+02 -0.45887520985E+01  0.11159422231E+03  0.17220105392E+03  0.12500243303E+03 0.  0.
          2    1    1    2  501    0  0.80533110731E+02 -0.16912236618E+02 -0.14327039180E+02  0.83527658431E+02  0.00000000000E+00 0. -1.
          1    1    1    2  502    0 -0.41121594542E+02  0.21500988716E+02  0.11277188920E+04  0.11286731934E+04  0.00000000000E+00 0. -1.
         22    1    3    3    0    0 -0.45235184201E+02  0.19884503763E+02  0.13127112633E+03  0.14026305283E+03  0.00000000000E+00 0.  1.
         22    1    3    3    0    0  0.58236680131E+01 -0.24473255861E+02 -0.19676904024E+02  0.31938001089E+02  0.00000000000E+00 0.  1.
</event>
<event>
 7    1  0.7457412E-006  0.1060496E+03  0.7818608E-02  0.1336475E+00
          2   -1    0    0  502    0  0.00000000000E+00  0.00000000000E+00  0.38313037238E+03  0.38313037238E+03  0.00000000000E+00 0. -1.
          1   -1    0    0  501    0 -0.00000000000E+00 -0.00000000000E+00 -0.67644227504E+03  0.67644227504E+03  0.00000000000E+00 0. -1.
         25    2    1    2    0    0 -0.40796927461E+02 -0.48286225642E+02 -0.73364320061E+02  0.15813002475E+03  0.12500732936E+03 0.  0.
          2    1    1    2  501    0  0.96687029069E+02  0.56899887882E+02 -0.55267365263E+03  0.56394516147E+03  0.00000000000E+00 0. -1.
          1    1    1    2  502    0 -0.55890101608E+02 -0.86136622403E+01  0.33272607003E+03  0.33749746120E+03  0.00000000000E+00 0. -1.
         22    1    3    3    0    0 -0.69053147396E+02 -0.40789050902E+02 -0.11343092530E+01  0.80208294435E+02  0.00000000000E+00 0.  1.
         22    1    3    3    0    0  0.28256219935E+02 -0.74971747399E+01 -0.72230010808E+02  0.77921730316E+02  0.00000000000E+00 0.  1.
</event>
<event>
 7    1  0.7457412E-006  0.1566446E+03  0.7818608E-02  0.1390028E+00
          2   -1    0    0  502    0  0.00000000000E+00  0.00000000000E+00  0.51069393353E+03  0.51069393353E+03  0.00000000000E+00 0. -1.
          1   -1    0    0  501    0 -0.00000000000E+00 -0.00000000000E+00 -0.15588028617E+04  0.15588028617E+04  0.00000000000E+00 0. -1.
         25    2    1    2    0    0  0.13716192916E+03  0.75811819108E+02 -0.39944535008E+03  0.44692686141E+03  0.12500482001E+03 0.  0.
          2    1    1    2  501    0 -0.13484924442E+02  0.20407389798E+02 -0.11228741090E+04  0.11231404941E+04  0.00000000000E+00 0. -1.
          1    1    1    2  502    0 -0.12367700472E+03 -0.96219208906E+02  0.47421053091E+03  0.49942943974E+03  0.00000000000E+00 0. -1.
         22    1    3    3    0    0 -0.39717408277E+01  0.42434110043E+02 -0.36623118944E+02  0.56193249252E+02  0.00000000000E+00 0.  1.
         22    1    3    3    0    0  0.14113366999E+03  0.33377709065E+02 -0.36282223113E+03  0.39073361216E+03  0.00000000000E+00 0.  1.
</event>
<event>
 7    1  0.7457412E-006  0.1429943E+03  0.7818608E-02  0.1265589E+00
          2   -1    0    0  502    0  0.00000000000E+00  0.00000000000E+00  0.24564931719E+04  0.24564931719E+04  0.00000000000E+00 0. -1.
          1   -1    0    0  501    0 -0.00000000000E+00 -0.00000000000E+00 -0.42189889980E+02  0.42189889980E+02  0.00000000000E+00 0. -1.
         25    2    1    2    0    0 -0.11838399882E+03 -0.79766747524E+02  0.74357320007E+03  0.76740036243E+03  0.12499882880E+03 0.  0.
          2    1    1    2  501    0  0.14739953348E+03  0.46070729422E+01  0.15695974856E+03  0.21536993815E+03  0.00000000000E+00 0. -1.
          1    1    1    2  502    0 -0.29015534660E+02  0.75159674581E+02  0.15137703332E+04  0.15159127613E+04  0.00000000000E+00 0. -1.
         22    1    3    3    0    0 -0.13720290358E+03 -0.80180063209E+02  0.71950626190E+03  0.73684648347E+03  0.00000000000E+00 0.  1.
         22    1    3    3    0    0  0.18818904765E+02  0.41331568565E+00  0.24066938168E+02  0.30553878955E+02  0.00000000000E+00 0.  1.
</event>
<event>
 7    1  0.7457412E-006  0.3988757E+02  0.7818608E-02  0.1519811E+00
          2   -1    0    0  502    0  0.00000000000E+00  0.00000000000E+00  0.12276476884E+04  0.12276476884E+04  0.00000000000E+00 0. -1.
          1   -1    0    0  501    0 -0.00000000000E+00 -0.00000000000E+00 -0.18227887480E+04  0.18227887480E+04  0.00000000000E+00 0. -1.
         25    2    1    2    0    0  0.34752629104E+02 -0.49944288041E+02 -0.18173762131E+03  0.22883721749E+03  0.12504292051E+03 0.  0.
          2    1    1    2  501    0  0.29529346708E+01  0.36978048626E+02 -0.16169584504E+04  0.16173839143E+04  0.00000000000E+00 0. -1.
          1    1    1    2  502    0 -0.37705563775E+02  0.12966239415E+02  0.12035550121E+04  0.12042153047E+04  0.00000000000E+00 0. -1.
         22    1    3    3    0    0  0.11329871599E+02  0.40425450239E+02 -0.82632200255E+02  0.92685832448E+02  0.00000000000E+00 0.  1.
         22    1    3    3    0    0  0.23422757505E+02 -0.90369738280E+02 -0.99105421056E+02  0.13615138504E+03  0.00000000000E+00 0.  1.
</event>
<event>
 7    1  0.7457412E-006  0.1542542E+03  0.7818608E-02  0.1347158E+00
          2   -1    0    0  502    0  0.00000000000E+00  0.00000000000E+00  0.49207567681E+03  0.49207567681E+03  0.00000000000E+00 0. -1.
          1   -1    0    0  501    0 -0.00000000000E+00 -0.00000000000E+00 -0.11303696014E+04  0.11303696014E+04  0.00000000000E+00 0. -1.
         25    2    1    2    0    0  0.14594749887E+03  0.80135017870E+01  0.98345666617E+01  0.19257280370E+03  0.12499070920E+03 0.  0.
          2    1    1    2  501    0  0.79650242921E+01 -0.34544246245E+02 -0.10230795923E+04  0.10236936059E+04  0.00000000000E+00 0. -1.
          1    1    1    2  502    0 -0.15391252316E+03  0.26530744458E+02  0.37495110102E+03  0.40617886866E+03  0.00000000000E+00 0. -1.
         22    1    3    3    0    0  0.22905096529E+02 -0.32054469196E+02  0.43675425978E+02  0.58819004384E+02  0.00000000000E+00 0.  1.
         22    1    3    3    0    0  0.12304240234E+03  0.40067970983E+02 -0.33840859316E+02  0.13375379932E+03  0.00000000000E+00 0.  1.
</event>
<event>
 7    1  0.7457412E-006  0.1037132E+03  0.7818608E-02  0.1468172E+00
          2   -1    0    0  502    0  0.00000000000E+00  0.00000000000E+00  0.74014200558E+03  0.74014200558E+03  0.00000000000E+00 0. -1.
          1   -1    0    0  501    0 -0.00000000000E+00 -0.00000000000E+00 -0.85646108053E+03  0.85646108053E+03  0.00000000000E+00 0. -1.
         25    2    1    2    0    0 -0.74226411943E+02  0.98469954593E+02 -0.38926487948E+02  0.17985024519E+03  0.12499978818E+03 0.  0.
          2    1    1    2  501    0  0.13687797392E+02 -0.15133739956E+02 -0.74297101363E+03  0.74325117758E+03  0.00000000000E+00 0. -1.
          1    1    1    2  502    0  0.60538614551E+02 -0.83336214638E+02  0.66557842663E+03  0.67350166334E+03  0.00000000000E+00 0. -1.
         22    1    3    3    0    0 -0.28192528716E+02 -0.27351637433E+02 -0.21397404857E+02  0.44730075791E+02  0.00000000000E+00 0.  1.
         22    1    3    3    0    0 -0.46033883228E+02  0.12582159203E+03 -0.17529083091E+02  0.13512016940E+03  0.00000000000E+00 0.  1.
</event>
<event>
 7    1  0.7457412E-006  0.5082722E+02  0.7818608E-02  0.1536696E+00
          2   -1    0    0  502    0  0.00000000000E+00  0.00000000000E+00  0.14343594508E+04  0.14343594508E+04  0.00000000000E+00 0. -1.
          1   -1    0    0  501    0 -0.00000000000E+00 -0.00000000000E+00 -0.26945762106E+02  0.26945762106E+02  0.00000000000E+00 0. -1.
         25    2    1    2    0    0  0.51960204069E+02  0.31236055995E+02  0.37245380392E+03  0.39751964868E+03  0.12499792413E+03 0.  0.
          2    1    1    2  501    0 -0.49997822093E+02 -0.52741697554E+01  0.30117629439E+02  0.58606063540E+02  0.00000000000E+00 0. -1.
          1    1    1    2  502    0 -0.19623819758E+01 -0.25961886240E+02  0.10048422554E+04  0.10051795007E+04  0.00000000000E+00 0. -1.
         22    1    3    3    0    0  0.49300242434E+02  0.16856101688E+02  0.37822600579E+03  0.38179779141E+03  0.00000000000E+00 0. -1.
         22    1    3    3    0    0  0.26599616345E+01  0.14379954307E+02 -0.57722018718E+01  0.15721857277E+02  0.00000000000E+00 0. -1.
</event>
<event>
 7    1  0.7457412E-006  0.1194835E+03  0.7818608E-02  0.1345199E+00
          2   -1    0    0  502    0  0.00000000000E+00  0.00000000000E+00  0.33694887963E+03  0.33694887963E+03  0.00000000000E+00 0. -1.
          1   -1    0    0  501    0 -0.00000000000E+00 -0.00000000000E+00 -0.73195549711E+03  0.73195549711E+03  0.00000000000E+00 0. -1.
         25    2    1    2    0    0  0.11777787257E+03  0.97249070873E+02 -0.14919834344E+03  0.24741543537E+03  0.12500097167E+03 0.  0.
          2    1    1    2  501    0 -0.71701160421E+02 -0.90679273927E+02 -0.52544195311E+03  0.53800839512E+03  0.00000000000E+00 0. -1.
          1    1    1    2  502    0 -0.46076712147E+02 -0.65697969458E+01  0.27963367907E+03  0.28348054625E+03  0.00000000000E+00 0. -1.
         22    1    3    3    0    0  0.58538493969E+02 -0.34905364842E+01 -0.10909889121E+03  0.12386083797E+03  0.00000000000E+00 0.  1.
         22    1    3    3    0    0  0.59239378598E+02  0.10073960736E+03 -0.40099452234E+02  0.12355459739E+03  0.00000000000E+00 0.  1.
</event>
<event>
 7    1  0.7457412E-006  0.5525324E+02  0.7818608E-02  0.1530312E+00
          2   -1    0    0  502    0  0.00000000000E+00  0.00000000000E+00  0.49430158597E+03  0.49430158597E+03  0.00000000000E+00 0. -1.
          1   -1    0    0  501    0 -0.00000000000E+00 -0.00000000000E+00 -0.14482664832E+04  0.14482664832E+04  0.00000000000E+00 0. -1.
         25    2    1    2    0    0  0.39828781649E+02 -0.53463090596E+02 -0.11778824318E+04  0.11863711240E+04  0.12499914740E+03 0.  0.
          2    1    1    2  501    0  0.69042544998E+01  0.24002432402E+02 -0.26399150788E+03  0.26517032588E+03  0.00000000000E+00 0. -1.
          1    1    1    2  502    0 -0.46733036149E+02  0.29460658195E+02  0.48790904250E+03  0.49102661924E+03  0.00000000000E+00 0. -1.
         22    1    3    3    0    0  0.73761874030E+02 -0.44710597267E+02 -0.48550736372E+03  0.49310977662E+03  0.00000000000E+00 0.  1.
         22    1    3    3    0    0 -0.33933092380E+02 -0.87524933291E+01 -0.69237506809E+03  0.69326134741E+03  0.00000000000E+00 0.  1.
</event>
<event>
 7    1  0.7457412E-006  0.4847080E+03  0.7818608E-02  0.1133887E+00
          2   -1    0    0  502    0  0.00000000000E+00  0.00000000000E+00  0.29680295871E+04  0.29680295871E+04  0.00000000000E+00 0. -1.
          1   -1    0    0  501    0 -0.00000000000E+00 -0.00000000000E+00 -0.70920866504E+03  0.70920866504E+03  0.00000000000E+00 0. -1.
         25    2    1    2    0    0 -0.15226357920E+03  0.39324669811E+03  0.25548755787E+02  0.44057392830E+03  0.12500193701E+03 0.  0.
          2    1    1    2  501    0  0.18301360813E+03 -0.48824335486E+03 -0.36499948830E+03  0.63647480765E+03  0.00000000000E+00 0. -1.
          1    1    1    2  502    0 -0.30750028934E+02  0.94996656749E+02  0.25982716546E+04  0.26001895162E+04  0.00000000000E+00 0. -1.
         22    1    3    3    0    0 -0.64375827987E+02  0.10739659209E+03 -0.45448176800E+02  0.13320590076E+03  0.00000000000E+00 0. -1.
         22    1    3    3    0    0 -0.87887751210E+02  0.28585010602E+03  0.70996932587E+02  0.30736802755E+03  0.00000000000E+00 0. -1.
</event>
<event>
 7    1  0.7457412E-006  0.9307886E+02  0.7818608E-02  0.1300766E+00
          2   -1    0    0  502    0  0.00000000000E+00  0.00000000000E+00  0.29750564691E+02  0.29750564691E+02  0.00000000000E+00 0. -1.
          1   -1    0    0  501    0 -0.00000000000E+00 -0.00000000000E+00 -0.14110206911E+04  0.14110206911E+04  0.00000000000E+00 0. -1.
         25    2    1    2    0    0  0.84733094649E+02 -0.60978786673E+02 -0.29725919318E+03  0.33894549958E+03  0.12499165572E+03 0.  0.
          2    1    1    2  501    0 -0.35061152531E+01  0.96632007064E+02 -0.75111489734E+03  0.75731342696E+03  0.00000000000E+00 0. -1.
          1    1    1    2  502    0 -0.81226979396E+02 -0.35653220391E+02 -0.33289603592E+03  0.34451232930E+03  0.00000000000E+00 0. -1.
         22    1    3    3    0    0  0.11871631056E+02  0.37973574187E+02 -0.65963410228E+02  0.77033106191E+02  0.00000000000E+00 0.  1.
         22    1    3    3    0    0  0.72861463593E+02 -0.98952360860E+02 -0.23129578296E+03  0.26191239339E+03  0.00000000000E+00 0.  1.
</event>
<event>
 7    1  0.7457412E-006  0.1150315E+03  0.7818608E-02  0.1354744E+00
          2   -1    0    0  502    0  0.00000000000E+00  0.00000000000E+00  0.24635611471E+03  0.24635611471E+03  0.00000000000E+00 0. -1.
          1   -1    0    0  501    0 -0.00000000000E+00 -0.00000000000E+00 -0.21491318620E+04  0.21491318620E+04  0.00000000000E+00 0. -1.
         25    2    1    2    0    0 -0.95021529971E+02  0.43617318552E+02 -0.31060958854E+01  0.16299143371E+03  0.12499999198E+03 0.  0.
          2    1    1    2  501    0 -0.24120147218E+02 -0.37471406543E+02 -0.20444277894E+04  0.20449134148E+04  0.00000000000E+00 0. -1.
          1    1    1    2  502    0  0.11914167719E+03 -0.61459120083E+01  0.14475813800E+03  0.18758312823E+03  0.00000000000E+00 0. -1.
         22    1    3    3    0    0  0.16615115403E+02  0.46208147588E+02 -0.13261873319E+02  0.50863859933E+02  0.00000000000E+00 0.  1.
         22    1    3    3    0    0 -0.11163664537E+03 -0.25908290363E+01  0.10155777433E+02  0.11212757378E+03  0.00000000000E+00 0.  1.
</event>
<event>
 7    1  0.7457412E-006  0.1070999E+03  0.7818608E-02  0.1453536E+00
          2   -1    0    0  502    0  0.00000000000E+00  0.00000000000E+00  0.19086282334E+03  0.19086282334E+03  0.00000000000E+00 0. -1.
          1   -1    0    0  501    0 -0.00000000000E+00 -0.00000000000E+00 -0.13211379948E+04  0.13211379948E+04  0.00000000000E+00 0. -1.
         25    2    1    2    0    0 -0.10131262927E+03  0.45932325784E+02 -0.87113676100E+03  0.88706145336E+03  0.12499895308E+03 0.  0.
          2    1    1    2  501    0  0.85239240625E+02 -0.60915948461E+02 -0.43513817379E+03  0.44757313504E+03  0.00000000000E+00 0. -1.
          1    1    1    2  502    0  0.16073388642E+02  0.14983622677E+02  0.17599976331E+03  0.17736622976E+03  0.00000000000E+00 0. -1.
         22    1    3    3    0    0 -0.23396251661E+02  0.17313082744E+02 -0.29855181495E+02  0.41694835267E+02  0.00000000000E+00 0.  1.
         22    1    3    3    0    0 -0.77916377606E+02  0.28619243040E+02 -0.84128157951E+03  0.84536661809E+03  0.00000000000E+00 0.  1.
</event>
<event>
 7    1  0.7457412E-006  0.7739939E+02  0.7818608E-02  0.1432636E+00
          2   -1    0    0  502    0  0.00000000000E+00  0.00000000000E+00  0.11985841890E+04  0.11985841890E+04  0.00000000000E+00 0. -1.
          1   -1    0    0  501    0 -0.00000000000E+00 -0.00000000000E+00 -0.22624181761E+03  0.22624181761E+03  0.00000000000E+00 0. -1.
         25    2    1    2    0    0  0.10457049412E+02 -0.54399545550E+02  0.16071790646E+03  0.21100485263E+03  0.12499656771E+03 0.  0.
          2    1    1    2  501    0  0.17302173249E+02  0.76563206249E+02 -0.19311295794E+03  0.20845600081E+03  0.00000000000E+00 0. -1.
          1    1    1    2  502    0 -0.27759222660E+02 -0.22163660699E+02  0.10047374229E+04  0.10053651532E+04  0.00000000000E+00 0. -1.
         22    1    3    3    0    0  0.38869743480E+02  0.69959008917E+01  0.13151969356E+03  0.13732162751E+03  0.00000000000E+00 0. -1.
         22    1    3    3    0    0 -0.28412694068E+02 -0.61395446442E+02  0.29198212896E+02  0.73683225121E+02  0.00000000000E+00 0. -1.
</event>
<event>
 7    1  0.7457412E-006  0.2385516E+03  0.7818608E-02  0.1242242E+00
          2   -1    0    0  502    0  0.00000000000E+00  0.00000000000E+00  0.32055429383E+04  0.32055429383E+04  0.00000000000E+00 0. -1.
          1   -1    0    0  501    0 -0.00000000000E+00 -0.00000000000E+00 -0.73903385903E+03  0.73903385903E+03  0.00000000000E+00 0. -1.
         25    2    1    2    0    0  0.70691472357E+02  0.20344701664E+03  0.10493559241E+03  0.27023114873E+03  0.12500168938E+03 0.  0.
          2    1    1    2  501    0 -0.22691553585E+02 -0.24090905662E+03 -0.63376523545E+03  0.67838812919E+03  0.00000000000E+00 0. -1.
          1    1    1    2  502    0 -0.47999918772E+02  0.37462039984E+02  0.29953387223E+04  0.29959575194E+04  0.00000000000E+00 0. -1.
         22    1    3    3    0    0  0.42809325711E+02 -0.59456426630E+00  0.22920952481E+02  0.48562968784E+02  0.00000000000E+00 0. -1.
         22    1    3    3    0    0  0.27882146647E+02  0.20404158090E+03  0.82014639927E+02  0.22166817995E+03  0.00000000000E+00 0. -1.
</event>
<event>
 7    1  0.7457412E-006  0.7654496E+02  0.7818608E-02  0.1393361E+00
          2   -1    0    0  502    0  0.00000000000E+00  0.00000000000E+00  0.34834208123E+03  0.34834208123E+03  0.00000000000E+00 0. -1.
          1   -1    0    0  501    0 -0.00000000000E+00 -0.00000000000E+00 -0.13993197318E+03  0.13993197318E+03  0.00000000000E+00 0. -1.
         25    2    1    2    0    0 -0.52621820986E+01  0.47023275213E+02 -0.33679874536E+02  0.13783563283E+03  0.12500179501E+03 0.  0.
          2    1    1    2  501    0 -0.47254018650E+02  0.11930780202E+02 -0.36491867408E+02  0.60884662943E+02  0.00000000000E+00 0. -1.
          1    1    1    2  502    0  0.52516200748E+02 -0.58954055415E+02  0.27858185000E+03  0.28955375863E+03  0.00000000000E+00 0. -1.
         22    1    3    3    0    0 -0.60142646292E+02  0.39545162194E+02  0.19012920795E+01  0.72003976748E+02  0.00000000000E+00 0.  1.
         22    1    3    3    0    0  0.54880464193E+02  0.74781130191E+01 -0.35581166616E+02  0.65831656079E+02  0.00000000000E+00 0.  1.
</event>
<event>
 7    1  0.7457412E-006  0.1209426E+03  0.7818608E-02  0.1328088E+00
          2   -1    0    0  502    0  0.00000000000E+00  0.00000000000E+00  0.43427178160E+02  0.43427178160E+02  0.00000000000E+00 0. -1.
          1   -1    0    0  501    0 -0.00000000000E+00 -0.00000000000E+00 -0.15839699789E+04  0.15839699789E+04  0.00000000000E+00 0. -1.
         25    2    1    2    0    0  0.82801800929E+02 -0.31518053143E+02 -0.30404538068E+03  0.34046712792E+03  0.12499898307E+03 0.  0.
          2    1    1    2  501    0  0.52360405159E+02 -0.10327622468E+02 -0.10571150986E+04  0.10584614322E+04  0.00000000000E+00 0. -1.
          1    1    1    2  502    0 -0.13516220609E+03  0.41845675611E+02 -0.17938232142E+03  0.22846859688E+03  0.00000000000E+00 0. -1.
         22    1    3    3    0    0 -0.19714670112E+02 -0.21086370374E+02 -0.16441620355E+03  0.16693109723E+03  0.00000000000E+00 0. -1.
         22    1    3    3    0    0  0.10251647104E+03 -0.10431682769E+02 -0.13962917713E+03  0.17353603069E+03  0.00000000000E+00 0. -1.
</event>
<event>
 7    1  0.7457412E-006  0.1057690E+03  0.7818608E-02  0.1428894E+00
          2   -1    0    0  502    0  0.00000000000E+00  0.00000000000E+00  0.82493127838E+02  0.82493127838E+02  0.00000000000E+00 0. -1.
          1   -1    0    0  501    0 -0.00000000000E+00 -0.00000000000E+00 -0.21371681682E+04  0.21371681682E+04  0.00000000000E+00 0. -1.
         25    2    1    2    0    0  0.84025027059E+02  0.72666339159E+02 -0.38738965698E+03  0.42194431476E+03  0.12500262558E+03 0.  0.
          2    1    1    2  501    0 -0.94063568059E+02 -0.47880879436E+02 -0.17280803449E+04  0.17313007283E+04  0.00000000000E+00 0. -1.
          1    1    1    2  502    0  0.10038541001E+02 -0.24785459722E+02  0.60794961488E+02  0.66416252991E+02  0.00000000000E+00 0. -1.
         22    1    3    3    0    0  0.66608746589E+02  0.10046798869E+03 -0.35852647659E+03  0.37824829978E+03  0.00000000000E+00 0. -1.
         22    1    3    3    0    0  0.17416280470E+02 -0.27801649534E+02 -0.28863180393E+02  0.43696014974E+02  0.00000000000E+00 0. -1.
</event>
<event>
 7    1  0.7457412E-006  0.7018123E+02  0.7818608E-02  0.1497047E+00
          2   -1    0    0  502    0  0.00000000000E+00  0.00000000000E+00  0.11941926447E+04  0.11941926447E+04  0.00000000000E+00 0. -1.
          1   -1    0    0  501    0 -0.00000000000E+00 -0.00000000000E+00 -0.56740056258E+03  0.56740056258E+03  0.00000000000E+00 0. -1.
         25    2    1    2    0    0  0.35835009602E+01 -0.67754876057E+02 -0.31981160663E+02  0.14577919845E+03  0.12500086141E+03 0.  0.
          2    1    1    2  501    0  0.24386760110E+02  0.33009656915E+01 -0.47711779043E+03  0.47775202395E+03  0.00000000000E+00 0. -1.
          1    1    1    2  502    0 -0.27970261071E+02  0.64453910366E+02  0.11358910332E+04  0.11380619849E+04  0.00000000000E+00 0. -1.
         22    1    3    3    0    0  0.62067222463E+02 -0.17028123675E+02 -0.87630179112E+01  0.64954503948E+02  0.00000000000E+00 0.  1.
         22    1    3    3    0    0 -0.58483721503E+02 -0.50726752382E+02 -0.23218142752E+02  0.80824694499E+02  0.00000000000E+00 0.  1.
</event>
<event>
 7    1  0.7457412E-006  0.5903974E+02  0.7818608E-02  0.1497742E+00
          2   -1    0    0  502    0  0.00000000000E+00  0.00000000000E+00  0.74522265499E+03  0.74522265499E+03  0.00000000000E+00 0. -1.
          1   -1    0    0  501    0 -0.00000000000E+00 -0.00000000000E+00 -0.14927270527E+03  0.14927270527E+03  0.00000000000E+00 0. -1.
         25    2    1    2    0    0 -0.18972580608E+02 -0.63007970249E+02  0.45141476806E+03  0.47300142457E+03  0.12500036676E+03 0.  0.
          2    1    1    2  501    0 -0.21002477044E+02  0.20161201723E+02 -0.13386461921E+03  0.13699384794E+03  0.00000000000E+00 0. -1.
          1    1    1    2  502    0  0.39975057652E+02  0.42846768526E+02  0.27839980086E+03  0.28450008775E+03  0.00000000000E+00 0. -1.
         22    1    3    3    0    0 -0.12376806666E+02 -0.65516774834E+02  0.45831033009E+03  0.46313496067E+03  0.00000000000E+00 0.  1.
         22    1    3    3    0    0 -0.65957739416E+01  0.25088045849E+01 -0.68955620235E+01  0.98664639032E+01  0.00000000000E+00 0.  1.
</event>
<event>
 7    1  0.7457412E-006  0.1823758E+03  0.7818608E-02  0.1190281E+00
          2   -1    0    0  502    0  0.00000000000E+00  0.00000000000E+00  0.30234736897E+04  0.30234736897E+04  0.00000000000E+00 0. -1.
          1   -1    0    0  501    0 -0.00000000000E+00 -0.00000000000E+00 -0.21160309624E+04  0.21160309624E+04  0.00000000000E+00 0. -1.
         25    2    1    2    0    0  0.18793882601E+03  0.81016115871E+02 -0.13410097641E+04  0.13622838903E+04  0.12500238778E+03 0.  0.
          2    1    1    2  501    0 -0.10960142284E+03  0.83742548139E+02 -0.75537166879E+03  0.76786173513E+03  0.00000000000E+00 0. -1.
          1    1    1    2  502    0 -0.78337403162E+02 -0.16475866401E+03  0.30038241602E+04  0.30093590267E+04  0.00000000000E+00 0. -1.
         22    1    3    3    0    0  0.18334702997E+03  0.10699718182E+03 -0.12297908052E+04  0.12479783471E+04  0.00000000000E+00 0. -1.
         22    1    3    3    0    0  0.45917960342E+01 -0.25981065952E+02 -0.11121895890E+03  0.11430554316E+03  0.00000000000E+00 0. -1.
</event>
