<event>
 7    1  0.5452757E-006  0.1858329E+03  0.7818608E-02  0.1261308E+00
          2   -1    0    0  502    0  0.00000000000E+00  0.00000000000E+00  0.85890474366E+03  0.85890474366E+03  0.00000000000E+00 0. -1.
          1   -1    0    0  501    0 -0.00000000000E+00 -0.00000000000E+00 -0.23954163294E+03  0.23954163294E+03  0.00000000000E+00 0. -1.
         25    2    1    2    0    0 -0.19737734242E+03  0.12734990864E+03  0.32401917228E+03  0.41927074291E+03  0.12499486920E+03 0.  0.
          2    1    1    2  501    0  0.52937441022E+02 -0.37098563483E+02 -0.17094277752E+03  0.18275696775E+03  0.00000000000E+00 0. -1.
          1    1    1    2  502    0  0.14443990140E+03 -0.90251345154E+02  0.46628671596E+03  0.49641866594E+03  0.00000000000E+00 0. -1.
         22    1    3    3    0    0 -0.94665032726E+02  0.12227432525E+03  0.14065038141E+03  0.20903351126E+03  0.00000000000E+00 0. -1.
         22    1    3    3    0    0 -0.10271230970E+03  0.50755833861E+01  0.18336879087E+03  0.21023723166E+03  0.00000000000E+00 0. -1.
</event>
<event>
 7    1  0.5452757E-006  0.3049635E+02  0.7818608E-02  0.1638479E+00
          2   -1    0    0  502    0  0.00000000000E+00  0.00000000000E+00  0.10881067052E+04  0.10881067052E+04  0.00000000000E+00 0. -1.
          1   -1    0    0  501    0 -0.00000000000E+00 -0.00000000000E+00 -0.12827981278E+04  0.12827981278E+04  0.00000000000E+00 0. -1.
         25    2    1    2    0    0 -0.25464071663E+02 -0.49704217422E+00  0.30375508965E+03  0.32945509740E+03  0.12499936287E+03 0.  0.
          2    1    1    2  501    0  0.19919992271E+02  0.23101894323E+02 -0.12695893399E+04  0.12699557455E+04  0.00000000000E+00 0. -1.
          1    1    1    2  502    0  0.55440793924E+01 -0.22604852149E+02  0.77114282759E+03  0.77149399006E+03  0.00000000000E+00 0. -1.
         22    1    3    3    0    0 -0.55656496135E+02 -0.30539407528E+02  0.26282637783E+03  0.27038492165E+03  0.00000000000E+00 0. -1.
         22    1    3    3    0    0  0.30192424471E+02  0.30042365354E+02  0.40928711822E+02  0.59070175748E+02  0.00000000000E+00 0. -1.
</event>
<event>
 7    1  0.5452757E-006  0.1102420E+03  0.7818608E-02  0.1278919E+00
          2   -1    0    0  502    0  0.00000000000E+00  0.00000000000E+00  0.12854157477E+04  0.12854157477E+04  0.00000000000E+00 0. -1.
          1   -1    0    0  501    0 -0.00000000000E+00 -0.00000000000E+00 -0.23662254075E+04  0.23662254075E+04  0.00000000000E+00 0. -1.
         25    2    1    2    0    0  0.60716330345E+02  0.16527840958E+03 -0.10260008896E+03  0.23907355083E+03  0.12500383597E+03 0.  0.
          2    1    1    2  501    0 -0.79238549454E+02 -0.75257871864E+02 -0.21922907094E+04  0.21950127675E+04  0.00000000000E+00 0. -1.
          1    1    1    2  502    0  0.18522219109E+02 -0.90020537717E+02  0.12140811386E+04  0.12175548369E+04  0.00000000000E+00 0. -1.
         22    1    3    3    0    0  0.27857452911E+01  0.15731998457E+03 -0.78303698898E+02  0.17575211857E+03  0.00000000000E+00 0. -1.
         22    1    3    3    0    0  0.57930585054E+02  0.79584250131E+01 -0.24296390061E+02  0.63321432260E+02  0.00000000000E+00 0. -1.
</event>
<event>
 7    1  0.5452757E-006  0.6106363E+02  0.7818608E-02  0.1427127E+00
          2   -1    0    0  502    0  0.00000000000E+00  0.00000000000E+00  0.25098567357E+04  0.25098567357E+04  0.00000000000E+00 0. -1.
          1   -1    0    0  501    0 -0.00000000000E+00 -0.00000000000E+00 -0.12305695487E+02  0.12305695487E+02  0.00000000000E+00 0. -1.
         25    2    1    2    0    0 -0.45868200882E+02  0.38578899395E+02  0.12598035226E+04  0.12674073857E+04  0.12499736919E+03 0.  0.
          2    1    1    2  501    0 -0.18617018738E+02 -0.43095908258E+02  0.64749612707E+02  0.79977265776E+02  0.00000000000E+00 0. -1.
          1    1    1    2  502    0  0.64485219620E+02  0.45170088636E+01  0.11729979049E+04  0.11747777798E+04  0.00000000000E+00 0. -1.
         22    1    3    3    0    0 -0.76591668933E+02  0.57976690313E+02  0.71960035453E+03  0.72598364349E+03  0.00000000000E+00 0. -1.
         22    1    3    3    0    0  0.30723468051E+02 -0.19397790918E+02  0.54020316809E+03  0.54142374218E+03  0.00000000000E+00 0. -1.
</event>
<event>
 7    1  0.5452757E-006  0.2346300E+03  0.7818608E-02  0.1265144E+00
          2   -1    0    0  502    0  0.00000000000E+00  0.00000000000E+00  0.71341083682E+03  0.71341083682E+03  0.00000000000E+00 0. -1.
          1   -1    0    0  501    0 -0.00000000000E+00 -0.00000000000E+00 -0.12182768254E+04  0.12182768254E+04  0.00000000000E+00 0. -1.
         25    2    1    2    0    0 -0.51263615261E+02 -0.25766476275E+03  0.34982644113E+03  0.45499508395E+03  0.12499159691E+03 0.  0.
          2    1    1    2  501    0 -0.13045479793E+01  0.49296714348E+02 -0.11279666449E+04  0.11290441178E+04  0.00000000000E+00 0. -1.
          1    1    1    2  502    0  0.52568163240E+02  0.20836804840E+03  0.27327421520E+03  0.34764846048E+03  0.00000000000E+00 0. -1.
         22    1    3    3    0    0 -0.50781313181E+01 -0.18448807740E+03  0.30757600908E+03  0.35869853566E+03  0.00000000000E+00 0.  1.
         22    1    3    3    0    0 -0.46185483943E+02 -0.73176685350E+02  0.42250432046E+02  0.96296548297E+02  0.00000000000E+00 0.  1.
</event>
<event>
 7    1  0.5452757E-006  0.5606138E+02  0.7818608E-02  0.1483636E+00
          2   -1    0    0  502    0  0.00000000000E+00  0.00000000000E+00  0.16713854735E+04  0.16713854735E+04  0.00000000000E+00 0. -1.
          1   -1    0    0  501    0 -0.00000000000E+00 -0.00000000000E+00 -0.30310201343E+04  0.30310201343E+04  0.00000000000E+00 0. -1.
         25    2    1    2    0    0  0.24798418182E+02  0.95922397672E+01 -0.39003800558E+02  0.13361959897E+03  0.12500371259E+03 0.  0.
          2    1    1    2  501    0 -0.56157651827E+02  0.30793837700E+01 -0.29442637473E+04  0.29448008724E+04  0.00000000000E+00 0. -1.
          1    1    1    2  502    0  0.31359233645E+02 -0.12671623537E+02  0.16236328870E+04  0.16239851364E+04  0.00000000000E+00 0. -1.
         22    1    3    3    0    0 -0.43532060434E+02  0.17855484070E+02 -0.44251625217E+02  0.64591523680E+02  0.00000000000E+00 0.  1.
         22    1    3    3    0    0  0.68330478616E+02 -0.82632443025E+01  0.52478246596E+01  0.69028075288E+02  0.00000000000E+00 0.  1.
</event>
<event>
 7    1  0.5452757E-006  0.5146344E+02  0.7818608E-02  0.1487648E+00
          2   -1    0    0  502    0  0.00000000000E+00  0.00000000000E+00  0.10349325273E+03  0.10349325273E+03  0.00000000000E+00 0. -1.
          1   -1    0    0  501    0 -0.00000000000E+00 -0.00000000000E+00 -0.46298484964E+03  0.46298484964E+03  0.00000000000E+00 0. -1.
         25    2    1    2    0    0  0.79410343489E+02  0.27716020031E+02 -0.17892018043E+03  0.23390859512E+03  0.12500647778E+03 0.  0.
          2    1    1    2  501    0 -0.44457659089E+02 -0.19867763746E+02 -0.24986396305E+03  0.25456474917E+03  0.00000000000E+00 0. -1.
          1    1    1    2  502    0 -0.34952684400E+02 -0.78482562852E+01  0.69292546573E+02  0.78004758086E+02  0.00000000000E+00 0. -1.
         22    1    3    3    0    0  0.60507062665E+02 -0.26755740082E+02 -0.27074280725E+02  0.71484200608E+02  0.00000000000E+00 0.  1.
         22    1    3    3    0    0  0.18903280823E+02  0.54471760113E+02 -0.15184589970E+03  0.16242439451E+03  0.00000000000E+00 0.  1.
</event>
<event>
 7    1  0.5452757E-006  0.1520453E+03  0.7818608E-02  0.1321305E+00
          2   -1    0    0  502    0  0.00000000000E+00  0.00000000000E+00  0.41974746676E+04  0.41974746676E+04  0.00000000000E+00 0. -1.
          1   -1    0    0  501    0 -0.00000000000E+00 -0.00000000000E+00 -0.10195340392E+03  0.10195340392E+03  0.00000000000E+00 0. -1.
         25    2    1    2    0    0  0.76098851900E+02  0.10778255191E+03  0.21141684255E+03  0.27880304076E+03  0.12500376181E+03 0.  0.
          2    1    1    2  501    0  0.43444326777E+02 -0.12048558561E+02 -0.59163865650E+02  0.74383736738E+02  0.00000000000E+00 0. -1.
          1    1    1    2  502    0 -0.11954317868E+03 -0.95733993353E+02  0.39432682868E+04  0.39462412940E+04  0.00000000000E+00 0. -1.
         22    1    3    3    0    0  0.53170555818E+02  0.12613640437E+03  0.20832313551E+03  0.24927099571E+03  0.00000000000E+00 0.  1.
         22    1    3    3    0    0  0.22928296081E+02 -0.18353852461E+02  0.30937070342E+01  0.29532045045E+02  0.00000000000E+00 0.  1.
</event>
<event>
 7    1  0.5452757E-006  0.7575586E+02  0.7818608E-02  0.1452406E+00
          2   -1    0    0  502    0  0.00000000000E+00  0.00000000000E+00  0.63346244779E+02  0.63346244779E+02  0.00000000000E+00 0. -1.
          1   -1    0    0  501    0 -0.00000000000E+00 -0.00000000000E+00 -0.11212594285E+04  0.11212594285E+04  0.00000000000E+00 0. -1.
         25    2    1    2    0    0 -0.25263628744E+02 -0.90340344152E+02 -0.27462206093E+03  0.31597808661E+03  0.12500098460E+03 0.  0.
          2    1    1    2  501    0  0.40211093302E+02  0.62812215918E+02 -0.81827635798E+03  0.82166812310E+03  0.00000000000E+00 0. -1.
          1    1    1    2  502    0 -0.14947464558E+02  0.27528128234E+02  0.34985235166E+02  0.46959463587E+02  0.00000000000E+00 0. -1.
         22    1    3    3    0    0  0.33313242128E+02  0.13972580522E+02 -0.75124632724E+02  0.83358956024E+02  0.00000000000E+00 0. -1.
         22    1    3    3    0    0 -0.58576870871E+02 -0.10431292467E+03 -0.19949742821E+03  0.23261913059E+03  0.00000000000E+00 0. -1.
</event>
<event>
 7    1  0.5452757E-006  0.6535283E+02  0.7818608E-02  0.1530685E+00
          2   -1    0    0  502    0  0.00000000000E+00  0.00000000000E+00  0.36355782345E+02  0.36355782345E+02  0.00000000000E+00 0. -1.
          1   -1    0    0  501    0 -0.00000000000E+00 -0.00000000000E+00 -0.75675508487E+03  0.75675508487E+03  0.00000000000E+00 0. -1.
         25    2    1    2    0    0 -0.46421741981E+02  0.16859862469E+02 -0.22379541488E+03  0.26104954742E+03  0.12499298138E+03 0.  0.
          2    1    1    2  501    0 -0.17431366243E+02  0.11825405522E+02 -0.44399801308E+03  0.44449738848E+03  0.00000000000E+00 0. -1.
          1    1    1    2  502    0  0.63853108223E+02 -0.28685267991E+02 -0.52605874559E+02  0.87563931316E+02  0.00000000000E+00 0. -1.
         22    1    3    3    0    0 -0.64130875449E+02  0.14586166906E+02 -0.23218650007E+03  0.24132156196E+03  0.00000000000E+00 0.  1.
         22    1    3    3    0    0  0.17709133469E+02  0.22736955623E+01  0.83910851866E+01  0.19727985461E+02  0.00000000000E+00 0.  1.
</event>
<event>
 7    1  0.5452757E-006  0.3547524E+03  0.7818608E-02  0.1228816E+00
          2   -1    0    0  502    0  0.00000000000E+00  0.00000000000E+00  0.80894558239E+03  0.80894558239E+03  0.00000000000E+00 0. -1.
          1   -1    0    0  501    0 -0.00000000000E+00 -0.00000000000E+00 -0.65499713685E+03  0.65499713685E+03  0.00000000000E+00 0. -1.
         25    2    1    2    0    0  0.28968005443E+03 -0.15862460844E+03  0.13211932249E+03  0.37703612601E+03  0.12499769838E+03 0.  0.
          2    1    1    2  501    0 -0.29713844277E+03  0.20500094834E+03 -0.47011415612E+03  0.59272587490E+03  0.00000000000E+00 0. -1.
          1    1    1    2  502    0  0.74583883395E+01 -0.46376339896E+02  0.49194327917E+03  0.49418071834E+03  0.00000000000E+00 0. -1.
         22    1    3    3    0    0  0.22251394900E+03 -0.17018847206E+03  0.13004587608E+03  0.30885029287E+03  0.00000000000E+00 0. -1.
         22    1    3    3    0    0  0.67166105429E+02  0.11563863615E+02  0.20734464111E+01  0.68185833134E+02  0.00000000000E+00 0. -1.
</event>
<event>
 7    1  0.5452757E-006  0.1120557E+03  0.7818608E-02  0.1259700E+00
          2   -1    0    0  502    0  0.00000000000E+00  0.00000000000E+00  0.21712858656E+03  0.21712858656E+03  0.00000000000E+00 0. -1.
          1   -1    0    0  501    0 -0.00000000000E+00 -0.00000000000E+00 -0.91408997627E+03  0.91408997627E+03  0.00000000000E+00 0. -1.
         25    2    1    2    0    0  0.26722911744E+02 -0.49373576577E+02 -0.82290258357E+02  0.15984128723E+03  0.12500274559E+03 0.  0.
          2    1    1    2  501    0  0.10065403818E+03  0.41592663023E+02 -0.76584013724E+03  0.77354528040E+03  0.00000000000E+00 0. -1.
          1    1    1    2  502    0 -0.12737694992E+03  0.77809135539E+01  0.15116900588E+03  0.19783199520E+03  0.00000000000E+00 0. -1.
         22    1    3    3    0    0  0.53463491877E+02 -0.69442692928E+02 -0.21147819063E+02  0.90154660534E+02  0.00000000000E+00 0.  1.
         22    1    3    3    0    0 -0.26740580133E+02  0.20069116351E+02 -0.61142439293E+02  0.69686626692E+02  0.00000000000E+00 0.  1.
</event>
<event>
 7    1  0.5452757E-006  0.7086035E+02  0.7818608E-02  0.1456550E+00
          2   -1    0    0  502    0  0.00000000000E+00  0.00000000000E+00  0.37162375481E+03  0.37162375481E+03  0.00000000000E+00 0. -1.
          1   -1    0    0  501    0 -0.00000000000E+00 -0.00000000000E+00 -0.23068207526E+04  0.23068207526E+04  0.00000000000E+00 0. -1.
         25    2    1    2    0    0 -0.29977614407E+02  0.67565308517E+02 -0.95995837519E+03  0.97087697802E+03  0.12497318141E+03 0.  0.
          2    1    1    2  501    0  0.32322826545E+02  0.32715051604E+01 -0.13377743018E+04  0.13381687302E+04  0.00000000000E+00 0. -1.
          1    1    1    2  502    0 -0.23452121377E+01 -0.70836813677E+02  0.36253567918E+03  0.36939879923E+03  0.00000000000E+00 0. -1.
         22    1    3    3    0    0 -0.11122658499E+02  0.13503622108E+02 -0.81257025991E+03  0.81275856725E+03  0.00000000000E+00 0. -1.
         22    1    3    3    0    0 -0.18854955908E+02  0.54061686408E+02 -0.14738811528E+03  0.15811841077E+03  0.00000000000E+00 0. -1.
</event>
<event>
 7    1  0.5452757E-006  0.6821998E+02  0.7818608E-02  0.1433828E+00
          2   -1    0    0  502    0  0.00000000000E+00  0.00000000000E+00  0.25124557971E+03  0.25124557971E+03  0.00000000000E+00 0. -1.
          1   -1    0    0  501    0 -0.00000000000E+00 -0.00000000000E+00 -0.44226544808E+03  0.44226544808E+03  0.00000000000E+00 0. -1.
         25    2    1    2    0    0  0.71420990120E+01 -0.50474022688E+02 -0.11747806845E+03  0.17895546818E+03  0.12500130591E+03 0.  0.
          2    1    1    2  501    0 -0.46898938513E+02  0.54304080773E+02 -0.28779831843E+03  0.29660801694E+03  0.00000000000E+00 0. -1.
          1    1    1    2  502    0  0.39756839501E+02 -0.38300580856E+01  0.21425651851E+03  0.21794754267E+03  0.00000000000E+00 0. -1.
         22    1    3    3    0    0 -0.47858000892E+02 -0.51178400020E+01 -0.90930923724E+02  0.10288349442E+03  0.00000000000E+00 0. -1.
         22    1    3    3    0    0  0.55000099904E+02 -0.45356182686E+02 -0.26547144726E+02  0.76071973751E+02  0.00000000000E+00 0. -1.
</event>
<event>
 7    1  0.5452757E-006  0.1056450E+03  0.7818608E-02  0.1323033E+00
          2   -1    0    0  502    0  0.00000000000E+00  0.00000000000E+00  0.24428788183E+03  0.24428788183E+03  0.00000000000E+00 0. -1.
          1   -1    0    0  501    0 -0.00000000000E+00 -0.00000000000E+00 -0.55936889173E+03  0.55936889173E+03  0.00000000000E+00 0. -1.
         25    2    1    2    0    0  0.93905288703E+02  0.10791680777E+02 -0.16225010546E+03  0.22557602558E+03  0.12499913190E+03 0.  0.
          2    1    1    2  501    0 -0.84763299206E+02 -0.74029135670E+02 -0.35166450959E+03  0.36923306613E+03  0.00000000000E+00 0. -1.
          1    1    1    2  502    0 -0.91419894965E+01  0.63237454892E+02  0.19883360515E+03  0.20884768184E+03  0.00000000000E+00 0. -1.
         22    1    3    3    0    0  0.58684234203E+02 -0.16022942464E+02 -0.36805833815E+01  0.60943586400E+02  0.00000000000E+00 0.  1.
         22    1    3    3    0    0  0.35221054500E+02  0.26814623241E+02 -0.15856952208E+03  0.16463243918E+03  0.00000000000E+00 0.  1.
</event>
<event>
 7    1  0.5452757E-006  0.1898280E+03  0.7818608E-02  0.1269743E+00
          2   -1    0    0  502    0  0.00000000000E+00  0.00000000000E+00  0.67540060648E+02  0.67540060648E+02  0.00000000000E+00 0. -1.
          1   -1    0    0  501    0 -0.00000000000E+00 -0.00000000000E+00 -0.11752717900E+04  0.11752717900E+04  0.00000000000E+00 0. -1.
         25    2    1    2    0    0  0.71229970305E+02 -0.21816917275E+03 -0.65788415278E+03  0.70788952528E+03  0.12499809967E+03 0.  0.
          2    1    1    2  501    0 -0.40125278335E+02  0.42282245041E+02 -0.28815066894E+03  0.29398747290E+03  0.00000000000E+00 0. -1.
          1    1    1    2  502    0 -0.31104691971E+02  0.17588692771E+03 -0.16169690766E+03  0.24093485250E+03  0.00000000000E+00 0. -1.
         22    1    3    3    0    0  0.59821535900E+02 -0.11780222377E+03 -0.52266797688E+03  0.53910833247E+03  0.00000000000E+00 0.  1.
         22    1    3    3    0    0  0.11408434406E+02 -0.10036694898E+03 -0.13521617589E+03  0.16878119281E+03  0.00000000000E+00 0.  1.
</event>
<event>
 7    1  0.5452757E-006  0.1192712E+03  0.7818608E-02  0.1334107E+00
          2   -1    0    0  502    0  0.00000000000E+00  0.00000000000E+00  0.18511902655E+04  0.18511902655E+04  0.00000000000E+00 0. -1.
          1   -1    0    0  501    0 -0.00000000000E+00 -0.00000000000E+00 -0.16481507710E+04  0.16481507710E+04  0.00000000000E+00 0. -1.
         25    2    1    2    0    0  0.15505788608E+03  0.10009987191E+01  0.28244146836E+03  0.34560471075E+03  0.12500193200E+03 0.  0.
          2    1    1    2  501    0 -0.11494592825E+03  0.31028519908E+02 -0.16139472360E+04  0.16183327890E+04  0.00000000000E+00 0. -1.
          1    1    1    2  502    0 -0.40111957836E+02 -0.32029518627E+02  0.15345452621E+04  0.15354035367E+04  0.00000000000E+00 0. -1.
         22    1    3    3    0    0  0.32155854435E+02  0.45399050170E+02  0.34858063478E+02  0.65651788401E+02  0.00000000000E+00 0.  1.
         22    1    3    3    0    0  0.12290203165E+03 -0.44398051451E+02  0.24758340488E+03  0.27995292234E+03  0.00000000000E+00 0.  1.
</event>
<event>
 7    1  0.5452757E-006  0.1119585E+03  0.7818608E-02  0.1260005E+00
          2   -1    0    0  502    0  0.00000000000E+00  0.00000000000E+00  0.10486713714E+04  0.10486713714E+04  0.00000000000E+00 0. -1.
          1   -1    0    0  501    0 -0.00000000000E+00 -0.00000000000E+00 -0.23600500408E+03  0.23600500408E+03  0.00000000000E+00 0. -1.
         25    2    1    2    0    0  0.78433602572E+02  0.14176108220E+02  0.15690696838E+03  0.21586490734E+03  0.12500027775E+03 0.  0.
          2    1    1    2  501    0 -0.72260941880E+02  0.94325706286E+02 -0.18564609104E+03  0.22041654590E+03  0.00000000000E+00 0. -1.
          1    1    1    2  502    0 -0.61726606920E+01 -0.10850181451E+03  0.84140548996E+03  0.84839492221E+03  0.00000000000E+00 0. -1.
         22    1    3    3    0    0  0.24761999198E+02  0.54818629718E+02  0.20153831859E+02  0.63438282661E+02  0.00000000000E+00 0.  1.
         22    1    3    3    0    0  0.53671603374E+02 -0.40642521498E+02  0.13675313652E+03  0.15242662468E+03  0.00000000000E+00 0.  1.
</event>
<event>
 7    1  0.5452757E-006  0.6203798E+02  0.7818608E-02  0.1469208E+00
          2   -1    0    0  502    0  0.00000000000E+00  0.00000000000E+00  0.32232933283E+03  0.32232933283E+03  0.00000000000E+00 0. -1.
          1   -1    0    0  501    0 -0.00000000000E+00 -0.00000000000E+00 -0.41641204748E+03  0.41641204748E+03  0.00000000000E+00 0. -1.
         25    2    1    2    0    0 -0.63491347115E+02 -0.44905136562E+01 -0.65339186236E+02  0.15473849884E+03  0.12499391143E+03 0.  0.
          2    1    1    2  501    0  0.80710539575E+01  0.32884727508E+02 -0.30192311984E+03  0.30381592701E+03  0.00000000000E+00 0. -1.
          1    1    1    2  502    0  0.55420293157E+02 -0.28394213851E+02  0.27317959143E+03  0.28018695445E+03  0.00000000000E+00 0. -1.
         22    1    3    3    0    0 -0.34843259798E+02  0.60157490664E+02 -0.30638691844E+02  0.75971743920E+02  0.00000000000E+00 0. -1.
         22    1    3    3    0    0 -0.28648087317E+02 -0.64648004320E+02 -0.34700494391E+02  0.78766754919E+02  0.00000000000E+00 0. -1.
</event>
<event>
 7    1  0.5452757E-006  0.5930470E+02  0.7818608E-02  0.1452291E+00
          2   -1    0    0  502    0  0.00000000000E+00  0.00000000000E+00  0.23781295768E+03  0.23781295768E+03  0.00000000000E+00 0. -1.
          1   -1    0    0  501    0 -0.00000000000E+00 -0.00000000000E+00 -0.18024548850E+04  0.18024548850E+04  0.00000000000E+00 0. -1.
         25    2    1    2    0    0 -0.18452855149E+02 -0.18871768144E+02 -0.23855469176E+03  0.27060995369E+03  0.12499901831E+03 0.  0.
          2    1    1    2  501    0  0.58419342825E+02  0.16319243342E+02 -0.15454649089E+04  0.15466547520E+04  0.00000000000E+00 0. -1.
          1    1    1    2  502    0 -0.39966487676E+02  0.25525248022E+01  0.21937767336E+03  0.22300313694E+03  0.00000000000E+00 0. -1.
         22    1    3    3    0    0 -0.69406053694E+02 -0.29950911935E+02 -0.13888821016E+03  0.15812713978E+03  0.00000000000E+00 0. -1.
         22    1    3    3    0    0  0.50953198544E+02  0.11079143792E+02 -0.99666481600E+02  0.11248281390E+03  0.00000000000E+00 0. -1.
</event>
<event>
 7    1  0.5452757E-006  0.6415679E+02  0.7818608E-02  0.1422052E+00
          2   -1    0    0  502    0  0.00000000000E+00  0.00000000000E+00  0.17504901139E+03  0.17504901139E+03  0.00000000000E+00 0. -1.
          1   -1    0    0  501    0 -0.00000000000E+00 -0.00000000000E+00 -0.17483300960E+03  0.17483300960E+03  0.00000000000E+00 0. -1.
         25    2    1    2    0    0  0.97468738634E+02 -0.35093487171E+02  0.33266154655E+02  0.16571987652E+03  0.12499893030E+03 0.  0.
          2    1    1    2  501    0 -0.44253656267E+02  0.14109128122E+02 -0.91353096827E+02  0.10248337372E+03  0.00000000000E+00 0. -1.
          1    1    1    2  502    0 -0.53215082367E+02  0.20984359048E+02  0.58302943956E+02  0.81678770742E+02  0.00000000000E+00 0. -1.
         22    1    3    3    0    0  0.58658508803E+02  0.34414554027E+02 -0.18845431465E+02  0.70571470659E+02  0.00000000000E+00 0.  1.
         22    1    3    3    0    0  0.38810229831E+02 -0.69508041197E+02  0.52111586120E+02  0.95148405864E+02  0.00000000000E+00 0.  1.
</event>
<event>
 7    1  0.5452757E-006  0.2618655E+03  0.7818608E-02  0.1205654E+00
          2   -1    0    0  502    0  0.00000000000E+00  0.00000000000E+00  0.78800152651E+03  0.78800152651E+03  0.00000000000E+00 0. -1.
          1   -1    0    0  501    0 -0.00000000000E+00 -0.00000000000E+00 -0.13949433641E+04  0.13949433641E+04  0.00000000000E+00 0. -1.
         25    2    1    2    0    0 -0.13077032168E+03  0.22186715992E+03 -0.62361038686E+03  0.68617811930E+03  0.12499833249E+03 0.  0.
          2    1    1    2  501    0 -0.65668076315E+02 -0.47838061005E+02 -0.71492466317E+03  0.71952626800E+03  0.00000000000E+00 0. -1.
          1    1    1    2  502    0  0.19643839799E+03 -0.17402909891E+03  0.73159321245E+03  0.77724050331E+03  0.00000000000E+00 0. -1.
         22    1    3    3    0    0 -0.10366505622E+03  0.89214867773E+02 -0.20685431956E+03  0.24798073723E+03  0.00000000000E+00 0.  1.
         22    1    3    3    0    0 -0.27105265454E+02  0.13265229214E+03 -0.41675606730E+03  0.43819738207E+03  0.00000000000E+00 0.  1.
</event>
<event>
 7    1  0.5452757E-006  0.1377361E+03  0.7818608E-02  0.1339074E+00
          2   -1    0    0  502    0  0.00000000000E+00  0.00000000000E+00  0.19709805856E+04  0.19709805856E+04  0.00000000000E+00 0. -1.
          1   -1    0    0  501    0 -0.00000000000E+00 -0.00000000000E+00 -0.82259033364E+03  0.82259033364E+03  0.00000000000E+00 0. -1.
         25    2    1    2    0    0 -0.24762652713E+02  0.17751322887E+03  0.33974735237E+03  0.40395274883E+03  0.12500169780E+03 0.  0.
          2    1    1    2  501    0  0.13817745416E+02 -0.13637651095E+03 -0.78425878714E+03  0.79614780540E+03  0.00000000000E+00 0. -1.
          1    1    1    2  502    0  0.10944907297E+02 -0.41136717912E+02  0.15929016867E+04  0.15934703650E+04  0.00000000000E+00 0. -1.
         22    1    3    3    0    0  0.84829791921E+01  0.47044609654E+02  0.21552553498E+03  0.22076324980E+03  0.00000000000E+00 0. -1.
         22    1    3    3    0    0 -0.33245631905E+02  0.13046861921E+03  0.12422181739E+03  0.18318949904E+03  0.00000000000E+00 0. -1.
</event>
<event>
 7    1  0.5452757E-006  0.1018188E+03  0.7818608E-02  0.1285248E+00
          2   -1    0    0  502    0  0.00000000000E+00  0.00000000000E+00  0.68967262630E+03  0.68967262630E+03  0.00000000000E+00 0. -1.
          1   -1    0    0  501    0 -0.00000000000E+00 -0.00000000000E+00 -0.99618947139E+03  0.99618947139E+03  0.00000000000E+00 0. -1.
         25    2    1    2    0    0 -0.13336093972E+03 -0.13259578563E+03  0.11586987417E+03  0.25380656597E+03  0.12500065032E+03 0.  0.
          2    1    1    2  501    0  0.75047972830E+02  0.56123779685E+02 -0.92023987380E+03  0.92499919038E+03  0.00000000000E+00 0. -1.
          1    1    1    2  502    0  0.58312966893E+02  0.76472005943E+02  0.49785315454E+03  0.50705634134E+03  0.00000000000E+00 0. -1.
         22    1    3    3    0    0 -0.11185529410E+03 -0.76665290634E+02  0.14937921323E+02  0.13642695885E+03  0.00000000000E+00 0.  1.
         22    1    3    3    0    0 -0.21505645621E+02 -0.55930494994E+02  0.10093195285E+03  0.11737960713E+03  0.00000000000E+00 0.  1.
</event>
<event>
 7    1  0.5452757E-006  0.6358515E+02  0.7818608E-02  0.1418309E+00
          2   -1    0    0  502    0  0.00000000000E+00  0.00000000000E+00  0.32611593773E+02  0.32611593773E+02  0.00000000000E+00 0. -1.
          1   -1    0    0  501    0 -0.00000000000E+00 -0.00000000000E+00 -0.17203820506E+04  0.17203820506E+04  0.00000000000E+00 0. -1.
         25    2    1    2    0    0  0.29883738850E+02  0.54833981344E+02 -0.43601105008E+03  0.45785445454E+03  0.12500104957E+03 0.  0.
          2    1    1    2  501    0  0.17736252077E+02 -0.62506965209E+02 -0.12446957999E+04  0.12463905205E+04  0.00000000000E+00 0. -1.
          1    1    1    2  502    0 -0.47619990927E+02  0.76729838658E+01 -0.70636068312E+01  0.48748669303E+02  0.00000000000E+00 0. -1.
         22    1    3    3    0    0  0.43599524558E+02  0.56111805887E+01 -0.42855265591E+02  0.61392000116E+02  0.00000000000E+00 0. -1.
         22    1    3    3    0    0 -0.13715785708E+02  0.49222800755E+02 -0.39315578449E+03  0.39646245443E+03  0.00000000000E+00 0. -1.
</event>
<event>
 7    1  0.5452757E-006  0.1165108E+03  0.7818608E-02  0.1294475E+00
          2   -1    0    0  502    0  0.00000000000E+00  0.00000000000E+00  0.35301679292E+03  0.35301679292E+03  0.00000000000E+00 0. -1.
          1   -1    0    0  501    0 -0.00000000000E+00 -0.00000000000E+00 -0.83221539723E+03  0.83221539723E+03  0.00000000000E+00 0. -1.
         25    2    1    2    0    0 -0.56447815570E+02  0.32382656179E+01 -0.53191805435E+03  0.54932628822E+03  0.12500284854E+03 0.  0.
          2    1    1    2  501    0 -0.47931363378E+02 -0.57834270370E+02 -0.27635623752E+03  0.28638259102E+03  0.00000000000E+00 0. -1.
          1    1    1    2  502    0  0.10437917895E+03  0.54596004752E+02  0.32907568755E+03  0.34952331091E+03  0.00000000000E+00 0. -1.
         22    1    3    3    0    0  0.34753464455E+02 -0.13622147725E+02 -0.24399822208E+03  0.24683698787E+03  0.00000000000E+00 0. -1.
         22    1    3    3    0    0 -0.91201280025E+02  0.16860413342E+02 -0.28791983226E+03  0.30248930035E+03  0.00000000000E+00 0. -1.
</event>
<event>
 7    1  0.5452757E-006  0.1021900E+03  0.7818608E-02  0.1428902E+00
          2   -1    0    0  502    0  0.00000000000E+00  0.00000000000E+00  0.12070244203E+04  0.12070244203E+04  0.00000000000E+00 0. -1.
          1   -1    0    0  501    0 -0.00000000000E+00 -0.00000000000E+00 -0.12550031641E+04  0.12550031641E+04  0.00000000000E+00 0. -1.
         25    2    1    2    0    0 -0.74154880141E+02  0.10213391498E+03  0.37767025567E+03  0.41736094429E+03  0.12500021187E+03 0.  0.
          2    1    1    2  501    0  0.69364121781E+02 -0.74875499298E+02 -0.12328116610E+04  0.12370296332E+04  0.00000000000E+00 0. -1.
          1    1    1    2  502    0  0.47907583597E+01 -0.27258415679E+02  0.80716266158E+03  0.80763700685E+03  0.00000000000E+00 0. -1.
         22    1    3    3    0    0  0.13584859147E+02  0.86644146321E+02  0.20761784503E+03  0.22538173409E+03  0.00000000000E+00 0. -1.
         22    1    3    3    0    0 -0.87739739288E+02  0.15489768656E+02  0.17005241064E+03  0.19197921020E+03  0.00000000000E+00 0. -1.
</event>
<event>
 7    1  0.5452757E-006  0.1482305E+03  0.7818608E-02  0.1220678E+00
          2   -1    0    0  502    0  0.00000000000E+00  0.00000000000E+00  0.11940482036E+03  0.11940482036E+03  0.00000000000E+00 0. -1.
          1   -1    0    0  501    0 -0.00000000000E+00 -0.00000000000E+00 -0.14140027903E+04  0.14140027903E+04  0.00000000000E+00 0. -1.
         25    2    1    2    0    0 -0.81022763545E+02 -0.69102298198E+02 -0.23341898215E+03  0.28539299907E+03  0.12499970743E+03 0.  0.
          2    1    1    2  501    0 -0.87864357810E+02  0.85158657421E+02 -0.10711091509E+04  0.10780755797E+04  0.00000000000E+00 0. -1.
          1    1    1    2  502    0  0.16888712136E+03 -0.16056359224E+02  0.99301631378E+01  0.16993903192E+03  0.00000000000E+00 0. -1.
         22    1    3    3    0    0 -0.77461480342E+02  0.14355884715E+02 -0.13497573629E+03  0.15628442581E+03  0.00000000000E+00 0.  1.
         22    1    3    3    0    0 -0.35612832033E+01 -0.83458182912E+02 -0.98443245864E+02  0.12910857326E+03  0.00000000000E+00 0.  1.
</event>
<event>
 7    1  0.5452757E-006  0.4456941E+02  0.7818608E-02  0.1537853E+00
          2   -1    0    0  502    0  0.00000000000E+00  0.00000000000E+00  0.13984312876E+04  0.13984312876E+04  0.00000000000E+00 0. -1.
          1   -1    0    0  501    0 -0.00000000000E+00 -0.00000000000E+00 -0.36014604764E+04  0.36014604764E+04  0.00000000000E+00 0. -1.
         25    2    1    2    0    0  0.32511675428E+02 -0.31631765584E+02 -0.35199352549E+03  0.37627457362E+03  0.12500214051E+03 0.  0.
          2    1    1    2  501    0 -0.59009472657E+01  0.44289925711E+02 -0.32370156324E+04  0.32373239911E+04  0.00000000000E+00 0. -1.
          1    1    1    2  502    0 -0.26610728162E+02 -0.12658160127E+02  0.13859799691E+04  0.13862931994E+04  0.00000000000E+00 0. -1.
         22    1    3    3    0    0  0.39427578256E+01 -0.42394093193E+02 -0.34127213076E+03  0.34391782697E+03  0.00000000000E+00 0. -1.
         22    1    3    3    0    0  0.28568917602E+02  0.10762327610E+02 -0.10721394728E+02  0.32356746645E+02  0.00000000000E+00 0. -1.
</event>
<event>
 7    1  0.5452757E-006  0.1115736E+03  0.7818608E-02  0.1317039E+00
          2   -1    0    0  502    0  0.00000000000E+00  0.00000000000E+00  0.12560712058E+04  0.12560712058E+04  0.00000000000E+00 0. -1.
          1   -1    0    0  501    0 -0.00000000000E+00 -0.00000000000E+00 -0.54800180448E+03  0.54800180448E+03  0.00000000000E+00 0. -1.
         25    2    1    2    0    0  0.34114075246E+02  0.14315435170E+03  0.32429981368E+02  0.19579002448E+03  0.12500036582E+03 0.  0.
          2    1    1    2  501    0 -0.66285461036E+02 -0.88027531757E+02 -0.45890245475E+03  0.47194710685E+03  0.00000000000E+00 0. -1.
          1    1    1    2  502    0  0.32171385790E+02 -0.55126819938E+02  0.11345418747E+04  0.11363358789E+04  0.00000000000E+00 0. -1.
         22    1    3    3    0    0 -0.29550011839E+02  0.98094367697E+02 -0.16423214608E+02  0.10375659088E+03  0.00000000000E+00 0. -1.
         22    1    3    3    0    0  0.63664087086E+02  0.45059983999E+02  0.48853195976E+02  0.92033433596E+02  0.00000000000E+00 0. -1.
</event>
<event>
 7    1  0.5452757E-006  0.5788979E+02  0.7818608E-02  0.1408744E+00
          2   -1    0    0  502    0  0.00000000000E+00  0.00000000000E+00  0.16664301973E+04  0.16664301973E+04  0.00000000000E+00 0. -1.
          1   -1    0    0  501    0 -0.00000000000E+00 -0.00000000000E+00 -0.38920849792E+02  0.38920849792E+02  0.00000000000E+00 0. -1.
         25    2    1    2    0    0 -0.25892236632E+02 -0.31936420470E+02  0.12059137011E+03  0.17850091913E+03  0.12501982529E+03 0.  0.
          2    1    1    2  501    0  0.82322308413E+02  0.19018418348E+02  0.18186447901E+03  0.20053266922E+03  0.00000000000E+00 0. -1.
          1    1    1    2  502    0 -0.56430071780E+02  0.12918002122E+02  0.13250534984E+04  0.13263174587E+04  0.00000000000E+00 0. -1.
         22    1    3    3    0    0 -0.20444805542E+02 -0.36351146740E+02  0.14615709771E+03  0.15199109564E+03  0.00000000000E+00 0. -1.
         22    1    3    3    0    0 -0.54474310906E+01  0.44147262697E+01 -0.25565727601E+02  0.26509823487E+02  0.00000000000E+00 0. -1.
</event>
<event>
 7    1  0.5452757E-006  0.1082944E+03  0.7818608E-02  0.1325435E+00
          2   -1    0    0  502    0  0.00000000000E+00  0.00000000000E+00  0.78377134825E+03  0.78377134825E+03  0.00000000000E+00 0. -1.
          1   -1    0    0  501    0 -0.00000000000E+00 -0.00000000000E+00 -0.94063032914E+03  0.94063032914E+03  0.00000000000E+00 0. -1.
         25    2    1    2    0    0  0.11509437546E+03  0.45922025527E+02 -0.61688041325E+02  0.18650493331E+03  0.12499251183E+03 0.  0.
          2    1    1    2  501    0 -0.67766905468E+02 -0.84434151839E+02 -0.81164258865E+03  0.81883158902E+03  0.00000000000E+00 0. -1.
          1    1    1    2  502    0 -0.47327469994E+02  0.38512126312E+02  0.71647164908E+03  0.71906515506E+03  0.00000000000E+00 0. -1.
         22    1    3    3    0    0  0.30065249701E+02  0.10059635284E+02  0.38777949518E+02  0.50088370611E+02  0.00000000000E+00 0.  1.
         22    1    3    3    0    0  0.85029125761E+02  0.35862390243E+02 -0.10046599084E+03  0.13641656270E+03  0.00000000000E+00 0.  1.
</event>
<event>
 7    1  0.5452757E-006  0.1219649E+03  0.7818608E-02  0.1274656E+00
          2   -1    0    0  502    0  0.00000000000E+00  0.00000000000E+00  0.31098242283E+03  0.31098242283E+03  0.00000000000E+00 0. -1.
          1   -1    0    0  501    0 -0.00000000000E+00 -0.00000000000E+00 -0.88829518361E+03  0.88829518361E+03  0.00000000000E+00 0. -1.
         25    2    1    2    0    0  0.11164938250E+02 -0.12958300075E+03 -0.15086468208E+03  0.23516223183E+03  0.12499885220E+03 0.  0.
          2    1    1    2  501    0 -0.81768239047E+02  0.28309527969E+02 -0.67821304978E+03  0.68371076866E+03  0.00000000000E+00 0. -1.
          1    1    1    2  502    0  0.70603300797E+02  0.10127347278E+03  0.25176497108E+03  0.28040460595E+03  0.00000000000E+00 0. -1.
         22    1    3    3    0    0  0.83265165681E+01 -0.12416486727E+03 -0.50000876291E+02  0.13411313423E+03  0.00000000000E+00 0. -1.
         22    1    3    3    0    0  0.28384216817E+01 -0.54181334766E+01 -0.10086380579E+03  0.10104909760E+03  0.00000000000E+00 0. -1.
</event>
<event>
 7    1  0.5452757E-006  0.1402201E+03  0.7818608E-02  0.1233899E+00
          2   -1    0    0  502    0  0.00000000000E+00  0.00000000000E+00  0.39212822547E+03  0.39212822547E+03  0.00000000000E+00 0. -1.
          1   -1    0    0  501    0 -0.00000000000E+00 -0.00000000000E+00 -0.13549091197E+04  0.13549091197E+04  0.00000000000E+00 0. -1.
         25    2    1    2    0    0 -0.18937601944E+03  0.23004114611E+02  0.25502386058E+03  0.34213285737E+03  0.12500102638E+03 0.  0.
          2    1    1    2  501    0  0.12251241623E+03  0.67813560940E+02 -0.12720682091E+04  0.12797521243E+04  0.00000000000E+00 0. -1.
          1    1    1    2  502    0  0.66863603211E+02 -0.90817675551E+02  0.54263454232E+02  0.12515236351E+03  0.00000000000E+00 0. -1.
         22    1    3    3    0    0 -0.28823023203E+02 -0.33756201492E+02  0.13091666845E+02  0.46277851576E+02  0.00000000000E+00 0.  1.
         22    1    3    3    0    0 -0.16055299624E+03  0.56760316103E+02  0.24193219374E+03  0.29585500579E+03  0.00000000000E+00 0.  1.
</event>
<event>
 7    1  0.6386052E-006  0.6614192E+02  0.7818608E-02  0.1436983E+00
          2   -1    0    0  502    0  0.00000000000E+00  0.00000000000E+00  0.62390435657E+03  0.62390435657E+03  0.00000000000E+00 0. -1.
          1   -1    0    0  501    0 -0.00000000000E+00 -0.00000000000E+00 -0.10262333733E+04  0.10262333733E+04  0.00000000000E+00 0. -1.
         25    2    1    2    0    0 -0.73000326723E+02 -0.27529952044E+02 -0.52253088695E+03  0.54291401973E+03  0.12502063446E+03 0.  0.
          2    1    1    2  501    0  0.32006003416E+02 -0.24372711172E+02 -0.49090375628E+03  0.49254939979E+03  0.00000000000E+00 0. -1.
          1    1    1    2  502    0  0.40994323307E+02  0.51902663216E+02  0.61110562653E+03  0.61467431032E+03  0.00000000000E+00 0. -1.
         22    1    3    3    0    0 -0.40391185972E+02 -0.59776901446E+02 -0.13858322828E+03  0.15623711791E+03  0.00000000000E+00 0. -1.
         22    1    3    3    0    0 -0.32609140751E+02  0.32246949403E+02 -0.38394765867E+03  0.38667690182E+03  0.00000000000E+00 0. -1.
</event>
<event>
 7    1  0.5452757E-006  0.1041166E+03  0.7818608E-02  0.1375622E+00
          2   -1    0    0  502    0  0.00000000000E+00  0.00000000000E+00  0.14018100555E+04  0.14018100555E+04  0.00000000000E+00 0. -1.
          1   -1    0    0  501    0 -0.00000000000E+00 -0.00000000000E+00 -0.27502772213E+02  0.27502772213E+02  0.00000000000E+00 0. -1.
         25    2    1    2    0    0  0.94786178033E+02 -0.24252250132E+02  0.72257599470E+03  0.73980617923E+03  0.12499809411E+03 0.  0.
          2    1    1    2  501    0 -0.59305963318E+01 -0.40941115916E+02  0.16097967608E+02  0.44390218590E+02  0.00000000000E+00 0. -1.
          1    1    1    2  502    0 -0.88855581701E+02  0.65193366048E+02  0.63563332098E+03  0.64511642989E+03  0.00000000000E+00 0. -1.
         22    1    3    3    0    0  0.27146979725E+02 -0.70974082130E+02  0.31671215350E+03  0.32570057878E+03  0.00000000000E+00 0. -1.
         22    1    3    3    0    0  0.67639198308E+02  0.46721831998E+02  0.40586384120E+03  0.41410560046E+03  0.00000000000E+00 0. -1.
</event>
<event>
 7    1  0.5452757E-006  0.1321304E+03  0.7818608E-02  0.1315519E+00
          2   -1    0    0  502    0  0.00000000000E+00  0.00000000000E+00  0.21963309416E+04  0.21963309416E+04  0.00000000000E+00 0. -1.
          1   -1    0    0  501    0 -0.00000000000E+00 -0.00000000000E+00 -0.79586674189E+03  0.79586674189E+03  0.00000000000E+00 0. -1.
         25    2    1    2    0    0 -0.62624279885E+02 -0.17511394995E+03  0.47534984228E+03  0.52551816157E+03  0.12500067876E+03 0.  0.
          2    1    1    2  501    0  0.40659285331E+02  0.12508484275E+03 -0.76472683268E+03  0.77595523324E+03  0.00000000000E+00 0. -1.
          1    1    1    2  502    0  0.21964994555E+02  0.50029107200E+02  0.16898411901E+04  0.16907242887E+04  0.00000000000E+00 0. -1.
         22    1    3    3    0    0 -0.46070184677E+02 -0.26376395307E+01  0.14957161195E+03  0.15652822800E+03  0.00000000000E+00 0. -1.
         22    1    3    3    0    0 -0.16554095209E+02 -0.17247631042E+03  0.32577823033E+03  0.36898993357E+03  0.00000000000E+00 0. -1.
</event>
<event>
 7    1  0.5452757E-006  0.1275537E+03  0.7818608E-02  0.1350978E+00
          2   -1    0    0  502    0  0.00000000000E+00  0.00000000000E+00  0.11837193567E+03  0.11837193567E+03  0.00000000000E+00 0. -1.
          1   -1    0    0  501    0 -0.00000000000E+00 -0.00000000000E+00 -0.98424573772E+03  0.98424573772E+03  0.00000000000E+00 0. -1.
         25    2    1    2    0    0  0.97196654012E+01  0.95195797049E+02 -0.62182656808E+03  0.64144350221E+03  0.12499909633E+03 0.  0.
          2    1    1    2  501    0 -0.24285934543E+02  0.33645162562E+02 -0.31202606428E+03  0.31477304264E+03  0.00000000000E+00 0. -1.
          1    1    1    2  502    0  0.14566269142E+02 -0.12884095961E+03  0.67978830304E+02  0.14640112855E+03  0.00000000000E+00 0. -1.
         22    1    3    3    0    0  0.13049076804E+00 -0.30799663266E+02 -0.10780550967E+03  0.11211897342E+03  0.00000000000E+00 0. -1.
         22    1    3    3    0    0  0.95891746332E+01  0.12599546032E+03 -0.51402105841E+03  0.52932452879E+03  0.00000000000E+00 0. -1.
</event>
<event>
 7    1  0.5452757E-006  0.2392032E+03  0.7818608E-02  0.1279788E+00
          2   -1    0    0  502    0  0.00000000000E+00  0.00000000000E+00  0.30926429225E+04  0.30926429225E+04  0.00000000000E+00 0. -1.
          1   -1    0    0  501    0 -0.00000000000E+00 -0.00000000000E+00 -0.80306113839E+03  0.80306113839E+03  0.00000000000E+00 0. -1.
         25    2    1    2    0    0 -0.18176140244E+03  0.17593713488E+03  0.11376189589E+03  0.30423398341E+03  0.12500185943E+03 0.  0.
          2    1    1    2  501    0  0.19537989969E+03 -0.13619786769E+03 -0.68763235754E+03  0.72770971101E+03  0.00000000000E+00 0. -1.
          1    1    1    2  502    0 -0.13618497256E+02 -0.39739267193E+02  0.28634522457E+04  0.28637603665E+04  0.00000000000E+00 0. -1.
         22    1    3    3    0    0 -0.16247635465E+03  0.15133535860E+03  0.14078814729E+03  0.26291112377E+03  0.00000000000E+00 0. -1.
         22    1    3    3    0    0 -0.19285047792E+02  0.24601776275E+02 -0.27026251403E+02  0.41322859643E+02  0.00000000000E+00 0. -1.
</event>
<event>
 7    1  0.5452757E-006  0.6109152E+02  0.7818608E-02  0.1440873E+00
          2   -1    0    0  502    0  0.00000000000E+00  0.00000000000E+00  0.88780293935E+03  0.88780293935E+03  0.00000000000E+00 0. -1.
          1   -1    0    0  501    0 -0.00000000000E+00 -0.00000000000E+00 -0.19669829025E+04  0.19669829025E+04  0.00000000000E+00 0. -1.
         25    2    1    2    0    0 -0.21787172259E+02 -0.10061988973E+03  0.41792264145E+03  0.44820209319E+03  0.12500695589E+03 0.  0.
          2    1    1    2  501    0  0.17246176709E+02  0.58558874599E+02 -0.19503806468E+04  0.19513357578E+04  0.00000000000E+00 0. -1.
          1    1    1    2  502    0  0.45409955495E+01  0.42061015132E+02  0.45327804218E+03  0.45524799084E+03  0.00000000000E+00 0. -1.
         22    1    3    3    0    0 -0.60823190828E+01 -0.11213663683E+03  0.19968821924E+03  0.22910042520E+03  0.00000000000E+00 0.  1.
         22    1    3    3    0    0 -0.15704853176E+02  0.11516747102E+02  0.21823442222E+03  0.21910166799E+03  0.00000000000E+00 0.  1.
</event>
<event>
 7    1  0.5452757E-006  0.8475182E+02  0.7818608E-02  0.1432284E+00
          2   -1    0    0  502    0  0.00000000000E+00  0.00000000000E+00  0.46003685561E+04  0.46003685561E+04  0.00000000000E+00 0. -1.
          1   -1    0    0  501    0 -0.00000000000E+00 -0.00000000000E+00 -0.13339974027E+03  0.13339974027E+03  0.00000000000E+00 0. -1.
         25    2    1    2    0    0  0.10334494505E+03 -0.53909868142E+02  0.32059378855E+03  0.36330964361E+03  0.12500827305E+03 0.  0.
          2    1    1    2  501    0 -0.29772510384E+02  0.13099210171E+02 -0.10925652669E+03  0.11399552757E+03  0.00000000000E+00 0. -1.
          1    1    1    2  502    0 -0.73572434670E+02  0.40810657971E+02  0.42556315540E+04  0.42564631252E+04  0.00000000000E+00 0. -1.
         22    1    3    3    0    0  0.11849144116E+03 -0.22219971937E+02  0.29821777065E+03  0.32166409111E+03  0.00000000000E+00 0.  1.
         22    1    3    3    0    0 -0.15146496101E+02 -0.31689896205E+02  0.22376017898E+02  0.41645552495E+02  0.00000000000E+00 0.  1.
</event>
<event>
 7    1  0.5452757E-006  0.4134125E+03  0.7818608E-02  0.1205633E+00
          2   -1    0    0  502    0  0.00000000000E+00  0.00000000000E+00  0.36951048274E+04  0.36951048274E+04  0.00000000000E+00 0. -1.
          1   -1    0    0  501    0 -0.00000000000E+00 -0.00000000000E+00 -0.24728770405E+03  0.24728770405E+03  0.00000000000E+00 0. -1.
         25    2    1    2    0    0 -0.37235235538E+03 -0.26912527449E+03  0.19982184209E+04  0.20541602838E+04  0.12499169620E+03 0.  0.
          2    1    1    2  501    0  0.32552249925E+03  0.24775844697E+03 -0.27715942567E+02  0.41002112023E+03  0.00000000000E+00 0. -1.
          1    1    1    2  502    0  0.46829856136E+02  0.21366827520E+02  0.14773146450E+04  0.14782111274E+04  0.00000000000E+00 0. -1.
         22    1    3    3    0    0 -0.11041392205E+03 -0.40694995246E+02  0.33641057728E+03  0.35639780208E+03  0.00000000000E+00 0.  1.
         22    1    3    3    0    0 -0.26193843333E+03 -0.22843027924E+03  0.16618078436E+04  0.16977624817E+04  0.00000000000E+00 0.  1.
</event>
<event>
 7    1  0.5452757E-006  0.1000102E+03  0.7818608E-02  0.1382723E+00
          2   -1    0    0  502    0  0.00000000000E+00  0.00000000000E+00  0.34384290944E+03  0.34384290944E+03  0.00000000000E+00 0. -1.
          1   -1    0    0  501    0 -0.00000000000E+00 -0.00000000000E+00 -0.22014652325E+04  0.22014652325E+04  0.00000000000E+00 0. -1.
         25    2    1    2    0    0  0.53032620412E+02 -0.28484460367E+02 -0.21796081724E+02  0.14044032009E+03  0.12499836406E+03 0.  0.
          2    1    1    2  501    0 -0.89652424324E+02  0.46110129275E+02 -0.21176904339E+04  0.21200887894E+04  0.00000000000E+00 0. -1.
          1    1    1    2  502    0  0.36619803911E+02 -0.17625668908E+02  0.28186419258E+03  0.28477903241E+03  0.00000000000E+00 0. -1.
         22    1    3    3    0    0  0.33843193980E+02 -0.68452210729E+02  0.20605349848E+02  0.79092650574E+02  0.00000000000E+00 0.  1.
         22    1    3    3    0    0  0.19189426432E+02  0.39967750362E+02 -0.42401431572E+02  0.61347669517E+02  0.00000000000E+00 0.  1.
</event>
<event>
 7    1  0.5452757E-006  0.6273976E+02  0.7818608E-02  0.1425858E+00
          2   -1    0    0  502    0  0.00000000000E+00  0.00000000000E+00  0.46561567776E+02  0.46561567776E+02  0.00000000000E+00 0. -1.
          1   -1    0    0  501    0 -0.00000000000E+00 -0.00000000000E+00 -0.16229097685E+04  0.16229097685E+04  0.00000000000E+00 0. -1.
         25    2    1    2    0    0 -0.63023479282E+02  0.67496028168E+02 -0.13317299537E+04  0.13407673212E+04  0.12499866875E+03 0.  0.
          2    1    1    2  501    0  0.40870856290E+02 -0.27027401088E+02 -0.27111099409E+03  0.27550331835E+03  0.00000000000E+00 0. -1.
          1    1    1    2  502    0  0.22152622991E+02 -0.40468627080E+02  0.26492747097E+02  0.53200696724E+02  0.00000000000E+00 0. -1.
         22    1    3    3    0    0 -0.12763408933E+02  0.76441762978E+02 -0.11308364244E+04  0.11334889795E+04  0.00000000000E+00 0.  1.
         22    1    3    3    0    0 -0.50260070348E+02 -0.89457348095E+01 -0.20089352929E+03  0.20727834174E+03  0.00000000000E+00 0.  1.
</event>
<event>
 7    1  0.5452757E-006  0.1226247E+03  0.7818608E-02  0.1351999E+00
          2   -1    0    0  502    0  0.00000000000E+00  0.00000000000E+00  0.71452917995E+03  0.71452917995E+03  0.00000000000E+00 0. -1.
          1   -1    0    0  501    0 -0.00000000000E+00 -0.00000000000E+00 -0.27551416254E+03  0.27551416254E+03  0.00000000000E+00 0. -1.
         25    2    1    2    0    0 -0.28504098996E+01 -0.10483784172E+03  0.35821969539E+03  0.39363076247E+03  0.12499891640E+03 0.  0.
          2    1    1    2  501    0  0.29881915866E+02 -0.30626812924E+02 -0.24176304407E+03  0.24552046767E+03  0.00000000000E+00 0. -1.
          1    1    1    2  502    0 -0.27031505966E+02  0.13546465464E+03  0.32255836609E+03  0.35089211235E+03  0.00000000000E+00 0. -1.
         22    1    3    3    0    0  0.16989980469E+01 -0.19900154099E+01  0.22620593851E+03  0.22622107190E+03  0.00000000000E+00 0.  1.
         22    1    3    3    0    0 -0.45494079464E+01 -0.10284782631E+03  0.13201375688E+03  0.16740969056E+03  0.00000000000E+00 0.  1.
</event>
<event>
 7    1  0.5452757E-006  0.1317410E+03  0.7818608E-02  0.1388119E+00
          2   -1    0    0  502    0  0.00000000000E+00  0.00000000000E+00  0.62874641705E+02  0.62874641705E+02  0.00000000000E+00 0. -1.
          1   -1    0    0  501    0 -0.00000000000E+00 -0.00000000000E+00 -0.24881332703E+04  0.24881332703E+04  0.00000000000E+00 0. -1.
         25    2    1    2    0    0 -0.40631637074E+02  0.12395772664E+03 -0.12469065911E+04  0.12599276390E+04  0.12500064250E+03 0.  0.
          2    1    1    2  501    0  0.68658454769E+02 -0.11464239787E+03 -0.12269533400E+04  0.12342087998E+04  0.00000000000E+00 0. -1.
          1    1    1    2  502    0 -0.28026817695E+02 -0.93153287680E+01  0.48601302545E+02  0.56871473246E+02  0.00000000000E+00 0. -1.
         22    1    3    3    0    0  0.29764656663E+02 -0.52744523799E+01 -0.13617966152E+03  0.13949428248E+03  0.00000000000E+00 0.  1.
         22    1    3    3    0    0 -0.70396293737E+02  0.12923217902E+03 -0.11107269296E+04  0.11204333565E+04  0.00000000000E+00 0.  1.
</event>
<event>
 7    1  0.5452757E-006  0.1575396E+03  0.7818608E-02  0.1216542E+00
          2   -1    0    0  502    0  0.00000000000E+00  0.00000000000E+00  0.63254560587E+03  0.63254560587E+03  0.00000000000E+00 0. -1.
          1   -1    0    0  501    0 -0.00000000000E+00 -0.00000000000E+00 -0.35714786196E+03  0.35714786196E+03  0.00000000000E+00 0. -1.
         25    2    1    2    0    0 -0.10744660477E+03 -0.37791596974E+02  0.10826779213E+03  0.20080009721E+03  0.12500314615E+03 0.  0.
          2    1    1    2  501    0  0.72145864860E+02  0.15274572074E+03 -0.27937644148E+03  0.32647737605E+03  0.00000000000E+00 0. -1.
          1    1    1    2  502    0  0.35300739913E+02 -0.11495412377E+03  0.44650639325E+03  0.46241599456E+03  0.00000000000E+00 0. -1.
         22    1    3    3    0    0 -0.11614852033E+03 -0.11758471362E+02  0.33955049304E+02  0.12157995640E+03  0.00000000000E+00 0.  1.
         22    1    3    3    0    0  0.87019155592E+01 -0.26033125612E+02  0.74312742831E+02  0.79220140814E+02  0.00000000000E+00 0.  1.
</event>
<event>
 7    1  0.5452757E-006  0.1527373E+03  0.7818608E-02  0.1387978E+00
          2   -1    0    0  502    0  0.00000000000E+00  0.00000000000E+00  0.11922178231E+04  0.11922178231E+04  0.00000000000E+00 0. -1.
          1   -1    0    0  501    0 -0.00000000000E+00 -0.00000000000E+00 -0.18230633647E+03  0.18230633647E+03  0.00000000000E+00 0. -1.
         25    2    1    2    0    0 -0.13443690033E+03  0.31047542039E+02  0.30262244954E+03  0.35530843530E+03  0.12500602864E+03 0.  0.
          2    1    1    2  501    0  0.15389857503E+03 -0.14565322425E+02 -0.11741240001E+03  0.19412004453E+03  0.00000000000E+00 0. -1.
          1    1    1    2  502    0 -0.19461674698E+02 -0.16482219614E+02  0.82470143706E+03  0.82509567968E+03  0.00000000000E+00 0. -1.
         22    1    3    3    0    0 -0.14295858121E+02 -0.37671509981E+02  0.32403280545E+02  0.51705771571E+02  0.00000000000E+00 0. -1.
         22    1    3    3    0    0 -0.12014104221E+03  0.68719052020E+02  0.27021916899E+03  0.30360266373E+03  0.00000000000E+00 0. -1.
</event>
<event>
 7    1  0.5452757E-006  0.1414493E+03  0.7818608E-02  0.1282825E+00
          2   -1    0    0  502    0  0.00000000000E+00  0.00000000000E+00  0.18359412841E+04  0.18359412841E+04  0.00000000000E+00 0. -1.
          1   -1    0    0  501    0 -0.00000000000E+00 -0.00000000000E+00 -0.11404493834E+04  0.11404493834E+04  0.00000000000E+00 0. -1.
         25    2    1    2    0    0  0.95818656372E+02 -0.11357592842E+02  0.14987013357E+03  0.21770791796E+03  0.12500188313E+03 0.  0.
          2    1    1    2  501    0 -0.13548665076E+03 -0.45124365279E+02 -0.11011972370E+04  0.11104180275E+04  0.00000000000E+00 0. -1.
          1    1    1    2  502    0  0.39667994386E+02  0.56481958121E+02  0.16468190042E+04  0.16482647221E+04  0.00000000000E+00 0. -1.
         22    1    3    3    0    0  0.59308272175E+02 -0.53179464036E+02  0.29133405323E+02  0.84819112524E+02  0.00000000000E+00 0.  1.
         22    1    3    3    0    0  0.36510384196E+02  0.41821871194E+02  0.12073672824E+03  0.13288880544E+03  0.00000000000E+00 0.  1.
</event>
<event>
 7    1  0.5452757E-006  0.5213526E+02  0.7818608E-02  0.1469629E+00
          2   -1    0    0  502    0  0.00000000000E+00  0.00000000000E+00  0.91197765492E+02  0.91197765492E+02  0.00000000000E+00 0. -1.
          1   -1    0    0  501    0 -0.00000000000E+00 -0.00000000000E+00 -0.71935984296E+03  0.71935984296E+03  0.00000000000E+00 0. -1.
         25    2    1    2    0    0 -0.20199255277E+02  0.11144191236E+02 -0.25017046255E+03  0.28061044742E+03  0.12499903982E+03 0.  0.
          2    1    1    2  501    0  0.55383672304E+02  0.82405756081E+01 -0.44678706804E+03  0.45028206983E+03  0.00000000000E+00 0. -1.
          1    1    1    2  502    0 -0.35184417027E+02 -0.19384766844E+02  0.68795453119E+02  0.79665091206E+02  0.00000000000E+00 0. -1.
         22    1    3    3    0    0 -0.53282079549E+02  0.51044831703E+02 -0.12533240646E+03  0.14543990839E+03  0.00000000000E+00 0.  1.
         22    1    3    3    0    0  0.33082824272E+02 -0.39900640467E+02 -0.12483805609E+03  0.13517053903E+03  0.00000000000E+00 0.  1.
</event>
<event>
 7    1  0.5452757E-006  0.4387952E+02  0.7818608E-02  0.1548012E+00
          2   -1    0    0  502    0  0.00000000000E+00  0.00000000000E+00  0.10086624644E+04  0.10086624644E+04  0.00000000000E+00 0. -1.
          1   -1    0    0  501    0 -0.00000000000E+00 -0.00000000000E+00 -0.54993479875E+03  0.54993479875E+03  0.00000000000E+00 0. -1.
         25    2    1    2    0    0  0.28112610208E+02 -0.44165879696E+02  0.39066326817E+03  0.41350256881E+03  0.12500256612E+03 0.  0.
          2    1    1    2  501    0 -0.28021065173E+02  0.35060457189E+00 -0.53735833192E+03  0.53808854281E+03  0.00000000000E+00 0. -1.
          1    1    1    2  502    0 -0.91545035036E-01  0.43815275125E+02  0.60542272936E+03  0.60700615148E+03  0.00000000000E+00 0. -1.
         22    1    3    3    0    0  0.69930389106E+02 -0.34516930306E+02  0.33065582499E+03  0.33972776219E+03  0.00000000000E+00 0. -1.
         22    1    3    3    0    0 -0.41817778899E+02 -0.96489493904E+01  0.60007443174E+02  0.73774806626E+02  0.00000000000E+00 0. -1.
</event>
<event>
 7    1  0.5452757E-006  0.1159829E+03  0.7818608E-02  0.1292881E+00
          2   -1    0    0  502    0  0.00000000000E+00  0.00000000000E+00  0.36038866194E+03  0.36038866194E+03  0.00000000000E+00 0. -1.
          1   -1    0    0  501    0 -0.00000000000E+00 -0.00000000000E+00 -0.35081736015E+03  0.35081736015E+03  0.00000000000E+00 0. -1.
         25    2    1    2    0    0 -0.57174152289E+02  0.17124022316E+03 -0.76238496139E+01  0.21971686879E+03  0.12500112651E+03 0.  0.
          2    1    1    2  501    0  0.22689879137E+01 -0.76550659602E+02 -0.21854620428E+03  0.23157632694E+03  0.00000000000E+00 0. -1.
          1    1    1    2  502    0  0.54905164376E+02 -0.94689563562E+02  0.23574135569E+03  0.25991282636E+03  0.00000000000E+00 0. -1.
         22    1    3    3    0    0  0.20183909926E+02  0.61391455673E+00  0.22204650612E+02  0.30013557266E+02  0.00000000000E+00 0. -1.
         22    1    3    3    0    0 -0.77358062215E+02  0.17062630861E+03 -0.29828500225E+02  0.18970331153E+03  0.00000000000E+00 0. -1.
</event>
<event>
 7    1  0.5452757E-006  0.8098922E+02  0.7818608E-02  0.1383962E+00
          2   -1    0    0  502    0  0.00000000000E+00  0.00000000000E+00  0.20037058868E+04  0.20037058868E+04  0.00000000000E+00 0. -1.
          1   -1    0    0  501    0 -0.00000000000E+00 -0.00000000000E+00 -0.78443884599E+02  0.78443884599E+02  0.00000000000E+00 0. -1.
         25    2    1    2    0    0  0.19929991882E+02 -0.48864698165E+02  0.34320257497E+03  0.36904903418E+03  0.12499687541E+03 0.  0.
          2    1    1    2  501    0  0.17075450989E+02  0.82016600306E+02 -0.38204397234E+02  0.92075348059E+02  0.00000000000E+00 0. -1.
          1    1    1    2  502    0 -0.37005442871E+02 -0.33151902141E+02  0.16202638245E+04  0.16210253892E+04  0.00000000000E+00 0. -1.
         22    1    3    3    0    0 -0.20553734526E+02 -0.80801172465E+02  0.23034545612E+03  0.24497002803E+03  0.00000000000E+00 0.  1.
         22    1    3    3    0    0  0.40483726408E+02  0.31936474300E+02  0.11285711884E+03  0.12407900615E+03  0.00000000000E+00 0.  1.
</event>
<event>
 7    1  0.5452757E-006  0.7978081E+02  0.7818608E-02  0.1415983E+00
          2   -1    0    0  502    0  0.00000000000E+00  0.00000000000E+00  0.18599849719E+04  0.18599849719E+04  0.00000000000E+00 0. -1.
          1   -1    0    0  501    0 -0.00000000000E+00 -0.00000000000E+00 -0.15339595095E+04  0.15339595095E+04  0.00000000000E+00 0. -1.
         25    2    1    2    0    0 -0.48955406027E+02  0.95474023728E+01  0.36071571742E+03  0.38500296222E+03  0.12499466971E+03 0.  0.
          2    1    1    2  501    0 -0.22884318445E+02  0.31752064589E+02 -0.15204095067E+04  0.15209131973E+04  0.00000000000E+00 0. -1.
          1    1    1    2  502    0  0.71839724473E+02 -0.41299466962E+02  0.14857192517E+04  0.14880283219E+04  0.00000000000E+00 0. -1.
         22    1    3    3    0    0  0.42412082435E+02  0.41486969408E+01  0.12946809913E+03  0.13630108259E+03  0.00000000000E+00 0.  1.
         22    1    3    3    0    0 -0.91367488463E+02  0.53987054319E+01  0.23124761828E+03  0.24870187963E+03  0.00000000000E+00 0.  1.
</event>
<event>
 7    1  0.5452757E-006  0.1667431E+03  0.7818608E-02  0.1223091E+00
          2   -1    0    0  502    0  0.00000000000E+00  0.00000000000E+00  0.12983025879E+04  0.12983025879E+04  0.00000000000E+00 0. -1.
          1   -1    0    0  501    0 -0.00000000000E+00 -0.00000000000E+00 -0.94676986108E+03  0.94676986108E+03  0.00000000000E+00 0. -1.
         25    2    1    2    0    0 -0.10439114741E+03 -0.75652325804E+02 -0.28143699044E+02  0.18176179453E+03  0.12499798438E+03 0.  0.
          2    1    1    2  501    0  0.50026995109E+02  0.16672377855E+03 -0.83047446850E+03  0.84852069002E+03  0.00000000000E+00 0. -1.
          1    1    1    2  502    0  0.54364152303E+02 -0.91071452746E+02  0.12101508944E+04  0.12147899645E+04  0.00000000000E+00 0. -1.
         22    1    3    3    0    0 -0.57621985533E+02 -0.60357864837E+02 -0.76184172996E+02  0.11299289039E+03  0.00000000000E+00 0. -1.
         22    1    3    3    0    0 -0.46769161879E+02 -0.15294460968E+02  0.48040473952E+02  0.68768904141E+02  0.00000000000E+00 0. -1.
</event>
<event>
 7    1  0.5452757E-006  0.6572892E+02  0.7818608E-02  0.1406052E+00
          2   -1    0    0  502    0  0.00000000000E+00  0.00000000000E+00  0.25289207675E+03  0.25289207675E+03  0.00000000000E+00 0. -1.
          1   -1    0    0  501    0 -0.00000000000E+00 -0.00000000000E+00 -0.73152004681E+03  0.73152004681E+03  0.00000000000E+00 0. -1.
         25    2    1    2    0    0  0.92175408648E+02  0.55131049936E+02  0.25131826182E+02  0.16671553512E+03  0.12500688916E+03 0.  0.
          2    1    1    2  501    0 -0.41049940828E+02 -0.50569817205E+02 -0.65487289208E+03  0.65810402585E+03  0.00000000000E+00 0. -1.
          1    1    1    2  502    0 -0.51125467820E+02 -0.45612327313E+01  0.15111309584E+03  0.15959256260E+03  0.00000000000E+00 0. -1.
         22    1    3    3    0    0  0.10325447025E+03  0.83873628562E+02  0.27430368957E+02  0.13582597813E+03  0.00000000000E+00 0.  1.
         22    1    3    3    0    0 -0.11079061600E+02 -0.28742578626E+02 -0.22985427749E+01  0.30889556988E+02  0.00000000000E+00 0.  1.
</event>
<event>
 7    1  0.5452757E-006  0.1555757E+03  0.7818608E-02  0.1279414E+00
          2   -1    0    0  502    0  0.00000000000E+00  0.00000000000E+00  0.26440045439E+03  0.26440045439E+03  0.00000000000E+00 0. -1.
          1   -1    0    0  501    0 -0.00000000000E+00 -0.00000000000E+00 -0.66280509388E+03  0.66280509388E+03  0.00000000000E+00 0. -1.
         25    2    1    2    0    0  0.14720367773E+03  0.62626346100E+02 -0.27717197440E+03  0.34356963045E+03  0.12499922244E+03 0.  0.
          2    1    1    2  501    0 -0.15788074228E+03  0.13072828249E+01 -0.32957577807E+03  0.36544251430E+03  0.00000000000E+00 0. -1.
          1    1    1    2  502    0  0.10677064551E+02 -0.63933628925E+02  0.20834311298E+03  0.21819340352E+03  0.00000000000E+00 0. -1.
         22    1    3    3    0    0  0.11043582576E+03  0.73016429249E+02 -0.27510800838E+03  0.30530621813E+03  0.00000000000E+00 0. -1.
         22    1    3    3    0    0  0.36767851974E+02 -0.10390083150E+02 -0.20639660159E+01  0.38263412319E+02  0.00000000000E+00 0. -1.
</event>
<event>
 7    1  0.5452757E-006  0.5671008E+02  0.7818608E-02  0.1547279E+00
          2   -1    0    0  502    0  0.00000000000E+00  0.00000000000E+00  0.33031397707E+04  0.33031397707E+04  0.00000000000E+00 0. -1.
          1   -1    0    0  501    0 -0.00000000000E+00 -0.00000000000E+00 -0.10496475341E+03  0.10496475341E+03  0.00000000000E+00 0. -1.
         25    2    1    2    0    0 -0.10186923773E+02 -0.59644318763E+02  0.14337481243E+04  0.14404581839E+04  0.12499950987E+03 0.  0.
          2    1    1    2  501    0  0.21399911211E+02  0.40822082870E+01 -0.10000628632E+03  0.10235173632E+03  0.00000000000E+00 0. -1.
          1    1    1    2  502    0 -0.11212987438E+02  0.55562110476E+02  0.18644331793E+04  0.18652946038E+04  0.00000000000E+00 0. -1.
         22    1    3    3    0    0 -0.53146036556E+02 -0.26612540562E+02  0.32524463222E+03  0.33063091099E+03  0.00000000000E+00 0. -1.
         22    1    3    3    0    0  0.42959112782E+02 -0.33031778201E+02  0.11085034921E+04  0.11098272729E+04  0.00000000000E+00 0. -1.
</event>
<event>
 7    1  0.5452757E-006  0.6887300E+02  0.7818608E-02  0.1406014E+00
          2   -1    0    0  502    0  0.00000000000E+00  0.00000000000E+00  0.19780897981E+04  0.19780897981E+04  0.00000000000E+00 0. -1.
          1   -1    0    0  501    0 -0.00000000000E+00 -0.00000000000E+00 -0.36691116513E+03  0.36691116513E+03  0.00000000000E+00 0. -1.
         25    2    1    2    0    0 -0.81805641736E+02 -0.66081094317E+02  0.10006922175E+03  0.19157079008E+03  0.12500657752E+03 0.  0.
          2    1    1    2  501    0  0.16279760562E+02  0.46216574136E+02 -0.31864731034E+03  0.32239278949E+03  0.00000000000E+00 0. -1.
          1    1    1    2  502    0  0.65525881174E+02  0.19864520181E+02  0.18297567215E+04  0.18310373836E+04  0.00000000000E+00 0. -1.
         22    1    3    3    0    0  0.61818801370E+01  0.99049709564E+01 -0.20807885519E+02  0.23859844749E+02  0.00000000000E+00 0. -1.
         22    1    3    3    0    0 -0.87987521873E+02 -0.75986065274E+02  0.12087710727E+03  0.16771094533E+03  0.00000000000E+00 0. -1.
</event>
<event>
 7    1  0.5452757E-006  0.7384850E+02  0.7818608E-02  0.1410402E+00
          2   -1    0    0  502    0  0.00000000000E+00  0.00000000000E+00  0.15303856615E+04  0.15303856615E+04  0.00000000000E+00 0. -1.
          1   -1    0    0  501    0 -0.00000000000E+00 -0.00000000000E+00 -0.11774528485E+04  0.11774528485E+04  0.00000000000E+00 0. -1.
         25    2    1    2    0    0 -0.70414601345E+02 -0.94175364107E+02  0.87832227477E+02  0.19279015650E+03  0.12500531577E+03 0.  0.
          2    1    1    2  501    0  0.42770528273E+02  0.59742771954E+02 -0.11234228439E+04  0.11258229893E+04  0.00000000000E+00 0. -1.
          1    1    1    2  502    0  0.27644073072E+02  0.34432592153E+02  0.13885234295E+04  0.13892253642E+04  0.00000000000E+00 0. -1.
         22    1    3    3    0    0 -0.71235979178E+02 -0.74808613023E+02  0.46776110681E+00  0.10330107508E+03  0.00000000000E+00 0. -1.
         22    1    3    3    0    0  0.82137783320E+00 -0.19366751085E+02  0.87364466370E+02  0.89489081419E+02  0.00000000000E+00 0. -1.
</event>
<event>
 7    1  0.5452757E-006  0.5974284E+02  0.7818608E-02  0.1440335E+00
          2   -1    0    0  502    0  0.00000000000E+00  0.00000000000E+00  0.84857646651E+03  0.84857646651E+03  0.00000000000E+00 0. -1.
          1   -1    0    0  501    0 -0.00000000000E+00 -0.00000000000E+00 -0.33298464247E+03  0.33298464247E+03  0.00000000000E+00 0. -1.
         25    2    1    2    0    0  0.68979328223E+01  0.48718924926E+02  0.61497323609E+03  0.62947520507E+03  0.12500335021E+03 0.  0.
          2    1    1    2  501    0 -0.40162873996E+02  0.16538107666E+02 -0.31829431087E+03  0.32124419650E+03  0.00000000000E+00 0. -1.
          1    1    1    2  502    0  0.33264941173E+02 -0.65257032591E+02  0.21891289882E+03  0.23084170742E+03  0.00000000000E+00 0. -1.
         22    1    3    3    0    0 -0.99661590153E+01  0.64958099738E+02  0.59523879275E+03  0.59885565827E+03  0.00000000000E+00 0. -1.
         22    1    3    3    0    0  0.16864091838E+02 -0.16239174813E+02  0.19734443340E+02  0.30619546797E+02  0.00000000000E+00 0. -1.
</event>
<event>
 7    1  0.5452757E-006  0.1067924E+03  0.7818608E-02  0.1372211E+00
          2   -1    0    0  502    0  0.00000000000E+00  0.00000000000E+00  0.13104026528E+04  0.13104026528E+04  0.00000000000E+00 0. -1.
          1   -1    0    0  501    0 -0.00000000000E+00 -0.00000000000E+00 -0.66588613351E+03  0.66588613351E+03  0.00000000000E+00 0. -1.
         25    2    1    2    0    0 -0.14087758900E+03 -0.86071609656E+01  0.85546391058E+02  0.20703719414E+03  0.12500254570E+03 0.  0.
          2    1    1    2  501    0  0.10277598150E+03  0.25004128983E+02 -0.60014480446E+03  0.60939469571E+03  0.00000000000E+00 0. -1.
          1    1    1    2  502    0  0.38101607505E+02 -0.16396968018E+02  0.11591149327E+04  0.11598568965E+04  0.00000000000E+00 0. -1.
         22    1    3    3    0    0 -0.83152005778E+02  0.51848207601E+02  0.73698088185E+02  0.12261280887E+03  0.00000000000E+00 0. -1.
         22    1    3    3    0    0 -0.57725583225E+02 -0.60455368567E+02  0.11848302873E+02  0.84424385270E+02  0.00000000000E+00 0. -1.
</event>
<event>
 7    1  0.5452757E-006  0.1348070E+03  0.7818608E-02  0.1238130E+00
          2   -1    0    0  502    0  0.00000000000E+00  0.00000000000E+00  0.15363879593E+04  0.15363879593E+04  0.00000000000E+00 0. -1.
          1   -1    0    0  501    0 -0.00000000000E+00 -0.00000000000E+00 -0.21827146730E+03  0.21827146730E+03  0.00000000000E+00 0. -1.
         25    2    1    2    0    0  0.93568083527E+02 -0.24399429081E+02  0.10385798033E+03  0.18911845385E+03  0.12501596345E+03 0.  0.
          2    1    1    2  501    0 -0.38506437858E+02 -0.10553378038E+03 -0.15366934382E+03  0.19035333406E+03  0.00000000000E+00 0. -1.
          1    1    1    2  502    0 -0.55061645669E+02  0.12993320946E+03  0.13679278555E+04  0.13751876387E+04  0.00000000000E+00 0. -1.
         22    1    3    3    0    0  0.39675710819E+02 -0.63663453711E+02  0.12552442414E+02  0.76057617488E+02  0.00000000000E+00 0. -1.
         22    1    3    3    0    0  0.53892372708E+02  0.39264024630E+02  0.91305537913E+02  0.11306083637E+03  0.00000000000E+00 0. -1.
</event>
<event>
 7    1  0.5452757E-006  0.5607275E+02  0.7818608E-02  0.1469853E+00
          2   -1    0    0  502    0  0.00000000000E+00  0.00000000000E+00  0.27273712895E+03  0.27273712895E+03  0.00000000000E+00 0. -1.
          1   -1    0    0  501    0 -0.00000000000E+00 -0.00000000000E+00 -0.26502761852E+03  0.26502761852E+03  0.00000000000E+00 0. -1.
         25    2    1    2    0    0  0.23572108087E+02 -0.33588901382E+02 -0.86654569884E+02  0.15753671245E+03  0.12499977084E+03 0.  0.
          2    1    1    2  501    0  0.26390653951E+01  0.60113204106E+02 -0.13502627629E+03  0.14782644304E+03  0.00000000000E+00 0. -1.
          1    1    1    2  502    0 -0.26211173482E+02 -0.26524302724E+02  0.22939035661E+03  0.23240159198E+03  0.00000000000E+00 0. -1.
         22    1    3    3    0    0 -0.83654434073E+01 -0.68879541117E+02 -0.14163466247E+02  0.70816492458E+02  0.00000000000E+00 0. -1.
         22    1    3    3    0    0  0.31937551494E+02  0.35290639735E+02 -0.72491103637E+02  0.86720219988E+02  0.00000000000E+00 0. -1.
</event>
<event>
 7    1  0.5452757E-006  0.1450976E+03  0.7818608E-02  0.1242281E+00
          2   -1    0    0  502    0  0.00000000000E+00  0.00000000000E+00  0.10304669226E+04  0.10304669226E+04  0.00000000000E+00 0. -1.
          1   -1    0    0  501    0 -0.00000000000E+00 -0.00000000000E+00 -0.36795350591E+03  0.36795350591E+03  0.00000000000E+00 0. -1.
         25    2    1    2    0    0 -0.20857266304E+03  0.33579525242E+02  0.91283400436E+02  0.26188860257E+03  0.12499136240E+03 0.  0.
          2    1    1    2  501    0  0.13563416736E+03  0.34926758457E+02 -0.26212161033E+03  0.29719395083E+03  0.00000000000E+00 0. -1.
          1    1    1    2  502    0  0.72938495685E+02 -0.68506283699E+02  0.83335162663E+03  0.83933787515E+03  0.00000000000E+00 0. -1.
         22    1    3    3    0    0 -0.14783271997E+01  0.79126082671E+01 -0.22717015982E+02  0.24100988279E+02  0.00000000000E+00 0. -1.
         22    1    3    3    0    0 -0.20709433584E+03  0.25666916975E+02  0.11400041642E+03  0.23778761429E+03  0.00000000000E+00 0. -1.
</event>
<event>
 7    1  0.1120994E-005  0.7812955E+02  0.7818608E-02  0.1367184E+00
          2   -1    0    0  502    0  0.00000000000E+00  0.00000000000E+00  0.16020257725E+04  0.16020257725E+04  0.00000000000E+00 0. -1.
          1   -1    0    0  501    0 -0.00000000000E+00 -0.00000000000E+00 -0.11120329872E+04  0.11120329872E+04  0.00000000000E+00 0. -1.
         25    2    1    2    0    0  0.13399979845E+03  0.12698094887E+02 -0.20353653645E+03  0.27416100253E+03  0.12497978253E+03 0.  0.
          2    1    1    2  501    0 -0.75291200887E+02 -0.58431448049E+01 -0.87099231411E+03  0.87425998337E+03  0.00000000000E+00 0. -1.
          1    1    1    2  502    0 -0.58708597567E+02 -0.68549500822E+01  0.15645216359E+04  0.15656377738E+04  0.00000000000E+00 0. -1.
         22    1    3    3    0    0  0.62095552919E+02  0.26117506729E+02 -0.11075535923E+02  0.68268948622E+02  0.00000000000E+00 0. -1.
         22    1    3    3    0    0  0.71904245535E+02 -0.13419411842E+02 -0.19246100053E+03  0.20589205391E+03  0.00000000000E+00 0. -1.
</event>
<event>
 7    1  0.5452757E-006  0.1052561E+03  0.7818608E-02  0.1431235E+00
          2   -1    0    0  502    0  0.00000000000E+00  0.00000000000E+00  0.56008261525E+03  0.56008261525E+03  0.00000000000E+00 0. -1.
          1   -1    0    0  501    0 -0.00000000000E+00 -0.00000000000E+00 -0.26645490083E+03  0.26645490083E+03  0.00000000000E+00 0. -1.
         25    2    1    2    0    0 -0.83916336080E+02  0.97013325768E+02  0.25724820515E+03  0.31345793318E+03  0.12500279989E+03 0.  0.
          2    1    1    2  501    0  0.60335887272E+02 -0.85144473412E+02 -0.22623419190E+03  0.24914234933E+03  0.00000000000E+00 0. -1.
          1    1    1    2  502    0  0.23580448808E+02 -0.11868852356E+02  0.26261370117E+03  0.26393723357E+03  0.00000000000E+00 0. -1.
         22    1    3    3    0    0  0.22698238360E+02  0.54280642114E+02  0.12592347900E+03  0.13899036188E+03  0.00000000000E+00 0.  1.
         22    1    3    3    0    0 -0.10661457444E+03  0.42732683654E+02  0.13132472616E+03  0.17446757130E+03  0.00000000000E+00 0.  1.
</event>
<event>
 7    1  0.5452757E-006  0.6250649E+02  0.7818608E-02  0.1410936E+00
          2   -1    0    0  502    0  0.00000000000E+00  0.00000000000E+00  0.85905083271E+03  0.85905083271E+03  0.00000000000E+00 0. -1.
          1   -1    0    0  501    0 -0.00000000000E+00 -0.00000000000E+00 -0.65870119507E+02  0.65870119507E+02  0.00000000000E+00 0. -1.
         25    2    1    2    0    0 -0.33209585841E+02 -0.83879637944E+02  0.41384533163E+03  0.44162309780E+03  0.12499732693E+03 0.  0.
          2    1    1    2  501    0  0.51022949107E+02  0.35076909115E+02 -0.31307136731E+02  0.69382041617E+02  0.00000000000E+00 0. -1.
          1    1    1    2  502    0 -0.17813363267E+02  0.48802728829E+02  0.41064251830E+03  0.41391581281E+03  0.00000000000E+00 0. -1.
         22    1    3    3    0    0 -0.44549907292E+02 -0.19757490571E+02  0.42656905041E+02  0.64766227473E+02  0.00000000000E+00 0.  1.
         22    1    3    3    0    0  0.11340321451E+02 -0.64122147373E+02  0.37118842659E+03  0.37685687032E+03  0.00000000000E+00 0.  1.
</event>
<event>
 7    1  0.6805847E-006  0.9113947E+02  0.7818608E-02  0.1413903E+00
          2   -1    0    0  502    0  0.00000000000E+00  0.00000000000E+00  0.14879038559E+04  0.14879038559E+04  0.00000000000E+00 0. -1.
          1   -1    0    0  501    0 -0.00000000000E+00 -0.00000000000E+00 -0.48697187329E+03  0.48697187329E+03  0.00000000000E+00 0. -1.
         25    2    1    2    0    0 -0.31970772120E+02  0.94535190163E+02 -0.18716521460E+03  0.24620247214E+03  0.12500322908E+03 0.  0.
          2    1    1    2  501    0  0.34646353744E+02 -0.34511800465E+01 -0.26773630342E+03  0.26999075658E+03  0.00000000000E+00 0. -1.
          1    1    1    2  502    0 -0.26755816245E+01 -0.91084010117E+02  0.14558335006E+04  0.14586825005E+04  0.00000000000E+00 0. -1.
         22    1    3    3    0    0 -0.49050789675E+02  0.11969418012E+01 -0.12087037155E+03  0.13044945135E+03  0.00000000000E+00 0.  1.
         22    1    3    3    0    0  0.17080017556E+02  0.93338248362E+02 -0.66294843045E+02  0.11575302079E+03  0.00000000000E+00 0.  1.
</event>
<event>
 7    1  0.5452757E-006  0.2828485E+02  0.7818608E-02  0.1629265E+00
          2   -1    0    0  502    0  0.00000000000E+00  0.00000000000E+00  0.17117033253E+04  0.17117033253E+04  0.00000000000E+00 0. -1.
          1   -1    0    0  501    0 -0.00000000000E+00 -0.00000000000E+00 -0.30669244127E+03  0.30669244127E+03  0.00000000000E+00 0. -1.
         25    2    1    2    0    0  0.38738613926E+01 -0.15424625532E+02  0.59792786940E+03  0.61106094615E+03  0.12499926814E+03 0.  0.
          2    1    1    2  501    0  0.24509993468E+02  0.99771758472E+01 -0.29935350244E+03  0.30052088653E+03  0.00000000000E+00 0. -1.
          1    1    1    2  502    0 -0.28383854860E+02  0.54474496848E+01  0.11064365170E+04  0.11068139338E+04  0.00000000000E+00 0. -1.
         22    1    3    3    0    0  0.49316556382E+02 -0.44224714970E+02  0.23464752594E+03  0.24381839467E+03  0.00000000000E+00 0. -1.
         22    1    3    3    0    0 -0.45442694989E+02  0.28800089438E+02  0.36328034345E+03  0.36724255148E+03  0.00000000000E+00 0. -1.
</event>
<event>
 7    1  0.5452757E-006  0.5158262E+02  0.7818608E-02  0.1556994E+00
          2   -1    0    0  502    0  0.00000000000E+00  0.00000000000E+00  0.17670496634E+04  0.17670496634E+04  0.00000000000E+00 0. -1.
          1   -1    0    0  501    0 -0.00000000000E+00 -0.00000000000E+00 -0.54718139798E+03  0.54718139798E+03  0.00000000000E+00 0. -1.
         25    2    1    2    0    0  0.21247914779E+02  0.70888494589E+02  0.11319738513E+04  0.11412564683E+04  0.12499949550E+03 0.  0.
          2    1    1    2  501    0 -0.16115566595E+02 -0.48975149584E+02 -0.54111345422E+03  0.54356420697E+03  0.00000000000E+00 0. -1.
          1    1    1    2  502    0 -0.51323481837E+01 -0.21913345004E+02  0.62900786832E+03  0.62941038607E+03  0.00000000000E+00 0. -1.
         22    1    3    3    0    0 -0.32979575650E+02 -0.19148857211E+02  0.39286698469E+03  0.39471356552E+03  0.00000000000E+00 0. -1.
         22    1    3    3    0    0  0.54227490429E+02  0.90037351799E+02  0.73910686663E+03  0.74654290281E+03  0.00000000000E+00 0. -1.
</event>
<event>
 7    1  0.5452757E-006  0.6465819E+02  0.7818608E-02  0.1387791E+00
          2   -1    0    0  502    0  0.00000000000E+00  0.00000000000E+00  0.90590979388E+03  0.90590979388E+03  0.00000000000E+00 0. -1.
          1   -1    0    0  501    0 -0.00000000000E+00 -0.00000000000E+00 -0.15499207686E+03  0.15499207686E+03  0.00000000000E+00 0. -1.
         25    2    1    2    0    0 -0.56199761499E+01 -0.12221384842E+03  0.71916224662E+02  0.18911548608E+03  0.12499965931E+03 0.  0.
          2    1    1    2  501    0 -0.64862611528E+01  0.59985788883E+02 -0.85508690949E+02  0.10465229419E+03  0.00000000000E+00 0. -1.
          1    1    1    2  502    0  0.12106237303E+02  0.62228059536E+02  0.76451018331E+03  0.76713409047E+03  0.00000000000E+00 0. -1.
         22    1    3    3    0    0  0.60888925617E+00 -0.11878773345E+03  0.10300216719E+03  0.15722704224E+03  0.00000000000E+00 0.  1.
         22    1    3    3    0    0 -0.62288654060E+01 -0.34261149642E+01 -0.31085942523E+02  0.31888443840E+02  0.00000000000E+00 0.  1.
</event>
<event>
 7    1  0.5452757E-006  0.7553343E+02  0.7818608E-02  0.1493626E+00
          2   -1    0    0  502    0  0.00000000000E+00  0.00000000000E+00  0.12502607443E+04  0.12502607443E+04  0.00000000000E+00 0. -1.
          1   -1    0    0  501    0 -0.00000000000E+00 -0.00000000000E+00 -0.19923800840E+04  0.19923800840E+04  0.00000000000E+00 0. -1.
         25    2    1    2    0    0  0.52417029423E+02 -0.20905068882E+00  0.20995710700E+03  0.24990974485E+03  0.12500122045E+03 0.  0.
          2    1    1    2  501    0 -0.75521944411E+02 -0.35745768276E+01 -0.19715447722E+04  0.19729939509E+04  0.00000000000E+00 0. -1.
          1    1    1    2  502    0  0.23104914988E+02  0.37836275164E+01  0.10194683254E+04  0.10197371326E+04  0.00000000000E+00 0. -1.
         22    1    3    3    0    0  0.36403710060E+02  0.59975379959E+02  0.13750752882E+03  0.15437161912E+03  0.00000000000E+00 0.  1.
         22    1    3    3    0    0  0.16013319364E+02 -0.60184430648E+02  0.72449578188E+02  0.95538125736E+02  0.00000000000E+00 0.  1.
</event>
<event>
 7    1  0.5452757E-006  0.6623037E+02  0.7818608E-02  0.1487928E+00
          2   -1    0    0  502    0  0.00000000000E+00  0.00000000000E+00  0.11730150183E+03  0.11730150183E+03  0.00000000000E+00 0. -1.
          1   -1    0    0  501    0 -0.00000000000E+00 -0.00000000000E+00 -0.98184727226E+03  0.98184727226E+03  0.00000000000E+00 0. -1.
         25    2    1    2    0    0  0.29984788274E+01  0.86496621577E+02 -0.38659849977E+03  0.41541789684E+03  0.12499189003E+03 0.  0.
          2    1    1    2  501    0  0.11642510369E+02 -0.62886308210E+02 -0.57716474755E+03  0.58069732359E+03  0.00000000000E+00 0. -1.
          1    1    1    2  502    0 -0.14640989196E+02 -0.23610313367E+02  0.99217476886E+02  0.10303355367E+03  0.00000000000E+00 0. -1.
         22    1    3    3    0    0  0.66320578573E+01  0.95981850733E+02 -0.39219312513E+03  0.40382167755E+03  0.00000000000E+00 0.  1.
         22    1    3    3    0    0 -0.36335790299E+01 -0.94852291559E+01  0.55946253656E+01  0.11596219284E+02  0.00000000000E+00 0.  1.
</event>
<event>
 7    1  0.5452757E-006  0.5104654E+02  0.7818608E-02  0.1568730E+00
          2   -1    0    0  502    0  0.00000000000E+00  0.00000000000E+00  0.34821410539E+03  0.34821410539E+03  0.00000000000E+00 0. -1.
          1   -1    0    0  501    0 -0.00000000000E+00 -0.00000000000E+00 -0.90883129462E+03  0.90883129462E+03  0.00000000000E+00 0. -1.
         25    2    1    2    0    0  0.14595243417E+02 -0.69815644990E+02  0.11847834701E+03  0.18641280722E+03  0.12500148228E+03 0.  0.
          2    1    1    2  501    0 -0.57939021771E+01  0.50618750623E+02 -0.87355010149E+03  0.87503463190E+03  0.00000000000E+00 0. -1.
          1    1    1    2  502    0 -0.88013412403E+01  0.19196894366E+02  0.19445456524E+03  0.19559796089E+03  0.00000000000E+00 0. -1.
         22    1    3    3    0    0  0.59179112288E+02 -0.33297402967E+02  0.10839347020E+03  0.12790632806E+03  0.00000000000E+00 0. -1.
         22    1    3    3    0    0 -0.44583868871E+02 -0.36518242023E+02  0.10084876810E+02  0.58506479164E+02  0.00000000000E+00 0. -1.
</event>
<event>
 7    1  0.5452757E-006  0.6593913E+02  0.7818608E-02  0.1395435E+00
          2   -1    0    0  502    0  0.00000000000E+00  0.00000000000E+00  0.92128384279E+03  0.92128384279E+03  0.00000000000E+00 0. -1.
          1   -1    0    0  501    0 -0.00000000000E+00 -0.00000000000E+00 -0.26770497451E+02  0.26770497451E+02  0.00000000000E+00 0. -1.
         25    2    1    2    0    0 -0.22219166189E+02  0.87080250451E+01  0.36663349904E+03  0.38809082974E+03  0.12499939383E+03 0.  0.
          2    1    1    2  501    0 -0.11675071057E+02 -0.65269053102E+02  0.66542151143E+02  0.93937290017E+02  0.00000000000E+00 0. -1.
          1    1    1    2  502    0  0.33894237246E+02  0.56561028057E+02  0.46133769515E+03  0.46602622048E+03  0.00000000000E+00 0. -1.
         22    1    3    3    0    0  0.36323378659E+02 -0.24661834475E+02  0.61244122411E+02  0.75355400913E+02  0.00000000000E+00 0. -1.
         22    1    3    3    0    0 -0.58542544848E+02  0.33369859521E+02  0.30538937663E+03  0.31273542882E+03  0.00000000000E+00 0. -1.
</event>
<event>
 7    1  0.5452757E-006  0.8736889E+02  0.7818608E-02  0.1383688E+00
          2   -1    0    0  502    0  0.00000000000E+00  0.00000000000E+00  0.54765686463E+03  0.54765686463E+03  0.00000000000E+00 0. -1.
          1   -1    0    0  501    0 -0.00000000000E+00 -0.00000000000E+00 -0.19005239983E+03  0.19005239983E+03  0.00000000000E+00 0. -1.
         25    2    1    2    0    0  0.74336401713E+02 -0.32864969080E+02  0.42650046022E+02  0.15508109703E+03  0.12500045367E+03 0.  0.
          2    1    1    2  501    0 -0.89210617460E+02 -0.10831031734E+02 -0.11738335836E+03  0.14783334649E+03  0.00000000000E+00 0. -1.
          1    1    1    2  502    0  0.14874215747E+02  0.43696000814E+02  0.43233777713E+03  0.43479482094E+03  0.00000000000E+00 0. -1.
         22    1    3    3    0    0  0.50521611755E+02 -0.58451477689E+02 -0.23081455855E+02  0.80633504840E+02  0.00000000000E+00 0. -1.
         22    1    3    3    0    0  0.23814789959E+02  0.25586508609E+02  0.65731501877E+02  0.74447592188E+02  0.00000000000E+00 0. -1.
</event>
<event>
 7    1  0.5452757E-006  0.9714447E+02  0.7818608E-02  0.1398524E+00
          2   -1    0    0  502    0  0.00000000000E+00  0.00000000000E+00  0.54694248913E+03  0.54694248913E+03  0.00000000000E+00 0. -1.
          1   -1    0    0  501    0 -0.00000000000E+00 -0.00000000000E+00 -0.78730875996E+03  0.78730875996E+03  0.00000000000E+00 0. -1.
         25    2    1    2    0    0 -0.70577752494E+01  0.84453509191E+02 -0.33109329100E+03  0.36390857669E+03  0.12499790973E+03 0.  0.
          2    1    1    2  501    0  0.42687645142E+02 -0.93877241483E+02 -0.43310611470E+03  0.44521464273E+03  0.00000000000E+00 0. -1.
          1    1    1    2  502    0 -0.35629869892E+02  0.94237322919E+01  0.52383313487E+03  0.52512802967E+03  0.00000000000E+00 0. -1.
         22    1    3    3    0    0 -0.53190051834E+02  0.56842399725E+02 -0.27664500072E+03  0.28738945082E+03  0.00000000000E+00 0.  1.
         22    1    3    3    0    0  0.46132276585E+02  0.27611109467E+02 -0.54448290277E+02  0.76519125864E+02  0.00000000000E+00 0.  1.
</event>
<event>
 7    1  0.5452757E-006  0.2870603E+03  0.7818608E-02  0.1093717E+00
          2   -1    0    0  502    0  0.00000000000E+00  0.00000000000E+00  0.10900430019E+04  0.10900430019E+04  0.00000000000E+00 0. -1.
          1   -1    0    0  501    0 -0.00000000000E+00 -0.00000000000E+00 -0.13436642047E+04  0.13436642047E+04  0.00000000000E+00 0. -1.
         25    2    1    2    0    0  0.31042487319E+02 -0.11559955857E+03 -0.11532454848E+03  0.20796969880E+03  0.12499900070E+03 0.  0.
          2    1    1    2  501    0 -0.18306455582E+03  0.35910092002E+03 -0.11266287870E+04  0.11965611251E+04  0.00000000000E+00 0. -1.
          1    1    1    2  502    0  0.15202206850E+03 -0.24350136145E+03  0.98833213263E+03  0.10291763827E+04  0.00000000000E+00 0. -1.
         22    1    3    3    0    0 -0.34867643024E+01 -0.12468639531E+03 -0.51727899595E+02  0.13503566306E+03  0.00000000000E+00 0. -1.
         22    1    3    3    0    0  0.34529251621E+02  0.90868367456E+01 -0.63596648890E+02  0.72934035742E+02  0.00000000000E+00 0. -1.
</event>
<event>
 7    1  0.5452757E-006  0.9177049E+02  0.7818608E-02  0.1306956E+00
          2   -1    0    0  502    0  0.00000000000E+00  0.00000000000E+00  0.71450090037E+02  0.71450090037E+02  0.00000000000E+00 0. -1.
          1   -1    0    0  501    0 -0.00000000000E+00 -0.00000000000E+00 -0.14786230719E+04  0.14786230719E+04  0.00000000000E+00 0. -1.
         25    2    1    2    0    0 -0.27058037589E+02  0.13567707244E+03 -0.61956118137E+03  0.64700962489E+03  0.12499996740E+03 0.  0.
          2    1    1    2  501    0  0.64282292235E+02 -0.59248893464E+02 -0.81035949181E+03  0.81506143967E+03  0.00000000000E+00 0. -1.
          1    1    1    2  502    0 -0.37224254645E+02 -0.76428178981E+02  0.22747691348E+02  0.88002097349E+02  0.00000000000E+00 0. -1.
         22    1    3    3    0    0 -0.64759370057E+01  0.55543362842E+01 -0.31574667914E+03  0.31586192205E+03  0.00000000000E+00 0. -1.
         22    1    3    3    0    0 -0.20582100584E+02  0.13012273616E+03 -0.30381450223E+03  0.33114770284E+03  0.00000000000E+00 0. -1.
</event>
<event>
 7    1  0.5452757E-006  0.4419154E+02  0.7818608E-02  0.1528630E+00
          2   -1    0    0  502    0  0.00000000000E+00  0.00000000000E+00  0.18865831402E+03  0.18865831402E+03  0.00000000000E+00 0. -1.
          1   -1    0    0  501    0 -0.00000000000E+00 -0.00000000000E+00 -0.95249893278E+03  0.95249893278E+03  0.00000000000E+00 0. -1.
         25    2    1    2    0    0  0.45455339004E+02 -0.22530318005E+02 -0.99391079551E+02  0.16756447759E+03  0.12500185752E+03 0.  0.
          2    1    1    2  501    0 -0.26337828512E+02 -0.17417361778E+02 -0.81553719713E+03  0.81614824977E+03  0.00000000000E+00 0. -1.
          1    1    1    2  502    0 -0.19117510492E+02  0.39947679783E+02  0.15108765792E+03  0.15744451945E+03  0.00000000000E+00 0. -1.
         22    1    3    3    0    0 -0.19841564690E+02  0.10909108857E+02  0.18142615306E+02  0.29014665870E+02  0.00000000000E+00 0.  1.
         22    1    3    3    0    0  0.65296903694E+02 -0.33439426862E+02 -0.11753369486E+03  0.13854981172E+03  0.00000000000E+00 0.  1.
</event>
<event>
 7    1  0.5452757E-006  0.9032650E+02  0.7818608E-02  0.1391461E+00
          2   -1    0    0  502    0  0.00000000000E+00  0.00000000000E+00  0.21636051740E+04  0.21636051740E+04  0.00000000000E+00 0. -1.
          1   -1    0    0  501    0 -0.00000000000E+00 -0.00000000000E+00 -0.13024674460E+04  0.13024674460E+04  0.00000000000E+00 0. -1.
         25    2    1    2    0    0 -0.50200806937E+02  0.26056174009E+02  0.81296012403E+02  0.15947576022E+03  0.12499772496E+03 0.  0.
          2    1    1    2  501    0  0.89940098034E+02 -0.12667023148E+02 -0.12615294970E+04  0.12647949820E+04  0.00000000000E+00 0. -1.
          1    1    1    2  502    0 -0.39739291097E+02 -0.13389150861E+02  0.20413712126E+04  0.20418018778E+04  0.00000000000E+00 0. -1.
         22    1    3    3    0    0  0.32022352617E+02 -0.21171676184E+01 -0.98121631403E+01  0.33558784414E+02  0.00000000000E+00 0.  1.
         22    1    3    3    0    0 -0.82223159554E+02  0.28173341627E+02  0.91108175543E+02  0.12591697581E+03  0.00000000000E+00 0.  1.
</event>
<event>
 7    1  0.5452757E-006  0.4799791E+02  0.7818608E-02  0.1485773E+00
          2   -1    0    0  502    0  0.00000000000E+00  0.00000000000E+00  0.94056780776E+03  0.94056780776E+03  0.00000000000E+00 0. -1.
          1   -1    0    0  501    0 -0.00000000000E+00 -0.00000000000E+00 -0.36710063404E+03  0.36710063404E+03  0.00000000000E+00 0. -1.
         25    2    1    2    0    0  0.12686864450E+02 -0.46342758951E+00 -0.24857661461E+03  0.27852645868E+03  0.12500193423E+03 0.  0.
          2    1    1    2  501    0 -0.27392473787E+02  0.46153084964E+02 -0.95925421716E+02  0.10991879459E+03  0.00000000000E+00 0. -1.
          1    1    1    2  502    0  0.14705609337E+02 -0.45689657374E+02  0.91796921005E+03  0.91922318853E+03  0.00000000000E+00 0. -1.
         22    1    3    3    0    0 -0.13545715041E+02 -0.41737006661E+02 -0.26789366232E+02  0.51411421534E+02  0.00000000000E+00 0.  1.
         22    1    3    3    0    0  0.26232579491E+02  0.41273579072E+02 -0.22178724838E+03  0.22711503715E+03  0.00000000000E+00 0.  1.
</event>
<event>
 7    1  0.5452757E-006  0.7427623E+02  0.7818608E-02  0.1370118E+00
          2   -1    0    0  502    0  0.00000000000E+00  0.00000000000E+00  0.50162240817E+03  0.50162240817E+03  0.00000000000E+00 0. -1.
          1   -1    0    0  501    0 -0.00000000000E+00 -0.00000000000E+00 -0.33661704640E+03  0.33661704640E+03  0.00000000000E+00 0. -1.
         25    2    1    2    0    0 -0.15290127394E+02  0.62716295589E+01 -0.10691538104E+03  0.16530745572E+03  0.12499013913E+03 0.  0.
          2    1    1    2  501    0 -0.18635761932E+02 -0.72347283300E+02 -0.19047824012E+03  0.20460542755E+03  0.00000000000E+00 0. -1.
          1    1    1    2  502    0  0.33925889326E+02  0.66075653741E+02  0.46239898293E+03  0.46832657131E+03  0.00000000000E+00 0. -1.
         22    1    3    3    0    0  0.18830776638E+02  0.88769088916E+01 -0.12491789928E+03  0.12664074866E+03  0.00000000000E+00 0. -1.
         22    1    3    3    0    0 -0.34120904031E+02 -0.26052793327E+01  0.18002518237E+02  0.38666707064E+02  0.00000000000E+00 0. -1.
</event>
<event>
 7    1  0.5452757E-006  0.1845130E+03  0.7818608E-02  0.1227935E+00
          2   -1    0    0  502    0  0.00000000000E+00  0.00000000000E+00  0.54164489963E+03  0.54164489963E+03  0.00000000000E+00 0. -1.
          1   -1    0    0  501    0 -0.00000000000E+00 -0.00000000000E+00 -0.10882448532E+04  0.10882448532E+04  0.00000000000E+00 0. -1.
         25    2    1    2    0    0 -0.14498984610E+03 -0.18952225663E+03 -0.31508733438E+03  0.41454124583E+03  0.12499469981E+03 0.  0.
          2    1    1    2  501    0  0.89819589208E+02  0.15447158134E+02 -0.70344211049E+03  0.70932148995E+03  0.00000000000E+00 0. -1.
          1    1    1    2  502    0  0.55170256897E+02  0.17407509850E+03  0.47192949133E+03  0.50602701702E+03  0.00000000000E+00 0. -1.
         22    1    3    3    0    0 -0.28310585314E+02 -0.56997697198E+02 -0.13484356967E+02  0.65054243594E+02  0.00000000000E+00 0.  1.
         22    1    3    3    0    0 -0.11667926079E+03 -0.13252455943E+03 -0.30160297741E+03  0.34948700224E+03  0.00000000000E+00 0.  1.
</event>
<event>
 7    1  0.5452757E-006  0.1822418E+03  0.7818608E-02  0.1277060E+00
          2   -1    0    0  502    0  0.00000000000E+00  0.00000000000E+00  0.21225833119E+03  0.21225833119E+03  0.00000000000E+00 0. -1.
          1   -1    0    0  501    0 -0.00000000000E+00 -0.00000000000E+00 -0.27193495432E+03  0.27193495432E+03  0.00000000000E+00 0. -1.
         25    2    1    2    0    0  0.18542661918E+03  0.95979489679E+01 -0.92861281581E+02  0.24233378105E+03  0.12500916805E+03 0.  0.
          2    1    1    2  501    0 -0.17643696539E+03  0.46275343328E+02  0.32415307285E+02  0.18526241471E+03  0.00000000000E+00 0. -1.
          1    1    1    2  502    0 -0.89896537857E+01 -0.55873292295E+02  0.76935116005E+00  0.56597089751E+02  0.00000000000E+00 0. -1.
         22    1    3    3    0    0 -0.17701028942E+01  0.28584503570E+02 -0.35531475193E+02  0.45636529645E+02  0.00000000000E+00 0.  1.
         22    1    3    3    0    0  0.18719672207E+03 -0.18986554602E+02 -0.57329806388E+02  0.19669725141E+03  0.00000000000E+00 0.  1.
</event>
<event>
 7    1  0.5452757E-006  0.6598427E+02  0.7818608E-02  0.1497207E+00
          2   -1    0    0  502    0  0.00000000000E+00  0.00000000000E+00  0.19862921087E+02  0.19862921087E+02  0.00000000000E+00 0. -1.
          1   -1    0    0  501    0 -0.00000000000E+00 -0.00000000000E+00 -0.17744657232E+04  0.17744657232E+04  0.00000000000E+00 0. -1.
         25    2    1    2    0    0  0.43143065354E+02  0.31696906927E+02 -0.77128697831E+03  0.78318319160E+03  0.12500516266E+03 0.  0.
          2    1    1    2  501    0 -0.66395899920E+01  0.25288469891E+02 -0.91363920963E+03  0.91401323636E+03  0.00000000000E+00 0. -1.
          1    1    1    2  502    0 -0.36503475362E+02 -0.56985376818E+02 -0.69676614130E+02  0.97132216289E+02  0.00000000000E+00 0. -1.
         22    1    3    3    0    0  0.15925960439E+02  0.79437341024E+02 -0.46517565730E+03  0.47217827090E+03  0.00000000000E+00 0. -1.
         22    1    3    3    0    0  0.27217104915E+02 -0.47740434097E+02 -0.30611132101E+03  0.31100492069E+03  0.00000000000E+00 0. -1.
</event>
<event>
 7    1  0.5452757E-006  0.1056844E+03  0.7818608E-02  0.1334252E+00
          2   -1    0    0  502    0  0.00000000000E+00  0.00000000000E+00  0.64831799882E+03  0.64831799882E+03  0.00000000000E+00 0. -1.
          1   -1    0    0  501    0 -0.00000000000E+00 -0.00000000000E+00 -0.47786875975E+03  0.47786875975E+03  0.00000000000E+00 0. -1.
         25    2    1    2    0    0  0.25227950939E+01  0.13817750233E+03  0.20091546141E+03  0.27402829831E+03  0.12500039599E+03 0.  0.
          2    1    1    2  501    0 -0.42332884322E+02 -0.96195217248E+02 -0.43295711288E+03  0.44553053151E+03  0.00000000000E+00 0. -1.
          1    1    1    2  502    0  0.39810089229E+02 -0.41982285081E+02  0.40249089054E+03  0.40662792874E+03  0.00000000000E+00 0. -1.
         22    1    3    3    0    0  0.11591260832E+02 -0.15419735869E+02 -0.19773257471E+01  0.19391632192E+02  0.00000000000E+00 0.  1.
         22    1    3    3    0    0 -0.90684657377E+01  0.15359723820E+03  0.20289278716E+03  0.25463666612E+03  0.00000000000E+00 0.  1.
</event>
<event>
 7    1  0.5452757E-006  0.1213920E+03  0.7818608E-02  0.1287783E+00
          2   -1    0    0  502    0  0.00000000000E+00  0.00000000000E+00  0.52179952466E+03  0.52179952466E+03  0.00000000000E+00 0. -1.
          1   -1    0    0  501    0 -0.00000000000E+00 -0.00000000000E+00 -0.17837830607E+04  0.17837830607E+04  0.00000000000E+00 0. -1.
         25    2    1    2    0    0 -0.91628277961E+01 -0.19281809141E+03  0.20298624128E+03  0.30674387479E+03  0.12500246712E+03 0.  0.
          2    1    1    2  501    0  0.26113678623E+02  0.11796479963E+03 -0.17242295966E+04  0.17284574973E+04  0.00000000000E+00 0. -1.
          1    1    1    2  502    0 -0.16950850827E+02  0.74853291771E+02  0.25925981925E+03  0.27038121331E+03  0.00000000000E+00 0. -1.
         22    1    3    3    0    0 -0.28747264823E+01 -0.45314150220E+02 -0.11047267685E+02  0.46729844701E+02  0.00000000000E+00 0.  1.
         22    1    3    3    0    0 -0.62881013138E+01 -0.14750394119E+03  0.21403350896E+03  0.26001403009E+03  0.00000000000E+00 0.  1.
</event>
<event>
 7    1  0.7001396E-006  0.7028934E+02  0.7818608E-02  0.1461927E+00
          2   -1    0    0  502    0  0.00000000000E+00  0.00000000000E+00  0.60623543941E+03  0.60623543941E+03  0.00000000000E+00 0. -1.
          1   -1    0    0  501    0 -0.00000000000E+00 -0.00000000000E+00 -0.15394568064E+04  0.15394568064E+04  0.00000000000E+00 0. -1.
         25    2    1    2    0    0  0.41404059017E+02 -0.13128785633E+02 -0.22823143738E+03  0.26381987437E+03  0.12499870396E+03 0.  0.
          2    1    1    2  501    0  0.16889448866E+02 -0.26584668324E+02 -0.12911246499E+04  0.12915087532E+04  0.00000000000E+00 0. -1.
          1    1    1    2  502    0 -0.58293507883E+02  0.39713453957E+02  0.58613472025E+03  0.59036361826E+03  0.00000000000E+00 0. -1.
         22    1    3    3    0    0 -0.40934820943E+02  0.11569265296E+02 -0.47994451650E+02  0.64132478935E+02  0.00000000000E+00 0.  1.
         22    1    3    3    0    0  0.82338879959E+02 -0.24698050929E+02 -0.18023698573E+03  0.19968739544E+03  0.00000000000E+00 0.  1.
</event>
<event>
 7    1  0.5452757E-006  0.3203114E+03  0.7818608E-02  0.1163888E+00
          2   -1    0    0  502    0  0.00000000000E+00  0.00000000000E+00  0.30532915043E+04  0.30532915043E+04  0.00000000000E+00 0. -1.
          1   -1    0    0  501    0 -0.00000000000E+00 -0.00000000000E+00 -0.11526298986E+03  0.11526298986E+03  0.00000000000E+00 0. -1.
         25    2    1    2    0    0 -0.17715947274E+03  0.16072429260E+03  0.10104975205E+04  0.10459181666E+04  0.12498718041E+03 0.  0.
          2    1    1    2  501    0  0.24938556106E+03 -0.23805982324E+03  0.21388130108E+03  0.40572262503E+03  0.00000000000E+00 0. -1.
          1    1    1    2  502    0 -0.72226088314E+02  0.77335530644E+02  0.17136496929E+04  0.17169137025E+04  0.00000000000E+00 0. -1.
         22    1    3    3    0    0 -0.65130624189E+02  0.14032600934E+03  0.53038857503E+03  0.55249020590E+03  0.00000000000E+00 0.  1.
         22    1    3    3    0    0 -0.11202884855E+03  0.20398283262E+02  0.48010894543E+03  0.49342796065E+03  0.00000000000E+00 0.  1.
</event>
<event>
 7    1  0.5452757E-006  0.1037255E+03  0.7818608E-02  0.1280906E+00
          2   -1    0    0  502    0  0.00000000000E+00  0.00000000000E+00  0.78203695814E+03  0.78203695814E+03  0.00000000000E+00 0. -1.
          1   -1    0    0  501    0 -0.00000000000E+00 -0.00000000000E+00 -0.30176919995E+03  0.30176919995E+03  0.00000000000E+00 0. -1.
         25    2    1    2    0    0 -0.27842472156E+02  0.37509581448E+01  0.14970142328E+01  0.12812942578E+03  0.12500254300E+03 0.  0.
          2    1    1    2  501    0  0.12145306145E+03  0.16851396866E+02 -0.21919518150E+03  0.25115999543E+03  0.00000000000E+00 0. -1.
          1    1    1    2  502    0 -0.93610589297E+02 -0.20602355010E+02  0.69796592545E+03  0.70451673688E+03  0.00000000000E+00 0. -1.
         22    1    3    3    0    0  0.28745207870E+02  0.33994400340E+02  0.34176206186E+02  0.56124141857E+02  0.00000000000E+00 0.  1.
         22    1    3    3    0    0 -0.56587680025E+02 -0.30243442195E+02 -0.32679191954E+02  0.72005283925E+02  0.00000000000E+00 0.  1.
</event>
<event>
 7    1  0.5452757E-006  0.2010094E+03  0.7818608E-02  0.1271231E+00
          2   -1    0    0  502    0  0.00000000000E+00  0.00000000000E+00  0.10589056672E+04  0.10589056672E+04  0.00000000000E+00 0. -1.
          1   -1    0    0  501    0 -0.00000000000E+00 -0.00000000000E+00 -0.30015888063E+03  0.30015888063E+03  0.00000000000E+00 0. -1.
         25    2    1    2    0    0  0.16732643694E+03  0.20951103055E+02  0.23021545844E+03  0.31154595199E+03  0.12499855071E+03 0.  0.
          2    1    1    2  501    0  0.37030621103E+02  0.39663039095E+02 -0.24201977059E+03  0.24802820994E+03  0.00000000000E+00 0. -1.
          1    1    1    2  502    0 -0.20435705804E+03 -0.60614142151E+02  0.77055109872E+03  0.79949038589E+03  0.00000000000E+00 0. -1.
         22    1    3    3    0    0  0.25166857604E+02 -0.78284832544E+01 -0.12206995786E+02  0.29045939782E+02  0.00000000000E+00 0. -1.
         22    1    3    3    0    0  0.14215957933E+03  0.28779586310E+02  0.24242245423E+03  0.28250001221E+03  0.00000000000E+00 0. -1.
</event>
<event>
 7    1  0.5452757E-006  0.1261599E+03  0.7818608E-02  0.1243230E+00
          2   -1    0    0  502    0  0.00000000000E+00  0.00000000000E+00  0.25474958461E+04  0.25474958461E+04  0.00000000000E+00 0. -1.
          1   -1    0    0  501    0 -0.00000000000E+00 -0.00000000000E+00 -0.37421564643E+03  0.37421564643E+03  0.00000000000E+00 0. -1.
         25    2    1    2    0    0 -0.63950892075E+02  0.71556210761E+02  0.49814329419E+03  0.52247688432E+03  0.12500138082E+03 0.  0.
          2    1    1    2  501    0  0.94133392687E+02  0.64281049775E+02 -0.35063060977E+03  0.36869360380E+03  0.00000000000E+00 0. -1.
          1    1    1    2  502    0 -0.30182500613E+02 -0.13583726054E+03  0.20257675152E+04  0.20305410044E+04  0.00000000000E+00 0. -1.
         22    1    3    3    0    0 -0.95534758970E+02  0.42379457716E+02  0.25543088843E+03  0.27598523035E+03  0.00000000000E+00 0.  1.
         22    1    3    3    0    0  0.31583866895E+02  0.29176753045E+02  0.24271240577E+03  0.24649165398E+03  0.00000000000E+00 0.  1.
</event>
<event>
 7    1  0.5452757E-006  0.3818568E+02  0.7818608E-02  0.1550042E+00
          2   -1    0    0  502    0  0.00000000000E+00  0.00000000000E+00  0.14434697863E+04  0.14434697863E+04  0.00000000000E+00 0. -1.
          1   -1    0    0  501    0 -0.00000000000E+00 -0.00000000000E+00 -0.89292438695E+03  0.89292438695E+03  0.00000000000E+00 0. -1.
         25    2    1    2    0    0  0.55395423963E+02 -0.34072426698E+02  0.32806985842E+03  0.35704877285E+03  0.12499764371E+03 0.  0.
          2    1    1    2  501    0 -0.18669639167E+02  0.25723135567E+02 -0.87782511175E+03  0.87840034264E+03  0.00000000000E+00 0. -1.
          1    1    1    2  502    0 -0.36725784795E+02  0.83492911314E+01  0.11003006527E+04  0.11009450578E+04  0.00000000000E+00 0. -1.
         22    1    3    3    0    0  0.53298851552E+02  0.38637777657E+02  0.12380822319E+03  0.14022168723E+03  0.00000000000E+00 0.  1.
         22    1    3    3    0    0  0.20965724105E+01 -0.72710204355E+02  0.20426163523E+03  0.21682708563E+03  0.00000000000E+00 0.  1.
</event>
<event>
 7    1  0.5452757E-006  0.2149959E+03  0.7818608E-02  0.1304697E+00
          2   -1    0    0  502    0  0.00000000000E+00  0.00000000000E+00  0.31696230680E+03  0.31696230680E+03  0.00000000000E+00 0. -1.
          1   -1    0    0  501    0 -0.00000000000E+00 -0.00000000000E+00 -0.10674328588E+04  0.10674328588E+04  0.00000000000E+00 0. -1.
         25    2    1    2    0    0  0.96135774242E+02  0.21668115048E+03 -0.49927986721E+03  0.56665593085E+03  0.12500300037E+03 0.  0.
          2    1    1    2  501    0 -0.34988993195E+02 -0.12165302581E+02 -0.49345855752E+03  0.49484701901E+03  0.00000000000E+00 0. -1.
          1    1    1    2  502    0 -0.61146781047E+02 -0.20451584790E+03  0.24226787269E+03  0.32289221578E+03  0.00000000000E+00 0. -1.
         22    1    3    3    0    0 -0.20074238162E+02  0.25949766097E+02 -0.13854614460E+03  0.14237766532E+03  0.00000000000E+00 0. -1.
         22    1    3    3    0    0  0.11621001240E+03  0.19073138439E+03 -0.36073372262E+03  0.42427826554E+03  0.00000000000E+00 0. -1.
</event>
<event>
 7    1  0.5452757E-006  0.7058781E+02  0.7818608E-02  0.1451944E+00
          2   -1    0    0  502    0  0.00000000000E+00  0.00000000000E+00  0.51046503330E+03  0.51046503330E+03  0.00000000000E+00 0. -1.
          1   -1    0    0  501    0 -0.00000000000E+00 -0.00000000000E+00 -0.78699705108E+03  0.78699705108E+03  0.00000000000E+00 0. -1.
         25    2    1    2    0    0  0.64673733632E+02  0.66815098545E+02  0.11984999668E+03  0.19656012985E+03  0.12499965490E+03 0.  0.
          2    1    1    2  501    0 -0.62088743441E+02 -0.33181994650E+02 -0.74617380869E+03  0.74948743126E+03  0.00000000000E+00 0. -1.
          1    1    1    2  502    0 -0.25849901918E+01 -0.33633103895E+02  0.34979179424E+03  0.35141452327E+03  0.00000000000E+00 0. -1.
         22    1    3    3    0    0  0.15803328450E+02  0.79723599157E+02  0.18572777933E+02  0.83369931827E+02  0.00000000000E+00 0.  1.
         22    1    3    3    0    0  0.48870405182E+02 -0.12908500612E+02  0.10127721875E+03  0.11319019802E+03  0.00000000000E+00 0.  1.
</event>
<event>
 7    1  0.5452757E-006  0.8279716E+02  0.7818608E-02  0.1455023E+00
          2   -1    0    0  502    0  0.00000000000E+00  0.00000000000E+00  0.26998492347E+04  0.26998492347E+04  0.00000000000E+00 0. -1.
          1   -1    0    0  501    0 -0.00000000000E+00 -0.00000000000E+00 -0.11279253856E+03  0.11279253856E+03  0.00000000000E+00 0. -1.
         25    2    1    2    0    0  0.65562713670E+01 -0.10835537174E+03  0.19263632933E+04  0.19334644831E+04  0.12500199291E+03 0.  0.
          2    1    1    2  501    0  0.44313604291E+01  0.82475013544E+02 -0.93330803611E+02  0.12462906450E+03  0.00000000000E+00 0. -1.
          1    1    1    2  502    0 -0.10987631796E+02  0.25880358195E+02  0.75402420645E+03  0.75454822570E+03  0.00000000000E+00 0. -1.
         22    1    3    3    0    0 -0.36810581026E+02 -0.11565206088E+03  0.14561334243E+04  0.14611827289E+04  0.00000000000E+00 0. -1.
         22    1    3    3    0    0  0.43366852393E+02  0.72966891396E+01  0.47022986906E+03  0.47228175416E+03  0.00000000000E+00 0. -1.
</event>
<event>
 7    1  0.5452757E-006  0.5830443E+02  0.7818608E-02  0.1460904E+00
          2   -1    0    0  502    0  0.00000000000E+00  0.00000000000E+00  0.35021672551E+03  0.35021672551E+03  0.00000000000E+00 0. -1.
          1   -1    0    0  501    0 -0.00000000000E+00 -0.00000000000E+00 -0.36773168240E+03  0.36773168240E+03  0.00000000000E+00 0. -1.
         25    2    1    2    0    0 -0.70018211113E+01 -0.70215217512E+02  0.14625359234E+03  0.20492395521E+03  0.12499804749E+03 0.  0.
          2    1    1    2  501    0 -0.29004876741E+02  0.24940092899E+02 -0.33247891322E+03  0.33467225587E+03  0.00000000000E+00 0. -1.
          1    1    1    2  502    0  0.36006697852E+02  0.45275124613E+02  0.16871036400E+03  0.17835219684E+03  0.00000000000E+00 0. -1.
         22    1    3    3    0    0  0.49852341987E+02 -0.69087826293E+02  0.73031790537E+02  0.11221419773E+03  0.00000000000E+00 0.  1.
         22    1    3    3    0    0 -0.56854163098E+02 -0.11273912199E+01  0.73221801799E+02  0.92709757476E+02  0.00000000000E+00 0.  1.
</event>
<event>
 7    1  0.5452757E-006  0.3693810E+02  0.7818608E-02  0.1607523E+00
          2   -1    0    0  502    0  0.00000000000E+00  0.00000000000E+00  0.12951407413E+02  0.12951407413E+02  0.00000000000E+00 0. -1.
          1   -1    0    0  501    0 -0.00000000000E+00 -0.00000000000E+00 -0.84062408446E+03  0.84062408446E+03  0.00000000000E+00 0. -1.
         25    2    1    2    0    0  0.95957746022E+01  0.31879188045E+02 -0.60629684190E+03  0.61994491588E+03  0.12500990647E+03 0.  0.
          2    1    1    2  501    0 -0.22706902278E+02  0.38161588061E+01 -0.15839564541E+03  0.16006044784E+03  0.00000000000E+00 0. -1.
          1    1    1    2  502    0  0.13111127676E+02 -0.35695346851E+02 -0.62980189740E+02  0.73570128146E+02  0.00000000000E+00 0. -1.
         22    1    3    3    0    0  0.23499113335E+02  0.57162237658E+02 -0.57109249756E+03  0.57442699319E+03  0.00000000000E+00 0. -1.
         22    1    3    3    0    0 -0.13903338733E+02 -0.25283049614E+02 -0.35204344336E+02  0.45517922688E+02  0.00000000000E+00 0. -1.
</event>
<event>
 7    1  0.5452757E-006  0.1249679E+03  0.7818608E-02  0.1333245E+00
          2   -1    0    0  502    0  0.00000000000E+00  0.00000000000E+00  0.34301941773E+03  0.34301941773E+03  0.00000000000E+00 0. -1.
          1   -1    0    0  501    0 -0.00000000000E+00 -0.00000000000E+00 -0.38322591407E+03  0.38322591407E+03  0.00000000000E+00 0. -1.
         25    2    1    2    0    0  0.60866228604E+01 -0.14843679438E+03 -0.12153707696E+03  0.22905486530E+03  0.12499736531E+03 0.  0.
          2    1    1    2  501    0  0.30241682397E+02  0.11501788937E+03 -0.18850058965E+03  0.22288146296E+03  0.00000000000E+00 0. -1.
          1    1    1    2  502    0 -0.36328305258E+02  0.33418905010E+02  0.26983117028E+03  0.27430900355E+03  0.00000000000E+00 0. -1.
         22    1    3    3    0    0 -0.46400967979E+02 -0.12250445578E+03 -0.59891530044E+02  0.14403953237E+03  0.00000000000E+00 0. -1.
         22    1    3    3    0    0  0.52487590839E+02 -0.25932338606E+02 -0.61645546919E+02  0.85015332927E+02  0.00000000000E+00 0. -1.
</event>
<event>
 7    1  0.5452757E-006  0.1306331E+03  0.7818608E-02  0.1330395E+00
          2   -1    0    0  502    0  0.00000000000E+00  0.00000000000E+00  0.82281355517E+03  0.82281355517E+03  0.00000000000E+00 0. -1.
          1   -1    0    0  501    0 -0.00000000000E+00 -0.00000000000E+00 -0.65152326340E+03  0.65152326340E+03  0.00000000000E+00 0. -1.
         25    2    1    2    0    0  0.80122673568E+02 -0.89199042560E+02  0.13219487694E+03  0.21789162899E+03  0.12500065792E+03 0.  0.
          2    1    1    2  501    0  0.38926543451E+02  0.28790218176E+02 -0.60081251316E+03  0.60276017488E+03  0.00000000000E+00 0. -1.
          1    1    1    2  502    0 -0.11904921702E+03  0.60408824384E+02  0.63990792800E+03  0.65368501471E+03  0.00000000000E+00 0. -1.
         22    1    3    3    0    0  0.32657814811E+02 -0.87979014199E+02  0.19844081816E+02  0.95919900911E+02  0.00000000000E+00 0. -1.
         22    1    3    3    0    0  0.47464858757E+02 -0.12200283614E+01  0.11235079512E+03  0.12197172808E+03  0.00000000000E+00 0. -1.
</event>
<event>
 7    1  0.5452757E-006  0.5600345E+02  0.7818608E-02  0.1450262E+00
          2   -1    0    0  502    0  0.00000000000E+00  0.00000000000E+00  0.31658926817E+04  0.31658926817E+04  0.00000000000E+00 0. -1.
          1   -1    0    0  501    0 -0.00000000000E+00 -0.00000000000E+00 -0.25543515465E+02  0.25543515465E+02  0.00000000000E+00 0. -1.
         25    2    1    2    0    0 -0.16298411424E+02 -0.87820726578E+01  0.23986625479E+04  0.24019885497E+04  0.12499684392E+03 0.  0.
          2    1    1    2  501    0  0.24410874779E+02  0.51056759288E+02  0.11195110883E+02  0.57688941610E+02  0.00000000000E+00 0. -1.
          1    1    1    2  502    0 -0.81124633555E+01 -0.42274686630E+02  0.73049150741E+03  0.73175870585E+03  0.00000000000E+00 0. -1.
         22    1    3    3    0    0 -0.29965582485E+02 -0.29130613351E+02  0.22981592141E+04  0.22985391670E+04  0.00000000000E+00 0.  1.
         22    1    3    3    0    0  0.13667171061E+02  0.20348540693E+02  0.10050333381E+03  0.10344938270E+03  0.00000000000E+00 0.  1.
</event>
<event>
 7    1  0.5452757E-006  0.1100782E+03  0.7818608E-02  0.1325014E+00
          2   -1    0    0  502    0  0.00000000000E+00  0.00000000000E+00  0.31390546106E+02  0.31390546106E+02  0.00000000000E+00 0. -1.
          1   -1    0    0  501    0 -0.00000000000E+00 -0.00000000000E+00 -0.16176640028E+04  0.16176640028E+04  0.00000000000E+00 0. -1.
         25    2    1    2    0    0  0.49506936193E+02  0.12542837620E+03 -0.11173918168E+04  0.11324199043E+04  0.12500861206E+03 0.  0.
          2    1    1    2  501    0  0.34458740275E+01 -0.96681965167E+02 -0.43870971249E+03  0.44924991739E+03  0.00000000000E+00 0. -1.
          1    1    1    2  502    0 -0.52952810220E+02 -0.28746411032E+02 -0.30171927355E+02  0.67384727185E+02  0.00000000000E+00 0. -1.
         22    1    3    3    0    0  0.34954306890E+02  0.33624361038E+02 -0.80583161380E+03  0.80728990520E+03  0.00000000000E+00 0. -1.
         22    1    3    3    0    0  0.14552629302E+02  0.91804015161E+02 -0.31156020303E+03  0.32512999912E+03  0.00000000000E+00 0. -1.
</event>
<event>
 7    1  0.5452757E-006  0.6072210E+02  0.7818608E-02  0.1488421E+00
          2   -1    0    0  502    0  0.00000000000E+00  0.00000000000E+00  0.13517715493E+04  0.13517715493E+04  0.00000000000E+00 0. -1.
          1   -1    0    0  501    0 -0.00000000000E+00 -0.00000000000E+00 -0.24879863630E+02  0.24879863630E+02  0.00000000000E+00 0. -1.
         25    2    1    2    0    0  0.13488615800E+02  0.35379852496E+02  0.59027422648E+03  0.60455159770E+03  0.12500118047E+03 0.  0.
          2    1    1    2  501    0 -0.54648655181E+01  0.29698702802E+02 -0.22943037498E+01  0.30284344684E+02  0.00000000000E+00 0. -1.
          1    1    1    2  502    0 -0.80237502819E+01 -0.65078555298E+02  0.73891176293E+03  0.74181547054E+03  0.00000000000E+00 0. -1.
         22    1    3    3    0    0  0.28113873390E+02 -0.15313450618E+02  0.37677103019E+02  0.49441437466E+02  0.00000000000E+00 0.  1.
         22    1    3    3    0    0 -0.14625257589E+02  0.50693303113E+02  0.55259712346E+03  0.55511016024E+03  0.00000000000E+00 0.  1.
</event>
<event>
 7    1  0.5452757E-006  0.4530576E+03  0.7818608E-02  0.1147938E+00
          2   -1    0    0  502    0  0.00000000000E+00  0.00000000000E+00  0.21783865844E+04  0.21783865844E+04  0.00000000000E+00 0. -1.
          1   -1    0    0  501    0 -0.00000000000E+00 -0.00000000000E+00 -0.47470771026E+03  0.47470771026E+03  0.00000000000E+00 0. -1.
         25    2    1    2    0    0 -0.35291154873E+03  0.38976456188E+03  0.37456600850E+03  0.65755913704E+03  0.12498539539E+03 0.  0.
          2    1    1    2  501    0  0.73718372995E+02 -0.51972723682E+02 -0.29752565000E+03  0.31089720960E+03  0.00000000000E+00 0. -1.
          1    1    1    2  502    0  0.27919317573E+03 -0.33779183820E+03  0.16266385156E+04  0.16846379480E+04  0.00000000000E+00 0. -1.
         22    1    3    3    0    0 -0.26757094172E+03  0.21920326881E+03  0.20323946684E+03  0.40118644392E+03  0.00000000000E+00 0.  1.
         22    1    3    3    0    0 -0.85340607010E+02  0.17056129308E+03  0.17132654165E+03  0.25637269312E+03  0.00000000000E+00 0.  1.
</event>
<event>
 7    1  0.5452757E-006  0.6370367E+02  0.7818608E-02  0.1469305E+00
          2   -1    0    0  502    0  0.00000000000E+00  0.00000000000E+00  0.69243758424E+03  0.69243758424E+03  0.00000000000E+00 0. -1.
          1   -1    0    0  501    0 -0.00000000000E+00 -0.00000000000E+00 -0.13270329615E+04  0.13270329615E+04  0.00000000000E+00 0. -1.
         25    2    1    2    0    0  0.82054524413E+01 -0.88282774530E+02 -0.70948371664E+02  0.16887466673E+03  0.12499521548E+03 0.  0.
          2    1    1    2  501    0  0.15092143139E+02  0.29293181324E+02 -0.12053328923E+04  0.12057832494E+04  0.00000000000E+00 0. -1.
          1    1    1    2  502    0 -0.23297595581E+02  0.58989593206E+02  0.64168588672E+03  0.64481262960E+03  0.00000000000E+00 0. -1.
         22    1    3    3    0    0 -0.20324166161E+02 -0.11256263920E+03 -0.62975155538E+02  0.13057292863E+03  0.00000000000E+00 0.  1.
         22    1    3    3    0    0  0.28529618603E+02  0.24279864674E+02 -0.79732161262E+01  0.38301738101E+02  0.00000000000E+00 0.  1.
</event>
<event>
 7    1  0.5614300E-006  0.4885013E+02  0.7818608E-02  0.1509550E+00
          2   -1    0    0  502    0  0.00000000000E+00  0.00000000000E+00  0.51689517391E+03  0.51689517391E+03  0.00000000000E+00 0. -1.
          1   -1    0    0  501    0 -0.00000000000E+00 -0.00000000000E+00 -0.23406896685E+04  0.23406896685E+04  0.00000000000E+00 0. -1.
         25    2    1    2    0    0  0.34260150142E+02  0.52116080060E+02 -0.35076762425E+03  0.37755923515E+03  0.12499282433E+03 0.  0.
          2    1    1    2  501    0  0.97529766527E+01 -0.30957029956E+02 -0.19752084563E+04  0.19754751084E+04  0.00000000000E+00 0. -1.
          1    1    1    2  502    0 -0.44013126794E+02 -0.21159050104E+02  0.50218158589E+03  0.50455049890E+03  0.00000000000E+00 0. -1.
         22    1    3    3    0    0  0.73670325955E+02  0.30891875906E+02 -0.13225423609E+03  0.15450827773E+03  0.00000000000E+00 0. -1.
         22    1    3    3    0    0 -0.39410175813E+02  0.21224204154E+02 -0.21851338816E+03  0.22305095742E+03  0.00000000000E+00 0. -1.
</event>
<event>
 7    1  0.5452757E-006  0.4905176E+02  0.7818608E-02  0.1503617E+00
          2   -1    0    0  502    0  0.00000000000E+00  0.00000000000E+00  0.56518186745E+03  0.56518186745E+03  0.00000000000E+00 0. -1.
          1   -1    0    0  501    0 -0.00000000000E+00 -0.00000000000E+00 -0.42834888878E+03  0.42834888878E+03  0.00000000000E+00 0. -1.
         25    2    1    2    0    0 -0.28550597875E+02 -0.77559938623E+01 -0.29721951678E+03  0.32378976996E+03  0.12500032759E+03 0.  0.
          2    1    1    2  501    0 -0.15281880084E+02  0.29986660627E+02 -0.11431958203E+03  0.11917089624E+03  0.00000000000E+00 0. -1.
          1    1    1    2  502    0  0.43832477959E+02 -0.22230666765E+02  0.54837207748E+03  0.55057009002E+03  0.00000000000E+00 0. -1.
         22    1    3    3    0    0  0.32894955192E+02  0.17904898636E+02 -0.21378490856E+03  0.21704066578E+03  0.00000000000E+00 0. -1.
         22    1    3    3    0    0 -0.61445553067E+02 -0.25660892498E+02 -0.83434608219E+02  0.10674910418E+03  0.00000000000E+00 0. -1.
</event>
<event>
 7    1  0.5452757E-006  0.3534363E+02  0.7818608E-02  0.1547562E+00
          2   -1    0    0  502    0  0.00000000000E+00  0.00000000000E+00  0.18782918105E+03  0.18782918105E+03  0.00000000000E+00 0. -1.
          1   -1    0    0  501    0 -0.00000000000E+00 -0.00000000000E+00 -0.70435649362E+03  0.70435649362E+03  0.00000000000E+00 0. -1.
         25    2    1    2    0    0 -0.69949623547E+01  0.70400134270E+01 -0.23163923803E+03  0.26340060186E+03  0.12499859670E+03 0.  0.
          2    1    1    2  501    0  0.31189848207E+02  0.18723910445E+02 -0.45428554177E+03  0.45573977763E+03  0.00000000000E+00 0. -1.
          1    1    1    2  502    0 -0.24194885852E+02 -0.25763923872E+02  0.16939746724E+03  0.17304529517E+03  0.00000000000E+00 0. -1.
         22    1    3    3    0    0  0.72112955863E+01  0.51825368234E+02 -0.20006062244E+03  0.20679004867E+03  0.00000000000E+00 0. -1.
         22    1    3    3    0    0 -0.14206257941E+02 -0.44785354807E+02 -0.31578615587E+02  0.56610553188E+02  0.00000000000E+00 0. -1.
</event>
<event>
 7    1  0.5452757E-006  0.5176526E+02  0.7818608E-02  0.1437552E+00
          2   -1    0    0  502    0  0.00000000000E+00  0.00000000000E+00  0.95372003232E+03  0.95372003232E+03  0.00000000000E+00 0. -1.
          1   -1    0    0  501    0 -0.00000000000E+00 -0.00000000000E+00 -0.46370618759E+03  0.46370618759E+03  0.00000000000E+00 0. -1.
         25    2    1    2    0    0  0.29034869132E+02 -0.69608319964E+02 -0.15761978539E+03  0.21484426593E+03  0.12500288006E+03 0.  0.
          2    1    1    2  501    0  0.17956116316E+02  0.47930342920E+02 -0.27438204860E+03  0.27911511690E+03  0.00000000000E+00 0. -1.
          1    1    1    2  502    0 -0.46990985448E+02  0.21677977045E+02  0.92201567872E+03  0.92346683709E+03  0.00000000000E+00 0. -1.
         22    1    3    3    0    0 -0.28957425764E+02 -0.59771266378E+02 -0.27193676493E+02  0.71767909490E+02  0.00000000000E+00 0.  1.
         22    1    3    3    0    0  0.57992294896E+02 -0.98370535863E+01 -0.13042610889E+03  0.14307635644E+03  0.00000000000E+00 0.  1.
</event>
<event>
 7    1  0.5452757E-006  0.1139741E+03  0.7818608E-02  0.1254151E+00
          2   -1    0    0  502    0  0.00000000000E+00  0.00000000000E+00  0.14337546580E+04  0.14337546580E+04  0.00000000000E+00 0. -1.
          1   -1    0    0  501    0 -0.00000000000E+00 -0.00000000000E+00 -0.75206723390E+02  0.75206723390E+02  0.00000000000E+00 0. -1.
         25    2    1    2    0    0 -0.33715468976E+02 -0.11053291195E+03  0.27441991605E+03  0.32293256544E+03  0.12499957607E+03 0.  0.
          2    1    1    2  501    0  0.11905387156E+03  0.34985206448E+02  0.32541389092E+02  0.12828379090E+03  0.00000000000E+00 0. -1.
          1    1    1    2  502    0 -0.85338402583E+02  0.75547705504E+02  0.10515866294E+04  0.10577450250E+04  0.00000000000E+00 0. -1.
         22    1    3    3    0    0 -0.11733268923E+02 -0.10921588995E+03  0.27951963747E+03  0.30032816709E+03  0.00000000000E+00 0.  1.
         22    1    3    3    0    0 -0.21982200053E+02 -0.13170220012E+01 -0.50997214127E+01  0.22604398346E+02  0.00000000000E+00 0.  1.
</event>
<event>
 7    1  0.5452757E-006  0.1325958E+03  0.7818608E-02  0.1313606E+00
          2   -1    0    0  502    0  0.00000000000E+00  0.00000000000E+00  0.18723067399E+03  0.18723067399E+03  0.00000000000E+00 0. -1.
          1   -1    0    0  501    0 -0.00000000000E+00 -0.00000000000E+00 -0.25629277835E+03  0.25629277835E+03  0.00000000000E+00 0. -1.
         25    2    1    2    0    0  0.63286784391E+02  0.67270594385E+02  0.27844343740E+02  0.15789444827E+03  0.12499919747E+03 0.  0.
          2    1    1    2  501    0 -0.11284664959E+03 -0.92014026684E+02 -0.14989515121E+03  0.20897249529E+03  0.00000000000E+00 0. -1.
          1    1    1    2  502    0  0.49559865203E+02  0.24743432299E+02  0.52988703113E+02  0.76656508781E+02  0.00000000000E+00 0. -1.
         22    1    3    3    0    0 -0.65419940027E+01 -0.30281597251E+02  0.21593326465E+02  0.37763005249E+02  0.00000000000E+00 0.  1.
         22    1    3    3    0    0  0.69828778393E+02  0.97552191636E+02  0.62510172752E+01  0.12013144302E+03  0.00000000000E+00 0.  1.
</event>
<event>
 7    1  0.5452757E-006  0.6354026E+02  0.7818608E-02  0.1464321E+00
          2   -1    0    0  502    0  0.00000000000E+00  0.00000000000E+00  0.18841352010E+03  0.18841352010E+03  0.00000000000E+00 0. -1.
          1   -1    0    0  501    0 -0.00000000000E+00 -0.00000000000E+00 -0.16846424481E+04  0.16846424481E+04  0.00000000000E+00 0. -1.
         25    2    1    2    0    0  0.26623972780E+02  0.19807031264E+02 -0.33282819683E+02  0.13354512737E+03  0.12500160216E+03 0.  0.
          2    1    1    2  501    0 -0.36284571712E+02 -0.52659362693E+02 -0.15984593277E+04  0.15997380413E+04  0.00000000000E+00 0. -1.
          1    1    1    2  502    0  0.96605989320E+01  0.32852331429E+02  0.13551321937E+03  0.13977279949E+03  0.00000000000E+00 0. -1.
         22    1    3    3    0    0 -0.39873016400E+02  0.84144376568E+01 -0.49540904932E+02  0.64147965356E+02  0.00000000000E+00 0.  1.
         22    1    3    3    0    0  0.66496989180E+02  0.11392593607E+02  0.16258085248E+02  0.69397162010E+02  0.00000000000E+00 0.  1.
</event>
<event>
 7    1  0.5452757E-006  0.1830192E+03  0.7818608E-02  0.1192355E+00
          2   -1    0    0  502    0  0.00000000000E+00  0.00000000000E+00  0.37680429611E+04  0.37680429611E+04  0.00000000000E+00 0. -1.
          1   -1    0    0  501    0 -0.00000000000E+00 -0.00000000000E+00 -0.18242458884E+03  0.18242458884E+03  0.00000000000E+00 0. -1.
         25    2    1    2    0    0 -0.21278682338E+03  0.20061871034E+03  0.20484299777E+03  0.37830079639E+03  0.12499895870E+03 0.  0.
          2    1    1    2  501    0  0.11689241695E+03 -0.10653534645E+03 -0.28109755486E+02  0.16063553635E+03  0.00000000000E+00 0. -1.
          1    1    1    2  502    0  0.95894406422E+02 -0.94083363886E+02  0.34088851300E+04  0.34115312172E+04  0.00000000000E+00 0. -1.
         22    1    3    3    0    0 -0.81756176482E+02  0.16903177397E+02  0.97669106278E+02  0.12848752515E+03  0.00000000000E+00 0. -1.
         22    1    3    3    0    0 -0.13103064689E+03  0.18371553294E+03  0.10717389149E+03  0.24981327124E+03  0.00000000000E+00 0. -1.
</event>
<event>
 7    1  0.5452757E-006  0.1322878E+03  0.7818608E-02  0.1239497E+00
          2   -1    0    0  502    0  0.00000000000E+00  0.00000000000E+00  0.98414862668E+03  0.98414862668E+03  0.00000000000E+00 0. -1.
          1   -1    0    0  501    0 -0.00000000000E+00 -0.00000000000E+00 -0.96490710027E+03  0.96490710027E+03  0.00000000000E+00 0. -1.
         25    2    1    2    0    0 -0.21652362462E+03 -0.38997164157E+02  0.65100790672E+01  0.25312102730E+03  0.12499845800E+03 0.  0.
          2    1    1    2  501    0  0.10828671411E+03  0.71101426494E+02 -0.83284256351E+03  0.84285714145E+03  0.00000000000E+00 0. -1.
          1    1    1    2  502    0  0.10823691051E+03 -0.32104262337E+02  0.84557401085E+03  0.85307755819E+03  0.00000000000E+00 0. -1.
         22    1    3    3    0    0 -0.12109500432E+03  0.39799744918E+02 -0.11820960756E+02  0.12801466666E+03  0.00000000000E+00 0. -1.
         22    1    3    3    0    0 -0.95428620300E+02 -0.78796909074E+02  0.18331039824E+02  0.12510636064E+03  0.00000000000E+00 0. -1.
</event>
<event>
 7    1  0.5452757E-006  0.6623901E+02  0.7818608E-02  0.1381455E+00
          2   -1    0    0  502    0  0.00000000000E+00  0.00000000000E+00  0.21483235912E+04  0.21483235912E+04  0.00000000000E+00 0. -1.
          1   -1    0    0  501    0 -0.00000000000E+00 -0.00000000000E+00 -0.45315277525E+02  0.45315277525E+02  0.00000000000E+00 0. -1.
         25    2    1    2    0    0  0.24369064418E+02 -0.40514769073E+02  0.12995789895E+03  0.18641165895E+03  0.12499981311E+03 0.  0.
          2    1    1    2  501    0 -0.80674593400E+02  0.56250218178E+01  0.82532814674E+02  0.11554954084E+03  0.00000000000E+00 0. -1.
          1    1    1    2  502    0  0.56305528982E+02  0.34889747255E+02  0.18905176001E+04  0.18916776690E+04  0.00000000000E+00 0. -1.
         22    1    3    3    0    0 -0.41979610538E+02 -0.51368737056E+02  0.61501270281E+02  0.90462373912E+02  0.00000000000E+00 0. -1.
         22    1    3    3    0    0  0.66348674957E+02  0.10853967984E+02  0.68456628672E+02  0.95949285035E+02  0.00000000000E+00 0. -1.
</event>
<event>
 7    1  0.5452757E-006  0.4942587E+02  0.7818608E-02  0.1506434E+00
          2   -1    0    0  502    0  0.00000000000E+00  0.00000000000E+00  0.18960358223E+04  0.18960358223E+04  0.00000000000E+00 0. -1.
          1   -1    0    0  501    0 -0.00000000000E+00 -0.00000000000E+00 -0.47841629779E+02  0.47841629779E+02  0.00000000000E+00 0. -1.
         25    2    1    2    0    0 -0.12902696970E+01 -0.36720298867E+02  0.38568900524E+03  0.40710011027E+03  0.12499778347E+03 0.  0.
          2    1    1    2  501    0  0.34053687898E+02  0.37081715348E+02 -0.19807796995E+02  0.54102274392E+02  0.00000000000E+00 0. -1.
          1    1    1    2  502    0 -0.32763418201E+02 -0.36141648081E+00  0.14823129843E+04  0.14826750674E+04  0.00000000000E+00 0. -1.
         22    1    3    3    0    0 -0.55102814445E+02 -0.27191607648E+02  0.10955798884E+03  0.12561312274E+03  0.00000000000E+00 0. -1.
         22    1    3    3    0    0  0.53812544748E+02 -0.95286912191E+01  0.27613101640E+03  0.28148698752E+03  0.00000000000E+00 0. -1.
</event>
<event>
 7    1  0.5452757E-006  0.2445907E+03  0.7818608E-02  0.1195832E+00
          2   -1    0    0  502    0  0.00000000000E+00  0.00000000000E+00  0.14390381093E+03  0.14390381093E+03  0.00000000000E+00 0. -1.
          1   -1    0    0  501    0 -0.00000000000E+00 -0.00000000000E+00 -0.16124897085E+04  0.16124897085E+04  0.00000000000E+00 0. -1.
         25    2    1    2    0    0  0.86540387137E+02  0.19116619140E+03 -0.33973048608E+03  0.41841941034E+03  0.12499699372E+03 0.  0.
          2    1    1    2  501    0 -0.64450231173E+02  0.72172603592E+02 -0.10606446600E+04  0.10650492063E+04  0.00000000000E+00 0. -1.
          1    1    1    2  502    0 -0.22090155964E+02 -0.26333879500E+03 -0.68210751448E+02  0.27292490277E+03  0.00000000000E+00 0. -1.
         22    1    3    3    0    0 -0.32487556661E+02  0.48614391170E+02 -0.77182275995E+02  0.96829252266E+02  0.00000000000E+00 0.  1.
         22    1    3    3    0    0  0.11902794380E+03  0.14255180023E+03 -0.26254821008E+03  0.32159015808E+03  0.00000000000E+00 0.  1.
</event>
<event>
 7    1  0.5452757E-006  0.1251528E+03  0.7818608E-02  0.1290913E+00
          2   -1    0    0  502    0  0.00000000000E+00  0.00000000000E+00  0.62690603109E+03  0.62690603109E+03  0.00000000000E+00 0. -1.
          1   -1    0    0  501    0 -0.00000000000E+00 -0.00000000000E+00 -0.20745543403E+03  0.20745543403E+03  0.00000000000E+00 0. -1.
         25    2    1    2    0    0  0.10706881767E+03  0.10905436015E+03  0.11067615414E+03  0.22634207823E+03  0.12499976039E+03 0.  0.
          2    1    1    2  501    0  0.10392049887E+02 -0.71538487379E+02 -0.13190433908E+03  0.15041444261E+03  0.00000000000E+00 0. -1.
          1    1    1    2  502    0 -0.11746086756E+03 -0.37515872776E+02  0.44067878200E+03  0.45760494428E+03  0.00000000000E+00 0. -1.
         22    1    3    3    0    0  0.71039289364E+02  0.89730130584E+02  0.13638820822E+03  0.17804443353E+03  0.00000000000E+00 0. -1.
         22    1    3    3    0    0  0.36029528308E+02  0.19324229571E+02 -0.25712054086E+02  0.48297644704E+02  0.00000000000E+00 0. -1.
</event>
<event>
 7    1  0.5452757E-006  0.1108752E+03  0.7818608E-02  0.1277829E+00
          2   -1    0    0  502    0  0.00000000000E+00  0.00000000000E+00  0.16963722755E+04  0.16963722755E+04  0.00000000000E+00 0. -1.
          1   -1    0    0  501    0 -0.00000000000E+00 -0.00000000000E+00 -0.71474689338E+02  0.71474689338E+02  0.00000000000E+00 0. -1.
         25    2    1    2    0    0 -0.26309504843E+02 -0.36225940386E+02  0.28294243280E+03  0.31254625084E+03  0.12499691930E+03 0.  0.
          2    1    1    2  501    0  0.24509348308E+02 -0.89025156039E+02 -0.14156320373E+02  0.93416208276E+02  0.00000000000E+00 0. -1.
          1    1    1    2  502    0  0.18001565347E+01  0.12525109643E+03  0.13561114738E+04  0.13618845058E+04  0.00000000000E+00 0. -1.
         22    1    3    3    0    0  0.14465839749E+02  0.37386685005E+02  0.45539965513E+02  0.60670529866E+02  0.00000000000E+00 0.  1.
         22    1    3    3    0    0 -0.40775344592E+02 -0.73612625392E+02  0.23740246728E+03  0.25187572097E+03  0.00000000000E+00 0.  1.
</event>
<event>
 7    1  0.5452757E-006  0.1480491E+03  0.7818608E-02  0.1365029E+00
          2   -1    0    0  502    0  0.00000000000E+00  0.00000000000E+00  0.30392200864E+03  0.30392200864E+03  0.00000000000E+00 0. -1.
          1   -1    0    0  501    0 -0.00000000000E+00 -0.00000000000E+00 -0.40695737526E+03  0.40695737526E+03  0.00000000000E+00 0. -1.
         25    2    1    2    0    0  0.13777348657E+03  0.15155883958E+02 -0.48791747876E+02  0.19291604805E+03  0.12499893005E+03 0.  0.
          2    1    1    2  501    0 -0.14405072251E+03 -0.46286824783E+02 -0.26482509197E+03  0.30500067237E+03  0.00000000000E+00 0. -1.
          1    1    1    2  502    0  0.62772359423E+01  0.31130940826E+02  0.21058147324E+03  0.21296266349E+03  0.00000000000E+00 0. -1.
         22    1    3    3    0    0  0.11443861334E+02  0.53404941562E+02 -0.15949755283E+02  0.56898545140E+02  0.00000000000E+00 0.  1.
         22    1    3    3    0    0  0.12632962523E+03 -0.38249057605E+02 -0.32841992592E+02  0.13601750291E+03  0.00000000000E+00 0.  1.
</event>
<event>
 7    1  0.5452757E-006  0.2561936E+03  0.7818608E-02  0.1307392E+00
          2   -1    0    0  502    0  0.00000000000E+00  0.00000000000E+00  0.11216895468E+04  0.11216895468E+04  0.00000000000E+00 0. -1.
          1   -1    0    0  501    0 -0.00000000000E+00 -0.00000000000E+00 -0.12643223817E+03  0.12643223817E+03  0.00000000000E+00 0. -1.
         25    2    1    2    0    0 -0.12631388911E+03  0.24458973133E+03  0.56931911549E+03  0.64461435743E+03  0.12499631714E+03 0.  0.
          2    1    1    2  501    0  0.99693796454E+02 -0.23005212510E+03  0.90282447267E+02  0.26648405881E+03  0.00000000000E+00 0. -1.
          1    1    1    2  502    0  0.26620092661E+02 -0.14537606225E+02  0.33565574586E+03  0.33702336871E+03  0.00000000000E+00 0. -1.
         22    1    3    3    0    0 -0.19007484854E+02  0.16050355389E+03  0.25367676020E+03  0.30078991665E+03  0.00000000000E+00 0. -1.
         22    1    3    3    0    0 -0.10730640426E+03  0.84086177437E+02  0.31564235529E+03  0.34382444079E+03  0.00000000000E+00 0. -1.
</event>
<event>
 7    1  0.5452757E-006  0.6686736E+02  0.7818608E-02  0.1443621E+00
          2   -1    0    0  502    0  0.00000000000E+00  0.00000000000E+00  0.16944714877E+04  0.16944714877E+04  0.00000000000E+00 0. -1.
          1   -1    0    0  501    0 -0.00000000000E+00 -0.00000000000E+00 -0.16600038925E+03  0.16600038925E+03  0.00000000000E+00 0. -1.
         25    2    1    2    0    0  0.25389094063E+02  0.58798038443E+02  0.39739743813E+02  0.14596490004E+03  0.12499875752E+03 0.  0.
          2    1    1    2  501    0 -0.37177237866E+02  0.72012567438E+01 -0.10898916383E+03  0.11538042705E+03  0.00000000000E+00 0. -1.
          1    1    1    2  502    0  0.11788143803E+02 -0.65999295187E+02  0.15977205185E+04  0.15991265498E+04  0.00000000000E+00 0. -1.
         22    1    3    3    0    0  0.20906390428E+02  0.32342707660E+02  0.85017671141E+02  0.93333446876E+02  0.00000000000E+00 0. -1.
         22    1    3    3    0    0  0.44827036354E+01  0.26455330783E+02 -0.45277927328E+02  0.52631453161E+02  0.00000000000E+00 0. -1.
</event>
<event>
 7    1  0.5452757E-006  0.4291857E+02  0.7818608E-02  0.1546247E+00
          2   -1    0    0  502    0  0.00000000000E+00  0.00000000000E+00  0.41099301767E+03  0.41099301767E+03  0.00000000000E+00 0. -1.
          1   -1    0    0  501    0 -0.00000000000E+00 -0.00000000000E+00 -0.70767123646E+03  0.70767123646E+03  0.00000000000E+00 0. -1.
         25    2    1    2    0    0 -0.33569883245E+01 -0.54992603300E+02 -0.79920574356E+00  0.13660433989E+03  0.12499860462E+03 0.  0.
          2    1    1    2  501    0  0.23377476760E+02  0.17124659505E+02 -0.63730196331E+03  0.63796046337E+03  0.00000000000E+00 0. -1.
          1    1    1    2  502    0 -0.20020488435E+02  0.37867943794E+02  0.34142295027E+03  0.34409945088E+03  0.00000000000E+00 0. -1.
         22    1    3    3    0    0 -0.15236346348E+02 -0.44993098191E+02 -0.59355816623E+02  0.76023931113E+02  0.00000000000E+00 0. -1.
         22    1    3    3    0    0  0.11879358023E+02 -0.99995051084E+01  0.58556610879E+02  0.60580408773E+02  0.00000000000E+00 0. -1.
</event>
<event>
 7    1  0.5452757E-006  0.5601853E+02  0.7818608E-02  0.1480110E+00
          2   -1    0    0  502    0  0.00000000000E+00  0.00000000000E+00  0.34176262916E+03  0.34176262916E+03  0.00000000000E+00 0. -1.
          1   -1    0    0  501    0 -0.00000000000E+00 -0.00000000000E+00 -0.11192973158E+04  0.11192973158E+04  0.00000000000E+00 0. -1.
         25    2    1    2    0    0 -0.53259860739E+02  0.33945445669E+02  0.16938028584E+03  0.21978125156E+03  0.12500084503E+03 0.  0.
          2    1    1    2  501    0  0.23073300392E+02 -0.51058662172E+02 -0.10913228625E+04  0.10927602457E+04  0.00000000000E+00 0. -1.
          1    1    1    2  502    0  0.30186560347E+02  0.17113216503E+02  0.14440789007E+03  0.14851844774E+03  0.00000000000E+00 0. -1.
         22    1    3    3    0    0  0.28657732218E+02  0.48990730205E+02  0.69615502032E+02  0.89820239284E+02  0.00000000000E+00 0. -1.
         22    1    3    3    0    0 -0.81917592957E+02 -0.15045284536E+02  0.99764783811E+02  0.12996101228E+03  0.00000000000E+00 0. -1.
</event>
<event>
 7    1  0.5452757E-006  0.1536260E+03  0.7818608E-02  0.1371986E+00
          2   -1    0    0  502    0  0.00000000000E+00  0.00000000000E+00  0.14909307723E+04  0.14909307723E+04  0.00000000000E+00 0. -1.
          1   -1    0    0  501    0 -0.00000000000E+00 -0.00000000000E+00 -0.39984972738E+03  0.39984972738E+03  0.00000000000E+00 0. -1.
         25    2    1    2    0    0  0.24567354390E+02  0.17822534435E+03 -0.63455607696E+01  0.21916400684E+03  0.12499906992E+03 0.  0.
          2    1    1    2  501    0  0.49772846172E+01 -0.28456299835E+02 -0.28214729045E+03  0.28362233317E+03  0.00000000000E+00 0. -1.
          1    1    1    2  502    0 -0.29544639007E+02 -0.14976904452E+03  0.13795738961E+04  0.13879941597E+04  0.00000000000E+00 0. -1.
         22    1    3    3    0    0  0.31968053381E+02  0.27497082453E+02  0.43162165601E+02  0.60340852826E+02  0.00000000000E+00 0. -1.
         22    1    3    3    0    0 -0.74006989904E+01  0.15072826190E+03 -0.49507726370E+02  0.15882315401E+03  0.00000000000E+00 0. -1.
</event>
<event>
 7    1  0.5452757E-006  0.1444460E+03  0.7818608E-02  0.1217635E+00
          2   -1    0    0  502    0  0.00000000000E+00  0.00000000000E+00  0.17630875497E+04  0.17630875497E+04  0.00000000000E+00 0. -1.
          1   -1    0    0  501    0 -0.00000000000E+00 -0.00000000000E+00 -0.15270672537E+04  0.15270672537E+04  0.00000000000E+00 0. -1.
         25    2    1    2    0    0 -0.24596677504E+03 -0.99891323885E+02 -0.14685659254E+03  0.32812940309E+03  0.12499646152E+03 0.  0.
          2    1    1    2  501    0  0.13598512922E+03  0.31240426376E+02 -0.12832744634E+04  0.12908374290E+04  0.00000000000E+00 0. -1.
          1    1    1    2  502    0  0.10998164582E+03  0.68650897509E+02  0.16661513519E+04  0.16711879713E+04  0.00000000000E+00 0. -1.
         22    1    3    3    0    0 -0.54071337189E+02 -0.60378717958E+02  0.35561735717E+01  0.81129189927E+02  0.00000000000E+00 0. -1.
         22    1    3    3    0    0 -0.19189543785E+03 -0.39512605927E+02 -0.15041276611E+03  0.24700021317E+03  0.00000000000E+00 0. -1.
</event>
<event>
 7    1  0.5452757E-006  0.5432466E+02  0.7818608E-02  0.1503025E+00
          2   -1    0    0  502    0  0.00000000000E+00  0.00000000000E+00  0.29907312399E+03  0.29907312399E+03  0.00000000000E+00 0. -1.
          1   -1    0    0  501    0 -0.00000000000E+00 -0.00000000000E+00 -0.57139372998E+03  0.57139372998E+03  0.00000000000E+00 0. -1.
         25    2    1    2    0    0  0.35493498194E+02  0.44256474881E+02 -0.24095155223E+02  0.13936923227E+03  0.12499912966E+03 0.  0.
          2    1    1    2  501    0  0.15915367304E+02 -0.26033267702E+02 -0.48609658114E+03  0.48705329908E+03  0.00000000000E+00 0. -1.
          1    1    1    2  502    0 -0.51408865497E+02 -0.18223207179E+02  0.23787113038E+03  0.24404432261E+03  0.00000000000E+00 0. -1.
         22    1    3    3    0    0  0.35028778854E+01 -0.24301235153E+02 -0.52976651838E+02  0.58389603727E+02  0.00000000000E+00 0.  1.
         22    1    3    3    0    0  0.31990620308E+02  0.68557710034E+02  0.28881496615E+02  0.80979628546E+02  0.00000000000E+00 0.  1.
</event>
<event>
 7    1  0.5452757E-006  0.6507040E+02  0.7818608E-02  0.1384049E+00
          2   -1    0    0  502    0  0.00000000000E+00  0.00000000000E+00  0.22388365980E+04  0.22388365980E+04  0.00000000000E+00 0. -1.
          1   -1    0    0  501    0 -0.00000000000E+00 -0.00000000000E+00 -0.55118546755E+03  0.55118546755E+03  0.00000000000E+00 0. -1.
         25    2    1    2    0    0  0.36911562398E+02  0.28371996971E+02  0.15643222704E+04  0.15699988426E+04  0.12499906564E+03 0.  0.
          2    1    1    2  501    0 -0.28888917931E+02  0.58305979241E+02 -0.54357823732E+03  0.54745909152E+03  0.00000000000E+00 0. -1.
          1    1    1    2  502    0 -0.80226444669E+01 -0.86677976212E+02  0.66690709738E+03  0.67256413146E+03  0.00000000000E+00 0. -1.
         22    1    3    3    0    0  0.39260763275E+02 -0.32700290205E+02  0.30951846895E+03  0.31370750570E+03  0.00000000000E+00 0. -1.
         22    1    3    3    0    0 -0.23492008765E+01  0.61072287177E+02  0.12548038015E+04  0.12562913369E+04  0.00000000000E+00 0. -1.
</event>
<event>
 7    1  0.5452757E-006  0.7888462E+02  0.7818608E-02  0.1375994E+00
          2   -1    0    0  502    0  0.00000000000E+00  0.00000000000E+00  0.28987962510E+04  0.28987962510E+04  0.00000000000E+00 0. -1.
          1   -1    0    0  501    0 -0.00000000000E+00 -0.00000000000E+00 -0.46194761475E+03  0.46194761475E+03  0.00000000000E+00 0. -1.
         25    2    1    2    0    0  0.70712682555E+02  0.24759088753E+02  0.60650900045E+03  0.62377102873E+03  0.12499533075E+03 0.  0.
          2    1    1    2  501    0 -0.38777275317E+02 -0.68840561729E+02 -0.44954647367E+03  0.45643699676E+03  0.00000000000E+00 0. -1.
          1    1    1    2  502    0 -0.31935407239E+02  0.44081472976E+02  0.22798861095E+04  0.22805358403E+04  0.00000000000E+00 0. -1.
         22    1    3    3    0    0 -0.67415654529E+01 -0.33483614604E+02  0.30887329074E+03  0.31075603113E+03  0.00000000000E+00 0.  1.
         22    1    3    3    0    0  0.77454248008E+02  0.58242703357E+02  0.29763570971E+03  0.31301499760E+03  0.00000000000E+00 0.  1.
</event>
<event>
 7    1  0.5452757E-006  0.9178222E+02  0.7818608E-02  0.1311754E+00
          2   -1    0    0  502    0  0.00000000000E+00  0.00000000000E+00  0.47744463550E+03  0.47744463550E+03  0.00000000000E+00 0. -1.
          1   -1    0    0  501    0 -0.00000000000E+00 -0.00000000000E+00 -0.35871673527E+03  0.35871673527E+03  0.00000000000E+00 0. -1.
         25    2    1    2    0    0  0.40763778907E+02  0.12023569169E+03 -0.61147608589E+02  0.18836776631E+03  0.12500031248E+03 0.  0.
          2    1    1    2  501    0 -0.76940406259E+02 -0.47343264267E+02 -0.22099508133E+03  0.23874680470E+03  0.00000000000E+00 0. -1.
          1    1    1    2  502    0  0.36176627352E+02 -0.72892427421E+02  0.40087059015E+03  0.40904679976E+03  0.00000000000E+00 0. -1.
         22    1    3    3    0    0  0.57113755226E+02  0.79692125099E+01  0.35313367731E+01  0.57775078740E+02  0.00000000000E+00 0.  1.
         22    1    3    3    0    0 -0.16349976318E+02  0.11226647918E+03 -0.64678945362E+02  0.13059268757E+03  0.00000000000E+00 0.  1.
</event>
<event>
 7    1  0.5452757E-006  0.7056892E+02  0.7818608E-02  0.1486458E+00
          2   -1    0    0  502    0  0.00000000000E+00  0.00000000000E+00  0.12053469809E+04  0.12053469809E+04  0.00000000000E+00 0. -1.
          1   -1    0    0  501    0 -0.00000000000E+00 -0.00000000000E+00 -0.53965983240E+03  0.53965983240E+03  0.00000000000E+00 0. -1.
         25    2    1    2    0    0 -0.36678622517E+02 -0.55914059232E+02 -0.33658300854E+02  0.14570251146E+03  0.12499854904E+03 0.  0.
          2    1    1    2  501    0 -0.21298452375E+02  0.15502436083E+02 -0.44850619652E+03  0.44927915366E+03  0.00000000000E+00 0. -1.
          1    1    1    2  502    0  0.57977074892E+02  0.40411623149E+02  0.11478516459E+04  0.11500251482E+04  0.00000000000E+00 0. -1.
         22    1    3    3    0    0  0.16849100035E+01 -0.26104913882E+02 -0.76549060323E+02  0.80895389775E+02  0.00000000000E+00 0.  1.
         22    1    3    3    0    0 -0.38363532520E+02 -0.29809145350E+02  0.42890759468E+02  0.64807121690E+02  0.00000000000E+00 0.  1.
</event>
<event>
 7    1  0.5452757E-006  0.7187717E+02  0.7818608E-02  0.1488179E+00
          2   -1    0    0  502    0  0.00000000000E+00  0.00000000000E+00  0.13486799837E+04  0.13486799837E+04  0.00000000000E+00 0. -1.
          1   -1    0    0  501    0 -0.00000000000E+00 -0.00000000000E+00 -0.81167871318E+03  0.81167871318E+03  0.00000000000E+00 0. -1.
         25    2    1    2    0    0  0.42399155355E+00  0.52885939459E+02  0.30392214705E+03  0.33285343545E+03  0.12500254261E+03 0.  0.
          2    1    1    2  501    0  0.19065677363E+02 -0.69413525479E+02 -0.79542908909E+03  0.79867964375E+03  0.00000000000E+00 0. -1.
          1    1    1    2  502    0 -0.19489668916E+02  0.16527586019E+02  0.10285082126E+04  0.10288256177E+04  0.00000000000E+00 0. -1.
         22    1    3    3    0    0  0.96876805498E+01 -0.40609315287E+02  0.90380870030E+02  0.99557366930E+02  0.00000000000E+00 0.  1.
         22    1    3    3    0    0 -0.92636889962E+01  0.93495254746E+02  0.21354127702E+03  0.23329606852E+03  0.00000000000E+00 0.  1.
</event>
<event>
 7    1  0.5452757E-006  0.5728981E+02  0.7818608E-02  0.1411567E+00
          2   -1    0    0  502    0  0.00000000000E+00  0.00000000000E+00  0.13080459604E+04  0.13080459604E+04  0.00000000000E+00 0. -1.
          1   -1    0    0  501    0 -0.00000000000E+00 -0.00000000000E+00 -0.27772647339E+03  0.27772647339E+03  0.00000000000E+00 0. -1.
         25    2    1    2    0    0  0.53430402299E+01 -0.17769396770E+02 -0.10172754322E+03  0.16222679902E+03  0.12499896691E+03 0.  0.
          2    1    1    2  501    0  0.28818667301E+02  0.62652370179E+02 -0.13693005076E+03  0.15331560219E+03  0.00000000000E+00 0. -1.
          1    1    1    2  502    0 -0.34161707531E+02 -0.44882973409E+02  0.12689770810E+04  0.12702300326E+04  0.00000000000E+00 0. -1.
         22    1    3    3    0    0  0.21059365477E+02  0.39064452134E+02 -0.92429130094E+02  0.10253132392E+03  0.00000000000E+00 0. -1.
         22    1    3    3    0    0 -0.15716325247E+02 -0.56833848904E+02 -0.92984131296E+01  0.59695475099E+02  0.00000000000E+00 0. -1.
</event>
<event>
 7    1  0.5452757E-006  0.1185777E+03  0.7818608E-02  0.1321394E+00
          2   -1    0    0  502    0  0.00000000000E+00  0.00000000000E+00  0.22771847136E+03  0.22771847136E+03  0.00000000000E+00 0. -1.
          1   -1    0    0  501    0 -0.00000000000E+00 -0.00000000000E+00 -0.12835451023E+04  0.12835451023E+04  0.00000000000E+00 0. -1.
         25    2    1    2    0    0  0.12282005354E+03  0.38761273037E+02 -0.29645656444E+03  0.34654870157E+03  0.12498922403E+03 0.  0.
          2    1    1    2  501    0 -0.11732731684E+03  0.18739661497E+02 -0.95416607765E+03  0.96153511529E+03  0.00000000000E+00 0. -1.
          1    1    1    2  502    0 -0.54927366962E+01 -0.57500934534E+02  0.19479601113E+03  0.20317975682E+03  0.00000000000E+00 0. -1.
         22    1    3    3    0    0  0.43992690303E+02 -0.27724935557E+02 -0.19526598880E+03  0.20207136174E+03  0.00000000000E+00 0.  1.
         22    1    3    3    0    0  0.78827363236E+02  0.66486208594E+02 -0.10119057563E+03  0.14447733983E+03  0.00000000000E+00 0.  1.
</event>
<event>
 7    1  0.5452757E-006  0.6776687E+02  0.7818608E-02  0.1530890E+00
          2   -1    0    0  502    0  0.00000000000E+00  0.00000000000E+00  0.21558747261E+04  0.21558747261E+04  0.00000000000E+00 0. -1.
          1   -1    0    0  501    0 -0.00000000000E+00 -0.00000000000E+00 -0.13826491161E+04  0.13826491161E+04  0.00000000000E+00 0. -1.
         25    2    1    2    0    0 -0.49393709180E+02  0.83753323938E+01 -0.52580845793E+02  0.14456754958E+03  0.12500058539E+03 0.  0.
          2    1    1    2  501    0 -0.18474877920E+02 -0.83792971480E+01 -0.12834489585E+04  0.12836092719E+04  0.00000000000E+00 0. -1.
          1    1    1    2  502    0  0.67868587101E+02  0.39647541863E-02  0.21092554143E+04  0.21103470207E+04  0.00000000000E+00 0. -1.
         22    1    3    3    0    0 -0.24813679045E+02  0.66223387564E+02 -0.36989583176E+02  0.79809053319E+02  0.00000000000E+00 0.  1.
         22    1    3    3    0    0 -0.24580030135E+02 -0.57848055170E+02 -0.15591262617E+02  0.64758496264E+02  0.00000000000E+00 0.  1.
</event>
<event>
 7    1  0.5452757E-006  0.7453347E+02  0.7818608E-02  0.1381508E+00
          2   -1    0    0  502    0  0.00000000000E+00  0.00000000000E+00  0.13334735729E+04  0.13334735729E+04  0.00000000000E+00 0. -1.
          1   -1    0    0  501    0 -0.00000000000E+00 -0.00000000000E+00 -0.31192821967E+02  0.31192821967E+02  0.00000000000E+00 0. -1.
         25    2    1    2    0    0 -0.20405259421E+02 -0.71817798524E+02  0.53353953176E+03  0.55304969776E+03  0.12500146180E+03 0.  0.
          2    1    1    2  501    0 -0.34578067679E+02  0.68659546075E+02  0.52109454809E+02  0.92871800414E+02  0.00000000000E+00 0. -1.
          1    1    1    2  502    0  0.54983327100E+02  0.31582524489E+01  0.71663176440E+03  0.71874489672E+03  0.00000000000E+00 0. -1.
         22    1    3    3    0    0  0.37243129782E+02 -0.74181433403E+02  0.38161928809E+03  0.39054220875E+03  0.00000000000E+00 0.  1.
         22    1    3    3    0    0 -0.57648389203E+02  0.23636348795E+01  0.15192024367E+03  0.16250748901E+03  0.00000000000E+00 0.  1.
</event>
<event>
 7    1  0.5452757E-006  0.1471572E+03  0.7818608E-02  0.1354755E+00
          2   -1    0    0  502    0  0.00000000000E+00  0.00000000000E+00  0.12240564398E+04  0.12240564398E+04  0.00000000000E+00 0. -1.
          1   -1    0    0  501    0 -0.00000000000E+00 -0.00000000000E+00 -0.83422603713E+03  0.83422603713E+03  0.00000000000E+00 0. -1.
         25    2    1    2    0    0  0.14230082909E+03 -0.48986627459E+02  0.34774004246E+01  0.19566975456E+03  0.12500137962E+03 0.  0.
          2    1    1    2  501    0 -0.12431277068E+03  0.78813720608E+02 -0.73051776638E+03  0.74519894961E+03  0.00000000000E+00 0. -1.
          1    1    1    2  502    0 -0.17988058416E+02 -0.29827093148E+02  0.11168707686E+04  0.11174137728E+04  0.00000000000E+00 0. -1.
         22    1    3    3    0    0  0.46242090572E+02 -0.72790734980E+02 -0.29830624498E+02  0.91250688751E+02  0.00000000000E+00 0. -1.
         22    1    3    3    0    0  0.96058738520E+02  0.23804107521E+02  0.33308024923E+02  0.10441906581E+03  0.00000000000E+00 0. -1.
</event>
<event>
 7    1  0.5452757E-006  0.3025146E+02  0.7818608E-02  0.1637467E+00
          2   -1    0    0  502    0  0.00000000000E+00  0.00000000000E+00  0.36350564750E+04  0.36350564750E+04  0.00000000000E+00 0. -1.
          1   -1    0    0  501    0 -0.00000000000E+00 -0.00000000000E+00 -0.16451496208E+03  0.16451496208E+03  0.00000000000E+00 0. -1.
         25    2    1    2    0    0  0.74231062487E+01  0.84607043700E+01  0.21400363914E+04  0.21437134011E+04  0.12499881459E+03 0.  0.
          2    1    1    2  501    0 -0.30184165939E+02 -0.22251725287E+01 -0.16117455615E+03  0.16399168521E+03  0.00000000000E+00 0. -1.
          1    1    1    2  502    0  0.22761059690E+02 -0.62355318413E+01  0.14916796777E+04  0.14918663508E+04  0.00000000000E+00 0. -1.
         22    1    3    3    0    0 -0.18210228091E+02 -0.68783869583E+01  0.20173048716E+04  0.20173987879E+04  0.00000000000E+00 0.  1.
         22    1    3    3    0    0  0.25633334339E+02  0.15339091328E+02  0.12273151975E+03  0.12631461314E+03  0.00000000000E+00 0.  1.
</event>
<event>
 7    1  0.5452757E-006  0.8654678E+02  0.7818608E-02  0.1421307E+00
          2   -1    0    0  502    0  0.00000000000E+00  0.00000000000E+00  0.51048121752E+02  0.51048121752E+02  0.00000000000E+00 0. -1.
          1   -1    0    0  501    0 -0.00000000000E+00 -0.00000000000E+00 -0.11298082892E+04  0.11298082892E+04  0.00000000000E+00 0. -1.
         25    2    1    2    0    0  0.68013849376E+02 -0.18925814878E+02 -0.16662636502E+03  0.21994012981E+03  0.12500098002E+03 0.  0.
          2    1    1    2  501    0 -0.87659348936E+02 -0.95916554872E+01 -0.92096619615E+03  0.92517830485E+03  0.00000000000E+00 0. -1.
          1    1    1    2  502    0  0.19645499560E+02  0.28517470365E+02  0.88323937401E+01  0.35737976274E+02  0.00000000000E+00 0. -1.
         22    1    3    3    0    0 -0.16413361350E+02 -0.84572004180E+01 -0.12291437495E+03  0.12429346821E+03  0.00000000000E+00 0. -1.
         22    1    3    3    0    0  0.84427210726E+02 -0.10468614460E+02 -0.43711990065E+02  0.95646661600E+02  0.00000000000E+00 0. -1.
</event>
<event>
 7    1  0.6623132E-006  0.6759507E+02  0.7818608E-02  0.1420398E+00
          2   -1    0    0  502    0  0.00000000000E+00  0.00000000000E+00  0.17579134679E+04  0.17579134679E+04  0.00000000000E+00 0. -1.
          1   -1    0    0  501    0 -0.00000000000E+00 -0.00000000000E+00 -0.10638316133E+04  0.10638316133E+04  0.00000000000E+00 0. -1.
         25    2    1    2    0    0 -0.35235592118E+02  0.36483279010E+02 -0.44120127668E+02  0.14192526626E+03  0.12499447564E+03 0.  0.
          2    1    1    2  501    0 -0.32332572752E+02 -0.30791977680E+02 -0.96962239795E+03  0.97064985229E+03  0.00000000000E+00 0. -1.
          1    1    1    2  502    0  0.67568164870E+02 -0.56913013298E+01  0.17078243802E+04  0.17091699627E+04  0.00000000000E+00 0. -1.
         22    1    3    3    0    0 -0.40632352043E+02 -0.27271360780E+02 -0.58578596427E+02  0.76329333226E+02  0.00000000000E+00 0.  1.
         22    1    3    3    0    0  0.53967599254E+01  0.63754639790E+02  0.14458468759E+02  0.65595933039E+02  0.00000000000E+00 0.  1.
</event>
<event>
 7    1  0.5452757E-006  0.1070017E+03  0.7818608E-02  0.1300115E+00
          2   -1    0    0  502    0  0.00000000000E+00  0.00000000000E+00  0.43586056963E+02  0.43586056963E+02  0.00000000000E+00 0. -1.
          1   -1    0    0  501    0 -0.00000000000E+00 -0.00000000000E+00 -0.12232635510E+04  0.12232635510E+04  0.00000000000E+00 0. -1.
         25    2    1    2    0    0  0.50493711931E+02 -0.87350724761E+02 -0.27200231506E+03  0.31589584284E+03  0.12500064028E+03 0.  0.
          2    1    1    2  501    0 -0.10672458435E+03  0.33830917638E+02 -0.84159215064E+03  0.84900648756E+03  0.00000000000E+00 0. -1.
          1    1    1    2  502    0  0.56230872421E+02  0.53519807123E+02 -0.66083028341E+02  0.10194727756E+03  0.00000000000E+00 0. -1.
         22    1    3    3    0    0 -0.21330987770E+02 -0.85712036929E+02 -0.13791506911E+03  0.16377463357E+03  0.00000000000E+00 0.  1.
         22    1    3    3    0    0  0.71824699702E+02 -0.16386878314E+01 -0.13408724595E+03  0.15212120927E+03  0.00000000000E+00 0.  1.
</event>
<event>
 7    1  0.5452757E-006  0.7621694E+02  0.7818608E-02  0.1422277E+00
          2   -1    0    0  502    0  0.00000000000E+00  0.00000000000E+00  0.11233466596E+04  0.11233466596E+04  0.00000000000E+00 0. -1.
          1   -1    0    0  501    0 -0.00000000000E+00 -0.00000000000E+00 -0.16394937774E+03  0.16394937774E+03  0.00000000000E+00 0. -1.
         25    2    1    2    0    0 -0.68048411328E+01  0.49118323275E+02  0.75116795584E+02  0.15403357978E+03  0.12499958071E+03 0.  0.
          2    1    1    2  501    0 -0.20643090189E+02 -0.76867827332E+02 -0.11134800625E+03  0.13686920233E+03  0.00000000000E+00 0. -1.
          1    1    1    2  502    0  0.27447931321E+02  0.27749504057E+02  0.99562849253E+03  0.99639325522E+03  0.00000000000E+00 0. -1.
         22    1    3    3    0    0  0.50557163311E+02  0.27303926873E+02  0.72634166361E+02  0.92613461806E+02  0.00000000000E+00 0.  1.
         22    1    3    3    0    0 -0.57362004444E+02  0.21814396402E+02  0.24826292237E+01  0.61420117975E+02  0.00000000000E+00 0.  1.
</event>
<event>
 7    1  0.5452757E-006  0.6181078E+02  0.7818608E-02  0.1449008E+00
          2   -1    0    0  502    0  0.00000000000E+00  0.00000000000E+00  0.77675878286E+03  0.77675878286E+03  0.00000000000E+00 0. -1.
          1   -1    0    0  501    0 -0.00000000000E+00 -0.00000000000E+00 -0.17879115501E+03  0.17879115501E+03  0.00000000000E+00 0. -1.
         25    2    1    2    0    0  0.56154537100E+02 -0.66028090993E+02  0.20555707293E+03  0.25572115336E+03  0.12500622867E+03 0.  0.
          2    1    1    2  501    0 -0.17793693454E+01  0.39323491913E+02 -0.14947313101E+03  0.15456946679E+03  0.00000000000E+00 0. -1.
          1    1    1    2  502    0 -0.54375167755E+02  0.26704599080E+02  0.54188368593E+03  0.54525931771E+03  0.00000000000E+00 0. -1.
         22    1    3    3    0    0  0.66293564919E+02  0.11495849751E+02  0.58439612663E+02  0.89118907306E+02  0.00000000000E+00 0. -1.
         22    1    3    3    0    0 -0.10139027819E+02 -0.77523940745E+02  0.14711746027E+03  0.16660224605E+03  0.00000000000E+00 0. -1.
</event>
<event>
 7    1  0.5452757E-006  0.1626637E+03  0.7818608E-02  0.1293072E+00
          2   -1    0    0  502    0  0.00000000000E+00  0.00000000000E+00  0.34462541764E+04  0.34462541764E+04  0.00000000000E+00 0. -1.
          1   -1    0    0  501    0 -0.00000000000E+00 -0.00000000000E+00 -0.46756117184E+02  0.46756117184E+02  0.00000000000E+00 0. -1.
         25    2    1    2    0    0  0.19754015902E+03  0.60737242834E+02  0.10860341840E+04  0.11125676328E+04  0.12500144659E+03 0.  0.
          2    1    1    2  501    0 -0.54419469146E+02 -0.31284032879E+01 -0.69099185267E+01  0.54945541250E+02  0.00000000000E+00 0. -1.
          1    1    1    2  502    0 -0.14312068987E+03 -0.57608839546E+02  0.23203737938E+04  0.23254971195E+04  0.00000000000E+00 0. -1.
         22    1    3    3    0    0  0.59953548686E+02 -0.29759907893E+02  0.18802306385E+03  0.19958144367E+03  0.00000000000E+00 0.  1.
         22    1    3    3    0    0  0.13758661033E+03  0.90497150727E+02  0.89801112018E+03  0.91298618916E+03  0.00000000000E+00 0.  1.
</event>
<event>
 7    1  0.5452757E-006  0.1169318E+03  0.7818608E-02  0.1313798E+00
          2   -1    0    0  502    0  0.00000000000E+00  0.00000000000E+00  0.19841593747E+03  0.19841593747E+03  0.00000000000E+00 0. -1.
          1   -1    0    0  501    0 -0.00000000000E+00 -0.00000000000E+00 -0.57581058824E+03  0.57581058824E+03  0.00000000000E+00 0. -1.
         25    2    1    2    0    0  0.42242872094E+02 -0.44210912535E+02  0.71605552887E+02  0.15649742234E+03  0.12500009186E+03 0.  0.
          2    1    1    2  501    0 -0.10140841488E+03  0.64979623795E+02 -0.51369945621E+03  0.52762974653E+03  0.00000000000E+00 0. -1.
          1    1    1    2  502    0  0.59165542786E+02 -0.20768711259E+02  0.64699252556E+02  0.90099356834E+02  0.00000000000E+00 0. -1.
         22    1    3    3    0    0  0.34764185786E+02  0.35211183248E+02  0.27154496576E+00  0.49481812576E+02  0.00000000000E+00 0.  1.
         22    1    3    3    0    0  0.74786863078E+01 -0.79422095784E+02  0.71334007921E+02  0.10701560977E+03  0.00000000000E+00 0.  1.
</event>
<event>
 7    1  0.5452757E-006  0.4164273E+02  0.7818608E-02  0.1500111E+00
          2   -1    0    0  502    0  0.00000000000E+00  0.00000000000E+00  0.36251792022E+03  0.36251792022E+03  0.00000000000E+00 0. -1.
          1   -1    0    0  501    0 -0.00000000000E+00 -0.00000000000E+00 -0.87395707368E+03  0.87395707368E+03  0.00000000000E+00 0. -1.
         25    2    1    2    0    0 -0.34691620179E+02  0.32644160864E+02  0.18692623725E+03  0.22985930008E+03  0.12499891964E+03 0.  0.
          2    1    1    2  501    0 -0.78620525091E+01 -0.39839965270E+02 -0.84897444274E+03  0.84994508007E+03  0.00000000000E+00 0. -1.
          1    1    1    2  502    0  0.42553672688E+02  0.71958044061E+01  0.15060905203E+03  0.15667061376E+03  0.00000000000E+00 0. -1.
         22    1    3    3    0    0  0.35142148989E+02  0.35038010906E+02  0.13187682850E+03  0.14090468672E+03  0.00000000000E+00 0.  1.
         22    1    3    3    0    0 -0.69833769168E+02 -0.23938500423E+01  0.55049408755E+02  0.88954613363E+02  0.00000000000E+00 0.  1.
</event>
<event>
 7    1  0.5452757E-006  0.1020633E+03  0.7818608E-02  0.1318456E+00
          2   -1    0    0  502    0  0.00000000000E+00  0.00000000000E+00  0.26337665164E+03  0.26337665164E+03  0.00000000000E+00 0. -1.
          1   -1    0    0  501    0 -0.00000000000E+00 -0.00000000000E+00 -0.18439510772E+04  0.18439510772E+04  0.00000000000E+00 0. -1.
         25    2    1    2    0    0  0.32600264706E+02 -0.11812469281E+02 -0.49773069804E+03  0.51435750055E+03  0.12500191563E+03 0.  0.
          2    1    1    2  501    0  0.62284950841E+02 -0.29445160384E+02 -0.13264832397E+04  0.13282711387E+04  0.00000000000E+00 0. -1.
          1    1    1    2  502    0 -0.94885215547E+02  0.41257629666E+02  0.24363951220E+03  0.26469908961E+03  0.00000000000E+00 0. -1.
         22    1    3    3    0    0 -0.68121680479E+01 -0.13657094656E+02 -0.45837658978E+03  0.45863059201E+03  0.00000000000E+00 0. -1.
         22    1    3    3    0    0  0.39412432754E+02  0.18446253749E+01 -0.39354108255E+02  0.55726908536E+02  0.00000000000E+00 0. -1.
</event>
<event>
 7    1  0.5452757E-006  0.4787228E+02  0.7818608E-02  0.1472238E+00
          2   -1    0    0  502    0  0.00000000000E+00  0.00000000000E+00  0.47592733788E+03  0.47592733788E+03  0.00000000000E+00 0. -1.
          1   -1    0    0  501    0 -0.00000000000E+00 -0.00000000000E+00 -0.11227835899E+03  0.11227835899E+03  0.00000000000E+00 0. -1.
         25    2    1    2    0    0  0.28602006444E+02  0.29848660312E+01  0.28713626583E+03  0.31449632903E+03  0.12503488163E+03 0.  0.
          2    1    1    2  501    0  0.15034833407E+02 -0.40221108664E+02 -0.88848600002E+02  0.98680583298E+02  0.00000000000E+00 0. -1.
          1    1    1    2  502    0 -0.43636839851E+02  0.37236242632E+02  0.16536131307E+03  0.17502878454E+03  0.00000000000E+00 0. -1.
         22    1    3    3    0    0  0.30966272970E+00 -0.58707652804E+02  0.15905090912E+03  0.16954019017E+03  0.00000000000E+00 0.  1.
         22    1    3    3    0    0  0.28292343714E+02  0.61692518835E+02  0.12808535671E+03  0.14495613887E+03  0.00000000000E+00 0.  1.
</event>
<event>
 7    1  0.5452757E-006  0.7558923E+02  0.7818608E-02  0.1369193E+00
          2   -1    0    0  502    0  0.00000000000E+00  0.00000000000E+00  0.64122856081E+03  0.64122856081E+03  0.00000000000E+00 0. -1.
          1   -1    0    0  501    0 -0.00000000000E+00 -0.00000000000E+00 -0.81437028415E+02  0.81437028415E+02  0.00000000000E+00 0. -1.
         25    2    1    2    0    0 -0.12569573756E+03 -0.31085910668E+02  0.21526939627E+03  0.28059232154E+03  0.12500154262E+03 0.  0.
          2    1    1    2  501    0  0.56175298618E+02  0.21316911496E+02 -0.25630330412E+02  0.65322191693E+02  0.00000000000E+00 0. -1.
          1    1    1    2  502    0  0.69520438940E+02  0.97689991715E+01  0.37015246654E+03  0.37675107599E+03  0.00000000000E+00 0. -1.
         22    1    3    3    0    0  0.22843217203E+02 -0.17397039340E+02  0.20581466821E+02  0.35327982202E+02  0.00000000000E+00 0. -1.
         22    1    3    3    0    0 -0.14853895476E+03 -0.13688871328E+02  0.19468792945E+03  0.24526433934E+03  0.00000000000E+00 0. -1.
</event>
<event>
 7    1  0.5452757E-006  0.1318851E+03  0.7818608E-02  0.1405943E+00
          2   -1    0    0  502    0  0.00000000000E+00  0.00000000000E+00  0.15677061336E+04  0.15677061336E+04  0.00000000000E+00 0. -1.
          1   -1    0    0  501    0 -0.00000000000E+00 -0.00000000000E+00 -0.25644194402E+03  0.25644194402E+03  0.00000000000E+00 0. -1.
         25    2    1    2    0    0 -0.82709259963E+02 -0.72960378761E+02  0.12665373338E+02  0.16717904276E+03  0.12499752839E+03 0.  0.
          2    1    1    2  501    0 -0.25242411463E+02 -0.42820437256E+01 -0.17527236514E+03  0.17713248493E+03  0.00000000000E+00 0. -1.
          1    1    1    2  502    0  0.10795167143E+03  0.77242422487E+02  0.14738711814E+04  0.14798365499E+04  0.00000000000E+00 0. -1.
         22    1    3    3    0    0  0.33712701198E+01  0.91554037501E+01  0.43256464129E+02  0.44343078028E+02  0.00000000000E+00 0.  1.
         22    1    3    3    0    0 -0.86080530083E+02 -0.82115782512E+02 -0.30591090790E+02  0.12283596474E+03  0.00000000000E+00 0.  1.
</event>
<event>
 7    1  0.5452757E-006  0.9687407E+02  0.7818608E-02  0.1400671E+00
          2   -1    0    0  502    0  0.00000000000E+00  0.00000000000E+00  0.25291865689E+04  0.25291865689E+04  0.00000000000E+00 0. -1.
          1   -1    0    0  501    0 -0.00000000000E+00 -0.00000000000E+00 -0.22540828815E+03  0.22540828815E+03  0.00000000000E+00 0. -1.
         25    2    1    2    0    0  0.94296929832E+02  0.89778826642E+02  0.10176111499E+03  0.20721291403E+03  0.12501887268E+03 0.  0.
          2    1    1    2  501    0 -0.65632874722E+02 -0.67450178465E+02 -0.15970929771E+03  0.18537599790E+03  0.00000000000E+00 0. -1.
          1    1    1    2  502    0 -0.28664055110E+02 -0.22328648177E+02  0.23617264635E+04  0.23620059452E+04  0.00000000000E+00 0. -1.
         22    1    3    3    0    0  0.60000599131E+02  0.85216963044E+02  0.48754311663E+01  0.10433490555E+03  0.00000000000E+00 0. -1.
         22    1    3    3    0    0  0.34296330700E+02  0.45618635983E+01  0.96885683820E+02  0.10287800848E+03  0.00000000000E+00 0. -1.
</event>
<event>
 7    1  0.5452757E-006  0.7781333E+02  0.7818608E-02  0.1451528E+00
          2   -1    0    0  502    0  0.00000000000E+00  0.00000000000E+00  0.88428698995E+03  0.88428698995E+03  0.00000000000E+00 0. -1.
          1   -1    0    0  501    0 -0.00000000000E+00 -0.00000000000E+00 -0.22672433156E+03  0.22672433156E+03  0.00000000000E+00 0. -1.
         25    2    1    2    0    0  0.50223882164E+02 -0.45004613109E+02  0.24215423922E+03  0.28073446480E+03  0.12500124246E+03 0.  0.
          2    1    1    2  501    0 -0.15187247321E+02 -0.26673059477E+02 -0.20372496207E+03  0.20602418487E+03  0.00000000000E+00 0. -1.
          1    1    1    2  502    0 -0.35036634843E+02  0.71677672586E+02  0.61913338124E+03  0.62425267184E+03  0.00000000000E+00 0. -1.
         22    1    3    3    0    0  0.31436636774E+02 -0.83154197956E+01  0.23696931704E+03  0.23919001977E+03  0.00000000000E+00 0. -1.
         22    1    3    3    0    0  0.18787245390E+02 -0.36689193313E+02  0.51849221802E+01  0.41544445036E+02  0.00000000000E+00 0. -1.
</event>
<event>
 7    1  0.5452757E-006  0.7064323E+02  0.7818608E-02  0.1403393E+00
          2   -1    0    0  502    0  0.00000000000E+00  0.00000000000E+00  0.38941988639E+04  0.38941988639E+04  0.00000000000E+00 0. -1.
          1   -1    0    0  501    0 -0.00000000000E+00 -0.00000000000E+00 -0.23773747446E+03  0.23773747446E+03  0.00000000000E+00 0. -1.
         25    2    1    2    0    0  0.11068313617E+03  0.27904582190E+02  0.47071628204E+03  0.50022845593E+03  0.12500107042E+03 0.  0.
          2    1    1    2  501    0 -0.48623596152E+02  0.37354860281E+01 -0.21995458112E+03  0.22529586262E+03  0.00000000000E+00 0. -1.
          1    1    1    2  502    0 -0.62059540016E+02 -0.31640068218E+02  0.34056996885E+04  0.34064120198E+04  0.00000000000E+00 0. -1.
         22    1    3    3    0    0  0.97893273632E+02 -0.35413514345E+02  0.27001408170E+03  0.28938696297E+03  0.00000000000E+00 0.  1.
         22    1    3    3    0    0  0.12789862536E+02  0.63318096535E+02  0.20070220035E+03  0.21084149297E+03  0.00000000000E+00 0.  1.
</event>
<event>
 7    1  0.5452757E-006  0.5115884E+02  0.7818608E-02  0.1494807E+00
          2   -1    0    0  502    0  0.00000000000E+00  0.00000000000E+00  0.40358064690E+03  0.40358064690E+03  0.00000000000E+00 0. -1.
          1   -1    0    0  501    0 -0.00000000000E+00 -0.00000000000E+00 -0.23438737016E+03  0.23438737016E+03  0.00000000000E+00 0. -1.
         25    2    1    2    0    0 -0.47873062833E+02 -0.16733695461E+02  0.29631650628E+03  0.32557540807E+03  0.12499611090E+03 0.  0.
          2    1    1    2  501    0  0.17377380971E+02 -0.29556147231E+02 -0.20994833478E+03  0.21272950544E+03  0.00000000000E+00 0. -1.
          1    1    1    2  502    0  0.30495681862E+02  0.46289842692E+02  0.82825105242E+02  0.99663103539E+02  0.00000000000E+00 0. -1.
         22    1    3    3    0    0 -0.42698636562E+02  0.51175552945E+02  0.13922991633E+03  0.15436022928E+03  0.00000000000E+00 0. -1.
         22    1    3    3    0    0 -0.51744262706E+01 -0.67909248406E+02  0.15708658995E+03  0.17121517879E+03  0.00000000000E+00 0. -1.
</event>
<event>
 7    1  0.5452757E-006  0.7754097E+02  0.7818608E-02  0.1489891E+00
          2   -1    0    0  502    0  0.00000000000E+00  0.00000000000E+00  0.12011788816E+04  0.12011788816E+04  0.00000000000E+00 0. -1.
          1   -1    0    0  501    0 -0.00000000000E+00 -0.00000000000E+00 -0.37078981387E+03  0.37078981387E+03  0.00000000000E+00 0. -1.
         25    2    1    2    0    0  0.72310993987E+02 -0.30027935731E+02  0.12173869973E+03  0.19124737337E+03  0.12499876013E+03 0.  0.
          2    1    1    2  501    0 -0.59621890292E+02  0.49696205918E+02 -0.33142002125E+03  0.34038759256E+03  0.00000000000E+00 0. -1.
          1    1    1    2  502    0 -0.12689103696E+02 -0.19668270186E+02  0.10400703893E+04  0.10403337296E+04  0.00000000000E+00 0. -1.
         22    1    3    3    0    0  0.73758300380E+01 -0.41778899678E+02 -0.10281773338E+02  0.43653112031E+02  0.00000000000E+00 0.  1.
         22    1    3    3    0    0  0.64935163949E+02  0.11750963946E+02  0.13202047307E+03  0.14759426134E+03  0.00000000000E+00 0.  1.
</event>
<event>
 7    1  0.5452757E-006  0.5748212E+02  0.7818608E-02  0.1417067E+00
          2   -1    0    0  502    0  0.00000000000E+00  0.00000000000E+00  0.17359126022E+04  0.17359126022E+04  0.00000000000E+00 0. -1.
          1   -1    0    0  501    0 -0.00000000000E+00 -0.00000000000E+00 -0.21315695643E+03  0.21315695643E+03  0.00000000000E+00 0. -1.
         25    2    1    2    0    0 -0.20883944592E+02 -0.90883010760E+02 -0.31357034235E+02  0.15907260016E+03  0.12499987096E+03 0.  0.
          2    1    1    2  501    0 -0.16796526600E+02  0.52385401680E+02 -0.11106789256E+03  0.12394527168E+03  0.00000000000E+00 0. -1.
          1    1    1    2  502    0  0.37680471192E+02  0.38497609080E+02  0.16651805726E+04  0.16660516868E+04  0.00000000000E+00 0. -1.
         22    1    3    3    0    0 -0.35508234191E+02 -0.61555207694E+02  0.39285439453E+02  0.81198670202E+02  0.00000000000E+00 0.  1.
         22    1    3    3    0    0  0.14624289599E+02 -0.29327803065E+02 -0.70642473687E+02  0.77873929961E+02  0.00000000000E+00 0.  1.
</event>
<event>
 7    1  0.5650442E-006  0.9474814E+02  0.7818608E-02  0.1301373E+00
          2   -1    0    0  502    0  0.00000000000E+00  0.00000000000E+00  0.29716222470E+04  0.29716222470E+04  0.00000000000E+00 0. -1.
          1   -1    0    0  501    0 -0.00000000000E+00 -0.00000000000E+00 -0.47525046547E+03  0.47525046547E+03  0.00000000000E+00 0. -1.
         25    2    1    2    0    0 -0.93576288576E+01 -0.78693961511E+02 -0.28977207538E+02  0.15080999911E+03  0.12499468980E+03 0.  0.
          2    1    1    2  501    0  0.84320844023E+02  0.19993719906E+02 -0.37969511779E+03  0.38945877323E+03  0.00000000000E+00 0. -1.
          1    1    1    2  502    0 -0.74963215165E+02  0.58700241605E+02  0.29050441068E+04  0.29066039401E+04  0.00000000000E+00 0. -1.
         22    1    3    3    0    0 -0.40855311854E+02 -0.60653353480E+02  0.32017454667E+02  0.79831717997E+02  0.00000000000E+00 0.  1.
         22    1    3    3    0    0  0.31497682996E+02 -0.18040608031E+02 -0.60994662205E+02  0.70978281113E+02  0.00000000000E+00 0.  1.
</event>
<event>
 7    1  0.5452757E-006  0.8186735E+02  0.7818608E-02  0.1482351E+00
          2   -1    0    0  502    0  0.00000000000E+00  0.00000000000E+00  0.87914712833E+02  0.87914712833E+02  0.00000000000E+00 0. -1.
          1   -1    0    0  501    0 -0.00000000000E+00 -0.00000000000E+00 -0.17273505517E+04  0.17273505517E+04  0.00000000000E+00 0. -1.
         25    2    1    2    0    0  0.46612452758E+02 -0.57853664955E+02 -0.26606390090E+03  0.30320626666E+03  0.12499709388E+03 0.  0.
          2    1    1    2  501    0 -0.14426694881E+02 -0.18387503347E+02 -0.14178938465E+04  0.14180864535E+04  0.00000000000E+00 0. -1.
          1    1    1    2  502    0 -0.32185757878E+02  0.76241168302E+02  0.44521908508E+02  0.93972544348E+02  0.00000000000E+00 0. -1.
         22    1    3    3    0    0  0.77432983415E+02 -0.19760109683E+02 -0.22663635870E+03  0.24031306236E+03  0.00000000000E+00 0. -1.
         22    1    3    3    0    0 -0.30820530656E+02 -0.38093555272E+02 -0.39427542201E+02  0.62893204301E+02  0.00000000000E+00 0. -1.
</event>
<event>
 7    1  0.5452757E-006  0.3951386E+03  0.7818608E-02  0.1100068E+00
          2   -1    0    0  502    0  0.00000000000E+00  0.00000000000E+00  0.27108161703E+03  0.27108161703E+03  0.00000000000E+00 0. -1.
          1   -1    0    0  501    0 -0.00000000000E+00 -0.00000000000E+00 -0.18304963103E+04  0.18304963103E+04  0.00000000000E+00 0. -1.
         25    2    1    2    0    0 -0.34836491391E+03  0.13695065102E+03 -0.27896186645E+03  0.48327878562E+03  0.12500027056E+03 0.  0.
          2    1    1    2  501    0  0.27209454029E+03 -0.30814132600E+03 -0.13554672394E+04  0.14164314147E+04  0.00000000000E+00 0. -1.
          1    1    1    2  502    0  0.76270373619E+02  0.17119067499E+03  0.75014412569E+02  0.20186772696E+03  0.00000000000E+00 0. -1.
         22    1    3    3    0    0 -0.33478969191E+03  0.15647162193E+03 -0.27076668261E+03  0.45812891493E+03  0.00000000000E+00 0.  1.
         22    1    3    3    0    0 -0.13575221994E+02 -0.19520970915E+02 -0.81951838429E+01  0.25149870693E+02  0.00000000000E+00 0.  1.
</event>
<event>
 7    1  0.5452757E-006  0.9337033E+02  0.7818608E-02  0.1327602E+00
          2   -1    0    0  502    0  0.00000000000E+00  0.00000000000E+00  0.25695162216E+04  0.25695162216E+04  0.00000000000E+00 0. -1.
          1   -1    0    0  501    0 -0.00000000000E+00 -0.00000000000E+00 -0.68920909762E+02  0.68920909762E+02  0.00000000000E+00 0. -1.
         25    2    1    2    0    0 -0.83637587736E+02 -0.74567792430E+02  0.50419897779E+03  0.53141118131E+03  0.12500253067E+03 0.  0.
          2    1    1    2  501    0  0.16480705594E+02  0.92171728032E+02 -0.14657721556E+02  0.94773888316E+02  0.00000000000E+00 0. -1.
          1    1    1    2  502    0  0.67156882142E+02 -0.17603935603E+02  0.20110540556E+04  0.20122520617E+04  0.00000000000E+00 0. -1.
         22    1    3    3    0    0 -0.37909150120E+01 -0.70600163112E+02  0.12258059564E+03  0.14150885660E+03  0.00000000000E+00 0. -1.
         22    1    3    3    0    0 -0.79846672724E+02 -0.39676293178E+01  0.38161838214E+03  0.38990232471E+03  0.00000000000E+00 0. -1.
</event>
<event>
 7    1  0.5452757E-006  0.9518926E+02  0.7818608E-02  0.1431039E+00
          2   -1    0    0  502    0  0.00000000000E+00  0.00000000000E+00  0.50930861862E+03  0.50930861862E+03  0.00000000000E+00 0. -1.
          1   -1    0    0  501    0 -0.00000000000E+00 -0.00000000000E+00 -0.76123925174E+03  0.76123925174E+03  0.00000000000E+00 0. -1.
         25    2    1    2    0    0  0.70104335710E+02  0.82558398196E+02 -0.52680935207E+03  0.55216249397E+03  0.12499927728E+03 0.  0.
          2    1    1    2  501    0  0.79013875785E+01 -0.28146148400E+02 -0.21620708617E+03  0.21817456705E+03  0.00000000000E+00 0. -1.
          1    1    1    2  502    0 -0.78005723288E+02 -0.54412249795E+02  0.49108580512E+03  0.50021080935E+03  0.00000000000E+00 0. -1.
         22    1    3    3    0    0 -0.33176946099E+02  0.31607838018E+02 -0.98444476015E+02  0.10858673968E+03  0.00000000000E+00 0.  1.
         22    1    3    3    0    0  0.10328128181E+03  0.50950560178E+02 -0.42836487606E+03  0.44357575429E+03  0.00000000000E+00 0.  1.
</event>
<event>
 7    1  0.5452757E-006  0.1427457E+03  0.7818608E-02  0.1274816E+00
          2   -1    0    0  502    0  0.00000000000E+00  0.00000000000E+00  0.23011919211E+04  0.23011919211E+04  0.00000000000E+00 0. -1.
          1   -1    0    0  501    0 -0.00000000000E+00 -0.00000000000E+00 -0.23115835719E+03  0.23115835719E+03  0.00000000000E+00 0. -1.
         25    2    1    2    0    0  0.70290165778E+02  0.40565401886E+02  0.18472724124E+03  0.23734202456E+03  0.12498329380E+03 0.  0.
          2    1    1    2  501    0  0.35534517365E+02  0.64703970199E+02 -0.19543914294E+03  0.20891568701E+03  0.00000000000E+00 0. -1.
          1    1    1    2  502    0 -0.10582468314E+03 -0.10526937209E+03  0.20807454657E+04  0.20860925668E+04  0.00000000000E+00 0. -1.
         22    1    3    3    0    0  0.94844900595E+02  0.51128878779E+02  0.18059257761E+03  0.21029359596E+03  0.00000000000E+00 0.  1.
         22    1    3    3    0    0 -0.24554734817E+02 -0.10563476892E+02  0.41346636252E+01  0.27048428592E+02  0.00000000000E+00 0.  1.
</event>
<event>
 7    1  0.5452757E-006  0.6990467E+02  0.7818608E-02  0.1496634E+00
          2   -1    0    0  502    0  0.00000000000E+00  0.00000000000E+00  0.15618351770E+04  0.15618351770E+04  0.00000000000E+00 0. -1.
          1   -1    0    0  501    0 -0.00000000000E+00 -0.00000000000E+00 -0.78263778815E+02  0.78263778815E+02  0.00000000000E+00 0. -1.
         25    2    1    2    0    0  0.84714818885E+02  0.36163595826E+02  0.38040874492E+03  0.41087776801E+03  0.12500128333E+03 0.  0.
          2    1    1    2  501    0 -0.60060271997E+02 -0.33703253114E+02 -0.44042222922E+02  0.81748779457E+02  0.00000000000E+00 0. -1.
          1    1    1    2  502    0 -0.24654546888E+02 -0.24603427122E+01  0.11472048762E+04  0.11474724083E+04  0.00000000000E+00 0. -1.
         22    1    3    3    0    0 -0.27045935895E+02  0.30430551373E+02  0.70877939813E+02  0.81738506577E+02  0.00000000000E+00 0.  1.
         22    1    3    3    0    0  0.11176075478E+03  0.57330444529E+01  0.30953080511E+03  0.32913926144E+03  0.00000000000E+00 0.  1.
</event>
<event>
 7    1  0.5452757E-006  0.8423668E+02  0.7818608E-02  0.1459428E+00
          2   -1    0    0  502    0  0.00000000000E+00  0.00000000000E+00  0.10499236953E+04  0.10499236953E+04  0.00000000000E+00 0. -1.
          1   -1    0    0  501    0 -0.00000000000E+00 -0.00000000000E+00 -0.25114209296E+02  0.25114209296E+02  0.00000000000E+00 0. -1.
         25    2    1    2    0    0  0.87613253790E+02  0.56714483739E+02  0.59907756887E+03  0.62081559772E+03  0.12500183174E+03 0.  0.
          2    1    1    2  501    0 -0.23112414801E+02 -0.13491607982E+02  0.60747574363E+01  0.27442847552E+02  0.00000000000E+00 0. -1.
          1    1    1    2  502    0 -0.64500838989E+02 -0.43222875757E+02  0.41965715968E+03  0.42677945931E+03  0.00000000000E+00 0. -1.
         22    1    3    3    0    0  0.61071601600E+02  0.77907412010E+02  0.23287925657E+03  0.25304555619E+03  0.00000000000E+00 0. -1.
         22    1    3    3    0    0  0.26541652190E+02 -0.21192928271E+02  0.36619831231E+03  0.36777004153E+03  0.00000000000E+00 0. -1.
</event>
<event>
 7    1  0.5452757E-006  0.6001454E+02  0.7818608E-02  0.1479519E+00
          2   -1    0    0  502    0  0.00000000000E+00  0.00000000000E+00  0.31781465288E+03  0.31781465288E+03  0.00000000000E+00 0. -1.
          1   -1    0    0  501    0 -0.00000000000E+00 -0.00000000000E+00 -0.19987632710E+03  0.19987632710E+03  0.00000000000E+00 0. -1.
         25    2    1    2    0    0  0.63928060815E+02  0.60053374716E+02  0.14132666409E+03  0.20806666347E+03  0.12500122275E+03 0.  0.
          2    1    1    2  501    0 -0.21024842002E+02 -0.24815972405E+02 -0.15941747582E+03  0.16270159208E+03  0.00000000000E+00 0. -1.
          1    1    1    2  502    0 -0.42903218813E+02 -0.35237402312E+02  0.13602913750E+03  0.14692272443E+03  0.00000000000E+00 0. -1.
         22    1    3    3    0    0  0.79502846225E+02  0.80667477611E+02  0.72316399562E+02  0.13437859259E+03  0.00000000000E+00 0.  1.
         22    1    3    3    0    0 -0.15574785410E+02 -0.20614102895E+02  0.69010264533E+02  0.73688070877E+02  0.00000000000E+00 0.  1.
</event>
<event>
 7    1  0.5452757E-006  0.1096417E+03  0.7818608E-02  0.1291597E+00
          2   -1    0    0  502    0  0.00000000000E+00  0.00000000000E+00  0.45332833596E+03  0.45332833596E+03  0.00000000000E+00 0. -1.
          1   -1    0    0  501    0 -0.00000000000E+00 -0.00000000000E+00 -0.86444367946E+03  0.86444367946E+03  0.00000000000E+00 0. -1.
         25    2    1    2    0    0 -0.11677351420E+03 -0.61609238811E+02 -0.33404506169E+03  0.38032042182E+03  0.12500307233E+03 0.  0.
          2    1    1    2  501    0  0.88451646363E+01  0.81511662987E+02 -0.49684644080E+03  0.50356605711E+03  0.00000000000E+00 0. -1.
          1    1    1    2  502    0  0.10792834957E+03 -0.19902424176E+02  0.41977615898E+03  0.43388553649E+03  0.00000000000E+00 0. -1.
         22    1    3    3    0    0 -0.40165407826E+02 -0.41173699295E+02 -0.27626806824E+02  0.63810453335E+02  0.00000000000E+00 0.  1.
         22    1    3    3    0    0 -0.76608106376E+02 -0.20435539516E+02 -0.30641825486E+03  0.31650996849E+03  0.00000000000E+00 0.  1.
</event>
<event>
 7    1  0.5452757E-006  0.6685429E+02  0.7818608E-02  0.1476938E+00
          2   -1    0    0  502    0  0.00000000000E+00  0.00000000000E+00  0.81088435827E+03  0.81088435827E+03  0.00000000000E+00 0. -1.
          1   -1    0    0  501    0 -0.00000000000E+00 -0.00000000000E+00 -0.73087286541E+02  0.73087286541E+02  0.00000000000E+00 0. -1.
         25    2    1    2    0    0  0.44206483884E+02  0.39207958175E+02  0.13348623836E+03  0.19218428623E+03  0.12499898735E+03 0.  0.
          2    1    1    2  501    0 -0.27039177450E+02 -0.63487945936E+02 -0.15940793001E+02  0.70823338511E+02  0.00000000000E+00 0. -1.
          1    1    1    2  502    0 -0.17167306435E+02  0.24279987761E+02  0.62025162636E+03  0.62096402007E+03  0.00000000000E+00 0. -1.
         22    1    3    3    0    0  0.91321860251E+00 -0.44210003855E+02  0.45342560956E+02  0.63334873831E+02  0.00000000000E+00 0. -1.
         22    1    3    3    0    0  0.43293265282E+02  0.83417962030E+02  0.88143677408E+02  0.12884941240E+03  0.00000000000E+00 0. -1.
</event>
<event>
 7    1  0.5452757E-006  0.8708423E+02  0.7818608E-02  0.1384134E+00
          2   -1    0    0  502    0  0.00000000000E+00  0.00000000000E+00  0.26952881675E+04  0.26952881675E+04  0.00000000000E+00 0. -1.
          1   -1    0    0  501    0 -0.00000000000E+00 -0.00000000000E+00 -0.12790122362E+03  0.12790122362E+03  0.00000000000E+00 0. -1.
         25    2    1    2    0    0  0.10218828355E+03 -0.75367400852E+02  0.17152408461E+03  0.24732396907E+03  0.12500377463E+03 0.  0.
          2    1    1    2  501    0 -0.44860720582E+02  0.10797495892E+02 -0.83285862006E+02  0.95213470574E+02  0.00000000000E+00 0. -1.
          1    1    1    2  502    0 -0.57327562966E+02  0.64569904960E+02  0.24791487213E+04  0.24806519515E+04  0.00000000000E+00 0. -1.
         22    1    3    3    0    0  0.20159899783E+02 -0.44936028227E+02 -0.57990241092E+01  0.49591298357E+02  0.00000000000E+00 0.  1.
         22    1    3    3    0    0  0.82028383765E+02 -0.30431372625E+02  0.17732310872E+03  0.19773267072E+03  0.00000000000E+00 0.  1.
</event>
<event>
 7    1  0.5452757E-006  0.2740146E+02  0.7818608E-02  0.1667478E+00
          2   -1    0    0  502    0  0.00000000000E+00  0.00000000000E+00  0.22461516234E+04  0.22461516234E+04  0.00000000000E+00 0. -1.
          1   -1    0    0  501    0 -0.00000000000E+00 -0.00000000000E+00 -0.49487531093E+02  0.49487531093E+02  0.00000000000E+00 0. -1.
         25    2    1    2    0    0  0.15644322661E+02 -0.22403794123E+02  0.97781668459E+03  0.98615260368E+03  0.12499925701E+03 0.  0.
          2    1    1    2  501    0  0.11803057203E+02  0.18570699312E+02 -0.42487421321E+02  0.47847298803E+02  0.00000000000E+00 0. -1.
          1    1    1    2  502    0 -0.27447379863E+02  0.38330948114E+01  0.12613348290E+04  0.12616392520E+04  0.00000000000E+00 0. -1.
         22    1    3    3    0    0  0.34595369375E+01 -0.48528504327E+02  0.92244141918E+03  0.92372352788E+03  0.00000000000E+00 0.  1.
         22    1    3    3    0    0  0.12184785723E+02  0.26124710204E+02  0.55375265410E+02  0.62429075802E+02  0.00000000000E+00 0.  1.
</event>
<event>
 7    1  0.5452757E-006  0.1506882E+03  0.7818608E-02  0.1218712E+00
          2   -1    0    0  502    0  0.00000000000E+00  0.00000000000E+00  0.90798753152E+03  0.90798753152E+03  0.00000000000E+00 0. -1.
          1   -1    0    0  501    0 -0.00000000000E+00 -0.00000000000E+00 -0.86085000368E+02  0.86085000368E+02  0.00000000000E+00 0. -1.
         25    2    1    2    0    0 -0.91344245701E+02  0.57636374597E+02  0.25568782945E+03  0.30441185253E+03  0.12499834772E+03 0.  0.
          2    1    1    2  501    0 -0.36225482539E+02 -0.14626912482E+03  0.63548859014E+02  0.16354020895E+03  0.00000000000E+00 0. -1.
          1    1    1    2  502    0  0.12756972824E+03  0.88632750226E+02  0.50266584269E+03  0.52612047041E+03  0.00000000000E+00 0. -1.
         22    1    3    3    0    0 -0.48808441653E+02  0.88528889233E+02  0.21618551538E+03  0.23865415410E+03  0.00000000000E+00 0.  1.
         22    1    3    3    0    0 -0.42535804048E+02 -0.30892514636E+02  0.39502314062E+02  0.65757698430E+02  0.00000000000E+00 0.  1.
</event>
<event>
 7    1  0.5452757E-006  0.1154047E+03  0.7818608E-02  0.1399506E+00
          2   -1    0    0  502    0  0.00000000000E+00  0.00000000000E+00  0.71119503529E+03  0.71119503529E+03  0.00000000000E+00 0. -1.
          1   -1    0    0  501    0 -0.00000000000E+00 -0.00000000000E+00 -0.13254041308E+03  0.13254041308E+03  0.00000000000E+00 0. -1.
         25    2    1    2    0    0 -0.76373156909E+02  0.10410412753E+03  0.62672837588E+02  0.19032418945E+03  0.12499953622E+03 0.  0.
          2    1    1    2  501    0  0.45710740534E+02 -0.10138273384E+03 -0.22988742203E+02  0.11356237400E+03  0.00000000000E+00 0. -1.
          1    1    1    2  502    0  0.30662416374E+02 -0.27213936937E+01  0.53897052683E+03  0.53984888492E+03  0.00000000000E+00 0. -1.
         22    1    3    3    0    0  0.34441330836E+02  0.29215534700E+02  0.23757763585E+02  0.51031206807E+02  0.00000000000E+00 0. -1.
         22    1    3    3    0    0 -0.11081448775E+03  0.74888592829E+02  0.38915074002E+02  0.13929298265E+03  0.00000000000E+00 0. -1.
</event>
<event>
 7    1  0.5452757E-006  0.7131529E+02  0.7818608E-02  0.1356158E+00
          2   -1    0    0  502    0  0.00000000000E+00  0.00000000000E+00  0.17289440846E+03  0.17289440846E+03  0.00000000000E+00 0. -1.
          1   -1    0    0  501    0 -0.00000000000E+00 -0.00000000000E+00 -0.10035749662E+04  0.10035749662E+04  0.00000000000E+00 0. -1.
         25    2    1    2    0    0 -0.69862725355E+00 -0.81988473923E+01 -0.72341337096E+02  0.14465218689E+03  0.12499310757E+03 0.  0.
          2    1    1    2  501    0  0.34849604862E+02 -0.61888261571E+02 -0.88242079836E+03  0.88527459991E+03  0.00000000000E+00 0. -1.
          1    1    1    2  502    0 -0.34150977609E+02  0.70087108963E+02  0.12408157773E+03  0.14654258783E+03  0.00000000000E+00 0. -1.
         22    1    3    3    0    0 -0.40336988319E+02  0.26120901841E+02 -0.78312882764E+02  0.91881890199E+02  0.00000000000E+00 0.  1.
         22    1    3    3    0    0  0.39638361065E+02 -0.34319749233E+02  0.59715456684E+01  0.52770296693E+02  0.00000000000E+00 0.  1.
</event>
<event>
 7    1  0.5452757E-006  0.3637788E+02  0.7818608E-02  0.1582978E+00
          2   -1    0    0  502    0  0.00000000000E+00  0.00000000000E+00  0.26925002213E+02  0.26925002213E+02  0.00000000000E+00 0. -1.
          1   -1    0    0  501    0 -0.00000000000E+00 -0.00000000000E+00 -0.99708686639E+03  0.99708686639E+03  0.00000000000E+00 0. -1.
         25    2    1    2    0    0 -0.23797840582E+02 -0.34569333157E+02 -0.32423963450E+03  0.35002454699E+03  0.12499786758E+03 0.  0.
          2    1    1    2  501    0  0.27058020475E+02 -0.19091153502E+01 -0.63526576342E+03  0.63584461260E+03  0.00000000000E+00 0. -1.
          1    1    1    2  502    0 -0.32601798924E+01  0.36478448507E+02 -0.10656466254E+02  0.38142709020E+02  0.00000000000E+00 0. -1.
         22    1    3    3    0    0 -0.40609704344E+02  0.35847109460E+02 -0.91995211269E+02  0.10675805468E+03  0.00000000000E+00 0. -1.
         22    1    3    3    0    0  0.16811863762E+02 -0.70416442617E+02 -0.23224442323E+03  0.24326649230E+03  0.00000000000E+00 0. -1.
</event>
<event>
 7    1  0.5452757E-006  0.4615926E+02  0.7818608E-02  0.1527154E+00
          2   -1    0    0  502    0  0.00000000000E+00  0.00000000000E+00  0.88520966268E+03  0.88520966268E+03  0.00000000000E+00 0. -1.
          1   -1    0    0  501    0 -0.00000000000E+00 -0.00000000000E+00 -0.35013694815E+03  0.35013694815E+03  0.00000000000E+00 0. -1.
         25    2    1    2    0    0  0.21889500168E+02 -0.10314457534E+02 -0.29111095069E+02  0.13060816787E+03  0.12500199761E+03 0.  0.
          2    1    1    2  501    0  0.79600205597E-01 -0.30526461667E+02 -0.26876831396E+03  0.27049635448E+03  0.00000000000E+00 0. -1.
          1    1    1    2  502    0 -0.21969100374E+02  0.40840919201E+02  0.83295212356E+03  0.83424208849E+03  0.00000000000E+00 0. -1.
         22    1    3    3    0    0 -0.50735699917E+02  0.48225914728E+01 -0.13605179612E+00  0.50964567541E+02  0.00000000000E+00 0. -1.
         22    1    3    3    0    0  0.72625200085E+02 -0.15137049007E+02 -0.28975043272E+02  0.79643600325E+02  0.00000000000E+00 0. -1.
</event>
<event>
 7    1  0.5452757E-006  0.4912753E+02  0.7818608E-02  0.1546239E+00
          2   -1    0    0  502    0  0.00000000000E+00  0.00000000000E+00  0.46443158799E+03  0.46443158799E+03  0.00000000000E+00 0. -1.
          1   -1    0    0  501    0 -0.00000000000E+00 -0.00000000000E+00 -0.41307264857E+03  0.41307264857E+03  0.00000000000E+00 0. -1.
         25    2    1    2    0    0  0.17282549747E+01  0.30686865877E+02  0.16883634912E+02  0.12984447754E+03  0.12501944096E+03 0.  0.
          2    1    1    2  501    0  0.18348471571E+02 -0.46110887655E+02 -0.35445197424E+03  0.35790932150E+03  0.00000000000E+00 0. -1.
          1    1    1    2  502    0 -0.20076726546E+02  0.15424021778E+02  0.38892727875E+03  0.38975043753E+03  0.00000000000E+00 0. -1.
         22    1    3    3    0    0 -0.31487013622E+01  0.47499522432E+02  0.63895515677E+02  0.79679080537E+02  0.00000000000E+00 0. -1.
         22    1    3    3    0    0  0.48769563369E+01 -0.16812656555E+02 -0.47011880765E+02  0.50165397004E+02  0.00000000000E+00 0. -1.
</event>
<event>
 7    1  0.5452757E-006  0.9986679E+02  0.7818608E-02  0.1388469E+00
          2   -1    0    0  502    0  0.00000000000E+00  0.00000000000E+00  0.27114271305E+04  0.27114271305E+04  0.00000000000E+00 0. -1.
          1   -1    0    0  501    0 -0.00000000000E+00 -0.00000000000E+00 -0.19212105119E+03  0.19212105119E+03  0.00000000000E+00 0. -1.
         25    2    1    2    0    0 -0.42157450388E+02  0.11116693320E+03  0.46484798392E+02  0.17866770258E+03  0.12500389516E+03 0.  0.
          2    1    1    2  501    0  0.60084350743E+02 -0.76699255717E+02 -0.10703075568E+03  0.14473592399E+03  0.00000000000E+00 0. -1.
          1    1    1    2  502    0 -0.17926900354E+02 -0.34467677485E+02  0.25798520366E+04  0.25801445551E+04  0.00000000000E+00 0. -1.
         22    1    3    3    0    0  0.11155429084E+02  0.97111186007E+02 -0.11773603021E+02  0.98456303880E+02  0.00000000000E+00 0. -1.
         22    1    3    3    0    0 -0.53312879472E+02  0.14055747195E+02  0.58258401413E+02  0.80211398704E+02  0.00000000000E+00 0. -1.
</event>
<event>
 7    1  0.5452757E-006  0.6067573E+02  0.7818608E-02  0.1538248E+00
          2   -1    0    0  502    0  0.00000000000E+00  0.00000000000E+00  0.23816442347E+03  0.23816442347E+03  0.00000000000E+00 0. -1.
          1   -1    0    0  501    0 -0.00000000000E+00 -0.00000000000E+00 -0.68354649096E+03  0.68354649096E+03  0.00000000000E+00 0. -1.
         25    2    1    2    0    0  0.20428253788E+02 -0.53885077941E+02  0.15120828287E+02  0.13846798996E+03  0.12499531838E+03 0.  0.
          2    1    1    2  501    0  0.22360608736E-01  0.60806193640E+02 -0.61965590614E+03  0.62263218331E+03  0.00000000000E+00 0. -1.
          1    1    1    2  502    0 -0.20450614397E+02 -0.69211156994E+01  0.15915301036E+03  0.16061074117E+03  0.00000000000E+00 0. -1.
         22    1    3    3    0    0  0.25152902373E+02 -0.66172254011E+02 -0.40331620498E+02  0.81474384383E+02  0.00000000000E+00 0. -1.
         22    1    3    3    0    0 -0.47246485843E+01  0.12287176070E+02  0.55452448785E+02  0.56993605574E+02  0.00000000000E+00 0. -1.
</event>
<event>
 7    1  0.5452757E-006  0.1981207E+03  0.7818608E-02  0.1311819E+00
          2   -1    0    0  502    0  0.00000000000E+00  0.00000000000E+00  0.78649345678E+03  0.78649345678E+03  0.00000000000E+00 0. -1.
          1   -1    0    0  501    0 -0.00000000000E+00 -0.00000000000E+00 -0.22911562576E+04  0.22911562576E+04  0.00000000000E+00 0. -1.
         25    2    1    2    0    0 -0.50642647457E+02 -0.15937906487E+03  0.50150279069E+03  0.54322812252E+03  0.12500151989E+03 0.  0.
          2    1    1    2  501    0  0.37715914440E+02  0.19476834072E+03 -0.22645910492E+04  0.22732641327E+04  0.00000000000E+00 0. -1.
          1    1    1    2  502    0  0.12926733017E+02 -0.35389275849E+02  0.25842545773E+03  0.26115745916E+03  0.00000000000E+00 0. -1.
         22    1    3    3    0    0 -0.58232766859E+01 -0.76901385820E+02  0.78920348654E+02  0.11034561670E+03  0.00000000000E+00 0. -1.
         22    1    3    3    0    0 -0.44819370771E+02 -0.82477679049E+02  0.42258244203E+03  0.43288250583E+03  0.00000000000E+00 0. -1.
</event>
<event>
 7    1  0.5452757E-006  0.6779572E+02  0.7818608E-02  0.1381257E+00
          2   -1    0    0  502    0  0.00000000000E+00  0.00000000000E+00  0.30383558926E+03  0.30383558926E+03  0.00000000000E+00 0. -1.
          1   -1    0    0  501    0 -0.00000000000E+00 -0.00000000000E+00 -0.12858123726E+04  0.12858123726E+04  0.00000000000E+00 0. -1.
         25    2    1    2    0    0  0.18224368646E+02 -0.44919179953E+01 -0.20914395703E+03  0.24437280444E+03  0.12499827139E+03 0.  0.
          2    1    1    2  501    0 -0.59226491405E+02 -0.40226923581E+02 -0.10546114350E+04  0.10570389120E+04  0.00000000000E+00 0. -1.
          1    1    1    2  502    0  0.41002122759E+02  0.44718841576E+02  0.28177860868E+03  0.28823624542E+03  0.00000000000E+00 0. -1.
         22    1    3    3    0    0  0.14398759142E+02  0.59570305081E+02 -0.87347882994E+02  0.10670331849E+03  0.00000000000E+00 0.  1.
         22    1    3    3    0    0  0.38256095042E+01 -0.64062223076E+02 -0.12179607403E+03  0.13766948596E+03  0.00000000000E+00 0.  1.
</event>
<event>
 7    1  0.5452757E-006  0.5795881E+02  0.7818608E-02  0.1512158E+00
          2   -1    0    0  502    0  0.00000000000E+00  0.00000000000E+00  0.14385902900E+04  0.14385902900E+04  0.00000000000E+00 0. -1.
          1   -1    0    0  501    0 -0.00000000000E+00 -0.00000000000E+00 -0.12536811062E+04  0.12536811062E+04  0.00000000000E+00 0. -1.
         25    2    1    2    0    0 -0.17570020471E+02 -0.67796248746E+02  0.25877951997E+03  0.29579787150E+03  0.12499801543E+03 0.  0.
          2    1    1    2  501    0  0.24713369610E+02  0.10566062240E+02 -0.12343094663E+04  0.12346020618E+04  0.00000000000E+00 0. -1.
          1    1    1    2  502    0 -0.71433491391E+01  0.57230186506E+02  0.11604391301E+04  0.11618714629E+04  0.00000000000E+00 0. -1.
         22    1    3    3    0    0  0.14565861423E+02 -0.84675284555E+02  0.95196516114E+02  0.12823589518E+03  0.00000000000E+00 0.  1.
         22    1    3    3    0    0 -0.32135881894E+02  0.16879035809E+02  0.16358300386E+03  0.16756197631E+03  0.00000000000E+00 0.  1.
</event>
<event>
 7    1  0.5452757E-006  0.7233141E+02  0.7818608E-02  0.1421435E+00
          2   -1    0    0  502    0  0.00000000000E+00  0.00000000000E+00  0.45396796380E+03  0.45396796380E+03  0.00000000000E+00 0. -1.
          1   -1    0    0  501    0 -0.00000000000E+00 -0.00000000000E+00 -0.67084730147E+02  0.67084730147E+02  0.00000000000E+00 0. -1.
         25    2    1    2    0    0  0.15834723053E+02  0.88524904812E+02  0.13577568819E+03  0.20528713408E+03  0.12498148939E+03 0.  0.
          2    1    1    2  501    0 -0.36021573606E+02 -0.20394323961E+02 -0.12106737239E+02  0.43128358436E+02  0.00000000000E+00 0. -1.
          1    1    1    2  502    0  0.20186850553E+02 -0.68130580851E+02  0.26321428271E+03  0.27263720143E+03  0.00000000000E+00 0. -1.
         22    1    3    3    0    0  0.37394235046E+01  0.49669801610E+02 -0.12643665651E+02  0.51390025892E+02  0.00000000000E+00 0. -1.
         22    1    3    3    0    0  0.12095299548E+02  0.38855103202E+02  0.14841935384E+03  0.15389710819E+03  0.00000000000E+00 0. -1.
</event>
<event>
 7    1  0.5452757E-006  0.8789464E+02  0.7818608E-02  0.1312312E+00
          2   -1    0    0  502    0  0.00000000000E+00  0.00000000000E+00  0.87068349819E+03  0.87068349819E+03  0.00000000000E+00 0. -1.
          1   -1    0    0  501    0 -0.00000000000E+00 -0.00000000000E+00 -0.33258352355E+03  0.33258352355E+03  0.00000000000E+00 0. -1.
         25    2    1    2    0    0  0.23233941916E+02 -0.46538154727E+01  0.32955983440E+02  0.13142627423E+03  0.12500117862E+03 0.  0.
          2    1    1    2  501    0  0.83343896909E+01  0.87498599343E+02 -0.27395716753E+03  0.28771165527E+03  0.00000000000E+00 0. -1.
          1    1    1    2  502    0 -0.31568331607E+02 -0.82844783871E+02  0.77910115873E+03  0.78412909225E+03  0.00000000000E+00 0. -1.
         22    1    3    3    0    0 -0.41002131694E+02  0.17622660234E+01  0.49973219559E+02  0.64665315727E+02  0.00000000000E+00 0. -1.
         22    1    3    3    0    0  0.64236073610E+02 -0.64160814961E+01 -0.17017236119E+02  0.66760958499E+02  0.00000000000E+00 0. -1.
</event>
<event>
 7    1  0.5452757E-006  0.4648347E+02  0.7818608E-02  0.1477985E+00
          2   -1    0    0  502    0  0.00000000000E+00  0.00000000000E+00  0.20076711547E+03  0.20076711547E+03  0.00000000000E+00 0. -1.
          1   -1    0    0  501    0 -0.00000000000E+00 -0.00000000000E+00 -0.89488196938E+03  0.89488196938E+03  0.00000000000E+00 0. -1.
         25    2    1    2    0    0  0.21003431620E+02  0.42936792559E+02 -0.33472884954E+03  0.36048731457E+03  0.12499195557E+03 0.  0.
          2    1    1    2  501    0 -0.42424182430E+02 -0.15149372001E+01 -0.54353996517E+03  0.54519519443E+03  0.00000000000E+00 0. -1.
          1    1    1    2  502    0  0.21420750810E+02 -0.41421855359E+02  0.18415396079E+03  0.18996657585E+03  0.00000000000E+00 0. -1.
         22    1    3    3    0    0 -0.26806867155E+02  0.44537268365E+02 -0.51241794444E+02  0.72992450965E+02  0.00000000000E+00 0. -1.
         22    1    3    3    0    0  0.47810298775E+02 -0.16004758060E+01 -0.28348705510E+03  0.28749486360E+03  0.00000000000E+00 0. -1.
</event>
<event>
 7    1  0.5452757E-006  0.1959210E+03  0.7818608E-02  0.1312830E+00
          2   -1    0    0  502    0  0.00000000000E+00  0.00000000000E+00  0.10292009090E+04  0.10292009090E+04  0.00000000000E+00 0. -1.
          1   -1    0    0  501    0 -0.00000000000E+00 -0.00000000000E+00 -0.32780545299E+03  0.32780545299E+03  0.00000000000E+00 0. -1.
         25    2    1    2    0    0 -0.18110473415E+03 -0.44979571991E+02  0.99698972684E+02  0.24573544736E+03  0.12499575317E+03 0.  0.
          2    1    1    2  501    0 -0.16419619895E+02  0.33995077357E+02 -0.24187979301E+03  0.24480829942E+03  0.00000000000E+00 0. -1.
          1    1    1    2  502    0  0.19752435404E+03  0.10984494634E+02  0.84357627632E+03  0.86646261520E+03  0.00000000000E+00 0. -1.
         22    1    3    3    0    0 -0.72713950322E+02 -0.58977617540E+02  0.99253112296E+02  0.13644360829E+03  0.00000000000E+00 0.  1.
         22    1    3    3    0    0 -0.10839078382E+03  0.13998045549E+02  0.44586038761E+00  0.10929183908E+03  0.00000000000E+00 0.  1.
</event>
<event>
 7    1  0.5452757E-006  0.9079609E+02  0.7818608E-02  0.1335417E+00
          2   -1    0    0  502    0  0.00000000000E+00  0.00000000000E+00  0.41546825638E+03  0.41546825638E+03  0.00000000000E+00 0. -1.
          1   -1    0    0  501    0 -0.00000000000E+00 -0.00000000000E+00 -0.17933018712E+03  0.17933018712E+03  0.00000000000E+00 0. -1.
         25    2    1    2    0    0  0.13383878314E+03 -0.13639741690E+02  0.11779382484E+03  0.21817434048E+03  0.12500318096E+03 0.  0.
          2    1    1    2  501    0 -0.75195803832E+02  0.45338493997E+02 -0.10885055133E+03  0.13985145861E+03  0.00000000000E+00 0. -1.
          1    1    1    2  502    0 -0.58642979304E+02 -0.31698752307E+02  0.22719479576E+03  0.23677264441E+03  0.00000000000E+00 0. -1.
         22    1    3    3    0    0  0.10119169530E+03  0.13190971209E+02  0.13775788635E+03  0.17143802429E+03  0.00000000000E+00 0.  1.
         22    1    3    3    0    0  0.32647087839E+02 -0.26830712899E+02 -0.19964061519E+02  0.46736316194E+02  0.00000000000E+00 0.  1.
</event>
<event>
 7    1  0.5452757E-006  0.8565422E+02  0.7818608E-02  0.1494909E+00
          2   -1    0    0  502    0  0.00000000000E+00  0.00000000000E+00  0.45406454363E+03  0.45406454363E+03  0.00000000000E+00 0. -1.
          1   -1    0    0  501    0 -0.00000000000E+00 -0.00000000000E+00 -0.56297495652E+03  0.56297495652E+03  0.00000000000E+00 0. -1.
         25    2    1    2    0    0 -0.48093064174E+02  0.64636789711E+02  0.94398797836E+02  0.17614442682E+03  0.12499947465E+03 0.  0.
          2    1    1    2  501    0 -0.18371327773E+02 -0.90141418790E+01 -0.51600508988E+03  0.51641070208E+03  0.00000000000E+00 0. -1.
          1    1    1    2  502    0  0.66464391947E+02 -0.55622647832E+02  0.31269587915E+03  0.32448437125E+03  0.00000000000E+00 0. -1.
         22    1    3    3    0    0  0.37333778055E+02 -0.54324542690E+01  0.17894843033E+02  0.41755813373E+02  0.00000000000E+00 0.  1.
         22    1    3    3    0    0 -0.85426842229E+02  0.70069243980E+02  0.76503954802E+02  0.13438861345E+03  0.00000000000E+00 0.  1.
</event>
<event>
 7    1  0.5452757E-006  0.1184955E+03  0.7818608E-02  0.1403858E+00
          2   -1    0    0  502    0  0.00000000000E+00  0.00000000000E+00  0.12607148274E+03  0.12607148274E+03  0.00000000000E+00 0. -1.
          1   -1    0    0  501    0 -0.00000000000E+00 -0.00000000000E+00 -0.15748694223E+04  0.15748694223E+04  0.00000000000E+00 0. -1.
         25    2    1    2    0    0  0.10971844744E+03 -0.56171890444E+02 -0.35948020032E+03  0.40005694517E+03  0.12500450382E+03 0.  0.
          2    1    1    2  501    0  0.53489514680E+01  0.28468868608E+02 -0.11617583289E+04  0.11621194012E+04  0.00000000000E+00 0. -1.
          1    1    1    2  502    0 -0.11506739891E+03  0.27703021836E+02  0.72440589689E+02  0.13876455868E+03  0.00000000000E+00 0. -1.
         22    1    3    3    0    0  0.13497502044E+03 -0.58983612662E+02 -0.27671348301E+03  0.31347675255E+03  0.00000000000E+00 0.  1.
         22    1    3    3    0    0 -0.25256573001E+02  0.28117222180E+01 -0.82766717306E+02  0.86580192626E+02  0.00000000000E+00 0.  1.
</event>
<event>
 7    1  0.5452757E-006  0.8648161E+02  0.7818608E-02  0.1356187E+00
          2   -1    0    0  502    0  0.00000000000E+00  0.00000000000E+00  0.26491329652E+04  0.26491329652E+04  0.00000000000E+00 0. -1.
          1   -1    0    0  501    0 -0.00000000000E+00 -0.00000000000E+00 -0.64063062850E+02  0.64063062850E+02  0.00000000000E+00 0. -1.
         25    2    1    2    0    0  0.90014946033E+00  0.64443991937E+02  0.83519372867E+03  0.84695192974E+03  0.12500067407E+03 0.  0.
          2    1    1    2  501    0  0.57618833448E+02 -0.66507866310E+02 -0.24151931060E+02  0.91249887797E+02  0.00000000000E+00 0. -1.
          1    1    1    2  502    0 -0.58518982908E+02  0.20638743737E+01  0.17740281047E+04  0.17749942105E+04  0.00000000000E+00 0. -1.
         22    1    3    3    0    0  0.20837391848E+02  0.40643684996E+02  0.79427751111E+03  0.79558963711E+03  0.00000000000E+00 0. -1.
         22    1    3    3    0    0 -0.19937242387E+02  0.23800306941E+02  0.40916217559E+02  0.51362292627E+02  0.00000000000E+00 0. -1.
</event>
<event>
 7    1  0.5452757E-006  0.1151249E+03  0.7818608E-02  0.1295603E+00
          2   -1    0    0  502    0  0.00000000000E+00  0.00000000000E+00  0.23103495769E+04  0.23103495769E+04  0.00000000000E+00 0. -1.
          1   -1    0    0  501    0 -0.00000000000E+00 -0.00000000000E+00 -0.43954444631E+02  0.43954444631E+02  0.00000000000E+00 0. -1.
         25    2    1    2    0    0  0.47086862908E+01  0.21396782563E+02  0.17108289935E+03  0.21301231940E+03  0.12499958294E+03 0.  0.
          2    1    1    2  501    0 -0.28146000624E+01 -0.13650608702E+03  0.19812410075E+03  0.24061378403E+03  0.00000000000E+00 0. -1.
          1    1    1    2  502    0 -0.18940862285E+01  0.11510930445E+03  0.18971881322E+04  0.19006779181E+04  0.00000000000E+00 0. -1.
         22    1    3    3    0    0  0.44550199500E+01  0.45262926250E+02  0.18139677342E+03  0.18701168173E+03  0.00000000000E+00 0. -1.
         22    1    3    3    0    0  0.25366634083E+00 -0.23866143687E+02 -0.10313874067E+02  0.26000637673E+02  0.00000000000E+00 0. -1.
</event>
<event>
 7    1  0.5452757E-006  0.8193596E+02  0.7818608E-02  0.1360159E+00
          2   -1    0    0  502    0  0.00000000000E+00  0.00000000000E+00  0.89589408010E+03  0.89589408010E+03  0.00000000000E+00 0. -1.
          1   -1    0    0  501    0 -0.00000000000E+00 -0.00000000000E+00 -0.31057088545E+03  0.31057088545E+03  0.00000000000E+00 0. -1.
         25    2    1    2    0    0 -0.27294542849E+02 -0.27554450383E+01 -0.88144544187E+02  0.15539489566E+03  0.12500211351E+03 0.  0.
          2    1    1    2  501    0 -0.49926734855E+02  0.32858935462E+02 -0.18201733788E+03  0.19157948685E+03  0.00000000000E+00 0. -1.
          1    1    1    2  502    0  0.77221277704E+02 -0.30103490423E+02  0.85548507672E+03  0.85949058305E+03  0.00000000000E+00 0. -1.
         22    1    3    3    0    0 -0.42004352963E+02  0.52120600951E+02 -0.27709434276E+02  0.72448157045E+02  0.00000000000E+00 0. -1.
         22    1    3    3    0    0  0.14709810114E+02 -0.54876045990E+02 -0.60435109911E+02  0.82946738616E+02  0.00000000000E+00 0. -1.
</event>
<event>
 7    1  0.5452757E-006  0.1071227E+03  0.7818608E-02  0.1460254E+00
          2   -1    0    0  502    0  0.00000000000E+00  0.00000000000E+00  0.34312765310E+03  0.34312765310E+03  0.00000000000E+00 0. -1.
          1   -1    0    0  501    0 -0.00000000000E+00 -0.00000000000E+00 -0.26833549123E+03  0.26833549123E+03  0.00000000000E+00 0. -1.
         25    2    1    2    0    0 -0.12475880931E+03  0.11160436496E+02  0.78377019830E+02  0.19354194576E+03  0.12500484666E+03 0.  0.
          2    1    1    2  501    0  0.10425851853E+03 -0.15323070970E+02 -0.19698109266E+03  0.22339692490E+03  0.00000000000E+00 0. -1.
          1    1    1    2  502    0  0.20500290777E+02  0.41626344744E+01  0.19339623471E+03  0.19452427367E+03  0.00000000000E+00 0. -1.
         22    1    3    3    0    0 -0.20692505262E+02  0.34498985449E+01  0.86373404004E+02  0.88884455859E+02  0.00000000000E+00 0. -1.
         22    1    3    3    0    0 -0.10406630404E+03  0.77105379509E+01 -0.79963841739E+01  0.10465748990E+03  0.00000000000E+00 0. -1.
</event>
<event>
 7    1  0.5452757E-006  0.3601323E+02  0.7818608E-02  0.1556858E+00
          2   -1    0    0  502    0  0.00000000000E+00  0.00000000000E+00  0.10739826486E+03  0.10739826486E+03  0.00000000000E+00 0. -1.
          1   -1    0    0  501    0 -0.00000000000E+00 -0.00000000000E+00 -0.35543558196E+03  0.35543558196E+03  0.00000000000E+00 0. -1.
         25    2    1    2    0    0 -0.61440525450E+02  0.14700959202E+02  0.20940597467E+02  0.14161452892E+03  0.12500043924E+03 0.  0.
          2    1    1    2  501    0  0.29604205254E+02 -0.19939782286E+02 -0.28357069023E+03  0.28580822284E+03  0.00000000000E+00 0. -1.
          1    1    1    2  502    0  0.31836320196E+02  0.52388230835E+01  0.14592775665E+02  0.35411095049E+02  0.00000000000E+00 0. -1.
         22    1    3    3    0    0 -0.34069354075E+01 -0.26064550314E+02 -0.40163855816E+02  0.48001076091E+02  0.00000000000E+00 0. -1.
         22    1    3    3    0    0 -0.58033590043E+02  0.40765509516E+02  0.61104453283E+02  0.93613452827E+02  0.00000000000E+00 0. -1.
</event>
<event>
 7    1  0.5452757E-006  0.5948156E+02  0.7818608E-02  0.1538220E+00
          2   -1    0    0  502    0  0.00000000000E+00  0.00000000000E+00  0.28680098619E+04  0.28680098619E+04  0.00000000000E+00 0. -1.
          1   -1    0    0  501    0 -0.00000000000E+00 -0.00000000000E+00 -0.15882148338E+02  0.15882148338E+02  0.00000000000E+00 0. -1.
         25    2    1    2    0    0 -0.75207760733E+01  0.80107734301E+02  0.44165989897E+03  0.46600675656E+03  0.12500007857E+03 0.  0.
          2    1    1    2  501    0  0.56992747473E+01 -0.21277487710E+02  0.32924982112E+02  0.39613983174E+02  0.00000000000E+00 0. -1.
          1    1    1    2  502    0  0.18215013260E+01 -0.58830246591E+02  0.23775428325E+04  0.23782712705E+04  0.00000000000E+00 0. -1.
         22    1    3    3    0    0 -0.52876901662E+02  0.58568940348E+02  0.37115603163E+03  0.37945103415E+03  0.00000000000E+00 0. -1.
         22    1    3    3    0    0  0.45356125588E+02  0.21538793953E+02  0.70503867339E+02  0.86555722417E+02  0.00000000000E+00 0. -1.
</event>
<event>
 7    1  0.5452757E-006  0.3819938E+02  0.7818608E-02  0.1615343E+00
          2   -1    0    0  502    0  0.00000000000E+00  0.00000000000E+00  0.14685722102E+03  0.14685722102E+03  0.00000000000E+00 0. -1.
          1   -1    0    0  501    0 -0.00000000000E+00 -0.00000000000E+00 -0.19249107285E+03  0.19249107285E+03  0.00000000000E+00 0. -1.
         25    2    1    2    0    0  0.41281356818E+02  0.12132527529E+02  0.72863766522E+02  0.15094897686E+03  0.12500046599E+03 0.  0.
          2    1    1    2  501    0 -0.26564412465E+02 -0.27470228966E+02 -0.14754038853E+03  0.15240881777E+03  0.00000000000E+00 0. -1.
          1    1    1    2  502    0 -0.14716944353E+02  0.15337701437E+02  0.29042770167E+02  0.35990499238E+02  0.00000000000E+00 0. -1.
         22    1    3    3    0    0  0.74541401282E+02  0.24611902026E+02  0.10529213254E+02  0.79202465606E+02  0.00000000000E+00 0.  1.
         22    1    3    3    0    0 -0.33260044464E+02 -0.12479374498E+02  0.62334553268E+02  0.71746511251E+02  0.00000000000E+00 0.  1.
</event>
<event>
 7    1  0.5452757E-006  0.1488736E+03  0.7818608E-02  0.1267896E+00
          2   -1    0    0  502    0  0.00000000000E+00  0.00000000000E+00  0.22012717777E+04  0.22012717777E+04  0.00000000000E+00 0. -1.
          1   -1    0    0  501    0 -0.00000000000E+00 -0.00000000000E+00 -0.41352375240E+03  0.41352375240E+03  0.00000000000E+00 0. -1.
         25    2    1    2    0    0 -0.12108997660E+03  0.28130012515E+02 -0.48739059606E+02  0.18290371729E+03  0.12499677528E+03 0.  0.
          2    1    1    2  501    0 -0.22033965511E+02 -0.72389278472E+02 -0.29021616648E+03  0.29991853321E+03  0.00000000000E+00 0. -1.
          1    1    1    2  502    0  0.14312394212E+03  0.44259265957E+02  0.21267032514E+04  0.21319732796E+04  0.00000000000E+00 0. -1.
         22    1    3    3    0    0 -0.81775728163E+02  0.25541897729E+02  0.33282831677E+02  0.91909766296E+02  0.00000000000E+00 0.  1.
         22    1    3    3    0    0 -0.39314248442E+02  0.25881147865E+01 -0.82021891283E+02  0.90993950999E+02  0.00000000000E+00 0.  1.
</event>
<event>
 7    1  0.5452757E-006  0.5474553E+02  0.7818608E-02  0.1475461E+00
          2   -1    0    0  502    0  0.00000000000E+00  0.00000000000E+00  0.67210171325E+03  0.67210171325E+03  0.00000000000E+00 0. -1.
          1   -1    0    0  501    0 -0.00000000000E+00 -0.00000000000E+00 -0.24451498196E+03  0.24451498196E+03  0.00000000000E+00 0. -1.
         25    2    1    2    0    0  0.27136371191E+02  0.20693286051E+02  0.35729941355E+02  0.13441338841E+03  0.12500294215E+03 0.  0.
          2    1    1    2  501    0  0.28305979265E+02 -0.23352992940E+02 -0.19212070773E+03  0.19559385747E+03  0.00000000000E+00 0. -1.
          1    1    1    2  502    0 -0.55442350456E+02  0.26597068890E+01  0.58397749767E+03  0.58660944934E+03  0.00000000000E+00 0. -1.
         22    1    3    3    0    0  0.72780596412E+02 -0.10107619181E+02  0.11996325204E+02  0.74451937503E+02  0.00000000000E+00 0. -1.
         22    1    3    3    0    0 -0.45644225221E+02  0.30800905231E+02  0.23733616151E+02  0.59961450905E+02  0.00000000000E+00 0. -1.
</event>
<event>
 7    1  0.8146979E-006  0.7823064E+02  0.7818608E-02  0.1387807E+00
          2   -1    0    0  502    0  0.00000000000E+00  0.00000000000E+00  0.10071615579E+04  0.10071615579E+04  0.00000000000E+00 0. -1.
          1   -1    0    0  501    0 -0.00000000000E+00 -0.00000000000E+00 -0.12108960189E+04  0.12108960189E+04  0.00000000000E+00 0. -1.
         25    2    1    2    0    0  0.17870653228E+02 -0.10999323537E+03 -0.88923676319E+02  0.18960457308E+03  0.12499840739E+03 0.  0.
          2    1    1    2  501    0  0.23541936329E+02  0.43953613505E+02 -0.10694624690E+04  0.10706241710E+04  0.00000000000E+00 0. -1.
          1    1    1    2  502    0 -0.41412589556E+02  0.66039621865E+02  0.95465168438E+03  0.95782883268E+03  0.00000000000E+00 0. -1.
         22    1    3    3    0    0  0.68914013991E+02 -0.86872039535E+02 -0.66140885327E+02  0.12911432643E+03  0.00000000000E+00 0. -1.
         22    1    3    3    0    0 -0.51043360763E+02 -0.23121195834E+02 -0.22782790992E+02  0.60490246654E+02  0.00000000000E+00 0. -1.
</event>
<event>
 7    1  0.5452757E-006  0.2060803E+03  0.7818608E-02  0.1295225E+00
          2   -1    0    0  502    0  0.00000000000E+00  0.00000000000E+00  0.12101215778E+04  0.12101215778E+04  0.00000000000E+00 0. -1.
          1   -1    0    0  501    0 -0.00000000000E+00 -0.00000000000E+00 -0.66604255273E+03  0.66604255273E+03  0.00000000000E+00 0. -1.
         25    2    1    2    0    0  0.23261745372E+03  0.23117909378E+02  0.63574048336E+03  0.68879320578E+03  0.12499920255E+03 0.  0.
          2    1    1    2  501    0 -0.19947136072E+03 -0.49191339802E+02 -0.62215755590E+03  0.65520121796E+03  0.00000000000E+00 0. -1.
          1    1    1    2  502    0 -0.33146092998E+02  0.26073430423E+02  0.53049609765E+03  0.53216970684E+03  0.00000000000E+00 0. -1.
         22    1    3    3    0    0  0.10136938374E+03 -0.46773114966E+02  0.20997557617E+03  0.23780920679E+03  0.00000000000E+00 0. -1.
         22    1    3    3    0    0  0.13124806998E+03  0.69891024344E+02  0.42576490719E+03  0.45098399899E+03  0.00000000000E+00 0. -1.
</event>
<event>
 7    1  0.5452757E-006  0.1132102E+03  0.7818608E-02  0.1317060E+00
          2   -1    0    0  502    0  0.00000000000E+00  0.00000000000E+00  0.25506179446E+03  0.25506179446E+03  0.00000000000E+00 0. -1.
          1   -1    0    0  501    0 -0.00000000000E+00 -0.00000000000E+00 -0.69980001200E+03  0.69980001200E+03  0.00000000000E+00 0. -1.
         25    2    1    2    0    0  0.35075932502E+02 -0.10173057877E+03 -0.12964791318E+03  0.20979094436E+03  0.12499690895E+03 0.  0.
          2    1    1    2  501    0 -0.90916084118E+02  0.72793431734E+02 -0.51888341987E+03  0.53179377720E+03  0.00000000000E+00 0. -1.
          1    1    1    2  502    0  0.55840151616E+02  0.28937147038E+02  0.20379311550E+03  0.21327708489E+03  0.00000000000E+00 0. -1.
         22    1    3    3    0    0  0.12107090667E+01 -0.12368286977E+03 -0.10678303824E+03  0.16340604440E+03  0.00000000000E+00 0.  1.
         22    1    3    3    0    0  0.33865223435E+02  0.21952291001E+02 -0.22864874935E+02  0.46384899960E+02  0.00000000000E+00 0.  1.
</event>
<event>
 7    1  0.5452757E-006  0.6202737E+02  0.7818608E-02  0.1491745E+00
          2   -1    0    0  502    0  0.00000000000E+00  0.00000000000E+00  0.21694100445E+04  0.21694100445E+04  0.00000000000E+00 0. -1.
          1   -1    0    0  501    0 -0.00000000000E+00 -0.00000000000E+00 -0.21490588731E+04  0.21490588731E+04  0.00000000000E+00 0. -1.
         25    2    1    2    0    0  0.22579909584E+02  0.25789133775E+02  0.14772587895E+02  0.13045197168E+03  0.12499822329E+03 0.  0.
          2    1    1    2  501    0 -0.33012178382E+02 -0.52724754570E+02 -0.20906570437E+04  0.20915823144E+04  0.00000000000E+00 0. -1.
          1    1    1    2  502    0  0.10432268799E+02  0.26935620794E+02  0.20962356272E+04  0.20964346316E+04  0.00000000000E+00 0. -1.
         22    1    3    3    0    0  0.60663897767E+01  0.45244834510E+02  0.61868294646E+02  0.76886813025E+02  0.00000000000E+00 0.  1.
         22    1    3    3    0    0  0.16513519807E+02 -0.19455700735E+02 -0.47095706751E+02  0.53565158656E+02  0.00000000000E+00 0.  1.
</event>
<event>
 7    1  0.5452757E-006  0.8960960E+02  0.7818608E-02  0.1418855E+00
          2   -1    0    0  502    0  0.00000000000E+00  0.00000000000E+00  0.73017378655E+02  0.73017378655E+02  0.00000000000E+00 0. -1.
          1   -1    0    0  501    0 -0.00000000000E+00 -0.00000000000E+00 -0.13257872642E+04  0.13257872642E+04  0.00000000000E+00 0. -1.
         25    2    1    2    0    0 -0.82718646403E+02  0.54841169932E+02 -0.25961165991E+03  0.30475008136E+03  0.12499787897E+03 0.  0.
          2    1    1    2  501    0  0.86748116115E+02 -0.20997813626E+02 -0.10357029483E+04  0.10395416014E+04  0.00000000000E+00 0. -1.
          1    1    1    2  502    0 -0.40294697120E+01 -0.33843356305E+02  0.42544722689E+02  0.54512960118E+02  0.00000000000E+00 0. -1.
         22    1    3    3    0    0 -0.19669177412E+02 -0.28131651998E+02 -0.12443550140E+02  0.36511755974E+02  0.00000000000E+00 0.  1.
         22    1    3    3    0    0 -0.63049468991E+02  0.82972821930E+02 -0.24716810977E+03  0.26823832539E+03  0.00000000000E+00 0.  1.
</event>
<event>
 7    1  0.5452757E-006  0.1183031E+03  0.7818608E-02  0.1290142E+00
          2   -1    0    0  502    0  0.00000000000E+00  0.00000000000E+00  0.20077392571E+04  0.20077392571E+04  0.00000000000E+00 0. -1.
          1   -1    0    0  501    0 -0.00000000000E+00 -0.00000000000E+00 -0.12359903971E+04  0.12359903971E+04  0.00000000000E+00 0. -1.
         25    2    1    2    0    0  0.42349695774E+01 -0.44959111946E+02  0.70274864797E+03  0.71520665668E+03  0.12500257129E+03 0.  0.
          2    1    1    2  501    0 -0.47536607285E+02  0.10866475297E+03 -0.12257542161E+04  0.12314792552E+04  0.00000000000E+00 0. -1.
          1    1    1    2  502    0  0.43301637708E+02 -0.63705641021E+02  0.12947544281E+04  0.12970437424E+04  0.00000000000E+00 0. -1.
         22    1    3    3    0    0  0.59634035861E+01  0.34489017042E+02  0.78872500139E+02  0.86289777825E+02  0.00000000000E+00 0. -1.
         22    1    3    3    0    0 -0.17284340087E+01 -0.79448128988E+02  0.62387614783E+03  0.62891687886E+03  0.00000000000E+00 0. -1.
</event>
<event>
 7    1  0.5452757E-006  0.1316963E+03  0.7818608E-02  0.1266326E+00
          2   -1    0    0  502    0  0.00000000000E+00  0.00000000000E+00  0.28894731454E+04  0.28894731454E+04  0.00000000000E+00 0. -1.
          1   -1    0    0  501    0 -0.00000000000E+00 -0.00000000000E+00 -0.10259039543E+04  0.10259039543E+04  0.00000000000E+00 0. -1.
         25    2    1    2    0    0 -0.51160500583E+02 -0.78310050475E+02  0.29029199184E+03  0.32961224269E+03  0.12499971672E+03 0.  0.
          2    1    1    2  501    0 -0.79123708618E+02  0.35816246141E+02 -0.10025448891E+04  0.10062999650E+04  0.00000000000E+00 0. -1.
          1    1    1    2  502    0  0.13028420920E+03  0.42493804334E+02  0.25758220884E+04  0.25794648921E+04  0.00000000000E+00 0. -1.
         22    1    3    3    0    0  0.15046720737E+02 -0.11965989967E+02 -0.49484030592E+01  0.19851332793E+02  0.00000000000E+00 0.  1.
         22    1    3    3    0    0 -0.66207221320E+02 -0.66344060508E+02  0.29524039490E+03  0.30976090989E+03  0.00000000000E+00 0.  1.
</event>
<event>
 7    1  0.5452757E-006  0.2030599E+03  0.7818608E-02  0.1291780E+00
          2   -1    0    0  502    0  0.00000000000E+00  0.00000000000E+00  0.31514005866E+04  0.31514005866E+04  0.00000000000E+00 0. -1.
          1   -1    0    0  501    0 -0.00000000000E+00 -0.00000000000E+00 -0.78852160889E+02  0.78852160889E+02  0.00000000000E+00 0. -1.
         25    2    1    2    0    0 -0.14860523375E+03  0.12703243766E+03  0.13355598794E+04  0.13555684321E+04  0.12499930775E+03 0.  0.
          2    1    1    2  501    0  0.12312021659E+03 -0.16313932445E+03  0.83786813900E+02  0.22089195798E+03  0.00000000000E+00 0. -1.
          1    1    1    2  502    0  0.25485017159E+02  0.36106886791E+02  0.16532017324E+04  0.16537923574E+04  0.00000000000E+00 0. -1.
         22    1    3    3    0    0 -0.86910455773E+02  0.34609989520E+02  0.94163045380E+03  0.94626591940E+03  0.00000000000E+00 0. -1.
         22    1    3    3    0    0 -0.61694777974E+02  0.92422448142E+02  0.39392942556E+03  0.40930251266E+03  0.00000000000E+00 0. -1.
</event>
<event>
 7    1  0.5452757E-006  0.9155204E+02  0.7818608E-02  0.1327616E+00
          2   -1    0    0  502    0  0.00000000000E+00  0.00000000000E+00  0.11215239787E+04  0.11215239787E+04  0.00000000000E+00 0. -1.
          1   -1    0    0  501    0 -0.00000000000E+00 -0.00000000000E+00 -0.13553108675E+04  0.13553108675E+04  0.00000000000E+00 0. -1.
         25    2    1    2    0    0  0.87918820616E+02  0.13411404142E+03  0.37253229648E+02  0.20672131922E+03  0.12501842094E+03 0.  0.
          2    1    1    2  501    0 -0.43093458471E+02 -0.56169732740E+02 -0.12675649720E+04  0.12695404851E+04  0.00000000000E+00 0. -1.
          1    1    1    2  502    0 -0.44825362145E+02 -0.77944308677E+02  0.99652485354E+03  0.10005730418E+04  0.00000000000E+00 0. -1.
         22    1    3    3    0    0  0.65260578130E+02  0.12111710023E+03  0.78125761968E+02  0.15821482139E+03  0.00000000000E+00 0.  1.
         22    1    3    3    0    0  0.22658242486E+02  0.12996941190E+02 -0.40872532320E+02  0.48506497823E+02  0.00000000000E+00 0.  1.
</event>
<event>
 7    1  0.5452757E-006  0.1386137E+03  0.7818608E-02  0.1284615E+00
          2   -1    0    0  502    0  0.00000000000E+00  0.00000000000E+00  0.78135110612E+03  0.78135110612E+03  0.00000000000E+00 0. -1.
          1   -1    0    0  501    0 -0.00000000000E+00 -0.00000000000E+00 -0.11541120216E+04  0.11541120216E+04  0.00000000000E+00 0. -1.
         25    2    1    2    0    0 -0.10741448328E+03  0.28442872325E+02  0.16175936992E+03  0.23267484266E+03  0.12499848178E+03 0.  0.
          2    1    1    2  501    0 -0.38167308953E+02 -0.57781952170E+02 -0.11081168206E+04  0.11102785171E+04  0.00000000000E+00 0. -1.
          1    1    1    2  502    0  0.14558179223E+03  0.29339079845E+02  0.57359653523E+03  0.59250976791E+03  0.00000000000E+00 0. -1.
         22    1    3    3    0    0  0.40950473130E+01 -0.18633164549E+02 -0.10780467364E+02  0.21913071674E+02  0.00000000000E+00 0. -1.
         22    1    3    3    0    0 -0.11150953059E+03  0.47076036874E+02  0.17253983728E+03  0.21076177099E+03  0.00000000000E+00 0. -1.
</event>
<event>
 7    1  0.5452757E-006  0.1263000E+03  0.7818608E-02  0.1277075E+00
          2   -1    0    0  502    0  0.00000000000E+00  0.00000000000E+00  0.42690819901E+03  0.42690819901E+03  0.00000000000E+00 0. -1.
          1   -1    0    0  501    0 -0.00000000000E+00 -0.00000000000E+00 -0.30372848824E+03  0.30372848824E+03  0.00000000000E+00 0. -1.
         25    2    1    2    0    0 -0.28421993598E+02 -0.42429340716E+02 -0.10348214387E+03  0.17012885434E+03  0.12500885691E+03 0.  0.
          2    1    1    2  501    0 -0.40029514088E+02 -0.71160014237E+02 -0.14471690950E+03  0.16615984328E+03  0.00000000000E+00 0. -1.
          1    1    1    2  502    0  0.68451507686E+02  0.11358935495E+03  0.37137876415E+03  0.39434798962E+03  0.00000000000E+00 0. -1.
         22    1    3    3    0    0  0.19909927437E+02 -0.55385387740E+02 -0.10466346471E+03  0.12007658902E+03  0.00000000000E+00 0.  1.
         22    1    3    3    0    0 -0.48331921036E+02  0.12956047024E+02  0.11813208370E+01  0.50052265327E+02  0.00000000000E+00 0.  1.
</event>
<event>
 7    1  0.5452757E-006  0.3603530E+02  0.7818608E-02  0.1567368E+00
          2   -1    0    0  502    0  0.00000000000E+00  0.00000000000E+00  0.17928771292E+04  0.17928771292E+04  0.00000000000E+00 0. -1.
          1   -1    0    0  501    0 -0.00000000000E+00 -0.00000000000E+00 -0.27530605088E+02  0.27530605088E+02  0.00000000000E+00 0. -1.
         25    2    1    2    0    0 -0.27880807328E+02 -0.44882216333E+02  0.61463168791E+03  0.62943530887E+03  0.12499977401E+03 0.  0.
          2    1    1    2  501    0 -0.45104798058E+01  0.29833135895E+02 -0.83903697179E+01  0.31317067701E+02  0.00000000000E+00 0. -1.
          1    1    1    2  502    0  0.32391287134E+02  0.15049080438E+02  0.11591052059E+04  0.11596553577E+04  0.00000000000E+00 0. -1.
         22    1    3    3    0    0 -0.25824487831E+01  0.19437333541E+02  0.12290324603E+02  0.23141543936E+02  0.00000000000E+00 0.  1.
         22    1    3    3    0    0 -0.25298358545E+02 -0.64319549874E+02  0.60234136331E+03  0.60629376493E+03  0.00000000000E+00 0.  1.
</event>
<event>
 7    1  0.5452757E-006  0.9797060E+02  0.7818608E-02  0.1373150E+00
          2   -1    0    0  502    0  0.00000000000E+00  0.00000000000E+00  0.17544134365E+03  0.17544134365E+03  0.00000000000E+00 0. -1.
          1   -1    0    0  501    0 -0.00000000000E+00 -0.00000000000E+00 -0.12139441957E+04  0.12139441957E+04  0.00000000000E+00 0. -1.
         25    2    1    2    0    0  0.11708302284E+03  0.61491926791E+02 -0.35244108638E+03  0.39664854751E+03  0.12500263826E+03 0.  0.
          2    1    1    2  501    0 -0.72229509593E+02 -0.60416154945E+02 -0.83340817399E+03  0.83871115308E+03  0.00000000000E+00 0. -1.
          1    1    1    2  502    0 -0.44853513246E+02 -0.10757718458E+01  0.14734640836E+03  0.15402583871E+03  0.00000000000E+00 0. -1.
         22    1    3    3    0    0  0.59841332628E+02  0.90966503343E+01 -0.35126409304E+02  0.69982846246E+02  0.00000000000E+00 0. -1.
         22    1    3    3    0    0  0.57241690211E+02  0.52395276457E+02 -0.31731467707E+03  0.32666570126E+03  0.00000000000E+00 0. -1.
</event>
<event>
 7    1  0.5452757E-006  0.1312833E+03  0.7818608E-02  0.1360554E+00
          2   -1    0    0  502    0  0.00000000000E+00  0.00000000000E+00  0.43741443271E+03  0.43741443271E+03  0.00000000000E+00 0. -1.
          1   -1    0    0  501    0 -0.00000000000E+00 -0.00000000000E+00 -0.23291476774E+03  0.23291476774E+03  0.00000000000E+00 0. -1.
         25    2    1    2    0    0 -0.10792296336E+03  0.18545593482E+02  0.30779728841E+03  0.34979437365E+03  0.12500251207E+03 0.  0.
          2    1    1    2  501    0  0.12184666351E+03 -0.53019613836E+02 -0.18673473487E+03  0.22918889604E+03  0.00000000000E+00 0. -1.
          1    1    1    2  502    0 -0.13923700147E+02  0.34474020354E+02  0.83437111419E+02  0.91345930764E+02  0.00000000000E+00 0. -1.
         22    1    3    3    0    0 -0.10115460486E+03 -0.32801545533E+02  0.25276897989E+03  0.27422682704E+03  0.00000000000E+00 0. -1.
         22    1    3    3    0    0 -0.67683585014E+01  0.51347139014E+02  0.55028308525E+02  0.75567546612E+02  0.00000000000E+00 0. -1.
</event>
<event>
 7    1  0.5452757E-006  0.1206413E+03  0.7818608E-02  0.1417613E+00
          2   -1    0    0  502    0  0.00000000000E+00  0.00000000000E+00  0.70136569407E+03  0.70136569407E+03  0.00000000000E+00 0. -1.
          1   -1    0    0  501    0 -0.00000000000E+00 -0.00000000000E+00 -0.65463817465E+03  0.65463817465E+03  0.00000000000E+00 0. -1.
         25    2    1    2    0    0 -0.13863490040E+03  0.35356367263E+02 -0.88553711018E+02  0.20961111096E+03  0.12500139915E+03 0.  0.
          2    1    1    2  501    0  0.25311755242E+02  0.35477552996E+01 -0.49962588280E+03  0.50027921632E+03  0.00000000000E+00 0. -1.
          1    1    1    2  502    0  0.11332314516E+03 -0.38904122562E+02  0.63490711324E+03  0.64611354143E+03  0.00000000000E+00 0. -1.
         22    1    3    3    0    0 -0.10792364154E+03 -0.30588575766E+02 -0.29701557533E+02  0.11604032011E+03  0.00000000000E+00 0.  1.
         22    1    3    3    0    0 -0.30711258861E+02  0.65944943029E+02 -0.58852153485E+02  0.93570790858E+02  0.00000000000E+00 0.  1.
</event>
<event>
 7    1  0.5452757E-006  0.2514750E+03  0.7818608E-02  0.1258289E+00
          2   -1    0    0  502    0  0.00000000000E+00  0.00000000000E+00  0.34203708404E+04  0.34203708404E+04  0.00000000000E+00 0. -1.
          1   -1    0    0  501    0 -0.00000000000E+00 -0.00000000000E+00 -0.57939003110E+03  0.57939003110E+03  0.00000000000E+00 0. -1.
         25    2    1    2    0    0 -0.24684629147E+03  0.67585288757E+02  0.51991732220E+03  0.59282327956E+03  0.12499822395E+03 0.  0.
          2    1    1    2  501    0 -0.38971688439E+01 -0.49053461586E+02 -0.53629033009E+03  0.53854317205E+03  0.00000000000E+00 0. -1.
          1    1    1    2  502    0  0.25074346031E+03 -0.18531827171E+02  0.28573538172E+04  0.28683944199E+04  0.00000000000E+00 0. -1.
         22    1    3    3    0    0 -0.52877555940E+02 -0.16389102382E+02  0.21361596352E+03  0.22067265002E+03  0.00000000000E+00 0. -1.
         22    1    3    3    0    0 -0.19396873553E+03  0.83974391139E+02  0.30630135869E+03  0.37215062953E+03  0.00000000000E+00 0. -1.
</event>
<event>
 7    1  0.5452757E-006  0.1193532E+03  0.7818608E-02  0.1284559E+00
          2   -1    0    0  502    0  0.00000000000E+00  0.00000000000E+00  0.17608216569E+04  0.17608216569E+04  0.00000000000E+00 0. -1.
          1   -1    0    0  501    0 -0.00000000000E+00 -0.00000000000E+00 -0.10187734146E+03  0.10187734146E+03  0.00000000000E+00 0. -1.
         25    2    1    2    0    0 -0.33082620034E+02 -0.45094526342E+02  0.89889721297E+03  0.90926987462E+03  0.12501011698E+03 0.  0.
          2    1    1    2  501    0  0.11354527705E+03  0.45950165156E+02 -0.55105039443E+02  0.13431497679E+03  0.00000000000E+00 0. -1.
          1    1    1    2  502    0 -0.80462657014E+02 -0.85563881354E+00  0.81515214190E+03  0.81911414696E+03  0.00000000000E+00 0. -1.
         22    1    3    3    0    0 -0.40023129057E+02 -0.11174442247E+02  0.84771657246E+02  0.94408436547E+02  0.00000000000E+00 0. -1.
         22    1    3    3    0    0  0.69405090226E+01 -0.33920084095E+02  0.81412555573E+03  0.81486143807E+03  0.00000000000E+00 0. -1.
</event>
<event>
 7    1  0.5452757E-006  0.4801841E+02  0.7818608E-02  0.1501671E+00
          2   -1    0    0  502    0  0.00000000000E+00  0.00000000000E+00  0.52544686012E+03  0.52544686012E+03  0.00000000000E+00 0. -1.
          1   -1    0    0  501    0 -0.00000000000E+00 -0.00000000000E+00 -0.15036884244E+04  0.15036884244E+04  0.00000000000E+00 0. -1.
         25    2    1    2    0    0 -0.53708490736E+02  0.46021626307E+02 -0.78013022239E+03  0.79324059466E+03  0.12499954025E+03 0.  0.
          2    1    1    2  501    0  0.19106637875E+02 -0.41941374207E+02 -0.71567607134E+03  0.71715854702E+03  0.00000000000E+00 0. -1.
          1    1    1    2  502    0  0.34601852861E+02 -0.40802520997E+01  0.51756472947E+03  0.51873614282E+03  0.00000000000E+00 0. -1.
         22    1    3    3    0    0 -0.77133774991E+02  0.45820515032E+02 -0.31517557939E+03  0.32769617741E+03  0.00000000000E+00 0.  1.
         22    1    3    3    0    0  0.23425284255E+02  0.20111127527E+00 -0.46495464300E+03  0.46554441726E+03  0.00000000000E+00 0.  1.
</event>
<event>
 7    1  0.5452757E-006  0.8624755E+02  0.7818608E-02  0.1338954E+00
          2   -1    0    0  502    0  0.00000000000E+00  0.00000000000E+00  0.57680193584E+03  0.57680193584E+03  0.00000000000E+00 0. -1.
          1   -1    0    0  501    0 -0.00000000000E+00 -0.00000000000E+00 -0.68216994717E+03  0.68216994717E+03  0.00000000000E+00 0. -1.
         25    2    1    2    0    0 -0.90365557369E+02 -0.26126278283E+02 -0.26572570494E+03  0.30835663141E+03  0.12500058197E+03 0.  0.
          2    1    1    2  501    0  0.45278684768E+02  0.77098101841E+02 -0.38794024562E+03  0.39811042535E+03  0.00000000000E+00 0. -1.
          1    1    1    2  502    0  0.45086872601E+02 -0.50971823558E+02  0.54829793922E+03  0.55250482626E+03  0.00000000000E+00 0. -1.
         22    1    3    3    0    0  0.21506240861E+02  0.25186342555E+02 -0.49549671896E+02  0.59598995229E+02  0.00000000000E+00 0. -1.
         22    1    3    3    0    0 -0.11187179823E+03 -0.51312620838E+02 -0.21617603304E+03  0.24875763618E+03  0.00000000000E+00 0. -1.
</event>
<event>
 7    1  0.5452757E-006  0.9948421E+02  0.7818608E-02  0.1371612E+00
          2   -1    0    0  502    0  0.00000000000E+00  0.00000000000E+00  0.15858516321E+04  0.15858516321E+04  0.00000000000E+00 0. -1.
          1   -1    0    0  501    0 -0.00000000000E+00 -0.00000000000E+00 -0.35652498991E+03  0.35652498991E+03  0.00000000000E+00 0. -1.
         25    2    1    2    0    0 -0.82662385189E+01  0.62151147343E+02  0.35084052170E+03  0.37767333548E+03  0.12496791929E+03 0.  0.
          2    1    1    2  501    0  0.95124498318E+01  0.43725137491E+02 -0.33934258544E+03  0.34228024284E+03  0.00000000000E+00 0. -1.
          1    1    1    2  502    0 -0.12462113129E+01 -0.10587628483E+03  0.12178287059E+04  0.12224230437E+04  0.00000000000E+00 0. -1.
         22    1    3    3    0    0 -0.60477990374E+02  0.25367269858E+01  0.14763139753E+03  0.15955892905E+03  0.00000000000E+00 0. -1.
         22    1    3    3    0    0  0.52211751856E+02  0.59614420358E+02  0.20320912417E+03  0.21811440643E+03  0.00000000000E+00 0. -1.
</event>
<event>
 7    1  0.5452757E-006  0.8189787E+02  0.7818608E-02  0.1433104E+00
          2   -1    0    0  502    0  0.00000000000E+00  0.00000000000E+00  0.78806185991E+03  0.78806185991E+03  0.00000000000E+00 0. -1.
          1   -1    0    0  501    0 -0.00000000000E+00 -0.00000000000E+00 -0.48060103936E+03  0.48060103936E+03  0.00000000000E+00 0. -1.
         25    2    1    2    0    0 -0.10291369240E+03  0.35805953886E+02 -0.12391949844E+03  0.20701319559E+03  0.12500050655E+03 0.  0.
          2    1    1    2  501    0  0.77571765193E+02 -0.13968909342E+02 -0.30982307150E+03  0.31969179661E+03  0.00000000000E+00 0. -1.
          1    1    1    2  502    0  0.25341927206E+02 -0.21837044543E+02  0.74120339049E+03  0.74195790707E+03  0.00000000000E+00 0. -1.
         22    1    3    3    0    0  0.21201153474E+02  0.83141044556E+01 -0.61119217551E+02  0.65224013948E+02  0.00000000000E+00 0.  1.
         22    1    3    3    0    0 -0.12411484587E+03  0.27491849430E+02 -0.62800280888E+02  0.14178918164E+03  0.00000000000E+00 0.  1.
</event>
<event>
 7    1  0.5452757E-006  0.1125044E+03  0.7818608E-02  0.1333030E+00
          2   -1    0    0  502    0  0.00000000000E+00  0.00000000000E+00  0.89032025179E+03  0.89032025179E+03  0.00000000000E+00 0. -1.
          1   -1    0    0  501    0 -0.00000000000E+00 -0.00000000000E+00 -0.11029530066E+04  0.11029530066E+04  0.00000000000E+00 0. -1.
         25    2    1    2    0    0  0.11135790895E+03 -0.11994220277E+03 -0.86812430416E+02  0.22348848032E+03  0.12499594742E+03 0.  0.
          2    1    1    2  501    0 -0.26216184225E+02  0.48274034977E+02 -0.94323279856E+03  0.94483108704E+03  0.00000000000E+00 0. -1.
          1    1    1    2  502    0 -0.85141724730E+02  0.71668167791E+02  0.81741247412E+03  0.82495369107E+03  0.00000000000E+00 0. -1.
         22    1    3    3    0    0  0.13322065769E+03 -0.68800768324E+02 -0.57198482600E+02  0.16047727493E+03  0.00000000000E+00 0.  1.
         22    1    3    3    0    0 -0.21862748738E+02 -0.51141434445E+02 -0.29613947815E+02  0.63011205389E+02  0.00000000000E+00 0.  1.
</event>
<event>
 7    1  0.5452757E-006  0.1516485E+03  0.7818608E-02  0.1232872E+00
          2   -1    0    0  502    0  0.00000000000E+00  0.00000000000E+00  0.39762395613E+03  0.39762395613E+03  0.00000000000E+00 0. -1.
          1   -1    0    0  501    0 -0.00000000000E+00 -0.00000000000E+00 -0.20439634965E+03  0.20439634965E+03  0.00000000000E+00 0. -1.
         25    2    1    2    0    0  0.11562206863E+03 -0.49235476172E+02  0.11185767439E+03  0.20959597820E+03  0.12500295952E+03 0.  0.
          2    1    1    2  501    0  0.65235250079E+02  0.82763839908E+02 -0.91826750413E+02  0.13977711952E+03  0.00000000000E+00 0. -1.
          1    1    1    2  502    0 -0.18085731871E+03 -0.33528363735E+02  0.17319668251E+03  0.25264720805E+03  0.00000000000E+00 0. -1.
         22    1    3    3    0    0 -0.15894462022E+02  0.14574918781E+02 -0.53626942287E+01  0.22222076181E+02  0.00000000000E+00 0.  1.
         22    1    3    3    0    0  0.13151653066E+03 -0.63810394953E+02  0.11722036862E+03  0.18737390202E+03  0.00000000000E+00 0.  1.
</event>
<event>
 7    1  0.5452757E-006  0.1223527E+03  0.7818608E-02  0.1376550E+00
          2   -1    0    0  502    0  0.00000000000E+00  0.00000000000E+00  0.37945269091E+04  0.37945269091E+04  0.00000000000E+00 0. -1.
          1   -1    0    0  501    0 -0.00000000000E+00 -0.00000000000E+00 -0.63081554556E+02  0.63081554556E+02  0.00000000000E+00 0. -1.
         25    2    1    2    0    0 -0.13776696170E+03 -0.16576816362E+02  0.15698094367E+04  0.15808798875E+04  0.12500009781E+03 0.  0.
          2    1    1    2  501    0  0.12101347957E+03 -0.14079588584E+02  0.72350070007E+01  0.12204442789E+03  0.00000000000E+00 0. -1.
          1    1    1    2  502    0  0.16753482131E+02  0.30656404946E+02  0.21544009108E+04  0.21546841483E+04  0.00000000000E+00 0. -1.
         22    1    3    3    0    0 -0.28402084168E+01  0.29264226155E+02  0.10152801954E+03  0.10569957648E+03  0.00000000000E+00 0.  1.
         22    1    3    3    0    0 -0.13492675328E+03 -0.45841042517E+02  0.14682814172E+04  0.14751803110E+04  0.00000000000E+00 0.  1.
</event>
<event>
 7    1  0.5452757E-006  0.8832254E+02  0.7818608E-02  0.1382553E+00
          2   -1    0    0  502    0  0.00000000000E+00  0.00000000000E+00  0.65503305462E+03  0.65503305462E+03  0.00000000000E+00 0. -1.
          1   -1    0    0  501    0 -0.00000000000E+00 -0.00000000000E+00 -0.49950398114E+02  0.49950398114E+02  0.00000000000E+00 0. -1.
         25    2    1    2    0    0 -0.96185457424E+02  0.43552102483E+01  0.28186339771E+03  0.32302034347E+03  0.12499822899E+03 0.  0.
          2    1    1    2  501    0  0.79760429116E+02  0.38700500900E+02  0.44009768167E+02  0.98976333115E+02  0.00000000000E+00 0. -1.
          1    1    1    2  502    0  0.16425028307E+02 -0.43055711148E+02  0.27920949063E+03  0.28298677615E+03  0.00000000000E+00 0. -1.
         22    1    3    3    0    0 -0.11848934915E+03  0.27513072215E+02  0.18912457547E+03  0.22486618254E+03  0.00000000000E+00 0. -1.
         22    1    3    3    0    0  0.22303891725E+02 -0.23157861967E+02  0.92738822240E+02  0.98154160928E+02  0.00000000000E+00 0. -1.
</event>
<event>
 7    1  0.5452757E-006  0.1717907E+03  0.7818608E-02  0.1396129E+00
          2   -1    0    0  502    0  0.00000000000E+00  0.00000000000E+00  0.64657798278E+03  0.64657798278E+03  0.00000000000E+00 0. -1.
          1   -1    0    0  501    0 -0.00000000000E+00 -0.00000000000E+00 -0.27892490808E+03  0.27892490808E+03  0.00000000000E+00 0. -1.
         25    2    1    2    0    0  0.11310119075E+03  0.12360997803E+03  0.10255194325E+03  0.23284086179E+03  0.12500663917E+03 0.  0.
          2    1    1    2  501    0 -0.10047812718E+03 -0.14069380704E+03 -0.17852994133E+03  0.24852271794E+03  0.00000000000E+00 0. -1.
          1    1    1    2  502    0 -0.12623063567E+02  0.17083829014E+02  0.44363107278E+03  0.44413931112E+03  0.00000000000E+00 0. -1.
         22    1    3    3    0    0  0.85358724647E+02  0.25720785061E+02  0.95813343087E+02  0.13087347849E+03  0.00000000000E+00 0. -1.
         22    1    3    3    0    0  0.27742466102E+02  0.97889192970E+02  0.67386001601E+01  0.10196738330E+03  0.00000000000E+00 0. -1.
</event>
<event>
 7    1  0.5452757E-006  0.5049527E+02  0.7818608E-02  0.1474832E+00
          2   -1    0    0  502    0  0.00000000000E+00  0.00000000000E+00  0.13867972889E+03  0.13867972889E+03  0.00000000000E+00 0. -1.
          1   -1    0    0  501    0 -0.00000000000E+00 -0.00000000000E+00 -0.52921070266E+03  0.52921070266E+03  0.00000000000E+00 0. -1.
         25    2    1    2    0    0 -0.69224368872E+02 -0.42198331117E+02 -0.21970948469E+03  0.26546066090E+03  0.12499756969E+03 0.  0.
          2    1    1    2  501    0  0.39924741158E+02  0.17508935019E+01 -0.27975370144E+03  0.28259367306E+03  0.00000000000E+00 0. -1.
          1    1    1    2  502    0  0.29299627713E+02  0.40447437616E+02  0.10893221237E+03  0.11983609759E+03  0.00000000000E+00 0. -1.
         22    1    3    3    0    0 -0.20846201292E+02 -0.34555757161E+02  0.15307946567E-02  0.40356715223E+02  0.00000000000E+00 0.  1.
         22    1    3    3    0    0 -0.48378167580E+02 -0.76425739562E+01 -0.21971101549E+03  0.22510394568E+03  0.00000000000E+00 0.  1.
</event>
<event>
 7    1  0.5452757E-006  0.1172306E+03  0.7818608E-02  0.1261862E+00
          2   -1    0    0  502    0  0.00000000000E+00  0.00000000000E+00  0.10709223220E+04  0.10709223220E+04  0.00000000000E+00 0. -1.
          1   -1    0    0  501    0 -0.00000000000E+00 -0.00000000000E+00 -0.67124314318E+02  0.67124314318E+02  0.00000000000E+00 0. -1.
         25    2    1    2    0    0 -0.13954263891E+02 -0.67904155944E+01  0.26648881800E+03  0.29475750155E+03  0.12499945349E+03 0.  0.
          2    1    1    2  501    0  0.63397164464E+02  0.11308437645E+03  0.39249328538E+02  0.13545400124E+03  0.00000000000E+00 0. -1.
          1    1    1    2  502    0 -0.49442900574E+02 -0.10629396086E+03  0.69805986109E+03  0.70783513349E+03  0.00000000000E+00 0. -1.
         22    1    3    3    0    0 -0.50840927807E+02  0.37901760144E+02  0.17822891897E+03  0.18917423429E+03  0.00000000000E+00 0. -1.
         22    1    3    3    0    0  0.36886663916E+02 -0.44692175738E+02  0.88259899034E+02  0.10558326726E+03  0.00000000000E+00 0. -1.
</event>
<event>
 7    1  0.5452757E-006  0.8340873E+02  0.7818608E-02  0.1485301E+00
          2   -1    0    0  502    0  0.00000000000E+00  0.00000000000E+00  0.61139601492E+03  0.61139601492E+03  0.00000000000E+00 0. -1.
          1   -1    0    0  501    0 -0.00000000000E+00 -0.00000000000E+00 -0.14736709690E+04  0.14736709690E+04  0.00000000000E+00 0. -1.
         25    2    1    2    0    0 -0.64929637751E+02  0.72145917715E+02 -0.42147022050E+03  0.45020385984E+03  0.12500190936E+03 0.  0.
          2    1    1    2  501    0 -0.19136132788E+01 -0.22387489256E+02 -0.10348036812E+04  0.10350475932E+04  0.00000000000E+00 0. -1.
          1    1    1    2  502    0  0.66843251029E+02 -0.49758428459E+02  0.59399894757E+03  0.59981553092E+03  0.00000000000E+00 0. -1.
         22    1    3    3    0    0  0.23812701220E+02  0.58233831054E+02 -0.23422352802E+03  0.24252604994E+03  0.00000000000E+00 0. -1.
         22    1    3    3    0    0 -0.88742338971E+02  0.13912086661E+02 -0.18724669248E+03  0.20767780991E+03  0.00000000000E+00 0. -1.
</event>
<event>
 7    1  0.5452757E-006  0.1111841E+03  0.7818608E-02  0.1422475E+00
          2   -1    0    0  502    0  0.00000000000E+00  0.00000000000E+00  0.11645243245E+04  0.11645243245E+04  0.00000000000E+00 0. -1.
          1   -1    0    0  501    0 -0.00000000000E+00 -0.00000000000E+00 -0.18802663099E+04  0.18802663099E+04  0.00000000000E+00 0. -1.
         25    2    1    2    0    0 -0.67433054913E+02  0.11783305113E+03 -0.11716042151E+02  0.18491750161E+03  0.12500148769E+03 0.  0.
          2    1    1    2  501    0  0.47579094220E+02 -0.99957525893E+02 -0.17800642200E+04  0.17835032673E+04  0.00000000000E+00 0. -1.
          1    1    1    2  502    0  0.19853960692E+02 -0.17875525237E+02  0.10760382767E+04  0.10763698654E+04  0.00000000000E+00 0. -1.
         22    1    3    3    0    0 -0.10067167757E+03  0.59355240944E+02 -0.14589125127E+01  0.11687583034E+03  0.00000000000E+00 0.  1.
         22    1    3    3    0    0  0.33238622661E+02  0.58477810186E+02 -0.10257129639E+02  0.68041671268E+02  0.00000000000E+00 0.  1.
</event>
<event>
 7    1  0.5452757E-006  0.1268077E+03  0.7818608E-02  0.1320332E+00
          2   -1    0    0  502    0  0.00000000000E+00  0.00000000000E+00  0.23955581934E+04  0.23955581934E+04  0.00000000000E+00 0. -1.
          1   -1    0    0  501    0 -0.00000000000E+00 -0.00000000000E+00 -0.15400337110E+03  0.15400337110E+03  0.00000000000E+00 0. -1.
         25    2    1    2    0    0  0.81591023734E+02 -0.79273988812E+02  0.44411331862E+03  0.47518772130E+03  0.12500108094E+03 0.  0.
          2    1    1    2  501    0 -0.34809680252E+02 -0.41971380133E+02 -0.13082454277E+03  0.14173345258E+03  0.00000000000E+00 0. -1.
          1    1    1    2  502    0 -0.46781343482E+02  0.12124536895E+03  0.19282660464E+04  0.19326403906E+04  0.00000000000E+00 0. -1.
         22    1    3    3    0    0  0.27615428423E+02 -0.98720983510E+02  0.35240680711E+03  0.36701362668E+03  0.00000000000E+00 0. -1.
         22    1    3    3    0    0  0.53975595312E+02  0.19446994698E+02  0.91706511515E+02  0.10817409462E+03  0.00000000000E+00 0. -1.
</event>
<event>
 7    1  0.5452757E-006  0.5542951E+02  0.7818608E-02  0.1533208E+00
          2   -1    0    0  502    0  0.00000000000E+00  0.00000000000E+00  0.13411158414E+04  0.13411158414E+04  0.00000000000E+00 0. -1.
          1   -1    0    0  501    0 -0.00000000000E+00 -0.00000000000E+00 -0.14681113767E+03  0.14681113767E+03  0.00000000000E+00 0. -1.
         25    2    1    2    0    0 -0.62930079818E+02 -0.47192141482E+02  0.26959583672E+03  0.30740349041E+03  0.12501078983E+03 0.  0.
          2    1    1    2  501    0  0.46754695843E+02  0.28889320287E+02 -0.12185434889E+03  0.13367526605E+03  0.00000000000E+00 0. -1.
          1    1    1    2  502    0  0.16175383974E+02  0.18302821195E+02  0.10465632159E+04  0.10468482226E+04  0.00000000000E+00 0. -1.
         22    1    3    3    0    0 -0.23345432033E+02  0.98035694591E+01 -0.35614466947E+01  0.25569573197E+02  0.00000000000E+00 0. -1.
         22    1    3    3    0    0 -0.39584647785E+02 -0.56995710941E+02  0.27315728342E+03  0.28183391721E+03  0.00000000000E+00 0. -1.
</event>
<event>
 7    1  0.5452757E-006  0.4194352E+02  0.7818608E-02  0.1497737E+00
          2   -1    0    0  502    0  0.00000000000E+00  0.00000000000E+00  0.39905664284E+03  0.39905664284E+03  0.00000000000E+00 0. -1.
          1   -1    0    0  501    0 -0.00000000000E+00 -0.00000000000E+00 -0.64930081700E+02  0.64930081700E+02  0.00000000000E+00 0. -1.
         25    2    1    2    0    0  0.30111792031E+02 -0.17431049137E+02  0.12109425773E+03  0.17748020155E+03  0.12499936478E+03 0.  0.
          2    1    1    2  501    0  0.91938135410E+00  0.44199216296E+02 -0.20978932172E+02  0.48933951182E+02  0.00000000000E+00 0. -1.
          1    1    1    2  502    0 -0.31031173385E+02 -0.26768167159E+02  0.23401123559E+03  0.23757257181E+03  0.00000000000E+00 0. -1.
         22    1    3    3    0    0  0.10775161119E+02  0.20424222559E+02 -0.19734436876E+02  0.30375993203E+02  0.00000000000E+00 0.  1.
         22    1    3    3    0    0  0.19336630913E+02 -0.37855271696E+02  0.14082869460E+03  0.14710420835E+03  0.00000000000E+00 0.  1.
</event>
<event>
 7    1  0.5452757E-006  0.6910327E+02  0.7818608E-02  0.1459864E+00
          2   -1    0    0  502    0  0.00000000000E+00  0.00000000000E+00  0.26459097221E+03  0.26459097221E+03  0.00000000000E+00 0. -1.
          1   -1    0    0  501    0 -0.00000000000E+00 -0.00000000000E+00 -0.41255302828E+03  0.41255302828E+03  0.00000000000E+00 0. -1.
         25    2    1    2    0    0  0.69760091802E+02  0.51320554402E+02 -0.28853326272E+03  0.32615439949E+03  0.12499991558E+03 0.  0.
          2    1    1    2  501    0 -0.31910743441E+02  0.62636130190E+01 -0.97691607914E+02  0.10296202529E+03  0.00000000000E+00 0. -1.
          1    1    1    2  502    0 -0.37849348361E+02 -0.57584167421E+02  0.23826281456E+03  0.24802757571E+03  0.00000000000E+00 0. -1.
         22    1    3    3    0    0  0.97589545747E+00  0.34676372080E+02 -0.63933667536E+01  0.35274329066E+02  0.00000000000E+00 0. -1.
         22    1    3    3    0    0  0.68784196345E+02  0.16644182321E+02 -0.28213989597E+03  0.29088007042E+03  0.00000000000E+00 0. -1.
</event>
<event>
 7    1  0.5452757E-006  0.9801471E+02  0.7818608E-02  0.1292143E+00
          2   -1    0    0  502    0  0.00000000000E+00  0.00000000000E+00  0.25229539200E+03  0.25229539200E+03  0.00000000000E+00 0. -1.
          1   -1    0    0  501    0 -0.00000000000E+00 -0.00000000000E+00 -0.41054743265E+03  0.41054743265E+03  0.00000000000E+00 0. -1.
         25    2    1    2    0    0  0.53851460793E+01  0.74075219261E+02 -0.21320301339E+03  0.25805999301E+03  0.12499318848E+03 0.  0.
          2    1    1    2  501    0  0.85899034880E+02 -0.30788963271E+02 -0.15040508655E+03  0.17592127362E+03  0.00000000000E+00 0. -1.
          1    1    1    2  502    0 -0.91284180960E+02 -0.43286255990E+02  0.20535605929E+03  0.22886155802E+03  0.00000000000E+00 0. -1.
         22    1    3    3    0    0 -0.57441709054E+02  0.55445972558E+02 -0.11957757523E+03  0.14377970062E+03  0.00000000000E+00 0.  1.
         22    1    3    3    0    0  0.62826855134E+02  0.18629246703E+02 -0.93625438164E+02  0.11428029240E+03  0.00000000000E+00 0.  1.
</event>
<event>
 7    1  0.5452757E-006  0.1023854E+03  0.7818608E-02  0.1384499E+00
          2   -1    0    0  502    0  0.00000000000E+00  0.00000000000E+00  0.65058455570E+03  0.65058455570E+03  0.00000000000E+00 0. -1.
          1   -1    0    0  501    0 -0.00000000000E+00 -0.00000000000E+00 -0.14078897302E+03  0.14078897302E+03  0.00000000000E+00 0. -1.
         25    2    1    2    0    0  0.12597126177E+03 -0.17101415247E+02  0.37109081282E+03  0.41169730917E+03  0.12500026329E+03 0.  0.
          2    1    1    2  501    0 -0.33381088426E+02  0.20417695857E+02 -0.10868072282E+03  0.11551051416E+03  0.00000000000E+00 0. -1.
          1    1    1    2  502    0 -0.92590173340E+02 -0.33162806093E+01  0.24738549268E+03  0.26416570539E+03  0.00000000000E+00 0. -1.
         22    1    3    3    0    0  0.14636898094E+03 -0.82526646833E+01  0.35549959332E+03  0.38454121483E+03  0.00000000000E+00 0. -1.
         22    1    3    3    0    0 -0.20397719172E+02 -0.88487505640E+01  0.15591219497E+02  0.27156094332E+02  0.00000000000E+00 0. -1.
</event>
<event>
 7    1  0.5452757E-006  0.1872358E+03  0.7818608E-02  0.1253124E+00
          2   -1    0    0  502    0  0.00000000000E+00  0.00000000000E+00  0.13290123724E+04  0.13290123724E+04  0.00000000000E+00 0. -1.
          1   -1    0    0  501    0 -0.00000000000E+00 -0.00000000000E+00 -0.26259687158E+03  0.26259687158E+03  0.00000000000E+00 0. -1.
         25    2    1    2    0    0 -0.96204396110E+02 -0.93875392894E+02  0.86786579918E+02  0.20303930996E+03  0.12500070284E+03 0.  0.
          2    1    1    2  501    0 -0.68855223142E+02 -0.98532362711E+01 -0.19024630621E+03  0.20256303968E+03  0.00000000000E+00 0. -1.
          1    1    1    2  502    0  0.16505961925E+03  0.10372862917E+03  0.11698752271E+04  0.11860068944E+04  0.00000000000E+00 0. -1.
         22    1    3    3    0    0  0.19591594869E+02  0.14313616808E+02  0.52658746554E+01  0.24828202744E+02  0.00000000000E+00 0.  1.
         22    1    3    3    0    0 -0.11579599098E+03 -0.10818900970E+03  0.81520705262E+02  0.17821110721E+03  0.00000000000E+00 0.  1.
</event>
<event>
 7    1  0.5452757E-006  0.9662602E+02  0.7818608E-02  0.1338901E+00
          2   -1    0    0  502    0  0.00000000000E+00  0.00000000000E+00  0.10504984218E+03  0.10504984218E+03  0.00000000000E+00 0. -1.
          1   -1    0    0  501    0 -0.00000000000E+00 -0.00000000000E+00 -0.48958151792E+03  0.48958151792E+03  0.00000000000E+00 0. -1.
         25    2    1    2    0    0 -0.40301197742E+02  0.12031970201E+03 -0.12512577059E+03  0.21767750608E+03  0.12500408375E+03 0.  0.
          2    1    1    2  501    0  0.66812860777E+02 -0.65638031038E+02 -0.29293798131E+03  0.30754669626E+03  0.00000000000E+00 0. -1.
          1    1    1    2  502    0 -0.26511663036E+02 -0.54681670972E+02  0.33532076160E+02  0.69407157764E+02  0.00000000000E+00 0. -1.
         22    1    3    3    0    0 -0.58642339845E+02  0.29161373212E+01 -0.33267217771E+02  0.67484336387E+02  0.00000000000E+00 0.  1.
         22    1    3    3    0    0  0.18341142103E+02  0.11740356469E+03 -0.91858552822E+02  0.15019316969E+03  0.00000000000E+00 0.  1.
</event>
<event>
 7    1  0.5452757E-006  0.3013498E+03  0.7818608E-02  0.1197235E+00
          2   -1    0    0  502    0  0.00000000000E+00  0.00000000000E+00  0.11300241732E+04  0.11300241732E+04  0.00000000000E+00 0. -1.
          1   -1    0    0  501    0 -0.00000000000E+00 -0.00000000000E+00 -0.14967677369E+04  0.14967677369E+04  0.00000000000E+00 0. -1.
         25    2    1    2    0    0  0.12736280411E+03 -0.28533739191E+03 -0.19656614418E+03  0.38973451037E+03  0.12496410862E+03 0.  0.
          2    1    1    2  501    0 -0.50822048032E+02  0.29643595963E+03 -0.11833319150E+04  0.12209551916E+04  0.00000000000E+00 0. -1.
          1    1    1    2  502    0 -0.76540756080E+02 -0.11098567720E+02  0.10131544955E+04  0.10161022081E+04  0.00000000000E+00 0. -1.
         22    1    3    3    0    0  0.56302474072E+02 -0.10872398151E+03 -0.15022964414E+03  0.19380355704E+03  0.00000000000E+00 0.  1.
         22    1    3    3    0    0  0.71060330040E+02 -0.17661341039E+03 -0.46336500036E+02  0.19593095333E+03  0.00000000000E+00 0.  1.
</event>
<event>
 7    1  0.5452757E-006  0.7107792E+02  0.7818608E-02  0.1406021E+00
          2   -1    0    0  502    0  0.00000000000E+00  0.00000000000E+00  0.15090162258E+03  0.15090162258E+03  0.00000000000E+00 0. -1.
          1   -1    0    0  501    0 -0.00000000000E+00 -0.00000000000E+00 -0.49140301625E+03  0.49140301625E+03  0.00000000000E+00 0. -1.
         25    2    1    2    0    0  0.62649997816E+02  0.72015142375E+02  0.82924421580E+02  0.17780024167E+03  0.12500105314E+03 0.  0.
          2    1    1    2  501    0 -0.41584056109E+02 -0.22910144825E+02 -0.40531414473E+03  0.40808536408E+03  0.00000000000E+00 0. -1.
          1    1    1    2  502    0 -0.21065941707E+02 -0.49104997550E+02 -0.18111670524E+02  0.56419033079E+02  0.00000000000E+00 0. -1.
         22    1    3    3    0    0  0.29737247484E+02  0.53828478138E+02 -0.22800566613E+02  0.65587154112E+02  0.00000000000E+00 0. -1.
         22    1    3    3    0    0  0.32912750332E+02  0.18186664237E+02  0.10572498819E+03  0.11221308756E+03  0.00000000000E+00 0. -1.
</event>
<event>
 7    1  0.5452757E-006  0.8123742E+02  0.7818608E-02  0.1335645E+00
          2   -1    0    0  502    0  0.00000000000E+00  0.00000000000E+00  0.89339533188E+03  0.89339533188E+03  0.00000000000E+00 0. -1.
          1   -1    0    0  501    0 -0.00000000000E+00 -0.00000000000E+00 -0.29915144285E+03  0.29915144285E+03  0.00000000000E+00 0. -1.
         25    2    1    2    0    0  0.91147830197E+02 -0.12220953450E+03  0.44690955478E+03  0.48846350506E+03  0.12500139340E+03 0.  0.
          2    1    1    2  501    0 -0.57971878701E+02  0.55663395243E+02 -0.26921190792E+03  0.28095231563E+03  0.00000000000E+00 0. -1.
          1    1    1    2  502    0 -0.33175951497E+02  0.66546139255E+02  0.41654624217E+03  0.42313095405E+03  0.00000000000E+00 0. -1.
         22    1    3    3    0    0  0.31473840698E+02  0.18014626717E+02  0.40198780374E+02  0.54139369848E+02  0.00000000000E+00 0.  1.
         22    1    3    3    0    0  0.59673989499E+02 -0.14022416122E+03  0.40671077441E+03  0.43432413521E+03  0.00000000000E+00 0.  1.
</event>
<event>
 7    1  0.5452757E-006  0.7677459E+02  0.7818608E-02  0.1481642E+00
          2   -1    0    0  502    0  0.00000000000E+00  0.00000000000E+00  0.16448644952E+04  0.16448644952E+04  0.00000000000E+00 0. -1.
          1   -1    0    0  501    0 -0.00000000000E+00 -0.00000000000E+00 -0.38120301910E+02  0.38120301910E+02  0.00000000000E+00 0. -1.
         25    2    1    2    0    0  0.47676261208E+02  0.40223667812E+02  0.33606973714E+03  0.36395193821E+03  0.12500870277E+03 0.  0.
          2    1    1    2  501    0 -0.41095461267E+01  0.24707250419E+02 -0.16171388954E+02  0.29813594438E+02  0.00000000000E+00 0. -1.
          1    1    1    2  502    0 -0.43566715081E+02 -0.64930918231E+02  0.12868458451E+04  0.12892192645E+04  0.00000000000E+00 0. -1.
         22    1    3    3    0    0 -0.18997731796E+02 -0.24160407486E+02  0.17863507249E+03  0.18125983622E+03  0.00000000000E+00 0. -1.
         22    1    3    3    0    0  0.66673993004E+02  0.64384075297E+02  0.15743466465E+03  0.18269210198E+03  0.00000000000E+00 0. -1.
</event>
<event>
 7    1  0.5452757E-006  0.7391926E+02  0.7818608E-02  0.1364626E+00
          2   -1    0    0  502    0  0.00000000000E+00  0.00000000000E+00  0.64240761822E+02  0.64240761822E+02  0.00000000000E+00 0. -1.
          1   -1    0    0  501    0 -0.00000000000E+00 -0.00000000000E+00 -0.16968827189E+04  0.16968827189E+04  0.00000000000E+00 0. -1.
         25    2    1    2    0    0 -0.88843822612E+02 -0.29649793118E+02 -0.18598822565E+03  0.24287660310E+03  0.12500035682E+03 0.  0.
          2    1    1    2  501    0  0.67493032337E+02 -0.30492226900E+02 -0.14522917036E+04  0.14541789016E+04  0.00000000000E+00 0. -1.
          1    1    1    2  502    0  0.21350790274E+02  0.60142020018E+02  0.56379722650E+01  0.64067975998E+02  0.00000000000E+00 0. -1.
         22    1    3    3    0    0  0.18683135831E+02 -0.34241818954E+02 -0.92231599372E+02  0.10014104879E+03  0.00000000000E+00 0. -1.
         22    1    3    3    0    0 -0.10752695844E+03  0.45920258357E+01 -0.93756626276E+02  0.14273555431E+03  0.00000000000E+00 0. -1.
</event>
<event>
 7    1  0.5452757E-006  0.8925785E+02  0.7818608E-02  0.1361482E+00
          2   -1    0    0  502    0  0.00000000000E+00  0.00000000000E+00  0.23291214189E+04  0.23291214189E+04  0.00000000000E+00 0. -1.
          1   -1    0    0  501    0 -0.00000000000E+00 -0.00000000000E+00 -0.69889721987E+03  0.69889721987E+03  0.00000000000E+00 0. -1.
         25    2    1    2    0    0 -0.26983630777E+02 -0.49098808104E+02  0.13025208475E+03  0.18902233597E+03  0.12500011451E+03 0.  0.
          2    1    1    2  501    0  0.80533824685E+02  0.40346081084E+02 -0.66614117051E+03  0.67220351251E+03  0.00000000000E+00 0. -1.
          1    1    1    2  502    0 -0.53550193908E+02  0.87527270203E+01  0.21661132848E+04  0.21667927903E+04  0.00000000000E+00 0. -1.
         22    1    3    3    0    0  0.43127990738E+02 -0.30222483744E+02  0.94280979064E+02  0.10799224566E+03  0.00000000000E+00 0. -1.
         22    1    3    3    0    0 -0.70111621514E+02 -0.18876324360E+02  0.35971105686E+02  0.81030090318E+02  0.00000000000E+00 0. -1.
</event>
<event>
 7    1  0.5452757E-006  0.9850855E+02  0.7818608E-02  0.1322282E+00
          2   -1    0    0  502    0  0.00000000000E+00  0.00000000000E+00  0.11588645296E+04  0.11588645296E+04  0.00000000000E+00 0. -1.
          1   -1    0    0  501    0 -0.00000000000E+00 -0.00000000000E+00 -0.88141080852E+02  0.88141080852E+02  0.00000000000E+00 0. -1.
         25    2    1    2    0    0 -0.10179233287E+03  0.71066465001E+02  0.21582510879E+03  0.27859858697E+03  0.12499829439E+03 0.  0.
          2    1    1    2  501    0  0.97033130396E+02 -0.22476955570E+01 -0.12863245352E+02  0.97907832224E+02  0.00000000000E+00 0. -1.
          1    1    1    2  502    0  0.47592024712E+01 -0.68818769444E+02  0.86776158528E+03  0.87049919122E+03  0.00000000000E+00 0. -1.
         22    1    3    3    0    0 -0.37724544485E+02 -0.33336196211E+02  0.89167689173E+02  0.10239785167E+03  0.00000000000E+00 0. -1.
         22    1    3    3    0    0 -0.64067788382E+02  0.10440266121E+03  0.12665741962E+03  0.17620073530E+03  0.00000000000E+00 0. -1.
</event>
<event>
 7    1  0.5452757E-006  0.7440976E+02  0.7818608E-02  0.1437159E+00
          2   -1    0    0  502    0  0.00000000000E+00  0.00000000000E+00  0.54079678956E+03  0.54079678956E+03  0.00000000000E+00 0. -1.
          1   -1    0    0  501    0 -0.00000000000E+00 -0.00000000000E+00 -0.15124344010E+03  0.15124344010E+03  0.00000000000E+00 0. -1.
         25    2    1    2    0    0 -0.10494361666E+03 -0.13925081688E+02  0.73216850607E+02  0.17942408207E+03  0.12500089374E+03 0.  0.
          2    1    1    2  501    0  0.69313199908E+02  0.16342297415E+02 -0.84321411917E+02  0.11036979149E+03  0.00000000000E+00 0. -1.
          1    1    1    2  502    0  0.35630416756E+02 -0.24172157270E+01  0.40065791077E+03  0.40224635609E+03  0.00000000000E+00 0. -1.
         22    1    3    3    0    0  0.26028668138E+02 -0.18786537354E+02  0.82507091059E+01  0.33143623090E+02  0.00000000000E+00 0. -1.
         22    1    3    3    0    0 -0.13097228480E+03  0.48614556657E+01  0.64966141501E+02  0.14628045898E+03  0.00000000000E+00 0. -1.
</event>
<event>
 7    1  0.5452757E-006  0.7798084E+02  0.7818608E-02  0.1397690E+00
          2   -1    0    0  502    0  0.00000000000E+00  0.00000000000E+00  0.38094058101E+03  0.38094058101E+03  0.00000000000E+00 0. -1.
          1   -1    0    0  501    0 -0.00000000000E+00 -0.00000000000E+00 -0.17629267914E+04  0.17629267914E+04  0.00000000000E+00 0. -1.
         25    2    1    2    0    0  0.34668007568E+01 -0.52910701250E+02 -0.12102808861E+03  0.18189056014E+03  0.12499926649E+03 0.  0.
          2    1    1    2  501    0 -0.48727502775E+02  0.62265308124E+02 -0.16089689693E+04  0.16109104513E+04  0.00000000000E+00 0. -1.
          1    1    1    2  502    0  0.45260702018E+02 -0.93546068743E+01  0.34801084748E+03  0.35106636094E+03  0.00000000000E+00 0. -1.
         22    1    3    3    0    0  0.17750031772E+02 -0.50058144549E+02  0.65225607597E+01  0.53510982634E+02  0.00000000000E+00 0.  1.
         22    1    3    3    0    0 -0.14283231015E+02 -0.28525567002E+01 -0.12755064937E+03  0.12837957751E+03  0.00000000000E+00 0.  1.
</event>
<event>
 7    1  0.5452757E-006  0.1575543E+03  0.7818608E-02  0.1304603E+00
          2   -1    0    0  502    0  0.00000000000E+00  0.00000000000E+00  0.58295745144E+02  0.58295745144E+02  0.00000000000E+00 0. -1.
          1   -1    0    0  501    0 -0.00000000000E+00 -0.00000000000E+00 -0.20958133101E+04  0.20958133101E+04  0.00000000000E+00 0. -1.
         25    2    1    2    0    0 -0.56078940641E+02  0.13223277130E+03 -0.85971590285E+03  0.88054931207E+03  0.12500121592E+03 0.  0.
          2    1    1    2  501    0  0.42216656224E+02  0.27880705291E+02 -0.10885544885E+04  0.10897295326E+04  0.00000000000E+00 0. -1.
          1    1    1    2  502    0  0.13862284416E+02 -0.16011347659E+03 -0.89247173556E+02  0.18383021053E+03  0.00000000000E+00 0. -1.
         22    1    3    3    0    0 -0.18428985817E+01 -0.81203915166E+01 -0.32390209166E+03  0.32400910792E+03  0.00000000000E+00 0.  1.
         22    1    3    3    0    0 -0.54236042059E+02  0.14035316281E+03 -0.53581381119E+03  0.55654020415E+03  0.00000000000E+00 0.  1.
</event>
<event>
 7    1  0.5452757E-006  0.6005444E+02  0.7818608E-02  0.1466670E+00
          2   -1    0    0  502    0  0.00000000000E+00  0.00000000000E+00  0.32139588093E+03  0.32139588093E+03  0.00000000000E+00 0. -1.
          1   -1    0    0  501    0 -0.00000000000E+00 -0.00000000000E+00 -0.44055412040E+03  0.44055412040E+03  0.00000000000E+00 0. -1.
         25    2    1    2    0    0  0.46023842263E+02  0.67317752708E+02 -0.20528287135E+03  0.25380251925E+03  0.12499915049E+03 0.  0.
          2    1    1    2  501    0  0.45684713653E+01 -0.35328485300E+02 -0.20645600145E+03  0.20950669044E+03  0.00000000000E+00 0. -1.
          1    1    1    2  502    0 -0.50592313628E+02 -0.31989267407E+02  0.29258063333E+03  0.29864079163E+03  0.00000000000E+00 0. -1.
         22    1    3    3    0    0  0.35426870769E+01  0.95450621665E+02 -0.15598032645E+03  0.18290225271E+03  0.00000000000E+00 0.  1.
         22    1    3    3    0    0  0.42481155186E+02 -0.28132868957E+02 -0.49302544906E+02  0.70900266543E+02  0.00000000000E+00 0.  1.
</event>
<event>
 7    1  0.5452757E-006  0.5001053E+02  0.7818608E-02  0.1539008E+00
          2   -1    0    0  502    0  0.00000000000E+00  0.00000000000E+00  0.25180573607E+03  0.25180573607E+03  0.00000000000E+00 0. -1.
          1   -1    0    0  501    0 -0.00000000000E+00 -0.00000000000E+00 -0.24079949293E+03  0.24079949293E+03  0.00000000000E+00 0. -1.
         25    2    1    2    0    0  0.68862485063E+02 -0.17078511108E+02 -0.11009225273E+03  0.18104971137E+03  0.12499990595E+03 0.  0.
          2    1    1    2  501    0 -0.46594737210E+02  0.35316844437E+01 -0.88640485117E+02  0.10020318325E+03  0.00000000000E+00 0. -1.
          1    1    1    2  502    0 -0.22267747853E+02  0.13546826665E+02  0.20973898098E+03  0.21135233438E+03  0.00000000000E+00 0. -1.
         22    1    3    3    0    0  0.66347502021E+02 -0.21133357949E+02 -0.13702236732E+03  0.15370015937E+03  0.00000000000E+00 0.  1.
         22    1    3    3    0    0  0.25149830423E+01  0.40548468408E+01  0.26930114597E+02  0.27349552004E+02  0.00000000000E+00 0.  1.
</event>
<event>
 7    1  0.5452757E-006  0.1491535E+03  0.7818608E-02  0.1228810E+00
          2   -1    0    0  502    0  0.00000000000E+00  0.00000000000E+00  0.80668150701E+03  0.80668150701E+03  0.00000000000E+00 0. -1.
          1   -1    0    0  501    0 -0.00000000000E+00 -0.00000000000E+00 -0.19874964262E+04  0.19874964262E+04  0.00000000000E+00 0. -1.
         25    2    1    2    0    0 -0.18513927601E+03 -0.18142962004E+03 -0.12138472686E+04  0.12474948544E+04  0.12499984661E+03 0.  0.
          2    1    1    2  501    0  0.71314823573E+02  0.86008547067E+02 -0.74564355907E+03  0.75396789814E+03  0.00000000000E+00 0. -1.
          1    1    1    2  502    0  0.11382445244E+03  0.95421072978E+02  0.77867590852E+03  0.79271518066E+03  0.00000000000E+00 0. -1.
         22    1    3    3    0    0 -0.12324451838E+03 -0.18259560098E+03 -0.83243546534E+03  0.86109184688E+03  0.00000000000E+00 0.  1.
         22    1    3    3    0    0 -0.61894757626E+02  0.11659809399E+01 -0.38141180327E+03  0.38640300750E+03  0.00000000000E+00 0.  1.
</event>
<event>
 7    1  0.5452757E-006  0.1298721E+03  0.7818608E-02  0.1353478E+00
          2   -1    0    0  502    0  0.00000000000E+00  0.00000000000E+00  0.10124898497E+04  0.10124898497E+04  0.00000000000E+00 0. -1.
          1   -1    0    0  501    0 -0.00000000000E+00 -0.00000000000E+00 -0.12696324186E+04  0.12696324186E+04  0.00000000000E+00 0. -1.
         25    2    1    2    0    0  0.10698089411E+03  0.11078637922E+03 -0.10795851944E+03  0.22582946345E+03  0.12500148445E+03 0.  0.
          2    1    1    2  501    0  0.11837498291E+01 -0.39879283426E+02 -0.10979889130E+04  0.10987135257E+04  0.00000000000E+00 0. -1.
          1    1    1    2  502    0 -0.10816464394E+03 -0.70907095797E+02  0.94880486358E+03  0.95757927901E+03  0.00000000000E+00 0. -1.
         22    1    3    3    0    0  0.43847075716E+02  0.12598787066E+03 -0.71305069486E+02  0.15126110715E+03  0.00000000000E+00 0. -1.
         22    1    3    3    0    0  0.63133818393E+02 -0.15201491439E+02 -0.36653449954E+02  0.74568356294E+02  0.00000000000E+00 0. -1.
</event>
<event>
 7    1  0.5452757E-006  0.9032529E+02  0.7818608E-02  0.1370031E+00
          2   -1    0    0  502    0  0.00000000000E+00  0.00000000000E+00  0.20442919923E+03  0.20442919923E+03  0.00000000000E+00 0. -1.
          1   -1    0    0  501    0 -0.00000000000E+00 -0.00000000000E+00 -0.46821955095E+03  0.46821955095E+03  0.00000000000E+00 0. -1.
         25    2    1    2    0    0 -0.55693234319E+02  0.12196893926E+03 -0.31901544474E+02  0.18606687682E+03  0.12500006246E+03 0.  0.
          2    1    1    2  501    0  0.48739492126E+02 -0.72522001652E+02 -0.34873414180E+03  0.35951422847E+03  0.00000000000E+00 0. -1.
          1    1    1    2  502    0  0.69537421923E+01 -0.49446937612E+02  0.11684533456E+03  0.12706764489E+03  0.00000000000E+00 0. -1.
         22    1    3    3    0    0 -0.65614809571E+02  0.84139963812E+01  0.47747526287E+01  0.66324179850E+02  0.00000000000E+00 0. -1.
         22    1    3    3    0    0  0.99215752524E+01  0.11355494288E+03 -0.36676297102E+02  0.11974269697E+03  0.00000000000E+00 0. -1.
</event>
<event>
 7    1  0.5452757E-006  0.3753793E+02  0.7818608E-02  0.1626523E+00
          2   -1    0    0  502    0  0.00000000000E+00  0.00000000000E+00  0.53737797115E+03  0.53737797115E+03  0.00000000000E+00 0. -1.
          1   -1    0    0  501    0 -0.00000000000E+00 -0.00000000000E+00 -0.72556670100E+03  0.72556670100E+03  0.00000000000E+00 0. -1.
         25    2    1    2    0    0  0.57295304665E+02  0.27388992246E+00 -0.30483674194E+03  0.33441568331E+03  0.12500233220E+03 0.  0.
          2    1    1    2  501    0 -0.19976525658E+02  0.33760417078E+01 -0.40501434000E+03  0.40552074526E+03  0.00000000000E+00 0. -1.
          1    1    1    2  502    0 -0.37318779008E+02 -0.36499316303E+01  0.52166235209E+03  0.52300824358E+03  0.00000000000E+00 0. -1.
         22    1    3    3    0    0  0.60194079497E+02 -0.11945169587E+02 -0.31331181678E+03  0.31926526403E+03  0.00000000000E+00 0. -1.
         22    1    3    3    0    0 -0.28987748312E+01  0.12219059509E+02  0.84750748391E+01  0.15150419279E+02  0.00000000000E+00 0. -1.
</event>
<event>
 7    1  0.5452757E-006  0.5916255E+02  0.7818608E-02  0.1413884E+00
          2   -1    0    0  502    0  0.00000000000E+00  0.00000000000E+00  0.50669716766E+03  0.50669716766E+03  0.00000000000E+00 0. -1.
          1   -1    0    0  501    0 -0.00000000000E+00 -0.00000000000E+00 -0.14849205297E+04  0.14849205297E+04  0.00000000000E+00 0. -1.
         25    2    1    2    0    0  0.47404233305E+02  0.29210101346E+02 -0.34368182152E+02  0.14109125741E+03  0.12500071847E+03 0.  0.
          2    1    1    2  501    0 -0.54444065569E+02  0.23970507659E+02 -0.13949676991E+04  0.13962355185E+04  0.00000000000E+00 0. -1.
          1    1    1    2  502    0  0.70398322643E+01 -0.53180609005E+02  0.45111251917E+03  0.45429092151E+03  0.00000000000E+00 0. -1.
         22    1    3    3    0    0  0.46821011787E+02  0.21703478769E+02 -0.79803657270E+02  0.95036160744E+02  0.00000000000E+00 0. -1.
         22    1    3    3    0    0  0.58322151752E+00  0.75066225773E+01  0.45435475117E+02  0.46055096667E+02  0.00000000000E+00 0. -1.
</event>
<event>
 7    1  0.5452757E-006  0.1704717E+03  0.7818608E-02  0.1373322E+00
          2   -1    0    0  502    0  0.00000000000E+00  0.00000000000E+00  0.11029235314E+03  0.11029235314E+03  0.00000000000E+00 0. -1.
          1   -1    0    0  501    0 -0.00000000000E+00 -0.00000000000E+00 -0.53992347229E+03  0.53992347229E+03  0.00000000000E+00 0. -1.
         25    2    1    2    0    0 -0.15673541542E+03 -0.37036299398E+02 -0.29119984409E+03  0.35547156827E+03  0.12500003492E+03 0.  0.
          2    1    1    2  501    0 -0.16113122810E+02  0.20083492040E+02 -0.11694066190E+03  0.11974179632E+03  0.00000000000E+00 0. -1.
          1    1    1    2  502    0  0.17284853823E+03  0.16952807357E+02 -0.21490613161E+02  0.17500246084E+03  0.00000000000E+00 0. -1.
         22    1    3    3    0    0 -0.67788436782E+02  0.38296622417E+02 -0.66728306209E+02  0.10254057879E+03  0.00000000000E+00 0. -1.
         22    1    3    3    0    0 -0.88946978643E+02 -0.75332921815E+02 -0.22447153788E+03  0.25293098948E+03  0.00000000000E+00 0. -1.
</event>
<event>
 7    1  0.5452757E-006  0.2095953E+03  0.7818608E-02  0.1378720E+00
          2   -1    0    0  502    0  0.00000000000E+00  0.00000000000E+00  0.61368985432E+03  0.61368985432E+03  0.00000000000E+00 0. -1.
          1   -1    0    0  501    0 -0.00000000000E+00 -0.00000000000E+00 -0.15009853676E+03  0.15009853676E+03  0.00000000000E+00 0. -1.
         25    2    1    2    0    0 -0.76815183635E+02  0.19708440361E+03  0.10889641325E+03  0.26875874057E+03  0.12501998732E+03 0.  0.
          2    1    1    2  501    0  0.19602128679E+02  0.41414443874E+01 -0.42010293618E+02  0.46543095946E+02  0.00000000000E+00 0. -1.
          1    1    1    2  502    0  0.57213054955E+02 -0.20122584799E+03  0.39670519793E+03  0.44848655456E+03  0.00000000000E+00 0. -1.
         22    1    3    3    0    0 -0.74359686139E+02  0.16271826551E+03  0.28328116465E+02  0.18113276632E+03  0.00000000000E+00 0.  1.
         22    1    3    3    0    0 -0.24554974955E+01  0.34366138100E+02  0.80568296786E+02  0.87625974247E+02  0.00000000000E+00 0.  1.
</event>
<event>
 7    1  0.5452757E-006  0.3114186E+02  0.7818608E-02  0.1611672E+00
          2   -1    0    0  502    0  0.00000000000E+00  0.00000000000E+00  0.47927693979E+03  0.47927693979E+03  0.00000000000E+00 0. -1.
          1   -1    0    0  501    0 -0.00000000000E+00 -0.00000000000E+00 -0.37700733362E+03  0.37700733362E+03  0.00000000000E+00 0. -1.
         25    2    1    2    0    0 -0.41983409841E+02 -0.71770382718E+01 -0.90855191806E+02  0.16029160875E+03  0.12499846950E+03 0.  0.
          2    1    1    2  501    0  0.27213149581E+02 -0.15000333892E+02 -0.25007220835E+03  0.25199538669E+03  0.00000000000E+00 0. -1.
          1    1    1    2  502    0  0.14770260259E+02  0.22177372163E+02  0.44319700632E+03  0.44399727796E+03  0.00000000000E+00 0. -1.
         22    1    3    3    0    0  0.19182227099E+01  0.55498166562E+02 -0.38742773582E+02  0.67710623797E+02  0.00000000000E+00 0. -1.
         22    1    3    3    0    0 -0.43901632550E+02 -0.62675204834E+02 -0.52112418223E+02  0.92580984952E+02  0.00000000000E+00 0. -1.
</event>
<event>
 7    1  0.5452757E-006  0.9341581E+02  0.7818608E-02  0.1314686E+00
          2   -1    0    0  502    0  0.00000000000E+00  0.00000000000E+00  0.93258677681E+03  0.93258677681E+03  0.00000000000E+00 0. -1.
          1   -1    0    0  501    0 -0.00000000000E+00 -0.00000000000E+00 -0.97539050303E+03  0.97539050303E+03  0.00000000000E+00 0. -1.
         25    2    1    2    0    0 -0.29528065341E+01 -0.17806980053E+02  0.65369189840E+03  0.66578031982E+03  0.12499811449E+03 0.  0.
          2    1    1    2  501    0 -0.26759738913E+02  0.89779001952E+02 -0.96146786316E+03  0.96602112022E+03  0.00000000000E+00 0. -1.
          1    1    1    2  502    0  0.29712545447E+02 -0.71972021899E+02  0.26497223854E+03  0.27617583980E+03  0.00000000000E+00 0. -1.
         22    1    3    3    0    0  0.40602119102E+01 -0.71282617017E+02  0.41233440098E+03  0.41847025586E+03  0.00000000000E+00 0.  1.
         22    1    3    3    0    0 -0.70130184443E+01  0.53475636964E+02  0.24135749741E+03  0.24731006396E+03  0.00000000000E+00 0.  1.
</event>
<event>
 7    1  0.5452757E-006  0.2248474E+03  0.7818608E-02  0.1278819E+00
          2   -1    0    0  502    0  0.00000000000E+00  0.00000000000E+00  0.73572878234E+03  0.73572878234E+03  0.00000000000E+00 0. -1.
          1   -1    0    0  501    0 -0.00000000000E+00 -0.00000000000E+00 -0.14971685929E+04  0.14971685929E+04  0.00000000000E+00 0. -1.
         25    2    1    2    0    0 -0.17068701879E+02 -0.26112080629E+03 -0.24662248884E+03  0.38067617005E+03  0.12496510867E+03 0.  0.
          2    1    1    2  501    0  0.23527393521E+02  0.38482088861E+02 -0.11645235431E+04  0.11653967100E+04  0.00000000000E+00 0. -1.
          1    1    1    2  502    0 -0.64586916415E+01  0.22263871742E+03  0.64970622131E+03  0.68682449519E+03  0.00000000000E+00 0. -1.
         22    1    3    3    0    0 -0.32028156571E+02 -0.92983871269E+02 -0.23888949567E+02  0.10120516311E+03  0.00000000000E+00 0. -1.
         22    1    3    3    0    0  0.14959454692E+02 -0.16813693502E+03 -0.22273353927E+03  0.27947100694E+03  0.00000000000E+00 0. -1.
</event>
<event>
 7    1  0.5452757E-006  0.8076033E+02  0.7818608E-02  0.1358320E+00
          2   -1    0    0  502    0  0.00000000000E+00  0.00000000000E+00  0.87168724933E+03  0.87168724933E+03  0.00000000000E+00 0. -1.
          1   -1    0    0  501    0 -0.00000000000E+00 -0.00000000000E+00 -0.11657559689E+03  0.11657559689E+03  0.00000000000E+00 0. -1.
         25    2    1    2    0    0 -0.53453577946E+02 -0.45942983165E+02  0.48370774009E+02  0.15142757098E+03  0.12499013872E+03 0.  0.
          2    1    1    2  501    0  0.49882198382E+02 -0.36117783725E+02 -0.47724116285E+02  0.77912253798E+02  0.00000000000E+00 0. -1.
          1    1    1    2  502    0  0.35713795641E+01  0.82060766890E+02  0.75446499472E+03  0.75892302144E+03  0.00000000000E+00 0. -1.
         22    1    3    3    0    0 -0.90751967209E+02 -0.93505613141E+01  0.29865860834E+02  0.95996469687E+02  0.00000000000E+00 0. -1.
         22    1    3    3    0    0  0.37298389262E+02 -0.36592421851E+02  0.18504913174E+02  0.55431101289E+02  0.00000000000E+00 0. -1.
</event>
<event>
 7    1  0.5452757E-006  0.7883313E+02  0.7818608E-02  0.1384713E+00
          2   -1    0    0  502    0  0.00000000000E+00  0.00000000000E+00  0.32161123257E+03  0.32161123257E+03  0.00000000000E+00 0. -1.
          1   -1    0    0  501    0 -0.00000000000E+00 -0.00000000000E+00 -0.11918137245E+04  0.11918137245E+04  0.00000000000E+00 0. -1.
         25    2    1    2    0    0 -0.28946300498E+02  0.50466095162E+02  0.15834556764E+03  0.20996024514E+03  0.12500108269E+03 0.  0.
          2    1    1    2  501    0  0.24491315213E+02  0.44429612637E+02 -0.11489653722E+04  0.11500848845E+04  0.00000000000E+00 0. -1.
          1    1    1    2  502    0  0.44549852848E+01 -0.94895707799E+02  0.12041731269E+03  0.15337982738E+03  0.00000000000E+00 0. -1.
         22    1    3    3    0    0  0.20087698006E+02 -0.18080344733E+02 -0.37293885491E+01  0.27282280252E+02  0.00000000000E+00 0.  1.
         22    1    3    3    0    0 -0.49033998503E+02  0.68546439895E+02  0.16207495619E+03  0.18267796489E+03  0.00000000000E+00 0.  1.
</event>
<event>
 7    1  0.5452757E-006  0.1366169E+03  0.7818608E-02  0.1250784E+00
          2   -1    0    0  502    0  0.00000000000E+00  0.00000000000E+00  0.12251683111E+04  0.12251683111E+04  0.00000000000E+00 0. -1.
          1   -1    0    0  501    0 -0.00000000000E+00 -0.00000000000E+00 -0.58865602825E+02  0.58865602825E+02  0.00000000000E+00 0. -1.
         25    2    1    2    0    0 -0.12179791132E+03 -0.69000903534E+02  0.22595421768E+03  0.29372739413E+03  0.12499847071E+03 0.  0.
          2    1    1    2  501    0 -0.16701150196E+02  0.96135780324E+02  0.10586895647E+03  0.14397656969E+03  0.00000000000E+00 0. -1.
          1    1    1    2  502    0  0.13849906152E+03 -0.27134876790E+02  0.83447953408E+03  0.84632995006E+03  0.00000000000E+00 0. -1.
         22    1    3    3    0    0 -0.26452478178E+02 -0.24404801865E+02 -0.82787005922E+01  0.36930540740E+02  0.00000000000E+00 0. -1.
         22    1    3    3    0    0 -0.95345433142E+02 -0.44596101669E+02  0.23423291828E+03  0.25679685339E+03  0.00000000000E+00 0. -1.
</event>
<event>
 7    1  0.5452757E-006  0.1047487E+03  0.7818608E-02  0.1394113E+00
          2   -1    0    0  502    0  0.00000000000E+00  0.00000000000E+00  0.78204673629E+02  0.78204673629E+02  0.00000000000E+00 0. -1.
          1   -1    0    0  501    0 -0.00000000000E+00 -0.00000000000E+00 -0.14425459393E+04  0.14425459393E+04  0.00000000000E+00 0. -1.
         25    2    1    2    0    0 -0.11982126732E+03  0.30618052242E+01 -0.58510416022E+02  0.18279764133E+03  0.12499999256E+03 0.  0.
          2    1    1    2  501    0  0.99382132179E+02 -0.31966431926E+02 -0.12973586924E+04  0.13015522416E+04  0.00000000000E+00 0. -1.
          1    1    1    2  502    0  0.20439135141E+02  0.28904626702E+02 -0.84721571935E+01  0.36400729905E+02  0.00000000000E+00 0. -1.
         22    1    3    3    0    0  0.14439251264E+02  0.22065698095E+02  0.13107162765E+02  0.29448000360E+02  0.00000000000E+00 0. -1.
         22    1    3    3    0    0 -0.13426051858E+03 -0.19003892871E+02 -0.71617578787E+02  0.15334964097E+03  0.00000000000E+00 0. -1.
</event>
<event>
 7    1  0.5452757E-006  0.9336672E+02  0.7818608E-02  0.1376618E+00
          2   -1    0    0  502    0  0.00000000000E+00  0.00000000000E+00  0.47548563155E+04  0.47548563155E+04  0.00000000000E+00 0. -1.
          1   -1    0    0  501    0 -0.00000000000E+00 -0.00000000000E+00 -0.18804415558E+04  0.18804415558E+04  0.00000000000E+00 0. -1.
         25    2    1    2    0    0  0.10163306827E+03  0.40785218474E+02  0.89282067212E+02  0.18865010232E+03  0.12499943586E+03 0.  0.
          2    1    1    2  501    0 -0.37174945333E+02  0.26676560593E+02 -0.18300000205E+04  0.18305719572E+04  0.00000000000E+00 0. -1.
          1    1    1    2  502    0 -0.64458122941E+02 -0.67461779067E+02  0.46151327130E+04  0.46160758117E+04  0.00000000000E+00 0. -1.
         22    1    3    3    0    0  0.13591263446E+02  0.65069502499E+02  0.67546643345E+02  0.94769782234E+02  0.00000000000E+00 0.  1.
         22    1    3    3    0    0  0.88041804828E+02 -0.24284284025E+02  0.21735423868E+02  0.93880320082E+02  0.00000000000E+00 0.  1.
</event>
<event>
 7    1  0.5452757E-006  0.5656153E+02  0.7818608E-02  0.1535289E+00
          2   -1    0    0  502    0  0.00000000000E+00  0.00000000000E+00  0.16754989717E+04  0.16754989717E+04  0.00000000000E+00 0. -1.
          1   -1    0    0  501    0 -0.00000000000E+00 -0.00000000000E+00 -0.25734233357E+03  0.25734233357E+03  0.00000000000E+00 0. -1.
         25    2    1    2    0    0 -0.55962513426E+02 -0.18517036978E+02  0.31879021500E+03  0.34745807026E+03  0.12500090336E+03 0.  0.
          2    1    1    2  501    0  0.13707750596E+02 -0.19226569399E+02 -0.24183530002E+03  0.24298534057E+03  0.00000000000E+00 0. -1.
          1    1    1    2  502    0  0.42254762830E+02  0.37743606377E+02  0.13412017232E+04  0.13423978945E+04  0.00000000000E+00 0. -1.
         22    1    3    3    0    0 -0.42114519845E+02  0.14665205544E+02  0.30609548239E+03  0.30932692313E+03  0.00000000000E+00 0. -1.
         22    1    3    3    0    0 -0.13847993581E+02 -0.33182242522E+02  0.12694732606E+02  0.38131147124E+02  0.00000000000E+00 0. -1.
</event>
<event>
 7    1  0.5452757E-006  0.1122517E+03  0.7818608E-02  0.1332278E+00
          2   -1    0    0  502    0  0.00000000000E+00  0.00000000000E+00  0.92938158149E+03  0.92938158149E+03  0.00000000000E+00 0. -1.
          1   -1    0    0  501    0 -0.00000000000E+00 -0.00000000000E+00 -0.74630062463E+02  0.74630062463E+02  0.00000000000E+00 0. -1.
         25    2    1    2    0    0 -0.68057176774E+02 -0.86744199839E+02  0.39862353915E+03  0.43206794497E+03  0.12500259034E+03 0.  0.
          2    1    1    2  501    0  0.19032027309E+02  0.11258964444E+03  0.17519915651E+01  0.11420033088E+03  0.00000000000E+00 0. -1.
          1    1    1    2  502    0  0.49025149465E+02 -0.25845444601E+02  0.45437598831E+03  0.45774336810E+03  0.00000000000E+00 0. -1.
         22    1    3    3    0    0  0.12975348436E+02 -0.80437631458E+02  0.24614714023E+03  0.25928167476E+03  0.00000000000E+00 0.  1.
         22    1    3    3    0    0 -0.81032525211E+02 -0.63065683811E+01  0.15247639892E+03  0.17278627022E+03  0.00000000000E+00 0.  1.
</event>
<event>
 7    1  0.5452757E-006  0.1417444E+03  0.7818608E-02  0.1287474E+00
          2   -1    0    0  502    0  0.00000000000E+00  0.00000000000E+00  0.93257741462E+03  0.93257741462E+03  0.00000000000E+00 0. -1.
          1   -1    0    0  501    0 -0.00000000000E+00 -0.00000000000E+00 -0.24623227784E+03  0.24623227784E+03  0.00000000000E+00 0. -1.
         25    2    1    2    0    0 -0.57334711174E+02 -0.14578005024E+03  0.12183784938E+03  0.23453783998E+03  0.12499777873E+03 0.  0.
          2    1    1    2  501    0 -0.45063399901E+02  0.48111063275E+02 -0.17726363483E+03  0.18912371785E+03  0.00000000000E+00 0. -1.
          1    1    1    2  502    0  0.10239811108E+03  0.97668986966E+02  0.74177092222E+03  0.75514813462E+03  0.00000000000E+00 0. -1.
         22    1    3    3    0    0 -0.38809839569E+02 -0.92857546690E+01 -0.12813163340E+02  0.41911884256E+02  0.00000000000E+00 0.  1.
         22    1    3    3    0    0 -0.18524871605E+02 -0.13649429557E+03  0.13465101272E+03  0.19262595573E+03  0.00000000000E+00 0.  1.
</event>
<event>
 7    1  0.5452757E-006  0.1320594E+03  0.7818608E-02  0.1321491E+00
          2   -1    0    0  502    0  0.00000000000E+00  0.00000000000E+00  0.18449252681E+04  0.18449252681E+04  0.00000000000E+00 0. -1.
          1   -1    0    0  501    0 -0.00000000000E+00 -0.00000000000E+00 -0.77511069124E+02  0.77511069124E+02  0.00000000000E+00 0. -1.
         25    2    1    2    0    0  0.89109886754E+02  0.82015965254E+02  0.17667340141E+03  0.24798946310E+03  0.12497236721E+03 0.  0.
          2    1    1    2  501    0 -0.62805976071E+02 -0.12666484781E+03  0.79268732295E+02  0.16208672438E+03  0.00000000000E+00 0. -1.
          1    1    1    2  502    0 -0.26303910684E+02  0.44648882561E+02  0.15114720653E+04  0.15123601498E+04  0.00000000000E+00 0. -1.
         22    1    3    3    0    0  0.25044123901E+02  0.97776575178E+02  0.70971594967E+02  0.12338733358E+03  0.00000000000E+00 0. -1.
         22    1    3    3    0    0  0.64065762853E+02 -0.15760609924E+02  0.10570180644E+03  0.12460212952E+03  0.00000000000E+00 0. -1.
</event>
<event>
 7    1  0.5452757E-006  0.6510911E+02  0.7818608E-02  0.1517050E+00
          2   -1    0    0  502    0  0.00000000000E+00  0.00000000000E+00  0.80124545181E+03  0.80124545181E+03  0.00000000000E+00 0. -1.
          1   -1    0    0  501    0 -0.00000000000E+00 -0.00000000000E+00 -0.67829770547E+02  0.67829770547E+02  0.00000000000E+00 0. -1.
         25    2    1    2    0    0  0.37631509946E+02 -0.37444853729E+02  0.22596843405E+03  0.26363905989E+03  0.12500229238E+03 0.  0.
          2    1    1    2  501    0 -0.73787310203E+01 -0.21942753639E+02 -0.44137012667E+02  0.49839803329E+02  0.00000000000E+00 0. -1.
          1    1    1    2  502    0 -0.30252778926E+02  0.59387607369E+02  0.55158425989E+03  0.55559635915E+03  0.00000000000E+00 0. -1.
         22    1    3    3    0    0  0.11267736885E+02 -0.91638288098E+01 -0.14239366693E+02  0.20339548096E+02  0.00000000000E+00 0.  1.
         22    1    3    3    0    0  0.26363773062E+02 -0.28281024920E+02  0.24020780074E+03  0.24329951179E+03  0.00000000000E+00 0.  1.
</event>
<event>
 7    1  0.5452757E-006  0.1459116E+03  0.7818608E-02  0.1265376E+00
          2   -1    0    0  502    0  0.00000000000E+00  0.00000000000E+00  0.18889916825E+04  0.18889916825E+04  0.00000000000E+00 0. -1.
          1   -1    0    0  501    0 -0.00000000000E+00 -0.00000000000E+00 -0.49915731289E+03  0.49915731289E+03  0.00000000000E+00 0. -1.
         25    2    1    2    0    0  0.83668569920E+02  0.17860414351E+03 -0.20599560340E+03  0.31138372904E+03  0.12500307363E+03 0.  0.
          2    1    1    2  501    0 -0.22672801156E+02 -0.12821196420E+03 -0.22191945223E+03  0.25729478610E+03  0.00000000000E+00 0. -1.
          1    1    1    2  502    0 -0.60995768764E+02 -0.50392179310E+02  0.18177494253E+04  0.18194704803E+04  0.00000000000E+00 0. -1.
         22    1    3    3    0    0  0.99054783315E+01  0.43726836477E+02  0.10318932271E+02  0.46006902662E+02  0.00000000000E+00 0.  1.
         22    1    3    3    0    0  0.73763091588E+02  0.13487730703E+03 -0.21631453567E+03  0.26537682638E+03  0.00000000000E+00 0.  1.
</event>
<event>
 7    1  0.5452757E-006  0.6909310E+02  0.7818608E-02  0.1439498E+00
          2   -1    0    0  502    0  0.00000000000E+00  0.00000000000E+00  0.53991190988E+03  0.53991190988E+03  0.00000000000E+00 0. -1.
          1   -1    0    0  501    0 -0.00000000000E+00 -0.00000000000E+00 -0.16000939821E+03  0.16000939821E+03  0.00000000000E+00 0. -1.
         25    2    1    2    0    0 -0.67415809890E+01 -0.89995543175E+02  0.22234203550E+03  0.27056520678E+03  0.12499961466E+03 0.  0.
          2    1    1    2  501    0  0.26920369852E+02  0.26524702253E+02 -0.12938050273E+03  0.13478716789E+03  0.00000000000E+00 0. -1.
          1    1    1    2  502    0 -0.20178788863E+02  0.63470840921E+02  0.28694097889E+03  0.29456893342E+03  0.00000000000E+00 0. -1.
         22    1    3    3    0    0  0.57208553610E+02 -0.29338971535E+02  0.11419066212E+03  0.13104617954E+03  0.00000000000E+00 0.  1.
         22    1    3    3    0    0 -0.63950134599E+02 -0.60656571640E+02  0.10815137338E+03  0.13951902724E+03  0.00000000000E+00 0.  1.
</event>
<event>
 7    1  0.5452757E-006  0.1630969E+03  0.7818608E-02  0.1274609E+00
          2   -1    0    0  502    0  0.00000000000E+00  0.00000000000E+00  0.43402056255E+03  0.43402056255E+03  0.00000000000E+00 0. -1.
          1   -1    0    0  501    0 -0.00000000000E+00 -0.00000000000E+00 -0.72343490781E+03  0.72343490781E+03  0.00000000000E+00 0. -1.
         25    2    1    2    0    0 -0.20568394448E+03 -0.16220406661E+02 -0.91883490393E+02  0.25813718356E+03  0.12499297228E+03 0.  0.
          2    1    1    2  501    0  0.14997542320E+03  0.49196570804E+02 -0.53391740507E+03  0.55675912708E+03  0.00000000000E+00 0. -1.
          1    1    1    2  502    0  0.55708521278E+02 -0.32976164143E+02  0.33638655021E+03  0.34255915971E+03  0.00000000000E+00 0. -1.
         22    1    3    3    0    0 -0.28339952693E+01 -0.17163935124E+02 -0.47363287914E+02  0.50457043514E+02  0.00000000000E+00 0. -1.
         22    1    3    3    0    0 -0.20284994921E+03  0.94352846328E+00 -0.44520202480E+02  0.20768014005E+03  0.00000000000E+00 0. -1.
</event>
<event>
 7    1  0.5452757E-006  0.1070053E+03  0.7818608E-02  0.1346390E+00
          2   -1    0    0  502    0  0.00000000000E+00  0.00000000000E+00  0.10607605907E+04  0.10607605907E+04  0.00000000000E+00 0. -1.
          1   -1    0    0  501    0 -0.00000000000E+00 -0.00000000000E+00 -0.26446405490E+03  0.26446405490E+03  0.00000000000E+00 0. -1.
         25    2    1    2    0    0  0.12445295897E+03  0.90977035938E+02  0.20786534415E+03  0.28740067117E+03  0.12500313767E+03 0.  0.
          2    1    1    2  501    0 -0.38179950447E+02 -0.34475077990E+02 -0.21842651352E+03  0.22440227589E+03  0.00000000000E+00 0. -1.
          1    1    1    2  502    0 -0.86273008519E+02 -0.56501957947E+02  0.80685770519E+03  0.81342169855E+03  0.00000000000E+00 0. -1.
         22    1    3    3    0    0  0.10370766753E+03  0.85452189196E+02  0.77182374936E+02  0.15496604771E+03  0.00000000000E+00 0. -1.
         22    1    3    3    0    0  0.20745291441E+02  0.55248467415E+01  0.13068296921E+03  0.13243462346E+03  0.00000000000E+00 0. -1.
</event>
<event>
 7    1  0.5452757E-006  0.9318150E+02  0.7818608E-02  0.1348400E+00
          2   -1    0    0  502    0  0.00000000000E+00  0.00000000000E+00  0.13874811351E+03  0.13874811351E+03  0.00000000000E+00 0. -1.
          1   -1    0    0  501    0 -0.00000000000E+00 -0.00000000000E+00 -0.48386384179E+03  0.48386384179E+03  0.00000000000E+00 0. -1.
         25    2    1    2    0    0  0.95556390374E+02  0.15039625977E+02 -0.32190885602E+03  0.35861664560E+03  0.12499349113E+03 0.  0.
          2    1    1    2  501    0 -0.28391200788E+02  0.50650521561E+02 -0.11739029342E+03  0.13096570774E+03  0.00000000000E+00 0. -1.
          1    1    1    2  502    0 -0.67165189585E+02 -0.65690147539E+02  0.94183421156E+02  0.13302960196E+03  0.00000000000E+00 0. -1.
         22    1    3    3    0    0  0.29747946396E+01  0.51247765078E+02 -0.62918862531E+02  0.81203239410E+02  0.00000000000E+00 0.  1.
         22    1    3    3    0    0  0.92581595734E+02 -0.36208139100E+02 -0.25898999349E+03  0.27741340619E+03  0.00000000000E+00 0.  1.
</event>
<event>
 7    1  0.5452757E-006  0.5938115E+02  0.7818608E-02  0.1514989E+00
          2   -1    0    0  502    0  0.00000000000E+00  0.00000000000E+00  0.35970985880E+03  0.35970985880E+03  0.00000000000E+00 0. -1.
          1   -1    0    0  501    0 -0.00000000000E+00 -0.00000000000E+00 -0.20191550835E+04  0.20191550835E+04  0.00000000000E+00 0. -1.
         25    2    1    2    0    0 -0.28806924487E+02 -0.43801937897E+02 -0.14460338526E+04  0.14523727150E+04  0.12499660715E+03 0.  0.
          2    1    1    2  501    0  0.12578528042E+02  0.63778213977E+02 -0.56762976557E+03  0.57134003073E+03  0.00000000000E+00 0. -1.
          1    1    1    2  502    0  0.16228396444E+02 -0.19976276079E+02  0.35421839346E+03  0.35515219657E+03  0.00000000000E+00 0. -1.
         22    1    3    3    0    0 -0.17363117337E+02 -0.20413219596E+02 -0.55867477686E+02  0.61962508349E+02  0.00000000000E+00 0. -1.
         22    1    3    3    0    0 -0.11443807150E+02 -0.23388718301E+02 -0.13901663749E+04  0.13904102066E+04  0.00000000000E+00 0. -1.
</event>
<event>
 7    1  0.5452757E-006  0.7480364E+02  0.7818608E-02  0.1376716E+00
          2   -1    0    0  502    0  0.00000000000E+00  0.00000000000E+00  0.30491337670E+03  0.30491337670E+03  0.00000000000E+00 0. -1.
          1   -1    0    0  501    0 -0.00000000000E+00 -0.00000000000E+00 -0.22640316817E+03  0.22640316817E+03  0.00000000000E+00 0. -1.
         25    2    1    2    0    0 -0.99454448297E+02 -0.26135730952E+02 -0.85108833531E+02  0.18287930505E+03  0.12500825154E+03 0.  0.
          2    1    1    2  501    0  0.66917411366E+02 -0.20744173757E+02 -0.75268777476E+02  0.10282825269E+03  0.00000000000E+00 0. -1.
          1    1    1    2  502    0  0.32537036931E+02  0.46879904709E+02  0.23888781953E+03  0.24560898713E+03  0.00000000000E+00 0. -1.
         22    1    3    3    0    0 -0.85120830388E+02 -0.10399595499E+02  0.91559589798E+01  0.86241167300E+02  0.00000000000E+00 0. -1.
         22    1    3    3    0    0 -0.14333617909E+02 -0.15736135452E+02 -0.94264792511E+02  0.96638137753E+02  0.00000000000E+00 0. -1.
</event>
<event>
 7    1  0.5452757E-006  0.1147314E+03  0.7818608E-02  0.1280620E+00
          2   -1    0    0  502    0  0.00000000000E+00  0.00000000000E+00  0.12354329751E+04  0.12354329751E+04  0.00000000000E+00 0. -1.
          1   -1    0    0  501    0 -0.00000000000E+00 -0.00000000000E+00 -0.31810602090E+03  0.31810602090E+03  0.00000000000E+00 0. -1.
         25    2    1    2    0    0  0.91510486023E+02 -0.90269269038E+02 -0.10796773459E+02  0.17962478647E+03  0.12500313441E+03 0.  0.
          2    1    1    2  501    0 -0.11690325000E+03  0.71701162069E+01 -0.20573143381E+03  0.23673445732E+03  0.00000000000E+00 0. -1.
          1    1    1    2  502    0  0.25392763975E+02  0.83099152831E+02  0.11338551615E+04  0.11371797523E+04  0.00000000000E+00 0. -1.
         22    1    3    3    0    0  0.39489665445E+02 -0.64878981194E+02 -0.65265184639E+02  0.10014120133E+03  0.00000000000E+00 0. -1.
         22    1    3    3    0    0  0.52020820578E+02 -0.25390287844E+02  0.54468411180E+02  0.79483585141E+02  0.00000000000E+00 0. -1.
</event>
<event>
 7    1  0.5452757E-006  0.1086089E+03  0.7818608E-02  0.1295238E+00
          2   -1    0    0  502    0  0.00000000000E+00  0.00000000000E+00  0.36481427083E+03  0.36481427083E+03  0.00000000000E+00 0. -1.
          1   -1    0    0  501    0 -0.00000000000E+00 -0.00000000000E+00 -0.24807198513E+03  0.24807198513E+03  0.00000000000E+00 0. -1.
         25    2    1    2    0    0 -0.42003616209E+01  0.17440901220E+03  0.18106785549E+02  0.21538078152E+03  0.12499951516E+03 0.  0.
          2    1    1    2  501    0 -0.23570793649E+02 -0.76459425309E+02 -0.12692150015E+03  0.15003563987E+03  0.00000000000E+00 0. -1.
          1    1    1    2  502    0  0.27771155270E+02 -0.97949586891E+02  0.22555700030E+03  0.24746983457E+03  0.00000000000E+00 0. -1.
         22    1    3    3    0    0 -0.20202435929E+02  0.36381522812E+02 -0.46278153420E+02  0.62236814696E+02  0.00000000000E+00 0. -1.
         22    1    3    3    0    0  0.16002074308E+02  0.13802748939E+03  0.64384938969E+02  0.15314396683E+03  0.00000000000E+00 0. -1.
</event>
<event>
 7    1  0.5452757E-006  0.1492781E+03  0.7818608E-02  0.1386217E+00
          2   -1    0    0  502    0  0.00000000000E+00  0.00000000000E+00  0.12393189201E+04  0.12393189201E+04  0.00000000000E+00 0. -1.
          1   -1    0    0  501    0 -0.00000000000E+00 -0.00000000000E+00 -0.14500111222E+04  0.14500111222E+04  0.00000000000E+00 0. -1.
         25    2    1    2    0    0 -0.26993613264E+02  0.13366636207E+03 -0.22612799622E+03  0.29215353274E+03  0.12499785803E+03 0.  0.
          2    1    1    2  501    0 -0.25712637772E+02  0.62774788001E+01 -0.11860877069E+04  0.11863829883E+04  0.00000000000E+00 0. -1.
          1    1    1    2  502    0  0.52706251036E+02 -0.13994384087E+03  0.12015235010E+04  0.12107935212E+04  0.00000000000E+00 0. -1.
         22    1    3    3    0    0 -0.95510806902E+01  0.94425593585E+02 -0.43243189935E+02  0.10429472346E+03  0.00000000000E+00 0.  1.
         22    1    3    3    0    0 -0.17442532574E+02  0.39240768481E+02 -0.18288480628E+03  0.18785880928E+03  0.00000000000E+00 0.  1.
</event>
<event>
 7    1  0.5452757E-006  0.7962424E+02  0.7818608E-02  0.1351045E+00
          2   -1    0    0  502    0  0.00000000000E+00  0.00000000000E+00  0.25145238318E+04  0.25145238318E+04  0.00000000000E+00 0. -1.
          1   -1    0    0  501    0 -0.00000000000E+00 -0.00000000000E+00 -0.17739503342E+03  0.17739503342E+03  0.00000000000E+00 0. -1.
         25    2    1    2    0    0  0.95181364645E+02 -0.85767786356E+02  0.12027839841E+04  0.12160302879E+04  0.12499897308E+03 0.  0.
          2    1    1    2  501    0 -0.29888305916E+02  0.73505656391E+02 -0.16065666922E+03  0.17918414471E+03  0.00000000000E+00 0. -1.
          1    1    1    2  502    0 -0.65293058729E+02  0.12262129965E+02  0.12950014835E+04  0.12967044326E+04  0.00000000000E+00 0. -1.
         22    1    3    3    0    0  0.79353854921E+02 -0.11106036889E+03  0.75399187263E+03  0.76624746904E+03  0.00000000000E+00 0.  1.
         22    1    3    3    0    0  0.15827509724E+02  0.25292582537E+02  0.44879211146E+03  0.44978281881E+03  0.00000000000E+00 0.  1.
</event>
<event>
 7    1  0.5797981E-006  0.1067179E+03  0.7818608E-02  0.1362340E+00
          2   -1    0    0  502    0  0.00000000000E+00  0.00000000000E+00  0.12759922728E+04  0.12759922728E+04  0.00000000000E+00 0. -1.
          1   -1    0    0  501    0 -0.00000000000E+00 -0.00000000000E+00 -0.11454995256E+04  0.11454995256E+04  0.00000000000E+00 0. -1.
         25    2    1    2    0    0  0.14153512098E+03  0.50609494774E+02 -0.83336348291E+03  0.85598506351E+03  0.12498889100E+03 0.  0.
          2    1    1    2  501    0 -0.38430344695E+02 -0.23523153539E+02 -0.29687583213E+03  0.30027568974E+03  0.00000000000E+00 0. -1.
          1    1    1    2  502    0 -0.10310477629E+03 -0.27086341235E+02  0.12607320623E+04  0.12652310452E+04  0.00000000000E+00 0. -1.
         22    1    3    3    0    0  0.70004066608E+02 -0.22480523010E+02 -0.54676934533E+03  0.55169072880E+03  0.00000000000E+00 0. -1.
         22    1    3    3    0    0  0.71531054375E+02  0.73090017784E+02 -0.28659413759E+03  0.30429433471E+03  0.00000000000E+00 0. -1.
</event>
<event>
 7    1  0.5452757E-006  0.5130398E+02  0.7818608E-02  0.1487614E+00
          2   -1    0    0  502    0  0.00000000000E+00  0.00000000000E+00  0.38484828199E+03  0.38484828199E+03  0.00000000000E+00 0. -1.
          1   -1    0    0  501    0 -0.00000000000E+00 -0.00000000000E+00 -0.99528918042E+03  0.99528918042E+03  0.00000000000E+00 0. -1.
         25    2    1    2    0    0  0.53651147461E+02 -0.30241930416E+02 -0.22832148612E+02  0.14120202043E+03  0.12499473423E+03 0.  0.
          2    1    1    2  501    0 -0.32029358239E+02 -0.16309773766E+02 -0.91089300492E+03  0.91160186207E+03  0.00000000000E+00 0. -1.
          1    1    1    2  502    0 -0.21621789222E+02  0.46551704183E+02  0.32328425511E+03  0.32733357990E+03  0.00000000000E+00 0. -1.
         22    1    3    3    0    0 -0.85053657799E+01 -0.43817545199E+02 -0.54244528552E+02  0.70248041909E+02  0.00000000000E+00 0.  1.
         22    1    3    3    0    0  0.62156513241E+02  0.13575614783E+02  0.31412379940E+02  0.70953978525E+02  0.00000000000E+00 0.  1.
</event>
<event>
 7    1  0.5452757E-006  0.1000349E+03  0.7818608E-02  0.1292057E+00
          2   -1    0    0  502    0  0.00000000000E+00  0.00000000000E+00  0.10585464943E+03  0.10585464943E+03  0.00000000000E+00 0. -1.
          1   -1    0    0  501    0 -0.00000000000E+00 -0.00000000000E+00 -0.20051244301E+04  0.20051244301E+04  0.00000000000E+00 0. -1.
         25    2    1    2    0    0  0.80589314711E+02  0.16433559003E+03 -0.18314969536E+03  0.28752304760E+03  0.12499947277E+03 0.  0.
          2    1    1    2  501    0 -0.24140570497E+02 -0.94909374198E+02 -0.17301192909E+04  0.17328887203E+04  0.00000000000E+00 0. -1.
          1    1    1    2  502    0 -0.56448744213E+02 -0.69426215837E+02  0.13999205577E+02  0.90567311572E+02  0.00000000000E+00 0. -1.
         22    1    3    3    0    0  0.37415763695E+02  0.22753242329E+01  0.22120877396E+01  0.37550097275E+02  0.00000000000E+00 0.  1.
         22    1    3    3    0    0  0.43173551016E+02  0.16206026580E+03 -0.18536178310E+03  0.24997295032E+03  0.00000000000E+00 0.  1.
</event>
<event>
 7    1  0.5452757E-006  0.1108264E+03  0.7818608E-02  0.1304868E+00
          2   -1    0    0  502    0  0.00000000000E+00  0.00000000000E+00  0.10907105866E+04  0.10907105866E+04  0.00000000000E+00 0. -1.
          1   -1    0    0  501    0 -0.00000000000E+00 -0.00000000000E+00 -0.81749122499E+03  0.81749122499E+03  0.00000000000E+00 0. -1.
         25    2    1    2    0    0 -0.12782349870E+03 -0.11814159915E+02  0.47345556465E+02  0.18532609834E+03  0.12500295923E+03 0.  0.
          2    1    1    2  501    0  0.30413451395E+02  0.64984634943E+02 -0.74360868324E+03  0.74706214909E+03  0.00000000000E+00 0. -1.
          1    1    1    2  502    0  0.97410047303E+02 -0.53170475028E+02  0.96948248838E+03  0.97581356416E+03  0.00000000000E+00 0. -1.
         22    1    3    3    0    0 -0.67798350439E+02 -0.67456882729E+02  0.38129307881E+02  0.10296063068E+03  0.00000000000E+00 0.  1.
         22    1    3    3    0    0 -0.60025148259E+02  0.55642722814E+02  0.92162485837E+01  0.82365467665E+02  0.00000000000E+00 0.  1.
</event>
<event>
 7    1  0.5452757E-006  0.4964326E+02  0.7818608E-02  0.1573902E+00
          2   -1    0    0  502    0  0.00000000000E+00  0.00000000000E+00  0.12684188578E+03  0.12684188578E+03  0.00000000000E+00 0. -1.
          1   -1    0    0  501    0 -0.00000000000E+00 -0.00000000000E+00 -0.64278986358E+03  0.64278986358E+03  0.00000000000E+00 0. -1.
         25    2    1    2    0    0  0.52574559603E+02  0.40562034197E+02 -0.29952354561E+03  0.33128351121E+03  0.12500018996E+03 0.  0.
          2    1    1    2  501    0 -0.42472506951E+02 -0.22122830837E+02 -0.32461767726E+03  0.32813102548E+03  0.00000000000E+00 0. -1.
          1    1    1    2  502    0 -0.10102052652E+02 -0.18439203361E+02  0.10819324508E+03  0.11021721267E+03  0.00000000000E+00 0. -1.
         22    1    3    3    0    0  0.70100081506E+01 -0.29348874764E+02 -0.13000724202E+02  0.32855981099E+02  0.00000000000E+00 0.  1.
         22    1    3    3    0    0  0.45564551452E+02  0.69910908962E+02 -0.28652282141E+03  0.29842753012E+03  0.00000000000E+00 0.  1.
</event>
<event>
 7    1  0.5452757E-006  0.1885664E+03  0.7818608E-02  0.1199952E+00
          2   -1    0    0  502    0  0.00000000000E+00  0.00000000000E+00  0.22194225357E+03  0.22194225357E+03  0.00000000000E+00 0. -1.
          1   -1    0    0  501    0 -0.00000000000E+00 -0.00000000000E+00 -0.16361279111E+04  0.16361279111E+04  0.00000000000E+00 0. -1.
         25    2    1    2    0    0 -0.12118953175E+02 -0.12576812734E+03 -0.31951196324E+03  0.36561954965E+03  0.12500107822E+03 0.  0.
          2    1    1    2  501    0 -0.11653724270E+03 -0.28613344992E+02 -0.12391483517E+04  0.12449450951E+04  0.00000000000E+00 0. -1.
          1    1    1    2  502    0  0.12865619588E+03  0.15438147234E+03  0.14447465739E+03  0.24750551987E+03  0.00000000000E+00 0. -1.
         22    1    3    3    0    0 -0.49802495322E+02 -0.96111748396E+02 -0.28943242372E+03  0.30901275803E+03  0.00000000000E+00 0.  1.
         22    1    3    3    0    0  0.37683542146E+02 -0.29656378948E+02 -0.30079539512E+02  0.56606791627E+02  0.00000000000E+00 0.  1.
</event>
<event>
 7    1  0.5452757E-006  0.8894880E+02  0.7818608E-02  0.1406553E+00
          2   -1    0    0  502    0  0.00000000000E+00  0.00000000000E+00  0.15621685428E+04  0.15621685428E+04  0.00000000000E+00 0. -1.
          1   -1    0    0  501    0 -0.00000000000E+00 -0.00000000000E+00 -0.86291457953E+02  0.86291457953E+02  0.00000000000E+00 0. -1.
         25    2    1    2    0    0  0.33423996927E+02  0.86339252390E+02  0.28296446964E+03  0.32290064054E+03  0.12499721000E+03 0.  0.
          2    1    1    2  501    0  0.42477191565E+01 -0.89204617944E+02 -0.35837888374E+02  0.96228172712E+02  0.00000000000E+00 0. -1.
          1    1    1    2  502    0 -0.37671716084E+02  0.28653655538E+01  0.12287505036E+04  0.12293311875E+04  0.00000000000E+00 0. -1.
         22    1    3    3    0    0  0.27258985774E+01  0.99344885792E+02  0.11650255288E+03  0.15313288897E+03  0.00000000000E+00 0. -1.
         22    1    3    3    0    0  0.30698098350E+02 -0.13005633402E+02  0.16646191676E+03  0.16976775157E+03  0.00000000000E+00 0. -1.
</event>
<event>
 7    1  0.5452757E-006  0.1185636E+03  0.7818608E-02  0.1370272E+00
          2   -1    0    0  502    0  0.00000000000E+00  0.00000000000E+00  0.26566995369E+04  0.26566995369E+04  0.00000000000E+00 0. -1.
          1   -1    0    0  501    0 -0.00000000000E+00 -0.00000000000E+00 -0.11278393780E+03  0.11278393780E+03  0.00000000000E+00 0. -1.
         25    2    1    2    0    0  0.13333909941E+03  0.45242323430E+02  0.29853834912E+03  0.35295506002E+03  0.12500378090E+03 0.  0.
          2    1    1    2  501    0 -0.16304523707E+02 -0.34285954028E+02 -0.79805798587E+02  0.88376069301E+02  0.00000000000E+00 0. -1.
          1    1    1    2  502    0 -0.11703457571E+03 -0.10956369402E+02  0.23251830486E+04  0.23281523454E+04  0.00000000000E+00 0. -1.
         22    1    3    3    0    0  0.48155186890E+02 -0.42952255212E+02  0.85020676330E+02  0.10673487554E+03  0.00000000000E+00 0. -1.
         22    1    3    3    0    0  0.85183912523E+02  0.88194578643E+02  0.21351767279E+03  0.24622018448E+03  0.00000000000E+00 0. -1.
</event>
<event>
 7    1  0.5452757E-006  0.5078828E+02  0.7818608E-02  0.1539860E+00
          2   -1    0    0  502    0  0.00000000000E+00  0.00000000000E+00  0.11168328470E+03  0.11168328470E+03  0.00000000000E+00 0. -1.
          1   -1    0    0  501    0 -0.00000000000E+00 -0.00000000000E+00 -0.10588800030E+04  0.10588800030E+04  0.00000000000E+00 0. -1.
         25    2    1    2    0    0 -0.30992214986E+02  0.63193525714E+02 -0.91011313201E+02  0.16989005140E+03  0.12500252538E+03 0.  0.
          2    1    1    2  501    0  0.20947610999E+02 -0.14582482595E+02 -0.91970490719E+03  0.92005900219E+03  0.00000000000E+00 0. -1.
          1    1    1    2  502    0  0.10044603987E+02 -0.48611043120E+02  0.63519502136E+02  0.80614234066E+02  0.00000000000E+00 0. -1.
         22    1    3    3    0    0 -0.16665053823E+02  0.24969078057E+02 -0.11746925964E+03  0.12124440539E+03  0.00000000000E+00 0.  1.
         22    1    3    3    0    0 -0.14327161163E+02  0.38224447657E+02  0.26457946441E+02  0.48645646009E+02  0.00000000000E+00 0.  1.
</event>
<event>
 7    1  0.5452757E-006  0.1061720E+03  0.7818608E-02  0.1277032E+00
          2   -1    0    0  502    0  0.00000000000E+00  0.00000000000E+00  0.37216133933E+03  0.37216133933E+03  0.00000000000E+00 0. -1.
          1   -1    0    0  501    0 -0.00000000000E+00 -0.00000000000E+00 -0.24248593001E+04  0.24248593001E+04  0.00000000000E+00 0. -1.
         25    2    1    2    0    0 -0.11973479062E+03 -0.38948563927E+02 -0.20306306865E+03  0.26964862933E+03  0.12498945048E+03 0.  0.
          2    1    1    2  501    0  0.27568181136E+02  0.93171750563E+02 -0.21789577089E+04  0.21811230311E+04  0.00000000000E+00 0. -1.
          1    1    1    2  502    0  0.92166609488E+02 -0.54223186636E+02  0.32932281672E+03  0.34624897904E+03  0.00000000000E+00 0. -1.
         22    1    3    3    0    0  0.23651223133E+02  0.85367595235E+01 -0.41122328298E+02  0.48200648372E+02  0.00000000000E+00 0.  1.
         22    1    3    3    0    0 -0.14338601376E+03 -0.47485323450E+02 -0.16194074035E+03  0.22144798096E+03  0.00000000000E+00 0.  1.
</event>
<event>
 7    1  0.5452757E-006  0.6240212E+02  0.7818608E-02  0.1459124E+00
          2   -1    0    0  502    0  0.00000000000E+00  0.00000000000E+00  0.17601903612E+04  0.17601903612E+04  0.00000000000E+00 0. -1.
          1   -1    0    0  501    0 -0.00000000000E+00 -0.00000000000E+00 -0.34151989431E+02  0.34151989431E+02  0.00000000000E+00 0. -1.
         25    2    1    2    0    0 -0.35505558728E+02  0.57970169295E+02  0.19560562269E+03  0.24188364344E+03  0.12499980842E+03 0.  0.
          2    1    1    2  501    0  0.56325621810E+02 -0.28349035144E+02  0.81367996159E+02  0.10294170323E+03  0.00000000000E+00 0. -1.
          1    1    1    2  502    0 -0.20820063082E+02 -0.29621134151E+02  0.14490647529E+04  0.14495170039E+04  0.00000000000E+00 0. -1.
         22    1    3    3    0    0 -0.69854791915E-01  0.88876803351E+02  0.15953617035E+03  0.18262223497E+03  0.00000000000E+00 0.  1.
         22    1    3    3    0    0 -0.35435703936E+02 -0.30906634056E+02  0.36069452341E+02  0.59261408473E+02  0.00000000000E+00 0.  1.
</event>
<event>
 7    1  0.5452757E-006  0.1142419E+03  0.7818608E-02  0.1309862E+00
          2   -1    0    0  502    0  0.00000000000E+00  0.00000000000E+00  0.16236658897E+04  0.16236658897E+04  0.00000000000E+00 0. -1.
          1   -1    0    0  501    0 -0.00000000000E+00 -0.00000000000E+00 -0.51899986431E+03  0.51899986431E+03  0.00000000000E+00 0. -1.
         25    2    1    2    0    0 -0.79801152194E+00  0.17658058793E+03 -0.16226886510E+03  0.27043781298E+03  0.12499634096E+03 0.  0.
          2    1    1    2  501    0  0.17540558784E+02 -0.64153626345E+02 -0.29690482221E+03  0.30426276871E+03  0.00000000000E+00 0. -1.
          1    1    1    2  502    0 -0.16742547262E+02 -0.11242696159E+03  0.15638397127E+04  0.15679651724E+04  0.00000000000E+00 0. -1.
         22    1    3    3    0    0  0.55422406433E+00  0.19525380694E+03 -0.15814911831E+03  0.25126778526E+03  0.00000000000E+00 0.  1.
         22    1    3    3    0    0 -0.13522355863E+01 -0.18673219005E+02 -0.41197467850E+01  0.19170027717E+02  0.00000000000E+00 0.  1.
</event>
<event>
 7    1  0.5452757E-006  0.2134975E+03  0.7818608E-02  0.1326755E+00
          2   -1    0    0  502    0  0.00000000000E+00  0.00000000000E+00  0.87973189156E+03  0.87973189156E+03  0.00000000000E+00 0. -1.
          1   -1    0    0  501    0 -0.00000000000E+00 -0.00000000000E+00 -0.30430741332E+03  0.30430741332E+03  0.00000000000E+00 0. -1.
         25    2    1    2    0    0 -0.22908907357E+03  0.61460091703E+01 -0.11546274497E+03  0.28543990857E+03  0.12499887548E+03 0.  0.
          2    1    1    2  501    0  0.18774778732E+02  0.24151614903E+02 -0.86995722765E+02  0.92217398566E+02  0.00000000000E+00 0. -1.
          1    1    1    2  502    0  0.21031429484E+03 -0.30297624074E+02  0.77788294597E+03  0.80638199774E+03  0.00000000000E+00 0. -1.
         22    1    3    3    0    0 -0.16062261098E+03  0.39162464468E+01 -0.11688775433E+02  0.16109496458E+03  0.00000000000E+00 0. -1.
         22    1    3    3    0    0 -0.68466462595E+02  0.22297627234E+01 -0.10377396954E+03  0.12434494399E+03  0.00000000000E+00 0. -1.
</event>
<event>
 7    1  0.5452757E-006  0.6519905E+02  0.7818608E-02  0.1424766E+00
          2   -1    0    0  502    0  0.00000000000E+00  0.00000000000E+00  0.59689260852E+03  0.59689260852E+03  0.00000000000E+00 0. -1.
          1   -1    0    0  501    0 -0.00000000000E+00 -0.00000000000E+00 -0.37017567157E+02  0.37017567157E+02  0.00000000000E+00 0. -1.
         25    2    1    2    0    0  0.12768525072E+02 -0.73679020356E+02  0.34757498147E+03  0.37686279331E+03  0.12500225583E+03 0.  0.
          2    1    1    2  501    0 -0.42155844286E+02  0.15063195601E+02  0.12085067100E+02  0.46368781696E+02  0.00000000000E+00 0. -1.
          1    1    1    2  502    0  0.29387319214E+02  0.58615824755E+02  0.20021499279E+03  0.21067860067E+03  0.00000000000E+00 0. -1.
         22    1    3    3    0    0  0.32585814226E+01 -0.10892720558E+03  0.26819324753E+03  0.28948812150E+03  0.00000000000E+00 0. -1.
         22    1    3    3    0    0  0.95099436490E+01  0.35248185229E+02  0.79381733935E+02  0.87374671803E+02  0.00000000000E+00 0. -1.
</event>
<event>
 7    1  0.5452757E-006  0.1219087E+03  0.7818608E-02  0.1443552E+00
          2   -1    0    0  502    0  0.00000000000E+00  0.00000000000E+00  0.25172902014E+04  0.25172902014E+04  0.00000000000E+00 0. -1.
          1   -1    0    0  501    0 -0.00000000000E+00 -0.00000000000E+00 -0.10771260532E+03  0.10771260532E+03  0.00000000000E+00 0. -1.
         25    2    1    2    0    0  0.62843024037E+02 -0.12564717348E+03  0.54338875140E+03  0.57500682349E+03  0.12500021614E+03 0.  0.
          2    1    1    2  501    0 -0.80687913774E+01  0.19151098877E+02 -0.88872687751E+02  0.91270064154E+02  0.00000000000E+00 0. -1.
          1    1    1    2  502    0 -0.54774232660E+02  0.10649607461E+03  0.19550615324E+04  0.19587259191E+04  0.00000000000E+00 0. -1.
         22    1    3    3    0    0 -0.31115636855E+02 -0.46808377631E+02  0.26341845369E+03  0.26934826678E+03  0.00000000000E+00 0. -1.
         22    1    3    3    0    0  0.93958660892E+02 -0.78838795852E+02  0.27997029771E+03  0.30565855671E+03  0.00000000000E+00 0. -1.
</event>
<event>
 7    1  0.5452757E-006  0.1133709E+03  0.7818608E-02  0.1306534E+00
          2   -1    0    0  502    0  0.00000000000E+00  0.00000000000E+00  0.77724755353E+03  0.77724755353E+03  0.00000000000E+00 0. -1.
          1   -1    0    0  501    0 -0.00000000000E+00 -0.00000000000E+00 -0.58372590697E+02  0.58372590697E+02  0.00000000000E+00 0. -1.
         25    2    1    2    0    0 -0.90014409008E+02  0.59534578549E+02  0.30910875755E+03  0.35045702302E+03  0.12499976447E+03 0.  0.
          2    1    1    2  501    0  0.43955359598E+02  0.53291416205E+02  0.13245923955E+02  0.70338490032E+02  0.00000000000E+00 0. -1.
          1    1    1    2  502    0  0.46059049410E+02 -0.11282599475E+03  0.39652028132E+03  0.41482463117E+03  0.00000000000E+00 0. -1.
         22    1    3    3    0    0 -0.37176412439E+02 -0.20844721980E+02  0.22622068659E+02  0.48252938425E+02  0.00000000000E+00 0.  1.
         22    1    3    3    0    0 -0.52837996569E+02  0.80379300529E+02  0.28648668889E+03  0.30220408460E+03  0.00000000000E+00 0.  1.
</event>
<event>
 7    1  0.5452757E-006  0.6404981E+02  0.7818608E-02  0.1464843E+00
          2   -1    0    0  502    0  0.00000000000E+00  0.00000000000E+00  0.54900870621E+03  0.54900870621E+03  0.00000000000E+00 0. -1.
          1   -1    0    0  501    0 -0.00000000000E+00 -0.00000000000E+00 -0.51058818964E+02  0.51058818964E+02  0.00000000000E+00 0. -1.
         25    2    1    2    0    0 -0.21653180562E+02 -0.76065424275E+02  0.26172898909E+03  0.30063698773E+03  0.12500290261E+03 0.  0.
          2    1    1    2  501    0  0.40715594084E+02  0.48101347983E+02  0.22870561406E+01  0.63061318613E+02  0.00000000000E+00 0. -1.
          1    1    1    2  502    0 -0.19062413522E+02  0.27964076292E+02  0.23393384202E+03  0.23636921883E+03  0.00000000000E+00 0. -1.
         22    1    3    3    0    0 -0.38106781105E+02  0.17402212641E+01  0.18918891119E+03  0.19299637109E+03  0.00000000000E+00 0.  1.
         22    1    3    3    0    0  0.16453600543E+02 -0.77805645539E+02  0.72540077901E+02  0.10764061664E+03  0.00000000000E+00 0.  1.
</event>
<event>
 7    1  0.5452757E-006  0.1685448E+03  0.7818608E-02  0.1262493E+00
          2   -1    0    0  502    0  0.00000000000E+00  0.00000000000E+00  0.15036135670E+04  0.15036135670E+04  0.00000000000E+00 0. -1.
          1   -1    0    0  501    0 -0.00000000000E+00 -0.00000000000E+00 -0.47409133109E+03  0.47409133109E+03  0.00000000000E+00 0. -1.
         25    2    1    2    0    0  0.10136080709E+03 -0.99094773702E+02  0.16436248357E+03  0.25044998997E+03  0.12496553157E+03 0.  0.
          2    1    1    2  501    0  0.60417171680E+02  0.36235044019E+02 -0.42230655065E+03  0.42814254141E+03  0.00000000000E+00 0. -1.
          1    1    1    2  502    0 -0.16177797877E+03  0.62859729684E+02  0.12874663030E+04  0.12991123667E+04  0.00000000000E+00 0. -1.
         22    1    3    3    0    0 -0.16729107465E+02  0.68451668075E+01 -0.46302867460E+01  0.18659016602E+02  0.00000000000E+00 0. -1.
         22    1    3    3    0    0  0.11808991456E+03 -0.10593994051E+03  0.16899277032E+03  0.23179097337E+03  0.00000000000E+00 0. -1.
</event>
<event>
 7    1  0.5452757E-006  0.1221784E+03  0.7818608E-02  0.1321494E+00
          2   -1    0    0  502    0  0.00000000000E+00  0.00000000000E+00  0.93518214086E+02  0.93518214086E+02  0.00000000000E+00 0. -1.
          1   -1    0    0  501    0 -0.00000000000E+00 -0.00000000000E+00 -0.20727430623E+04  0.20727430623E+04  0.00000000000E+00 0. -1.
         25    2    1    2    0    0 -0.26091100016E+02  0.10905890136E+03 -0.25351973431E+03  0.30409014766E+03  0.12499589095E+03 0.  0.
          2    1    1    2  501    0  0.80195185900E+02 -0.94570479826E+02 -0.17799117241E+04  0.17842254871E+04  0.00000000000E+00 0. -1.
          1    1    1    2  502    0 -0.54104085884E+02 -0.14488421534E+02  0.54206610120E+02  0.77945641627E+02  0.00000000000E+00 0. -1.
         22    1    3    3    0    0 -0.33953709575E+02  0.12536914018E+03 -0.25474077728E+03  0.28594254547E+03  0.00000000000E+00 0. -1.
         22    1    3    3    0    0  0.78626095586E+01 -0.16310238816E+02  0.12210429673E+01  0.18147602189E+02  0.00000000000E+00 0. -1.
</event>
<event>
 7    1  0.5452757E-006  0.9570600E+02  0.7818608E-02  0.1296863E+00
          2   -1    0    0  502    0  0.00000000000E+00  0.00000000000E+00  0.13776705665E+04  0.13776705665E+04  0.00000000000E+00 0. -1.
          1   -1    0    0  501    0 -0.00000000000E+00 -0.00000000000E+00 -0.56326058600E+03  0.56326058600E+03  0.00000000000E+00 0. -1.
         25    2    1    2    0    0  0.81430705754E+02 -0.13836538352E+03  0.30493342181E+03  0.36658221706E+03  0.12498876323E+03 0.  0.
          2    1    1    2  501    0 -0.76692072161E+02  0.46017677852E+02 -0.52660651628E+03  0.53414766086E+03  0.00000000000E+00 0. -1.
          1    1    1    2  502    0 -0.47386335928E+01  0.92347705666E+02  0.10360830750E+04  0.10402012746E+04  0.00000000000E+00 0. -1.
         22    1    3    3    0    0  0.83524059064E+02 -0.30184457191E+02  0.18398520966E+03  0.20429862278E+03  0.00000000000E+00 0. -1.
         22    1    3    3    0    0 -0.20933533101E+01 -0.10818092633E+03  0.12094821215E+03  0.16228359428E+03  0.00000000000E+00 0. -1.
</event>
<event>
 7    1  0.5452757E-006  0.1282386E+03  0.7818608E-02  0.1387167E+00
          2   -1    0    0  502    0  0.00000000000E+00  0.00000000000E+00  0.44705942315E+03  0.44705942315E+03  0.00000000000E+00 0. -1.
          1   -1    0    0  501    0 -0.00000000000E+00 -0.00000000000E+00 -0.22531912706E+03  0.22531912706E+03  0.00000000000E+00 0. -1.
         25    2    1    2    0    0  0.97553921100E+02 -0.11613153905E+03  0.18314163381E+02  0.19738885006E+03  0.12499459055E+03 0.  0.
          2    1    1    2  501    0 -0.72702156742E+02  0.98321400395E+02 -0.10734788296E+03  0.16271530151E+03  0.00000000000E+00 0. -1.
          1    1    1    2  502    0 -0.24851764359E+02  0.17810138651E+02  0.31077401567E+03  0.31227439864E+03  0.00000000000E+00 0. -1.
         22    1    3    3    0    0  0.67594608350E+02 -0.12387593165E+03 -0.25846861564E+02  0.14346545847E+03  0.00000000000E+00 0.  1.
         22    1    3    3    0    0  0.29959312750E+02  0.77443926033E+01  0.44161024944E+02  0.53923391598E+02  0.00000000000E+00 0.  1.
</event>
<event>
 7    1  0.5452757E-006  0.7363741E+02  0.7818608E-02  0.1471193E+00
          2   -1    0    0  502    0  0.00000000000E+00  0.00000000000E+00  0.32551961174E+03  0.32551961174E+03  0.00000000000E+00 0. -1.
          1   -1    0    0  501    0 -0.00000000000E+00 -0.00000000000E+00 -0.14718109267E+03  0.14718109267E+03  0.00000000000E+00 0. -1.
         25    2    1    2    0    0  0.53584637855E+02  0.84519947744E+02 -0.58874513645E+02  0.17060435484E+03  0.12499881021E+03 0.  0.
          2    1    1    2  501    0 -0.18798487934E+02 -0.20918883785E+02 -0.20228124649E+02  0.34643323661E+02  0.00000000000E+00 0. -1.
          1    1    1    2  502    0 -0.34786149920E+02 -0.63601063959E+02  0.25744115737E+03  0.26745302591E+03  0.00000000000E+00 0. -1.
         22    1    3    3    0    0 -0.17565246513E+02  0.61226635202E+02  0.14987047238E+02  0.65435848952E+02  0.00000000000E+00 0. -1.
         22    1    3    3    0    0  0.71149884368E+02  0.23293312542E+02 -0.73861560882E+02  0.10516850589E+03  0.00000000000E+00 0. -1.
</event>
<event>
 7    1  0.5452757E-006  0.4841509E+02  0.7818608E-02  0.1518230E+00
          2   -1    0    0  502    0  0.00000000000E+00  0.00000000000E+00  0.16724883230E+04  0.16724883230E+04  0.00000000000E+00 0. -1.
          1   -1    0    0  501    0 -0.00000000000E+00 -0.00000000000E+00 -0.78000030870E+02  0.78000030870E+02  0.00000000000E+00 0. -1.
         25    2    1    2    0    0  0.55377520644E+02  0.12984057612E+02  0.68916737011E+03  0.70271817969E+03  0.12500368195E+03 0.  0.
          2    1    1    2  501    0 -0.21802453860E+02  0.21878523028E+02 -0.67245651799E+02  0.73999962501E+02  0.00000000000E+00 0. -1.
          1    1    1    2  502    0 -0.33575066784E+02 -0.34862580640E+02  0.97256657381E+03  0.97377021167E+03  0.00000000000E+00 0. -1.
         22    1    3    3    0    0  0.85881419140E+01  0.84435664068E+01  0.61362645058E+03  0.61374463000E+03  0.00000000000E+00 0.  1.
         22    1    3    3    0    0  0.46789378730E+02  0.45404912050E+01  0.75540919529E+02  0.88973549697E+02  0.00000000000E+00 0.  1.
</event>
<event>
 7    1  0.5452757E-006  0.6721282E+02  0.7818608E-02  0.1459337E+00
          2   -1    0    0  502    0  0.00000000000E+00  0.00000000000E+00  0.36221101058E+04  0.36221101058E+04  0.00000000000E+00 0. -1.
          1   -1    0    0  501    0 -0.00000000000E+00 -0.00000000000E+00 -0.15960176306E+03  0.15960176306E+03  0.00000000000E+00 0. -1.
         25    2    1    2    0    0  0.73526894691E+02  0.44338623843E+02  0.68378327853E+03  0.70039791226E+03  0.12500218273E+03 0.  0.
          2    1    1    2  501    0 -0.79613348962E+01 -0.32604694702E+02 -0.14904964023E+03  0.15278168811E+03  0.00000000000E+00 0. -1.
          1    1    1    2  502    0 -0.65565559795E+02 -0.11733929141E+02  0.29277747044E+04  0.29285322685E+04  0.00000000000E+00 0. -1.
         22    1    3    3    0    0  0.65973175263E+02  0.47686317866E+02  0.19197974209E+03  0.20852497725E+03  0.00000000000E+00 0.  1.
         22    1    3    3    0    0  0.75537194281E+01 -0.33476940233E+01  0.49180353644E+03  0.49187293501E+03  0.00000000000E+00 0.  1.
</event>
<event>
 7    1  0.5452757E-006  0.4327753E+02  0.7818608E-02  0.1553064E+00
          2   -1    0    0  502    0  0.00000000000E+00  0.00000000000E+00  0.21537210833E+04  0.21537210833E+04  0.00000000000E+00 0. -1.
          1   -1    0    0  501    0 -0.00000000000E+00 -0.00000000000E+00 -0.51471650116E+02  0.51471650116E+02  0.00000000000E+00 0. -1.
         25    2    1    2    0    0  0.27351467268E+01 -0.44792168771E+02  0.43372629358E+03  0.45360540995E+03  0.12500220312E+03 0.  0.
          2    1    1    2  501    0  0.23506758208E+02  0.36547332133E+02 -0.30023818010E+02  0.52817656284E+02  0.00000000000E+00 0. -1.
          1    1    1    2  502    0 -0.26241904934E+02  0.82448366378E+01  0.16985469576E+04  0.16987696672E+04  0.00000000000E+00 0. -1.
         22    1    3    3    0    0 -0.40633680384E+02 -0.10014043865E+02  0.35368882571E+03  0.35615609287E+03  0.00000000000E+00 0. -1.
         22    1    3    3    0    0  0.43368827111E+02 -0.34778124906E+02  0.80037467864E+02  0.97449317078E+02  0.00000000000E+00 0. -1.
</event>
<event>
 7    1  0.5452757E-006  0.1434783E+03  0.7818608E-02  0.1266952E+00
          2   -1    0    0  502    0  0.00000000000E+00  0.00000000000E+00  0.11708759819E+04  0.11708759819E+04  0.00000000000E+00 0. -1.
          1   -1    0    0  501    0 -0.00000000000E+00 -0.00000000000E+00 -0.97507571526E+02  0.97507571526E+02  0.00000000000E+00 0. -1.
         25    2    1    2    0    0  0.14733058232E+03  0.11359620030E+03  0.27977580629E+03  0.35848279065E+03  0.12500004880E+03 0.  0.
          2    1    1    2  501    0 -0.68157797224E+02 -0.11678059670E+03  0.25335707125E+02  0.13756849619E+03  0.00000000000E+00 0. -1.
          1    1    1    2  502    0 -0.79172785093E+02  0.31843964001E+01  0.76825689694E+03  0.77233226657E+03  0.00000000000E+00 0. -1.
         22    1    3    3    0    0 -0.11486099911E+02 -0.15464804596E+02  0.28805428560E+02  0.34653187255E+02  0.00000000000E+00 0.  1.
         22    1    3    3    0    0  0.15881668223E+03  0.12906100490E+03  0.25097037773E+03  0.32382960340E+03  0.00000000000E+00 0.  1.
</event>
<event>
 7    1  0.5452757E-006  0.1467316E+03  0.7818608E-02  0.1263453E+00
          2   -1    0    0  502    0  0.00000000000E+00  0.00000000000E+00  0.56482110419E+03  0.56482110419E+03  0.00000000000E+00 0. -1.
          1   -1    0    0  501    0 -0.00000000000E+00 -0.00000000000E+00 -0.85151260208E+03  0.85151260208E+03  0.00000000000E+00 0. -1.
         25    2    1    2    0    0 -0.77969094205E+02 -0.18332185651E+03 -0.88821621403E+02  0.25139688304E+03  0.12500011860E+03 0.  0.
          2    1    1    2  501    0  0.69780880355E+02  0.39464358776E+02 -0.66821950039E+03  0.67301122397E+03  0.00000000000E+00 0. -1.
          1    1    1    2  502    0  0.81882138496E+01  0.14385749773E+03  0.47034962390E+03  0.49192559926E+03  0.00000000000E+00 0. -1.
         22    1    3    3    0    0 -0.18431513659E+02  0.30526869540E+01 -0.48031281070E+02  0.51536817467E+02  0.00000000000E+00 0. -1.
         22    1    3    3    0    0 -0.59537580546E+02 -0.18637454346E+03 -0.40790340333E+02  0.19986006558E+03  0.00000000000E+00 0. -1.
</event>
<event>
 7    1  0.5452757E-006  0.1011003E+03  0.7818608E-02  0.1392010E+00
          2   -1    0    0  502    0  0.00000000000E+00  0.00000000000E+00  0.40316621408E+03  0.40316621408E+03  0.00000000000E+00 0. -1.
          1   -1    0    0  501    0 -0.00000000000E+00 -0.00000000000E+00 -0.22540917700E+03  0.22540917700E+03  0.00000000000E+00 0. -1.
         25    2    1    2    0    0  0.59855047872E+02  0.57049200424E+02 -0.46346060052E+02  0.15687775034E+03  0.12500173297E+03 0.  0.
          2    1    1    2  501    0 -0.13535674804E+02  0.34758320491E+02 -0.11313758792E+03  0.11912795279E+03  0.00000000000E+00 0. -1.
          1    1    1    2  502    0 -0.46319373068E+02 -0.91807520915E+02  0.33724068504E+03  0.35256968796E+03  0.00000000000E+00 0. -1.
         22    1    3    3    0    0 -0.23174064724E+02  0.57414722981E+02 -0.39770402757E+02  0.73587856513E+02  0.00000000000E+00 0.  1.
         22    1    3    3    0    0  0.83029112596E+02 -0.36552255658E+00 -0.65756572945E+01  0.83289893829E+02  0.00000000000E+00 0.  1.
</event>
<event>
 7    1  0.5452757E-006  0.8012095E+02  0.7818608E-02  0.1340969E+00
          2   -1    0    0  502    0  0.00000000000E+00  0.00000000000E+00  0.22715776185E+04  0.22715776185E+04  0.00000000000E+00 0. -1.
          1   -1    0    0  501    0 -0.00000000000E+00 -0.00000000000E+00 -0.16690338909E+04  0.16690338909E+04  0.00000000000E+00 0. -1.
         25    2    1    2    0    0 -0.39578733991E+02  0.50674061500E+02  0.47149861820E+01  0.14064432979E+03  0.12499703883E+03 0.  0.
          2    1    1    2  501    0  0.80296413304E+02  0.86909198959E+01 -0.15994608520E+04  0.16014986928E+04  0.00000000000E+00 0. -1.
          1    1    1    2  502    0 -0.40717679313E+02 -0.59364981396E+02  0.21972895933E+04  0.21984684868E+04  0.00000000000E+00 0. -1.
         22    1    3    3    0    0 -0.70176716384E+02  0.72654804285E+02  0.13633740407E+02  0.10192826392E+03  0.00000000000E+00 0.  1.
         22    1    3    3    0    0  0.30597982392E+02 -0.21980742785E+02 -0.89187542251E+01  0.38716065874E+02  0.00000000000E+00 0.  1.
</event>
<event>
 7    1  0.5452757E-006  0.1129175E+03  0.7818608E-02  0.1330280E+00
          2   -1    0    0  502    0  0.00000000000E+00  0.00000000000E+00  0.12278435633E+03  0.12278435633E+03  0.00000000000E+00 0. -1.
          1   -1    0    0  501    0 -0.00000000000E+00 -0.00000000000E+00 -0.60624278980E+03  0.60624278980E+03  0.00000000000E+00 0. -1.
         25    2    1    2    0    0  0.83448663588E+02  0.65785608101E+02 -0.31043463560E+03  0.35112098457E+03  0.12499942854E+03 0.  0.
          2    1    1    2  501    0 -0.39143699344E+02  0.40143400308E+02 -0.23899391830E+03  0.24548281971E+03  0.00000000000E+00 0. -1.
          1    1    1    2  502    0 -0.44304964244E+02 -0.10592900841E+03  0.65970120431E+02  0.13242334186E+03  0.00000000000E+00 0. -1.
         22    1    3    3    0    0  0.10088622486E+03  0.58160829483E+01 -0.20563425436E+03  0.22912290098E+03  0.00000000000E+00 0. -1.
         22    1    3    3    0    0 -0.17437561274E+02  0.59969525153E+02 -0.10480038124E+03  0.12199808358E+03  0.00000000000E+00 0. -1.
</event>
<event>
 7    1  0.5452757E-006  0.7629530E+02  0.7818608E-02  0.1397110E+00
          2   -1    0    0  502    0  0.00000000000E+00  0.00000000000E+00  0.75289860731E+03  0.75289860731E+03  0.00000000000E+00 0. -1.
          1   -1    0    0  501    0 -0.00000000000E+00 -0.00000000000E+00 -0.54686748544E+02  0.54686748544E+02  0.00000000000E+00 0. -1.
         25    2    1    2    0    0  0.30881961932E+02  0.75828649043E+02  0.26259611855E+03  0.30213437965E+03  0.12499912920E+03 0.  0.
          2    1    1    2  501    0  0.33822232647E+02 -0.33289352562E+02 -0.13792557141E+02  0.49420229134E+02  0.00000000000E+00 0. -1.
          1    1    1    2  502    0 -0.64704194579E+02 -0.42539296481E+02  0.44940829736E+03  0.45603074707E+03  0.00000000000E+00 0. -1.
         22    1    3    3    0    0  0.39447863195E+02 -0.20301885468E+02  0.40898980483E+02  0.60340923665E+02  0.00000000000E+00 0. -1.
         22    1    3    3    0    0 -0.85659012625E+01  0.96130534511E+02  0.22169713807E+03  0.24179345598E+03  0.00000000000E+00 0. -1.
</event>
<event>
 7    1  0.5452757E-006  0.9378441E+02  0.7818608E-02  0.1450571E+00
          2   -1    0    0  502    0  0.00000000000E+00  0.00000000000E+00  0.11768129448E+03  0.11768129448E+03  0.00000000000E+00 0. -1.
          1   -1    0    0  501    0 -0.00000000000E+00 -0.00000000000E+00 -0.63468886973E+03  0.63468886973E+03  0.00000000000E+00 0. -1.
         25    2    1    2    0    0 -0.72811433961E+02  0.49237606450E+02 -0.31758787500E+03  0.35243746937E+03  0.12499705864E+03 0.  0.
          2    1    1    2  501    0 -0.16740113845E+02 -0.19429713774E+02 -0.27673812276E+03  0.27792397122E+03  0.00000000000E+00 0. -1.
          1    1    1    2  502    0  0.89551547806E+02 -0.29807892676E+02  0.77318422508E+02  0.12200872362E+03  0.00000000000E+00 0. -1.
         22    1    3    3    0    0 -0.31246480566E+02 -0.52263139719E+01 -0.26282664242E+03  0.26472910847E+03  0.00000000000E+00 0. -1.
         22    1    3    3    0    0 -0.41564953396E+02  0.54463920422E+02 -0.54761232575E+02  0.87708360900E+02  0.00000000000E+00 0. -1.
</event>
<event>
 7    1  0.5452757E-006  0.9499396E+02  0.7818608E-02  0.1315505E+00
          2   -1    0    0  502    0  0.00000000000E+00  0.00000000000E+00  0.14967229813E+04  0.14967229813E+04  0.00000000000E+00 0. -1.
          1   -1    0    0  501    0 -0.00000000000E+00 -0.00000000000E+00 -0.31869014601E+03  0.31869014601E+03  0.00000000000E+00 0. -1.
         25    2    1    2    0    0 -0.97474799248E+01  0.46856357364E+02  0.19188772476E+03  0.23395813408E+03  0.12499991199E+03 0.  0.
          2    1    1    2  501    0 -0.60222416889E+02 -0.76545192856E+02 -0.28852524925E+03  0.30452048453E+03  0.00000000000E+00 0. -1.
          1    1    1    2  502    0  0.69969896814E+02  0.29688835491E+02  0.12746703598E+04  0.12769345087E+04  0.00000000000E+00 0. -1.
         22    1    3    3    0    0 -0.19274699116E+02 -0.38622483693E+02  0.95342819910E+02  0.10465879600E+03  0.00000000000E+00 0.  1.
         22    1    3    3    0    0  0.95272191915E+01  0.85478841057E+02  0.96544904845E+02  0.12929933807E+03  0.00000000000E+00 0.  1.
</event>
<event>
 7    1  0.5452757E-006  0.4061230E+02  0.7818608E-02  0.1561876E+00
          2   -1    0    0  502    0  0.00000000000E+00  0.00000000000E+00  0.80484170031E+03  0.80484170031E+03  0.00000000000E+00 0. -1.
          1   -1    0    0  501    0 -0.00000000000E+00 -0.00000000000E+00 -0.14547603254E+04  0.14547603254E+04  0.00000000000E+00 0. -1.
         25    2    1    2    0    0  0.42249029161E+01  0.12556757340E+02 -0.59080880039E+02  0.13888003978E+03  0.12498637167E+03 0.  0.
          2    1    1    2  501    0 -0.83224483528E+01 -0.39966506335E+02 -0.13552213696E+04  0.13558361057E+04  0.00000000000E+00 0. -1.
          1    1    1    2  502    0  0.40975454366E+01  0.27409748995E+02  0.76438362460E+03  0.76488588023E+03  0.00000000000E+00 0. -1.
         22    1    3    3    0    0  0.10472332693E+02  0.26455674313E+01 -0.97816678074E+02  0.98411235580E+02  0.00000000000E+00 0.  1.
         22    1    3    3    0    0 -0.62474297767E+01  0.99111899087E+01  0.38735798035E+02  0.40468804203E+02  0.00000000000E+00 0.  1.
</event>
<event>
 7    1  0.5452757E-006  0.1041216E+03  0.7818608E-02  0.1294107E+00
          2   -1    0    0  502    0  0.00000000000E+00  0.00000000000E+00  0.30987302106E+04  0.30987302106E+04  0.00000000000E+00 0. -1.
          1   -1    0    0  501    0 -0.00000000000E+00 -0.00000000000E+00 -0.44471705736E+03  0.44471705736E+03  0.00000000000E+00 0. -1.
         25    2    1    2    0    0 -0.12376796913E+03  0.78471689585E+02 -0.69072305501E+02  0.20462522121E+03  0.12499672603E+03 0.  0.
          2    1    1    2  501    0  0.10149058357E+03  0.28737753558E+01 -0.29889296384E+03  0.31566691459E+03  0.00000000000E+00 0. -1.
          1    1    1    2  502    0  0.22277385567E+02 -0.81345464941E+02  0.30219784225E+04  0.30231551321E+04  0.00000000000E+00 0. -1.
         22    1    3    3    0    0 -0.50675636726E+02  0.98049544760E+02 -0.66616252834E+02  0.12891647888E+03  0.00000000000E+00 0.  1.
         22    1    3    3    0    0 -0.73092332408E+02 -0.19577855175E+02 -0.24560526678E+01  0.75708742327E+02  0.00000000000E+00 0.  1.
</event>
<event>
 7    1  0.5452757E-006  0.8233699E+02  0.7818608E-02  0.1350903E+00
          2   -1    0    0  502    0  0.00000000000E+00  0.00000000000E+00  0.51614883375E+03  0.51614883375E+03  0.00000000000E+00 0. -1.
          1   -1    0    0  501    0 -0.00000000000E+00 -0.00000000000E+00 -0.52648848527E+03  0.52648848527E+03  0.00000000000E+00 0. -1.
         25    2    1    2    0    0  0.25639743617E+02  0.80771200500E+01 -0.78379297357E+02  0.14996862885E+03  0.12499855625E+03 0.  0.
          2    1    1    2  501    0 -0.89922262328E+02 -0.57790237780E+01 -0.40518954799E+03  0.41508791862E+03  0.00000000000E+00 0. -1.
          1    1    1    2  502    0  0.64282518711E+02 -0.22980962720E+01  0.47322919384E+03  0.47758077155E+03  0.00000000000E+00 0. -1.
         22    1    3    3    0    0  0.35517153641E+02 -0.33213596430E+02  0.12024610205E+02  0.50091939883E+02  0.00000000000E+00 0. -1.
         22    1    3    3    0    0 -0.98774100242E+01  0.41290716480E+02 -0.90403907562E+02  0.99876688965E+02  0.00000000000E+00 0. -1.
</event>
<event>
 7    1  0.5452757E-006  0.1179315E+03  0.7818608E-02  0.1317930E+00
          2   -1    0    0  502    0  0.00000000000E+00  0.00000000000E+00  0.27111310601E+04  0.27111310601E+04  0.00000000000E+00 0. -1.
          1   -1    0    0  501    0 -0.00000000000E+00 -0.00000000000E+00 -0.54474487113E+03  0.54474487113E+03  0.00000000000E+00 0. -1.
         25    2    1    2    0    0 -0.59345764570E+02 -0.12008607241E+03  0.17516960440E+03  0.25347975916E+03  0.12500005375E+03 0.  0.
          2    1    1    2  501    0 -0.51856988469E+00  0.11785449768E+03 -0.49835638048E+03  0.51210256151E+03  0.00000000000E+00 0. -1.
          1    1    1    2  502    0  0.59864334454E+02  0.22315747271E+01  0.24895729651E+04  0.24902936106E+04  0.00000000000E+00 0. -1.
         22    1    3    3    0    0 -0.64690789222E+02 -0.10444738063E+03  0.19324170360E+03  0.22899019529E+03  0.00000000000E+00 0. -1.
         22    1    3    3    0    0  0.53450246523E+01 -0.15638691775E+02 -0.18072099196E+02  0.24489563865E+02  0.00000000000E+00 0. -1.
</event>
<event>
 7    1  0.5452757E-006  0.9000409E+02  0.7818608E-02  0.1394727E+00
          2   -1    0    0  502    0  0.00000000000E+00  0.00000000000E+00  0.14228856531E+03  0.14228856531E+03  0.00000000000E+00 0. -1.
          1   -1    0    0  501    0 -0.00000000000E+00 -0.00000000000E+00 -0.81631425341E+03  0.81631425341E+03  0.00000000000E+00 0. -1.
         25    2    1    2    0    0 -0.45839888560E+02 -0.50843405558E+02 -0.48130247440E+03  0.50195996110E+03  0.12500153365E+03 0.  0.
          2    1    1    2  501    0  0.73743598541E+02  0.80882122293E+02 -0.31193357539E+03  0.33057917582E+03  0.00000000000E+00 0. -1.
          1    1    1    2  502    0 -0.27903709981E+02 -0.30038716735E+02  0.11921036169E+03  0.12606368179E+03  0.00000000000E+00 0. -1.
         22    1    3    3    0    0 -0.28974842696E+02 -0.92832214943E+02 -0.33246008648E+03  0.34639149924E+03  0.00000000000E+00 0.  1.
         22    1    3    3    0    0 -0.16865045864E+02  0.41988809385E+02 -0.14884238792E+03  0.15556846186E+03  0.00000000000E+00 0.  1.
</event>
<event>
 7    1  0.5452757E-006  0.3992277E+02  0.7818608E-02  0.1537165E+00
          2   -1    0    0  502    0  0.00000000000E+00  0.00000000000E+00  0.12749745486E+04  0.12749745486E+04  0.00000000000E+00 0. -1.
          1   -1    0    0  501    0 -0.00000000000E+00 -0.00000000000E+00 -0.12556828179E+04  0.12556828179E+04  0.00000000000E+00 0. -1.
         25    2    1    2    0    0  0.20058348067E+02  0.12115698086E+02  0.70931337641E+02  0.14562137948E+03  0.12500081613E+03 0.  0.
          2    1    1    2  501    0 -0.36391703417E+02  0.16611523686E+02 -0.12177752900E+04  0.12184321711E+04  0.00000000000E+00 0. -1.
          1    1    1    2  502    0  0.16333355350E+02 -0.28727221772E+02  0.11661356830E+04  0.11666038158E+04  0.00000000000E+00 0. -1.
         22    1    3    3    0    0 -0.11225044259E+02  0.22023396996E+02 -0.30358099301E+02  0.39149020768E+02  0.00000000000E+00 0.  1.
         22    1    3    3    0    0  0.31283392326E+02 -0.99076989104E+01  0.10128943694E+03  0.10647235871E+03  0.00000000000E+00 0.  1.
</event>
<event>
 7    1  0.5452757E-006  0.2353596E+03  0.7818608E-02  0.1195942E+00
          2   -1    0    0  502    0  0.00000000000E+00  0.00000000000E+00  0.26978340821E+04  0.26978340821E+04  0.00000000000E+00 0. -1.
          1   -1    0    0  501    0 -0.00000000000E+00 -0.00000000000E+00 -0.35103538918E+03  0.35103538918E+03  0.00000000000E+00 0. -1.
         25    2    1    2    0    0  0.23088613949E+03  0.22669507518E+03  0.31721747426E+03  0.47005388949E+03  0.12499866612E+03 0.  0.
          2    1    1    2  501    0 -0.14872761553E+03 -0.16892646676E+03 -0.22719682329E+03  0.31980377000E+03  0.00000000000E+00 0. -1.
          1    1    1    2  502    0 -0.82158523959E+02 -0.57768608417E+02  0.22567780419E+04  0.22590118117E+04  0.00000000000E+00 0. -1.
         22    1    3    3    0    0  0.15252482960E+01  0.60906459302E+02  0.34446099199E+02  0.69988977111E+02  0.00000000000E+00 0. -1.
         22    1    3    3    0    0  0.22936089119E+03  0.16578861588E+03  0.28277137506E+03  0.40006491238E+03  0.00000000000E+00 0. -1.
</event>
<event>
 7    1  0.5452757E-006  0.6522112E+02  0.7818608E-02  0.1380879E+00
          2   -1    0    0  502    0  0.00000000000E+00  0.00000000000E+00  0.14744731555E+04  0.14744731555E+04  0.00000000000E+00 0. -1.
          1   -1    0    0  501    0 -0.00000000000E+00 -0.00000000000E+00 -0.10796845675E+04  0.10796845675E+04  0.00000000000E+00 0. -1.
         25    2    1    2    0    0 -0.14804652495E+02 -0.71992496946E+02  0.51057329800E+03  0.53076560398E+03  0.12499974552E+03 0.  0.
          2    1    1    2  501    0  0.59478287022E+02  0.21545158316E+02 -0.10674606807E+04  0.10693335145E+04  0.00000000000E+00 0. -1.
          1    1    1    2  502    0 -0.44673634527E+02  0.50447338630E+02  0.95167597069E+03  0.95405860448E+03  0.00000000000E+00 0. -1.
         22    1    3    3    0    0 -0.17115578786E+02 -0.39917212728E+02  0.39845372375E+02  0.58940483615E+02  0.00000000000E+00 0.  1.
         22    1    3    3    0    0  0.23109262906E+01 -0.32075284219E+02  0.47072792563E+03  0.47182512036E+03  0.00000000000E+00 0.  1.
</event>
<event>
 7    1  0.5452757E-006  0.7474273E+02  0.7818608E-02  0.1352587E+00
          2   -1    0    0  502    0  0.00000000000E+00  0.00000000000E+00  0.87119271145E+03  0.87119271145E+03  0.00000000000E+00 0. -1.
          1   -1    0    0  501    0 -0.00000000000E+00 -0.00000000000E+00 -0.59938544256E+02  0.59938544256E+02  0.00000000000E+00 0. -1.
         25    2    1    2    0    0 -0.24279737006E+02  0.28927497860E+02  0.36970043343E+03  0.39208316032E+03  0.12499795343E+03 0.  0.
          2    1    1    2  501    0 -0.68419846221E+02 -0.14067726629E+02 -0.16250576950E+02  0.71716508145E+02  0.00000000000E+00 0. -1.
          1    1    1    2  502    0  0.92699583226E+02 -0.14859771231E+02  0.45780431071E+03  0.46733158725E+03  0.00000000000E+00 0. -1.
         22    1    3    3    0    0  0.43983144748E+02 -0.14578865656E+02  0.94898317233E+02  0.10560658578E+03  0.00000000000E+00 0.  1.
         22    1    3    3    0    0 -0.68262881754E+02  0.43506363516E+02  0.27480211620E+03  0.28647657454E+03  0.00000000000E+00 0.  1.
</event>
<event>
 7    1  0.5452757E-006  0.1185528E+03  0.7818608E-02  0.1320086E+00
          2   -1    0    0  502    0  0.00000000000E+00  0.00000000000E+00  0.18055948685E+04  0.18055948685E+04  0.00000000000E+00 0. -1.
          1   -1    0    0  501    0 -0.00000000000E+00 -0.00000000000E+00 -0.24185284008E+03  0.24185284008E+03  0.00000000000E+00 0. -1.
         25    2    1    2    0    0 -0.25658402250E+02 -0.60607085637E+02  0.56908586099E+03  0.58635748274E+03  0.12499923176E+03 0.  0.
          2    1    1    2  501    0  0.72371685675E+02  0.95744314719E+02 -0.21702445341E+03  0.24800050013E+03  0.00000000000E+00 0. -1.
          1    1    1    2  502    0 -0.46713283425E+02 -0.35137229082E+02  0.12116806208E+04  0.12130897257E+04  0.00000000000E+00 0. -1.
         22    1    3    3    0    0 -0.37727196160E+02 -0.96386493158E+02  0.41689655984E+03  0.42955376730E+03  0.00000000000E+00 0.  1.
         22    1    3    3    0    0  0.12068793910E+02  0.35779407522E+02  0.15218930115E+03  0.15680371543E+03  0.00000000000E+00 0.  1.
</event>
<event>
 7    1  0.5452757E-006  0.1325453E+03  0.7818608E-02  0.1256159E+00
          2   -1    0    0  502    0  0.00000000000E+00  0.00000000000E+00  0.19935689119E+04  0.19935689119E+04  0.00000000000E+00 0. -1.
          1   -1    0    0  501    0 -0.00000000000E+00 -0.00000000000E+00 -0.25061648357E+03  0.25061648357E+03  0.00000000000E+00 0. -1.
         25    2    1    2    0    0 -0.21837108008E+02 -0.12163590221E+02 -0.46409738756E+02  0.13566065584E+03  0.12500054991E+03 0.  0.
          2    1    1    2  501    0  0.13593273363E+03  0.79620532918E+02 -0.11783408147E+03  0.19672825951E+03  0.00000000000E+00 0. -1.
          1    1    1    2  502    0 -0.11409562562E+03 -0.67456942697E+02  0.19071962486E+04  0.19117964802E+04  0.00000000000E+00 0. -1.
         22    1    3    3    0    0  0.27962947242E+02 -0.43510878418E+02  0.11625556561E+02  0.53012041316E+02  0.00000000000E+00 0. -1.
         22    1    3    3    0    0 -0.49800055250E+02  0.31347288197E+02 -0.58035295316E+02  0.82648614524E+02  0.00000000000E+00 0. -1.
</event>
<event>
 7    1  0.9307211E-006  0.8829487E+02  0.7818608E-02  0.1350626E+00
          2   -1    0    0  502    0  0.00000000000E+00  0.00000000000E+00  0.28373229627E+04  0.28373229627E+04  0.00000000000E+00 0. -1.
          1   -1    0    0  501    0 -0.00000000000E+00 -0.00000000000E+00 -0.16828612258E+04  0.16828612258E+04  0.00000000000E+00 0. -1.
         25    2    1    2    0    0 -0.43007001983E+02 -0.43481433620E+02 -0.11070770450E+04  0.11157901900E+04  0.12501170815E+03 0.  0.
          2    1    1    2  501    0 -0.45230046670E+02  0.39613684625E+02 -0.56915535961E+03  0.57232230823E+03  0.00000000000E+00 0. -1.
          1    1    1    2  502    0  0.88237048653E+02  0.38677489950E+01  0.28306941415E+04  0.28320716903E+04  0.00000000000E+00 0. -1.
         22    1    3    3    0    0 -0.84304423798E+01 -0.26458746453E+02 -0.44100234042E+02  0.52114952414E+02  0.00000000000E+00 0.  1.
         22    1    3    3    0    0 -0.34576559603E+02 -0.17022687167E+02 -0.10629768109E+04  0.10636752375E+04  0.00000000000E+00 0.  1.
</event>
<event>
 7    1  0.5452757E-006  0.3921617E+02  0.7818608E-02  0.1532840E+00
          2   -1    0    0  502    0  0.00000000000E+00  0.00000000000E+00  0.11071983594E+04  0.11071983594E+04  0.00000000000E+00 0. -1.
          1   -1    0    0  501    0 -0.00000000000E+00 -0.00000000000E+00 -0.40875305723E+02  0.40875305723E+02  0.00000000000E+00 0. -1.
         25    2    1    2    0    0 -0.74065997213E+01 -0.17855419455E+02  0.51840267318E+03  0.53361111815E+03  0.12500328048E+03 0.  0.
          2    1    1    2  501    0 -0.33559199546E+02  0.84570380360E+01 -0.23285282965E+02  0.41712657183E+02  0.00000000000E+00 0. -1.
          1    1    1    2  502    0  0.40965799267E+02  0.93983814190E+01  0.57120566343E+03  0.57274988976E+03  0.00000000000E+00 0. -1.
         22    1    3    3    0    0 -0.13071761003E+01 -0.71779649065E+02  0.27323289742E+03  0.28250706710E+03  0.00000000000E+00 0.  1.
         22    1    3    3    0    0 -0.60994236211E+01  0.53924229610E+02  0.24516977576E+03  0.25110405105E+03  0.00000000000E+00 0.  1.
</event>
<event>
 7    1  0.5452757E-006  0.7209254E+02  0.7818608E-02  0.1383340E+00
          2   -1    0    0  502    0  0.00000000000E+00  0.00000000000E+00  0.22933480424E+04  0.22933480424E+04  0.00000000000E+00 0. -1.
          1   -1    0    0  501    0 -0.00000000000E+00 -0.00000000000E+00 -0.20453180583E+02  0.20453180583E+02  0.00000000000E+00 0. -1.
         25    2    1    2    0    0  0.18868505031E+02 -0.14726127573E+02  0.64272868754E+03  0.65520889141E+03  0.12500258509E+03 0.  0.
          2    1    1    2  501    0  0.39130086811E+02 -0.40196149083E+02  0.46363871569E+02  0.72777075249E+02  0.00000000000E+00 0. -1.
          1    1    1    2  502    0 -0.57998591842E+02  0.54922276656E+02  0.15838023027E+04  0.15858152563E+04  0.00000000000E+00 0. -1.
         22    1    3    3    0    0 -0.46939874511E+01  0.55246267296E+01 -0.36275132515E+01  0.81064092595E+01  0.00000000000E+00 0.  1.
         22    1    3    3    0    0  0.23562492482E+02 -0.20250754302E+02  0.64635620079E+03  0.64710248215E+03  0.00000000000E+00 0.  1.
</event>
<event>
 7    1  0.5452757E-006  0.2964512E+02  0.7818608E-02  0.1607692E+00
          2   -1    0    0  502    0  0.00000000000E+00  0.00000000000E+00  0.77695066927E+03  0.77695066927E+03  0.00000000000E+00 0. -1.
          1   -1    0    0  501    0 -0.00000000000E+00 -0.00000000000E+00 -0.56005079551E+02  0.56005079551E+02  0.00000000000E+00 0. -1.
         25    2    1    2    0    0  0.20056170812E+02 -0.39565024267E+02  0.63537358032E+03  0.64907046140E+03  0.12500094462E+03 0.  0.
          2    1    1    2  501    0 -0.27160085631E+02  0.11798433652E+02 -0.42970881879E+02  0.52185917426E+02  0.00000000000E+00 0. -1.
          1    1    1    2  502    0  0.71039148186E+01  0.27766590615E+02  0.12854289127E+03  0.13169937000E+03  0.00000000000E+00 0. -1.
         22    1    3    3    0    0 -0.46848242827E+02 -0.44970012254E+02  0.34271051221E+03  0.34880876571E+03  0.00000000000E+00 0.  1.
         22    1    3    3    0    0  0.66904413639E+02  0.54049879873E+01  0.29266306811E+03  0.30026169569E+03  0.00000000000E+00 0.  1.
</event>
<event>
 7    1  0.5452757E-006  0.1015920E+03  0.7818608E-02  0.1440960E+00
          2   -1    0    0  502    0  0.00000000000E+00  0.00000000000E+00  0.11504710411E+04  0.11504710411E+04  0.00000000000E+00 0. -1.
          1   -1    0    0  501    0 -0.00000000000E+00 -0.00000000000E+00 -0.12686719512E+04  0.12686719512E+04  0.00000000000E+00 0. -1.
         25    2    1    2    0    0 -0.99128625427E+02  0.34513126843E+02  0.16381139371E+03  0.23125156108E+03  0.12500188593E+03 0.  0.
          2    1    1    2  501    0 -0.20097642375E+01 -0.25344001339E+02 -0.12321147733E+04  0.12323770413E+04  0.00000000000E+00 0. -1.
          1    1    1    2  502    0  0.10113838966E+03 -0.91691255034E+01  0.95010246942E+03  0.95551438980E+03  0.00000000000E+00 0. -1.
         22    1    3    3    0    0 -0.10214128933E+03  0.38998581781E+02  0.55148549944E+02  0.12245446063E+03  0.00000000000E+00 0.  1.
         22    1    3    3    0    0  0.30126639014E+01 -0.44854549385E+01  0.10866284377E+03  0.10879710045E+03  0.00000000000E+00 0.  1.
</event>
<event>
 7    1  0.5452757E-006  0.1391843E+03  0.7818608E-02  0.1256905E+00
          2   -1    0    0  502    0  0.00000000000E+00  0.00000000000E+00  0.19104376486E+04  0.19104376486E+04  0.00000000000E+00 0. -1.
          1   -1    0    0  501    0 -0.00000000000E+00 -0.00000000000E+00 -0.41326415799E+02  0.41326415799E+02  0.00000000000E+00 0. -1.
         25    2    1    2    0    0  0.15938123618E+03 -0.11721075938E+03  0.92818344494E+03  0.95723019081E+03  0.12499756063E+03 0.  0.
          2    1    1    2  501    0 -0.88768826014E+02  0.15604233325E+02  0.68061940369E+02  0.11294168538E+03  0.00000000000E+00 0. -1.
          1    1    1    2  502    0 -0.70612410166E+02  0.10160652606E+03  0.87286584751E+03  0.88159218823E+03  0.00000000000E+00 0. -1.
         22    1    3    3    0    0  0.28801520448E+02 -0.29489042118E+02  0.48880861029E+03  0.49054356451E+03  0.00000000000E+00 0.  1.
         22    1    3    3    0    0  0.13057971573E+03 -0.87721717263E+02  0.43937483465E+03  0.46668662630E+03  0.00000000000E+00 0.  1.
</event>
<event>
 7    1  0.5452757E-006  0.1680255E+03  0.7818608E-02  0.1275982E+00
          2   -1    0    0  502    0  0.00000000000E+00  0.00000000000E+00  0.40486696358E+03  0.40486696358E+03  0.00000000000E+00 0. -1.
          1   -1    0    0  501    0 -0.00000000000E+00 -0.00000000000E+00 -0.83226077210E+03  0.83226077210E+03  0.00000000000E+00 0. -1.
         25    2    1    2    0    0 -0.95120527320E+02 -0.12779243678E+03  0.48863605718E+01  0.20255223698E+03  0.12499884228E+03 0.  0.
          2    1    1    2  501    0  0.14413524063E+03  0.89797663182E+02 -0.72025225621E+03  0.74000128411E+03  0.00000000000E+00 0. -1.
          1    1    1    2  502    0 -0.49014713313E+02  0.37994773597E+02  0.28797208712E+03  0.29457421460E+03  0.00000000000E+00 0. -1.
         22    1    3    3    0    0 -0.12574410469E+03 -0.95698825172E+02  0.66365124259E+01  0.15815779557E+03  0.00000000000E+00 0.  1.
         22    1    3    3    0    0  0.30623577366E+02 -0.32093611606E+02 -0.17501518541E+01  0.44394441410E+02  0.00000000000E+00 0.  1.
</event>
<event>
 7    1  0.5452757E-006  0.3015371E+02  0.7818608E-02  0.1628752E+00
          2   -1    0    0  502    0  0.00000000000E+00  0.00000000000E+00  0.50332554692E+03  0.50332554692E+03  0.00000000000E+00 0. -1.
          1   -1    0    0  501    0 -0.00000000000E+00 -0.00000000000E+00 -0.60641128933E+02  0.60641128933E+02  0.00000000000E+00 0. -1.
         25    2    1    2    0    0  0.42897910873E+01  0.59843541811E+01  0.43356893207E+03  0.45128754268E+03  0.12499685003E+03 0.  0.
          2    1    1    2  501    0  0.10742157277E+02  0.28175379187E+02 -0.40563453684E+02  0.50543443789E+02  0.00000000000E+00 0. -1.
          1    1    1    2  502    0 -0.15031948365E+02 -0.34159733368E+02  0.49678939603E+02  0.62135689386E+02  0.00000000000E+00 0. -1.
         22    1    3    3    0    0  0.31752270266E+02 -0.36169507717E+02  0.35324333127E+03  0.35650707011E+03  0.00000000000E+00 0. -1.
         22    1    3    3    0    0 -0.27462479179E+02  0.42153861899E+02  0.80325600805E+02  0.94780472569E+02  0.00000000000E+00 0. -1.
</event>
<event>
 7    1  0.5452757E-006  0.9761094E+02  0.7818608E-02  0.1391966E+00
          2   -1    0    0  502    0  0.00000000000E+00  0.00000000000E+00  0.18974219524E+04  0.18974219524E+04  0.00000000000E+00 0. -1.
          1   -1    0    0  501    0 -0.00000000000E+00 -0.00000000000E+00 -0.19795139050E+03  0.19795139050E+03  0.00000000000E+00 0. -1.
         25    2    1    2    0    0  0.54664857369E+02 -0.72461257673E+02  0.15351616072E+03  0.21778634843E+03  0.12499920586E+03 0.  0.
          2    1    1    2  501    0 -0.23835191349E+02  0.95767896540E+02 -0.15089241589E+03  0.18030010407E+03  0.00000000000E+00 0. -1.
          1    1    1    2  502    0 -0.30829666020E+02 -0.23306638867E+02  0.16968468171E+04  0.16972868904E+04  0.00000000000E+00 0. -1.
         22    1    3    3    0    0 -0.18369982894E+02 -0.34819448128E+02  0.12461735097E+03  0.13068792753E+03  0.00000000000E+00 0.  1.
         22    1    3    3    0    0  0.73034840263E+02 -0.37641809544E+02  0.28898809749E+02  0.87098420898E+02  0.00000000000E+00 0.  1.
</event>
<event>
 7    1  0.5452757E-006  0.1037161E+03  0.7818608E-02  0.1453046E+00
          2   -1    0    0  502    0  0.00000000000E+00  0.00000000000E+00  0.35297731280E+03  0.35297731280E+03  0.00000000000E+00 0. -1.
          1   -1    0    0  501    0 -0.00000000000E+00 -0.00000000000E+00 -0.12704003247E+03  0.12704003247E+03  0.00000000000E+00 0. -1.
         25    2    1    2    0    0 -0.10389695557E+01  0.87128953776E+02  0.99558963022E+02  0.18201369136E+03  0.12499785071E+03 0.  0.
          2    1    1    2  501    0 -0.52571748561E+01  0.22157543923E+02 -0.69761289747E+02  0.73384141252E+02  0.00000000000E+00 0. -1.
          1    1    1    2  502    0  0.62961444119E+01 -0.10928649770E+03  0.19613960705E+03  0.22461951266E+03  0.00000000000E+00 0. -1.
         22    1    3    3    0    0 -0.33208496496E+02  0.86680472483E+02  0.18290900626E+02  0.94609014344E+02  0.00000000000E+00 0. -1.
         22    1    3    3    0    0  0.32169526940E+02  0.44848129323E+00  0.81268062396E+02  0.87404677018E+02  0.00000000000E+00 0. -1.
</event>
<event>
 7    1  0.6044412E-006  0.1491120E+03  0.7818608E-02  0.1351905E+00
          2   -1    0    0  502    0  0.00000000000E+00  0.00000000000E+00  0.63831079617E+03  0.63831079617E+03  0.00000000000E+00 0. -1.
          1   -1    0    0  501    0 -0.00000000000E+00 -0.00000000000E+00 -0.16289144075E+04  0.16289144075E+04  0.00000000000E+00 0. -1.
         25    2    1    2    0    0  0.12614916192E+03 -0.24019412809E+02 -0.90556586690E+03  0.92312800767E+03  0.12500094396E+03 0.  0.
          2    1    1    2  501    0  0.11800557610E+02 -0.33180526632E+02 -0.70526534208E+03  0.70614403860E+03  0.00000000000E+00 0. -1.
          1    1    1    2  502    0 -0.13794971953E+03  0.57199939441E+02  0.62022759764E+03  0.63795315742E+03  0.00000000000E+00 0. -1.
         22    1    3    3    0    0  0.40406622540E+02 -0.14973352278E+02 -0.68433243477E+03  0.68568781359E+03  0.00000000000E+00 0. -1.
         22    1    3    3    0    0  0.85742539378E+02 -0.90460605310E+01 -0.22123343213E+03  0.23744019408E+03  0.00000000000E+00 0. -1.
</event>
<event>
 7    1  0.5452757E-006  0.2626468E+02  0.7818608E-02  0.1652322E+00
          2   -1    0    0  502    0  0.00000000000E+00  0.00000000000E+00  0.50603878372E+03  0.50603878372E+03  0.00000000000E+00 0. -1.
          1   -1    0    0  501    0 -0.00000000000E+00 -0.00000000000E+00 -0.14886310313E+03  0.14886310313E+03  0.00000000000E+00 0. -1.
         25    2    1    2    0    0  0.44455539635E+02 -0.20682850095E+02  0.47544848103E+02  0.14247581643E+03  0.12503907547E+03 0.  0.
          2    1    1    2  501    0 -0.19794061107E+02  0.16697253554E+02 -0.99356862004E+02  0.10267613724E+03  0.00000000000E+00 0. -1.
          1    1    1    2  502    0 -0.24661478528E+02  0.39855965413E+01  0.40898769449E+03  0.40974993319E+03  0.00000000000E+00 0. -1.
         22    1    3    3    0    0  0.81683270498E+02 -0.49999943415E+01  0.58529860809E+02  0.10061262957E+03  0.00000000000E+00 0. -1.
         22    1    3    3    0    0 -0.37227730862E+02 -0.15682855754E+02 -0.10985012707E+02  0.41863186858E+02  0.00000000000E+00 0. -1.
</event>
<event>
 7    1  0.5452757E-006  0.5089313E+02  0.7818608E-02  0.1468234E+00
          2   -1    0    0  502    0  0.00000000000E+00  0.00000000000E+00  0.64279414831E+03  0.64279414831E+03  0.00000000000E+00 0. -1.
          1   -1    0    0  501    0 -0.00000000000E+00 -0.00000000000E+00 -0.21496454855E+03  0.21496454855E+03  0.00000000000E+00 0. -1.
         25    2    1    2    0    0 -0.15558583430E+02 -0.31328161286E+01  0.14708485490E+03  0.19368130514E+03  0.12500643730E+03 0.  0.
          2    1    1    2  501    0 -0.20626430476E+02 -0.36086461620E+02 -0.18788069448E+03  0.19242358926E+03  0.00000000000E+00 0. -1.
          1    1    1    2  502    0  0.36185013906E+02  0.39219277748E+02  0.46862543934E+03  0.47165380246E+03  0.00000000000E+00 0. -1.
         22    1    3    3    0    0  0.42631891316E+01 -0.35327306389E+02 -0.59216732431E+01  0.36072975650E+02  0.00000000000E+00 0. -1.
         22    1    3    3    0    0 -0.19821772562E+02  0.32194490260E+02  0.15300652815E+03  0.15760832949E+03  0.00000000000E+00 0. -1.
</event>
<event>
 7    1  0.5452757E-006  0.5072725E+02  0.7818608E-02  0.1509183E+00
          2   -1    0    0  502    0  0.00000000000E+00  0.00000000000E+00  0.85345740369E+03  0.85345740369E+03  0.00000000000E+00 0. -1.
          1   -1    0    0  501    0 -0.00000000000E+00 -0.00000000000E+00 -0.23436113808E+04  0.23436113808E+04  0.00000000000E+00 0. -1.
         25    2    1    2    0    0 -0.20582455926E+02 -0.41849361846E+02 -0.38238708629E+02  0.13878479921E+03  0.12499606024E+03 0.  0.
          2    1    1    2  501    0 -0.97078607688E+01  0.49868183230E+02 -0.22545077436E+04  0.22550800971E+04  0.00000000000E+00 0. -1.
          1    1    1    2  502    0  0.30290316695E+02 -0.80188213840E+01  0.80259247516E+03  0.80320388817E+03  0.00000000000E+00 0. -1.
         22    1    3    3    0    0  0.10561170548E+02  0.30837192925E+01  0.41036598858E+02  0.42485881112E+02  0.00000000000E+00 0.  1.
         22    1    3    3    0    0 -0.31143626474E+02 -0.44933081138E+02 -0.79275307487E+02  0.96298918103E+02  0.00000000000E+00 0.  1.
</event>
<event>
 7    1  0.5452757E-006  0.1347933E+03  0.7818608E-02  0.1315557E+00
          2   -1    0    0  502    0  0.00000000000E+00  0.00000000000E+00  0.37699613063E+03  0.37699613063E+03  0.00000000000E+00 0. -1.
          1   -1    0    0  501    0 -0.00000000000E+00 -0.00000000000E+00 -0.85062439920E+03  0.85062439920E+03  0.00000000000E+00 0. -1.
         25    2    1    2    0    0  0.32468853032E+02  0.11949478297E+03 -0.14834864586E+03  0.23014094398E+03  0.12499721513E+03 0.  0.
          2    1    1    2  501    0 -0.51251952175E+02  0.15485850577E+02 -0.64641244002E+03  0.64862594520E+03  0.00000000000E+00 0. -1.
          1    1    1    2  502    0  0.18783099143E+02 -0.13498063355E+03  0.32113281731E+03  0.34885364066E+03  0.00000000000E+00 0. -1.
         22    1    3    3    0    0 -0.30034222210E+02 -0.54111148202E+01 -0.67642825122E+01  0.31258441823E+02  0.00000000000E+00 0.  1.
         22    1    3    3    0    0  0.62503075241E+02  0.12490589779E+03 -0.14158436334E+03  0.19888250215E+03  0.00000000000E+00 0.  1.
</event>
<event>
 7    1  0.5452757E-006  0.8660459E+02  0.7818608E-02  0.1354949E+00
          2   -1    0    0  502    0  0.00000000000E+00  0.00000000000E+00  0.45243781223E+03  0.45243781223E+03  0.00000000000E+00 0. -1.
          1   -1    0    0  501    0 -0.00000000000E+00 -0.00000000000E+00 -0.46330483263E+03  0.46330483263E+03  0.00000000000E+00 0. -1.
         25    2    1    2    0    0 -0.15443164176E+02 -0.73880214794E+02 -0.92887991308E+02  0.17306044676E+03  0.12499984738E+03 0.  0.
          2    1    1    2  501    0 -0.43340981111E+02  0.79865146808E+02 -0.32189118320E+03  0.33447094962E+03  0.00000000000E+00 0. -1.
          1    1    1    2  502    0  0.58784145287E+02 -0.59849320141E+01  0.40391215411E+03  0.40821124848E+03  0.00000000000E+00 0. -1.
         22    1    3    3    0    0  0.26100243105E+02 -0.53774825673E+01 -0.88941504592E+02  0.92847893073E+02  0.00000000000E+00 0. -1.
         22    1    3    3    0    0 -0.41543407281E+02 -0.68502732226E+02 -0.39464867156E+01  0.80212553683E+02  0.00000000000E+00 0. -1.
</event>
<event>
 7    1  0.5452757E-006  0.4764875E+02  0.7818608E-02  0.1464446E+00
          2   -1    0    0  502    0  0.00000000000E+00  0.00000000000E+00  0.24829447499E+04  0.24829447499E+04  0.00000000000E+00 0. -1.
          1   -1    0    0  501    0 -0.00000000000E+00 -0.00000000000E+00 -0.18427614807E+04  0.18427614807E+04  0.00000000000E+00 0. -1.
         25    2    1    2    0    0 -0.65339402112E+02 -0.66380099733E+02 -0.34690357806E+02  0.15970112297E+03  0.12500189056E+03 0.  0.
          2    1    1    2  501    0  0.31313539880E+02  0.33179997456E+02 -0.17450341370E+04  0.17456304274E+04  0.00000000000E+00 0. -1.
          1    1    1    2  502    0  0.34025862232E+02  0.33200102278E+02  0.24199077640E+04  0.24203746801E+04  0.00000000000E+00 0. -1.
         22    1    3    3    0    0  0.23187886274E+02 -0.43245586758E+02  0.20126697640E+02  0.53037183200E+02  0.00000000000E+00 0.  1.
         22    1    3    3    0    0 -0.88527288387E+02 -0.23134512975E+02 -0.54817055446E+02  0.10666393977E+03  0.00000000000E+00 0.  1.
</event>
<event>
 7    1  0.5452757E-006  0.5760364E+02  0.7818608E-02  0.1425776E+00
          2   -1    0    0  502    0  0.00000000000E+00  0.00000000000E+00  0.18772401782E+04  0.18772401782E+04  0.00000000000E+00 0. -1.
          1   -1    0    0  501    0 -0.00000000000E+00 -0.00000000000E+00 -0.15958715926E+03  0.15958715926E+03  0.00000000000E+00 0. -1.
         25    2    1    2    0    0  0.45275477513E+02 -0.97416310791E+02 -0.56929588132E+01  0.16491583027E+03  0.12500005929E+03 0.  0.
          2    1    1    2  501    0 -0.18234721010E+02  0.46857010327E+02 -0.65262126012E+02  0.82384643950E+02  0.00000000000E+00 0. -1.
          1    1    1    2  502    0 -0.27040756503E+02  0.50559300463E+02  0.17886081038E+04  0.17895268632E+04  0.00000000000E+00 0. -1.
         22    1    3    3    0    0  0.29593539976E+02 -0.50068944667E+02 -0.65133505159E+02  0.87321534129E+02  0.00000000000E+00 0.  1.
         22    1    3    3    0    0  0.15681937537E+02 -0.47347366123E+02  0.59440546346E+02  0.77594296141E+02  0.00000000000E+00 0.  1.
</event>
<event>
 7    1  0.5452757E-006  0.1818784E+03  0.7818608E-02  0.1294824E+00
          2   -1    0    0  502    0  0.00000000000E+00  0.00000000000E+00  0.29552984622E+04  0.29552984622E+04  0.00000000000E+00 0. -1.
          1   -1    0    0  501    0 -0.00000000000E+00 -0.00000000000E+00 -0.13303235349E+03  0.13303235349E+03  0.00000000000E+00 0. -1.
         25    2    1    2    0    0 -0.14091767510E+03  0.10283586162E+03  0.11856168164E+04  0.12048835684E+04  0.12499668976E+03 0.  0.
          2    1    1    2  501    0  0.22132200263E+02  0.42550541342E+02 -0.11352044622E+03  0.12323666080E+03  0.00000000000E+00 0. -1.
          1    1    1    2  502    0  0.11878547484E+03 -0.14538640296E+03  0.17501697385E+04  0.17602105865E+04  0.00000000000E+00 0. -1.
         22    1    3    3    0    0 -0.25657930957E+02  0.20593910464E+02  0.65110257151E+03  0.65193327664E+03  0.00000000000E+00 0.  1.
         22    1    3    3    0    0 -0.11525974415E+03  0.82241951152E+02  0.53451424490E+03  0.55295029176E+03  0.00000000000E+00 0.  1.
</event>
<event>
 7    1  0.5452757E-006  0.1118855E+03  0.7818608E-02  0.1264966E+00
          2   -1    0    0  502    0  0.00000000000E+00  0.00000000000E+00  0.38407046757E+03  0.38407046757E+03  0.00000000000E+00 0. -1.
          1   -1    0    0  501    0 -0.00000000000E+00 -0.00000000000E+00 -0.45877797715E+03  0.45877797715E+03  0.00000000000E+00 0. -1.
         25    2    1    2    0    0 -0.63533912266E+02 -0.63928601728E+00  0.71058785294E+01  0.14040149529E+03  0.12500047870E+03 0.  0.
          2    1    1    2  501    0  0.65480128637E+02 -0.10293578652E+03 -0.37349541429E+03  0.39291506447E+03  0.00000000000E+00 0. -1.
          1    1    1    2  502    0 -0.19462163714E+01  0.10357507254E+03  0.29168202618E+03  0.30953188496E+03  0.00000000000E+00 0. -1.
         22    1    3    3    0    0 -0.11364490154E+02 -0.53430819694E+02 -0.24329292976E+02  0.59798985161E+02  0.00000000000E+00 0. -1.
         22    1    3    3    0    0 -0.52169422111E+02  0.52791533676E+02  0.31435171505E+02  0.80602510128E+02  0.00000000000E+00 0. -1.
</event>
<event>
 7    1  0.5452757E-006  0.1331782E+03  0.7818608E-02  0.1259367E+00
          2   -1    0    0  502    0  0.00000000000E+00  0.00000000000E+00  0.17474212051E+04  0.17474212051E+04  0.00000000000E+00 0. -1.
          1   -1    0    0  501    0 -0.00000000000E+00 -0.00000000000E+00 -0.15333174415E+04  0.15333174415E+04  0.00000000000E+00 0. -1.
         25    2    1    2    0    0 -0.65965335911E+00 -0.17026093943E+03  0.10876822338E+03  0.23758238649E+03  0.12500256523E+03 0.  0.
          2    1    1    2  501    0  0.71752626891E+02  0.11196770722E+03 -0.14645528292E+04  0.14705781844E+04  0.00000000000E+00 0. -1.
          1    1    1    2  502    0 -0.71092973532E+02  0.58293232213E+02  0.15698883694E+04  0.15725780757E+04  0.00000000000E+00 0. -1.
         22    1    3    3    0    0 -0.23710808369E+02 -0.18229866363E+03  0.10377442499E+03  0.21110219439E+03  0.00000000000E+00 0. -1.
         22    1    3    3    0    0  0.23051155010E+02  0.12037724198E+02  0.49937983864E+01  0.26480192097E+02  0.00000000000E+00 0. -1.
</event>
<event>
 7    1  0.5452757E-006  0.4103104E+02  0.7818608E-02  0.1534452E+00
          2   -1    0    0  502    0  0.00000000000E+00  0.00000000000E+00  0.11322826744E+03  0.11322826744E+03  0.00000000000E+00 0. -1.
          1   -1    0    0  501    0 -0.00000000000E+00 -0.00000000000E+00 -0.84568722885E+03  0.84568722885E+03  0.00000000000E+00 0. -1.
         25    2    1    2    0    0 -0.30126709380E+02  0.30094805704E+02 -0.86178542265E+02  0.15768956354E+03  0.12500376536E+03 0.  0.
          2    1    1    2  501    0  0.41210360199E+02  0.70068741070E+00 -0.71968030039E+03  0.72085956990E+03  0.00000000000E+00 0. -1.
          1    1    1    2  502    0 -0.11083650819E+02 -0.30795493114E+02  0.73399881241E+02  0.80366362851E+02  0.00000000000E+00 0. -1.
         22    1    3    3    0    0  0.14895120947E+02  0.16865674768E+02  0.27012801909E+02  0.35156892360E+02  0.00000000000E+00 0. -1.
         22    1    3    3    0    0 -0.45021830327E+02  0.13229130935E+02 -0.11319134417E+03  0.12253267118E+03  0.00000000000E+00 0. -1.
</event>
<event>
 7    1  0.5452757E-006  0.9858126E+02  0.7818608E-02  0.1316015E+00
          2   -1    0    0  502    0  0.00000000000E+00  0.00000000000E+00  0.23558327871E+04  0.23558327871E+04  0.00000000000E+00 0. -1.
          1   -1    0    0  501    0 -0.00000000000E+00 -0.00000000000E+00 -0.14906370984E+04  0.14906370984E+04  0.00000000000E+00 0. -1.
         25    2    1    2    0    0  0.13175533790E+03  0.10700996458E+03 -0.83657979309E+02  0.22679166949E+03  0.12500080904E+03 0.  0.
          2    1    1    2  501    0 -0.62521466872E+02 -0.37503400087E+02 -0.13333625893E+04  0.13353543475E+04  0.00000000000E+00 0. -1.
          1    1    1    2  502    0 -0.69233871027E+02 -0.69506564498E+02  0.22822162573E+04  0.22843238685E+04  0.00000000000E+00 0. -1.
         22    1    3    3    0    0  0.46346933615E+02  0.67862273604E+02  0.22327870043E+02  0.85157854687E+02  0.00000000000E+00 0. -1.
         22    1    3    3    0    0  0.85408404284E+02  0.39147690980E+02 -0.10598584935E+03  0.14163381480E+03  0.00000000000E+00 0. -1.
</event>
<event>
 7    1  0.5452757E-006  0.4727622E+02  0.7818608E-02  0.1560886E+00
          2   -1    0    0  502    0  0.00000000000E+00  0.00000000000E+00  0.27136504448E+04  0.27136504448E+04  0.00000000000E+00 0. -1.
          1   -1    0    0  501    0 -0.00000000000E+00 -0.00000000000E+00 -0.18941493105E+02  0.18941493105E+02  0.00000000000E+00 0. -1.
         25    2    1    2    0    0  0.26084521407E+01  0.31154228040E+02  0.78062210392E+03  0.79118484126E+03  0.12500077585E+03 0.  0.
          2    1    1    2  501    0  0.21357861963E+02  0.10853325037E+02 -0.26110015616E+01  0.24099175528E+02  0.00000000000E+00 0. -1.
          1    1    1    2  502    0 -0.23966314103E+02 -0.42007553077E+02  0.19166978494E+04  0.19173079211E+04  0.00000000000E+00 0. -1.
         22    1    3    3    0    0  0.27347675396E+02 -0.20854311169E+02  0.61263187135E+03  0.61359645324E+03  0.00000000000E+00 0. -1.
         22    1    3    3    0    0 -0.24739223255E+02  0.52008539209E+02  0.16799023258E+03  0.17758838802E+03  0.00000000000E+00 0. -1.
</event>
<event>
 7    1  0.5452757E-006  0.1899020E+03  0.7818608E-02  0.1207537E+00
          2   -1    0    0  502    0  0.00000000000E+00  0.00000000000E+00  0.20720119942E+04  0.20720119942E+04  0.00000000000E+00 0. -1.
          1   -1    0    0  501    0 -0.00000000000E+00 -0.00000000000E+00 -0.47454217098E+03  0.47454217098E+03  0.00000000000E+00 0. -1.
         25    2    1    2    0    0 -0.15914471622E+03  0.20561180801E+03  0.10490745629E+04  0.10880188374E+04  0.12499718308E+03 0.  0.
          2    1    1    2  501    0  0.97590976821E+02 -0.50298691437E+02 -0.44134395775E+03  0.45479494957E+03  0.00000000000E+00 0. -1.
          1    1    1    2  502    0  0.61553739396E+02 -0.15531311657E+03  0.98973921807E+03  0.10037403782E+04  0.00000000000E+00 0. -1.
         22    1    3    3    0    0 -0.10853894090E+03  0.10245653831E+03  0.36461843596E+03  0.39398559336E+03  0.00000000000E+00 0.  1.
         22    1    3    3    0    0 -0.50605775317E+02  0.10315526970E+03  0.68445612695E+03  0.69403324408E+03  0.00000000000E+00 0.  1.
</event>
<event>
 7    1  0.5452757E-006  0.7570229E+02  0.7818608E-02  0.1345334E+00
          2   -1    0    0  502    0  0.00000000000E+00  0.00000000000E+00  0.36013216780E+03  0.36013216780E+03  0.00000000000E+00 0. -1.
          1   -1    0    0  501    0 -0.00000000000E+00 -0.00000000000E+00 -0.64557907323E+03  0.64557907323E+03  0.00000000000E+00 0. -1.
         25    2    1    2    0    0  0.28906701361E+02 -0.12611545361E+02 -0.85699968718E+02  0.15480255189E+03  0.12499878788E+03 0.  0.
          2    1    1    2  501    0 -0.33029943806E+02 -0.65520011203E+02 -0.51800425379E+03  0.52317516761E+03  0.00000000000E+00 0. -1.
          1    1    1    2  502    0  0.41232424452E+01  0.78131556564E+02  0.31825731709E+03  0.32773352154E+03  0.00000000000E+00 0. -1.
         22    1    3    3    0    0  0.54496017837E+02 -0.11681422080E+02  0.92182016728E+01  0.56491121639E+02  0.00000000000E+00 0. -1.
         22    1    3    3    0    0 -0.25589316476E+02 -0.93012328147E+00 -0.94918170391E+02  0.98311430248E+02  0.00000000000E+00 0. -1.
</event>
<event>
 7    1  0.5452757E-006  0.1058997E+03  0.7818608E-02  0.1337036E+00
          2   -1    0    0  502    0  0.00000000000E+00  0.00000000000E+00  0.39661473464E+03  0.39661473464E+03  0.00000000000E+00 0. -1.
          1   -1    0    0  501    0 -0.00000000000E+00 -0.00000000000E+00 -0.59048912070E+03  0.59048912070E+03  0.00000000000E+00 0. -1.
         25    2    1    2    0    0 -0.11766943402E+03 -0.87019531014E+02 -0.95329090828E+02  0.21477858615E+03  0.12499484401E+03 0.  0.
          2    1    1    2  501    0  0.19286424476E+02  0.52950836361E+02 -0.42548875183E+03  0.42920442120E+03  0.00000000000E+00 0. -1.
          1    1    1    2  502    0  0.98383009541E+02  0.34068694653E+02  0.32694345660E+03  0.34312084800E+03  0.00000000000E+00 0. -1.
         22    1    3    3    0    0 -0.13548086145E+03 -0.96590394647E+02 -0.65659492649E+02  0.17887408178E+03  0.00000000000E+00 0. -1.
         22    1    3    3    0    0  0.17811427431E+02  0.95708636328E+01 -0.29669598179E+02  0.35904504368E+02  0.00000000000E+00 0. -1.
</event>
<event>
 7    1  0.5452757E-006  0.1217728E+03  0.7818608E-02  0.1267890E+00
          2   -1    0    0  502    0  0.00000000000E+00  0.00000000000E+00  0.36480066253E+04  0.36480066253E+04  0.00000000000E+00 0. -1.
          1   -1    0    0  501    0 -0.00000000000E+00 -0.00000000000E+00 -0.14251156762E+04  0.14251156762E+04  0.00000000000E+00 0. -1.
         25    2    1    2    0    0 -0.23390853099E+02  0.38780846301E+02 -0.20704112536E+03  0.24605278223E+03  0.12499943201E+03 0.  0.
          2    1    1    2  501    0  0.85231333862E+02 -0.10758889334E+03 -0.11940468193E+04  0.12019099621E+04  0.00000000000E+00 0. -1.
          1    1    1    2  502    0 -0.61840480764E+02  0.68808047043E+02  0.36239788937E+04  0.36251595571E+04  0.00000000000E+00 0. -1.
         22    1    3    3    0    0 -0.45096450225E+02 -0.31691714016E+02 -0.11946027027E+03  0.13156295350E+03  0.00000000000E+00 0. -1.
         22    1    3    3    0    0  0.21705597127E+02  0.70472560317E+02 -0.87580855087E+02  0.11448982873E+03  0.00000000000E+00 0. -1.
</event>
<event>
 7    1  0.5452757E-006  0.1758916E+03  0.7818608E-02  0.1380059E+00
          2   -1    0    0  502    0  0.00000000000E+00  0.00000000000E+00  0.14627602989E+04  0.14627602989E+04  0.00000000000E+00 0. -1.
          1   -1    0    0  501    0 -0.00000000000E+00 -0.00000000000E+00 -0.58322425789E+03  0.58322425789E+03  0.00000000000E+00 0. -1.
         25    2    1    2    0    0  0.10909959094E+03 -0.11337883633E+03  0.89349149103E+03  0.91581094792E+03  0.12500066603E+03 0.  0.
          2    1    1    2  501    0 -0.11085861468E+03  0.13692762886E+03 -0.55823805915E+03  0.58537897014E+03  0.00000000000E+00 0. -1.
          1    1    1    2  502    0  0.17590237331E+01 -0.23548792528E+02  0.54428260912E+03  0.54479463873E+03  0.00000000000E+00 0. -1.
         22    1    3    3    0    0  0.77121166719E+02 -0.12836627559E+03  0.82772015053E+03  0.84115766813E+03  0.00000000000E+00 0. -1.
         22    1    3    3    0    0  0.31978424223E+02  0.14987439258E+02  0.65771340499E+02  0.74653279783E+02  0.00000000000E+00 0. -1.
</event>
<event>
 7    1  0.5594198E-006  0.1068470E+03  0.7818608E-02  0.1300146E+00
          2   -1    0    0  502    0  0.00000000000E+00  0.00000000000E+00  0.80161728551E+03  0.80161728551E+03  0.00000000000E+00 0. -1.
          1   -1    0    0  501    0 -0.00000000000E+00 -0.00000000000E+00 -0.90245452729E+03  0.90245452729E+03  0.00000000000E+00 0. -1.
         25    2    1    2    0    0  0.83555536532E+01  0.11404207900E+03 -0.12992615845E+03  0.21349517649E+03  0.12499589064E+03 0.  0.
          2    1    1    2  501    0  0.64604531251E+02 -0.87263841389E+02 -0.72470168265E+03  0.73279004654E+03  0.00000000000E+00 0. -1.
          1    1    1    2  502    0 -0.72960084905E+02 -0.26778237614E+02  0.75379059932E+03  0.75778658976E+03  0.00000000000E+00 0. -1.
         22    1    3    3    0    0 -0.57974502517E+02  0.45391452558E+02 -0.63098303775E+02  0.96968153776E+02  0.00000000000E+00 0. -1.
         22    1    3    3    0    0  0.66330056170E+02  0.68650626445E+02 -0.66827854676E+02  0.11652702272E+03  0.00000000000E+00 0. -1.
</event>
<event>
 7    1  0.5452757E-006  0.1320230E+03  0.7818608E-02  0.1337768E+00
          2   -1    0    0  502    0  0.00000000000E+00  0.00000000000E+00  0.71933907642E+03  0.71933907642E+03  0.00000000000E+00 0. -1.
          1   -1    0    0  501    0 -0.00000000000E+00 -0.00000000000E+00 -0.25198392213E+03  0.25198392213E+03  0.00000000000E+00 0. -1.
         25    2    1    2    0    0  0.87714759419E+02  0.33679047173E+02  0.90563901980E+02  0.18070598732E+03  0.12499870509E+03 0.  0.
          2    1    1    2  501    0 -0.12699457958E+03 -0.55463425204E+02 -0.18270872437E+03  0.22931701363E+03  0.00000000000E+00 0. -1.
          1    1    1    2  502    0  0.39279820162E+02  0.21784378031E+02  0.55949997668E+03  0.56129999760E+03  0.00000000000E+00 0. -1.
         22    1    3    3    0    0 -0.19578442932E+02  0.38790421906E+02  0.57226344094E+01  0.43826485187E+02  0.00000000000E+00 0.  1.
         22    1    3    3    0    0  0.10729320235E+03 -0.51113747334E+01  0.84841267570E+02  0.13687950214E+03  0.00000000000E+00 0.  1.
</event>
<event>
 7    1  0.5452757E-006  0.1226655E+03  0.7818608E-02  0.1435767E+00
          2   -1    0    0  502    0  0.00000000000E+00  0.00000000000E+00  0.92828023558E+03  0.92828023558E+03  0.00000000000E+00 0. -1.
          1   -1    0    0  501    0 -0.00000000000E+00 -0.00000000000E+00 -0.19742621123E+04  0.19742621123E+04  0.00000000000E+00 0. -1.
         25    2    1    2    0    0  0.98496048191E+02 -0.55289784256E+02 -0.18839545860E+03  0.25273723715E+03  0.12499932187E+03 0.  0.
          2    1    1    2  501    0 -0.96386797731E+02  0.77079025768E+02 -0.17513902231E+04  0.17557332669E+04  0.00000000000E+00 0. -1.
          1    1    1    2  502    0 -0.21092504605E+01 -0.21789241513E+02  0.89380380502E+03  0.89407184378E+03  0.00000000000E+00 0. -1.
         22    1    3    3    0    0  0.10721377195E+03 -0.85222172863E+02 -0.14698968149E+03  0.20090688915E+03  0.00000000000E+00 0.  1.
         22    1    3    3    0    0 -0.87177237613E+01  0.29932388607E+02 -0.41405777119E+02  0.51830348003E+02  0.00000000000E+00 0.  1.
</event>
<event>
 7    1  0.5452757E-006  0.4556647E+02  0.7818608E-02  0.1483346E+00
          2   -1    0    0  502    0  0.00000000000E+00  0.00000000000E+00  0.56028470640E+03  0.56028470640E+03  0.00000000000E+00 0. -1.
          1   -1    0    0  501    0 -0.00000000000E+00 -0.00000000000E+00 -0.92891327489E+03  0.92891327489E+03  0.00000000000E+00 0. -1.
         25    2    1    2    0    0 -0.65068593786E+02  0.20025736093E+02  0.32909978662E+03  0.35856187316E+03  0.12499998131E+03 0.  0.
          2    1    1    2  501    0  0.42906914512E+02  0.15295063893E+02 -0.91160009465E+03  0.91273746217E+03  0.00000000000E+00 0. -1.
          1    1    1    2  502    0  0.22161679274E+02 -0.35320799986E+02  0.21387173953E+03  0.21789864596E+03  0.00000000000E+00 0. -1.
         22    1    3    3    0    0 -0.49804693495E+02  0.60537331219E+02  0.28937824593E+03  0.29980834742E+03  0.00000000000E+00 0.  1.
         22    1    3    3    0    0 -0.15263900291E+02 -0.40511595127E+02  0.39721540683E+02  0.58753525733E+02  0.00000000000E+00 0.  1.
</event>
<event>
 7    1  0.5452757E-006  0.1113555E+03  0.7818608E-02  0.1399532E+00
          2   -1    0    0  502    0  0.00000000000E+00  0.00000000000E+00  0.67987775448E+03  0.67987775448E+03  0.00000000000E+00 0. -1.
          1   -1    0    0  501    0 -0.00000000000E+00 -0.00000000000E+00 -0.56915736860E+03  0.56915736860E+03  0.00000000000E+00 0. -1.
         25    2    1    2    0    0  0.56506332710E+02  0.59346506012E+02 -0.38209186119E+03  0.41028526907E+03  0.12499935287E+03 0.  0.
          2    1    1    2  501    0  0.10300286380E+02  0.30186886015E+02 -0.16676070274E+03  0.16978361513E+03  0.00000000000E+00 0. -1.
          1    1    1    2  502    0 -0.66806619090E+02 -0.89533392027E+02  0.65957294981E+03  0.66896623889E+03  0.00000000000E+00 0. -1.
         22    1    3    3    0    0  0.35824463848E+02  0.56261098780E+02 -0.67135474359E+02  0.94635486808E+02  0.00000000000E+00 0. -1.
         22    1    3    3    0    0  0.20681868862E+02  0.30854072314E+01 -0.31495638683E+03  0.31564978227E+03  0.00000000000E+00 0. -1.
</event>
<event>
 7    1  0.5452757E-006  0.4620012E+02  0.7818608E-02  0.1534248E+00
          2   -1    0    0  502    0  0.00000000000E+00  0.00000000000E+00  0.16306625078E+04  0.16306625078E+04  0.00000000000E+00 0. -1.
          1   -1    0    0  501    0 -0.00000000000E+00 -0.00000000000E+00 -0.29017186383E+03  0.29017186383E+03  0.00000000000E+00 0. -1.
         25    2    1    2    0    0 -0.61319212311E+02 -0.23203258538E+02 -0.13827327619E+03  0.19759330241E+03  0.12500070897E+03 0.  0.
          2    1    1    2  501    0  0.32876581662E+02  0.29383627843E+02 -0.11812525885E+03  0.12608665269E+03  0.00000000000E+00 0. -1.
          1    1    1    2  502    0  0.28442630649E+02 -0.61803693052E+01  0.15968891790E+04  0.15971544165E+04  0.00000000000E+00 0. -1.
         22    1    3    3    0    0 -0.29051088451E+02  0.46238995602E+01 -0.15043328865E+03  0.15328248603E+03  0.00000000000E+00 0. -1.
         22    1    3    3    0    0 -0.32268123860E+02 -0.27827158098E+02  0.12160012465E+02  0.44310816381E+02  0.00000000000E+00 0. -1.
</event>
<event>
 7    1  0.5452757E-006  0.1288391E+03  0.7818608E-02  0.1297218E+00
          2   -1    0    0  502    0  0.00000000000E+00  0.00000000000E+00  0.30718429838E+03  0.30718429838E+03  0.00000000000E+00 0. -1.
          1   -1    0    0  501    0 -0.00000000000E+00 -0.00000000000E+00 -0.17190479596E+03  0.17190479596E+03  0.00000000000E+00 0. -1.
         25    2    1    2    0    0 -0.14466557136E+02 -0.10995874482E+03  0.10018456481E+01  0.16710932571E+03  0.12499726479E+03 0.  0.
          2    1    1    2  501    0 -0.66218236306E+02 -0.50026033023E+00 -0.49647346983E+02  0.82764510162E+02  0.00000000000E+00 0. -1.
          1    1    1    2  502    0  0.80684793443E+02  0.11045900515E+03  0.18392500375E+03  0.22921525847E+03  0.00000000000E+00 0. -1.
         22    1    3    3    0    0 -0.58216691708E+02 -0.10307526796E+03 -0.16429420804E+02  0.11951409928E+03  0.00000000000E+00 0. -1.
         22    1    3    3    0    0  0.43750134572E+02 -0.68834768604E+01  0.17431266452E+02  0.47595226430E+02  0.00000000000E+00 0. -1.
</event>
<event>
 7    1  0.5452757E-006  0.1827588E+03  0.7818608E-02  0.1187374E+00
          2   -1    0    0  502    0  0.00000000000E+00  0.00000000000E+00  0.14701491928E+04  0.14701491928E+04  0.00000000000E+00 0. -1.
          1   -1    0    0  501    0 -0.00000000000E+00 -0.00000000000E+00 -0.11465806260E+04  0.11465806260E+04  0.00000000000E+00 0. -1.
         25    2    1    2    0    0 -0.56674448776E+02  0.22232898353E+03 -0.41603534944E+03  0.49127695000E+03  0.12500183821E+03 0.  0.
          2    1    1    2  501    0  0.14254807168E+03 -0.10905679173E+03 -0.67768722444E+03  0.70105157494E+03  0.00000000000E+00 0. -1.
          1    1    1    2  502    0 -0.85873622901E+02 -0.11327219180E+03  0.14172911407E+04  0.14244012939E+04  0.00000000000E+00 0. -1.
         22    1    3    3    0    0  0.31584808016E+02  0.12492228250E+03 -0.18468069748E+03  0.22518911338E+03  0.00000000000E+00 0.  1.
         22    1    3    3    0    0 -0.88259256792E+02  0.97406701030E+02 -0.23135465196E+03  0.26608783662E+03  0.00000000000E+00 0.  1.
</event>
<event>
 7    1  0.5452757E-006  0.1099610E+03  0.7818608E-02  0.1337882E+00
          2   -1    0    0  502    0  0.00000000000E+00  0.00000000000E+00  0.11354747502E+04  0.11354747502E+04  0.00000000000E+00 0. -1.
          1   -1    0    0  501    0 -0.00000000000E+00 -0.00000000000E+00 -0.86414734831E+02  0.86414734831E+02  0.00000000000E+00 0. -1.
         25    2    1    2    0    0  0.14117233935E+03  0.59690773157E+02  0.35895557152E+03  0.40983717174E+03  0.12499914886E+03 0.  0.
          2    1    1    2  501    0 -0.53771700852E+02 -0.33280964153E+01 -0.44651377905E+02  0.69972977549E+02  0.00000000000E+00 0. -1.
          1    1    1    2  502    0 -0.87400638496E+02 -0.56362676742E+02  0.73475582173E+03  0.74207933572E+03  0.00000000000E+00 0. -1.
         22    1    3    3    0    0  0.50555550201E+02  0.36632379022E+01  0.19929478058E+02  0.54465283105E+02  0.00000000000E+00 0.  1.
         22    1    3    3    0    0  0.90616789147E+02  0.56027535255E+02  0.33902609347E+03  0.35537188864E+03  0.00000000000E+00 0.  1.
</event>
<event>
 7    1  0.5452757E-006  0.9254699E+02  0.7818608E-02  0.1386006E+00
          2   -1    0    0  502    0  0.00000000000E+00  0.00000000000E+00  0.80501424272E+02  0.80501424272E+02  0.00000000000E+00 0. -1.
          1   -1    0    0  501    0 -0.00000000000E+00 -0.00000000000E+00 -0.91126993713E+03  0.91126993713E+03  0.00000000000E+00 0. -1.
         25    2    1    2    0    0  0.84416348705E+02  0.25509389271E+02 -0.13828571703E+03  0.20621522130E+03  0.12499971636E+03 0.  0.
          2    1    1    2  501    0  0.10189784802E+02 -0.41533462785E+02 -0.68817857230E+03  0.68950606062E+03  0.00000000000E+00 0. -1.
          1    1    1    2  502    0 -0.94606133507E+02  0.16024073514E+02 -0.43042235182E+01  0.96050079486E+02  0.00000000000E+00 0. -1.
         22    1    3    3    0    0 -0.97095042922E+01 -0.29532939714E+02 -0.12785038760E+01  0.31114362823E+02  0.00000000000E+00 0. -1.
         22    1    3    3    0    0  0.94125852997E+02  0.55042328985E+02 -0.13700721316E+03  0.17510085848E+03  0.00000000000E+00 0. -1.
</event>
<event>
 7    1  0.7769515E-006  0.8636188E+02  0.7818608E-02  0.1391231E+00
          2   -1    0    0  502    0  0.00000000000E+00  0.00000000000E+00  0.12952561469E+04  0.12952561469E+04  0.00000000000E+00 0. -1.
          1   -1    0    0  501    0 -0.00000000000E+00 -0.00000000000E+00 -0.81091936669E+03  0.81091936669E+03  0.00000000000E+00 0. -1.
         25    2    1    2    0    0 -0.16547849288E+02 -0.68146658764E+02 -0.16777342221E+03  0.22066008980E+03  0.12500062246E+03 0.  0.
          2    1    1    2  501    0  0.41382821205E+02 -0.14771943369E+02 -0.61444089157E+03  0.61601003030E+03  0.00000000000E+00 0. -1.
          1    1    1    2  502    0 -0.24834971917E+02  0.82918602133E+02  0.12665510939E+04  0.12695053934E+04  0.00000000000E+00 0. -1.
         22    1    3    3    0    0  0.38740380094E+02  0.12507373716E+02 -0.77670629428E+02  0.87692520335E+02  0.00000000000E+00 0.  1.
         22    1    3    3    0    0 -0.55288229381E+02 -0.80654032480E+02 -0.90102792779E+02  0.13296756947E+03  0.00000000000E+00 0.  1.
</event>
<event>
 7    1  0.5452757E-006  0.1033220E+03  0.7818608E-02  0.1275153E+00
          2   -1    0    0  502    0  0.00000000000E+00  0.00000000000E+00  0.40064605735E+03  0.40064605735E+03  0.00000000000E+00 0. -1.
          1   -1    0    0  501    0 -0.00000000000E+00 -0.00000000000E+00 -0.27893958365E+03  0.27893958365E+03  0.00000000000E+00 0. -1.
         25    2    1    2    0    0 -0.80735400065E+02 -0.46387917682E+02 -0.18169423496E+02  0.15692412519E+03  0.12500003754E+03 0.  0.
          2    1    1    2  501    0 -0.13806985520E+02  0.10071526984E+03 -0.16782436476E+03  0.19621217046E+03  0.00000000000E+00 0. -1.
          1    1    1    2  502    0  0.94542385585E+02 -0.54327352161E+02  0.30770026196E+03  0.32644934535E+03  0.00000000000E+00 0. -1.
         22    1    3    3    0    0 -0.71266696996E+02 -0.22001581170E+02  0.45998086689E+02  0.87628965837E+02  0.00000000000E+00 0. -1.
         22    1    3    3    0    0 -0.94687030688E+01 -0.24386336512E+02 -0.64167510185E+02  0.69295159352E+02  0.00000000000E+00 0. -1.
</event>
<event>
 7    1  0.5452757E-006  0.7598925E+02  0.7818608E-02  0.1429941E+00
          2   -1    0    0  502    0  0.00000000000E+00  0.00000000000E+00  0.17395955645E+03  0.17395955645E+03  0.00000000000E+00 0. -1.
          1   -1    0    0  501    0 -0.00000000000E+00 -0.00000000000E+00 -0.54550580443E+03  0.54550580443E+03  0.00000000000E+00 0. -1.
         25    2    1    2    0    0  0.75020160911E+01  0.67854475864E+02 -0.17136770391E+02  0.14345267737E+03  0.12499796640E+03 0.  0.
          2    1    1    2  501    0  0.29292086678E+02 -0.70980064581E+02 -0.45885297206E+03  0.46523353908E+03  0.00000000000E+00 0. -1.
          1    1    1    2  502    0 -0.36794102769E+02  0.31255887169E+01  0.10444349448E+03  0.11077914444E+03  0.00000000000E+00 0. -1.
         22    1    3    3    0    0  0.41622396892E+02  0.13872219065E+02  0.38791390913E+02  0.58563080467E+02  0.00000000000E+00 0. -1.
         22    1    3    3    0    0 -0.34120380801E+02  0.53982256799E+02 -0.55928161304E+02  0.84889596901E+02  0.00000000000E+00 0. -1.
</event>
<event>
 7    1  0.5452757E-006  0.1019229E+03  0.7818608E-02  0.1316107E+00
          2   -1    0    0  502    0  0.00000000000E+00  0.00000000000E+00  0.32536155346E+03  0.32536155346E+03  0.00000000000E+00 0. -1.
          1   -1    0    0  501    0 -0.00000000000E+00 -0.00000000000E+00 -0.15002150930E+04  0.15002150930E+04  0.00000000000E+00 0. -1.
         25    2    1    2    0    0 -0.23234853670E+02 -0.92786206698E+02  0.19740991147E+03  0.25247770186E+03  0.12500071285E+03 0.  0.
          2    1    1    2  501    0  0.67170283323E+02 -0.21273066662E+02 -0.14342991067E+04  0.14360286619E+04  0.00000000000E+00 0. -1.
          1    1    1    2  502    0 -0.43935429653E+02  0.11405927336E+03  0.62035655698E+02  0.13707028269E+03  0.00000000000E+00 0. -1.
         22    1    3    3    0    0 -0.69295546273E+02 -0.86004138355E+02  0.14682894131E+03  0.18373165910E+03  0.00000000000E+00 0.  1.
         22    1    3    3    0    0  0.46060692603E+02 -0.67820683433E+01  0.50580970157E+02  0.68746042767E+02  0.00000000000E+00 0.  1.
</event>
<event>
 7    1  0.5452757E-006  0.9268262E+02  0.7818608E-02  0.1319505E+00
          2   -1    0    0  502    0  0.00000000000E+00  0.00000000000E+00  0.95234339416E+03  0.95234339416E+03  0.00000000000E+00 0. -1.
          1   -1    0    0  501    0 -0.00000000000E+00 -0.00000000000E+00 -0.60379087342E+03  0.60379087342E+03  0.00000000000E+00 0. -1.
         25    2    1    2    0    0  0.83061544547E+01 -0.26093249683E+02  0.32812102694E+03  0.35219051521E+03  0.12499960321E+03 0.  0.
          2    1    1    2  501    0 -0.80199703610E+02  0.48003651635E+02 -0.58572990723E+03  0.59314068082E+03  0.00000000000E+00 0. -1.
          1    1    1    2  502    0  0.71893549155E+02 -0.21910401952E+02  0.60616140103E+03  0.61080307155E+03  0.00000000000E+00 0. -1.
         22    1    3    3    0    0  0.27358952311E+02  0.36784007963E+02  0.22712305769E+03  0.23170338549E+03  0.00000000000E+00 0.  1.
         22    1    3    3    0    0 -0.19052797857E+02 -0.62877257647E+02  0.10099796925E+03  0.12048712972E+03  0.00000000000E+00 0.  1.
</event>
<event>
 7    1  0.5452757E-006  0.6779796E+02  0.7818608E-02  0.1389393E+00
          2   -1    0    0  502    0  0.00000000000E+00  0.00000000000E+00  0.14453165921E+04  0.14453165921E+04  0.00000000000E+00 0. -1.
          1   -1    0    0  501    0 -0.00000000000E+00 -0.00000000000E+00 -0.90367782379E+03  0.90367782379E+03  0.00000000000E+00 0. -1.
         25    2    1    2    0    0 -0.35234930428E+02 -0.11665732416E+03  0.96408270386E+02  0.19942434436E+03  0.12500033169E+03 0.  0.
          2    1    1    2  501    0  0.26322901158E+02  0.50336571966E+02 -0.85035873942E+03  0.85225386553E+03  0.00000000000E+00 0. -1.
          1    1    1    2  502    0  0.89120292706E+01  0.66320752189E+02  0.12955892374E+04  0.12973162060E+04  0.00000000000E+00 0. -1.
         22    1    3    3    0    0  0.23428788594E+02 -0.10514848914E+03  0.87904266654E+02  0.13904054444E+03  0.00000000000E+00 0. -1.
         22    1    3    3    0    0 -0.58663719022E+02 -0.11508835018E+02  0.85040037321E+01  0.60383799917E+02  0.00000000000E+00 0. -1.
</event>
<event>
 7    1  0.5452757E-006  0.5613188E+02  0.7818608E-02  0.1443362E+00
          2   -1    0    0  502    0  0.00000000000E+00  0.00000000000E+00  0.71025040313E+02  0.71025040313E+02  0.00000000000E+00 0. -1.
          1   -1    0    0  501    0 -0.00000000000E+00 -0.00000000000E+00 -0.63485543873E+03  0.63485543873E+03  0.00000000000E+00 0. -1.
         25    2    1    2    0    0  0.86461850536E+01 -0.21851898472E+02 -0.21661026038E+03  0.25119220911E+03  0.12500103612E+03 0.  0.
          2    1    1    2  501    0 -0.31453582487E+02 -0.32457420873E+02 -0.38307356271E+03  0.38573069163E+03  0.00000000000E+00 0. -1.
          1    1    1    2  502    0  0.22807397433E+02  0.54309319345E+02  0.35853424671E+02  0.68957578307E+02  0.00000000000E+00 0. -1.
         22    1    3    3    0    0 -0.94465611517E+01  0.30653633920E+02 -0.18403201725E+03  0.18680649390E+03  0.00000000000E+00 0.  1.
         22    1    3    3    0    0  0.18092746205E+02 -0.52505532392E+02 -0.32578243129E+02  0.64385715204E+02  0.00000000000E+00 0.  1.
</event>
<event>
 7    1  0.5452757E-006  0.7588092E+02  0.7818608E-02  0.1350502E+00
          2   -1    0    0  502    0  0.00000000000E+00  0.00000000000E+00  0.20347782098E+03  0.20347782098E+03  0.00000000000E+00 0. -1.
          1   -1    0    0  501    0 -0.00000000000E+00 -0.00000000000E+00 -0.13733031259E+04  0.13733031259E+04  0.00000000000E+00 0. -1.
         25    2    1    2    0    0  0.80302564908E+01  0.20096402455E+02  0.10040082447E+03  0.16178114324E+03  0.12499784936E+03 0.  0.
          2    1    1    2  501    0 -0.76308330726E+02 -0.45077594157E+01 -0.13243089940E+04  0.13265133218E+04  0.00000000000E+00 0. -1.
          1    1    1    2  502    0  0.68278074235E+02 -0.15588643039E+02  0.54082864676E+02  0.88486481818E+02  0.00000000000E+00 0. -1.
         22    1    3    3    0    0 -0.18251314686E+01  0.53860967142E+02  0.11237170321E+03  0.12462637991E+03  0.00000000000E+00 0.  1.
         22    1    3    3    0    0  0.98553879594E+01 -0.33764564687E+02 -0.11970878748E+02  0.37154763333E+02  0.00000000000E+00 0.  1.
</event>
<event>
 7    1  0.5452757E-006  0.4004692E+02  0.7818608E-02  0.1516299E+00
          2   -1    0    0  502    0  0.00000000000E+00  0.00000000000E+00  0.13447972141E+04  0.13447972141E+04  0.00000000000E+00 0. -1.
          1   -1    0    0  501    0 -0.00000000000E+00 -0.00000000000E+00 -0.16258032351E+04  0.16258032351E+04  0.00000000000E+00 0. -1.
         25    2    1    2    0    0 -0.30003657030E+01  0.25251175386E+01  0.61471231281E+03  0.62730559521E+03  0.12500281535E+03 0.  0.
          2    1    1    2  501    0 -0.21150782291E+01 -0.40006083492E+02 -0.16187643233E+04  0.16192599837E+04  0.00000000000E+00 0. -1.
          1    1    1    2  502    0  0.51154439321E+01  0.37480965953E+02  0.72304598948E+03  0.72403487035E+03  0.00000000000E+00 0. -1.
         22    1    3    3    0    0 -0.20932198832E+02 -0.27570413472E+02  0.56729720674E+03  0.56835236027E+03  0.00000000000E+00 0.  1.
         22    1    3    3    0    0  0.17931833129E+02  0.30095531011E+02  0.47415106067E+02  0.58953234937E+02  0.00000000000E+00 0.  1.
</event>
<event>
 7    1  0.5452757E-006  0.7769725E+02  0.7818608E-02  0.1489138E+00
          2   -1    0    0  502    0  0.00000000000E+00  0.00000000000E+00  0.56637992051E+03  0.56637992051E+03  0.00000000000E+00 0. -1.
          1   -1    0    0  501    0 -0.00000000000E+00 -0.00000000000E+00 -0.45876872039E+03  0.45876872039E+03  0.00000000000E+00 0. -1.
         25    2    1    2    0    0 -0.87223312899E+02  0.18547909554E+02  0.32043815790E+03  0.35532508618E+03  0.12499349009E+03 0.  0.
          2    1    1    2  501    0  0.69684664241E+02 -0.34162341624E+02 -0.43729616115E+03  0.44412942997E+03  0.00000000000E+00 0. -1.
          1    1    1    2  502    0  0.17538648658E+02  0.15614432070E+02  0.22446920337E+03  0.22569412475E+03  0.00000000000E+00 0. -1.
         22    1    3    3    0    0  0.97637193916E+00  0.78838960954E+01 -0.10217346380E+02  0.12942306088E+02  0.00000000000E+00 0. -1.
         22    1    3    3    0    0 -0.88199684838E+02  0.10664013459E+02  0.33065550428E+03  0.34238278009E+03  0.00000000000E+00 0. -1.
</event>
<event>
 7    1  0.5452757E-006  0.9588824E+02  0.7818608E-02  0.1454674E+00
          2   -1    0    0  502    0  0.00000000000E+00  0.00000000000E+00  0.10924752539E+04  0.10924752539E+04  0.00000000000E+00 0. -1.
          1   -1    0    0  501    0 -0.00000000000E+00 -0.00000000000E+00 -0.29785942657E+03  0.29785942657E+03  0.00000000000E+00 0. -1.
         25    2    1    2    0    0 -0.80461014366E+02 -0.55562258180E+02  0.47332068192E+03  0.49921847104E+03  0.12500189809E+03 0.  0.
          2    1    1    2  501    0  0.17485150460E+02 -0.16932022440E+02 -0.28057744297E+03  0.28163118680E+03  0.00000000000E+00 0. -1.
          1    1    1    2  502    0  0.62975863906E+02  0.72494280620E+02  0.60187258836E+03  0.60948502260E+03  0.00000000000E+00 0. -1.
         22    1    3    3    0    0 -0.95004980859E+02 -0.75900676897E+02  0.44556918941E+03  0.46186444082E+03  0.00000000000E+00 0. -1.
         22    1    3    3    0    0  0.14543966493E+02  0.20338418717E+02  0.27751492515E+02  0.37354030225E+02  0.00000000000E+00 0. -1.
</event>
<event>
 7    1  0.5452757E-006  0.8377560E+02  0.7818608E-02  0.1424438E+00
          2   -1    0    0  502    0  0.00000000000E+00  0.00000000000E+00  0.20435490749E+04  0.20435490749E+04  0.00000000000E+00 0. -1.
          1   -1    0    0  501    0 -0.00000000000E+00 -0.00000000000E+00 -0.81853697965E+03  0.81853697965E+03  0.00000000000E+00 0. -1.
         25    2    1    2    0    0  0.30505516975E+01  0.85799073185E+02  0.15167116709E+04  0.15242725099E+04  0.12498641960E+03 0.  0.
          2    1    1    2  501    0  0.30960683589E+02 -0.77852516092E+02 -0.81201564200E+03  0.81632651620E+03  0.00000000000E+00 0. -1.
          1    1    1    2  502    0 -0.34011235286E+02 -0.79465570933E+01  0.52031606638E+03  0.52148702844E+03  0.00000000000E+00 0. -1.
         22    1    3    3    0    0  0.26766484288E+01 -0.16583540400E+02  0.81087927749E+03  0.81105325406E+03  0.00000000000E+00 0.  1.
         22    1    3    3    0    0  0.37390326869E+00  0.10238261359E+03  0.70583239339E+03  0.71321925585E+03  0.00000000000E+00 0.  1.
</event>
<event>
 7    1  0.5452757E-006  0.1746962E+03  0.7818608E-02  0.1182438E+00
          2   -1    0    0  502    0  0.00000000000E+00  0.00000000000E+00  0.25369863191E+03  0.25369863191E+03  0.00000000000E+00 0. -1.
          1   -1    0    0  501    0 -0.00000000000E+00 -0.00000000000E+00 -0.44786402587E+03  0.44786402587E+03  0.00000000000E+00 0. -1.
         25    2    1    2    0    0 -0.81270287813E+02 -0.16857868713E+03 -0.68645890157E+02  0.23528913113E+03  0.12500033422E+03 0.  0.
          2    1    1    2  501    0  0.18332804219E+03  0.49125235702E+02 -0.21393434676E+03  0.28599014766E+03  0.00000000000E+00 0. -1.
          1    1    1    2  502    0 -0.10205775437E+03  0.11945345143E+03  0.88414842956E+02  0.18028337899E+03  0.00000000000E+00 0. -1.
         22    1    3    3    0    0  0.10611119664E+02 -0.12032610138E+03 -0.29265717096E+02  0.12428776581E+03  0.00000000000E+00 0.  1.
         22    1    3    3    0    0 -0.91881407477E+02 -0.48252585753E+02 -0.39380173062E+02  0.11100136532E+03  0.00000000000E+00 0.  1.
</event>
<event>
 7    1  0.5452757E-006  0.8141396E+02  0.7818608E-02  0.1439728E+00
          2   -1    0    0  502    0  0.00000000000E+00  0.00000000000E+00  0.40826035324E+04  0.40826035324E+04  0.00000000000E+00 0. -1.
          1   -1    0    0  501    0 -0.00000000000E+00 -0.00000000000E+00 -0.49955597251E+02  0.49955597251E+02  0.00000000000E+00 0. -1.
         25    2    1    2    0    0  0.14053379857E+02 -0.11180919048E+03  0.17348279392E+04  0.17429721286E+04  0.12500027997E+03 0.  0.
          2    1    1    2  501    0 -0.79159635715E+01  0.80385033740E+02 -0.10137412829E+02  0.81407513581E+02  0.00000000000E+00 0. -1.
          1    1    1    2  502    0 -0.61374162860E+01  0.31424156736E+02  0.23079574087E+04  0.23081794874E+04  0.00000000000E+00 0. -1.
         22    1    3    3    0    0 -0.50227763599E+01 -0.15343093689E+02  0.21815149199E+02  0.27139261981E+02  0.00000000000E+00 0. -1.
         22    1    3    3    0    0  0.19076156217E+02 -0.96466096787E+02  0.17130127900E+04  0.17158328666E+04  0.00000000000E+00 0. -1.
</event>
<event>
 7    1  0.5452757E-006  0.5439829E+02  0.7818608E-02  0.1445111E+00
          2   -1    0    0  502    0  0.00000000000E+00  0.00000000000E+00  0.15503914885E+04  0.15503914885E+04  0.00000000000E+00 0. -1.
          1   -1    0    0  501    0 -0.00000000000E+00 -0.00000000000E+00 -0.90460290525E+03  0.90460290525E+03  0.00000000000E+00 0. -1.
         25    2    1    2    0    0  0.74364545370E+02  0.54437872542E+02  0.42814370396E+02  0.16109620734E+03  0.12500140052E+03 0.  0.
          2    1    1    2  501    0 -0.22091823587E+02 -0.40389040044E+02 -0.84432903193E+03  0.84558313452E+03  0.00000000000E+00 0. -1.
          1    1    1    2  502    0 -0.52272721783E+02 -0.14048832498E+02  0.14473032448E+04  0.14483150519E+04  0.00000000000E+00 0. -1.
         22    1    3    3    0    0  0.48663008472E+02 -0.78163795778E+01  0.72358961559E+02  0.87550005718E+02  0.00000000000E+00 0. -1.
         22    1    3    3    0    0  0.25701536898E+02  0.62254252120E+02 -0.29544591163E+02  0.73546201622E+02  0.00000000000E+00 0. -1.
</event>
<event>
 7    1  0.5452757E-006  0.1793950E+03  0.7818608E-02  0.1240255E+00
          2   -1    0    0  502    0  0.00000000000E+00  0.00000000000E+00  0.20280576980E+04  0.20280576980E+04  0.00000000000E+00 0. -1.
          1   -1    0    0  501    0 -0.00000000000E+00 -0.00000000000E+00 -0.57454022341E+04  0.57454022341E+04  0.00000000000E+00 0. -1.
         25    2    1    2    0    0  0.17587758367E+03  0.18159335033E+03 -0.56240110707E+03  0.62914983044E+03  0.12500173836E+03 0.  0.
          2    1    1    2  501    0 -0.13975894065E+03 -0.10729388539E+03 -0.51472633473E+04  0.51502780999E+04  0.00000000000E+00 0. -1.
          1    1    1    2  502    0 -0.36118643017E+02 -0.74299464947E+02  0.19923199183E+04  0.19940320017E+04  0.00000000000E+00 0. -1.
         22    1    3    3    0    0  0.11224574602E+03  0.18685555033E+03 -0.44450302505E+03  0.49507276583E+03  0.00000000000E+00 0. -1.
         22    1    3    3    0    0  0.63631837647E+02 -0.52621999973E+01 -0.11789808202E+03  0.13407706461E+03  0.00000000000E+00 0. -1.
</event>
<event>
 7    1  0.5452757E-006  0.7627875E+02  0.7818608E-02  0.1373732E+00
          2   -1    0    0  502    0  0.00000000000E+00  0.00000000000E+00  0.59638367523E+03  0.59638367523E+03  0.00000000000E+00 0. -1.
          1   -1    0    0  501    0 -0.00000000000E+00 -0.00000000000E+00 -0.24510564773E+03  0.24510564773E+03  0.00000000000E+00 0. -1.
         25    2    1    2    0    0 -0.31499352125E+02  0.17000924210E+01  0.82940594386E+02  0.15329689568E+03  0.12500278608E+03 0.  0.
          2    1    1    2  501    0 -0.38883491895E+02 -0.42155105163E+02 -0.20247093229E+03  0.21043634965E+03  0.00000000000E+00 0. -1.
          1    1    1    2  502    0  0.70382844020E+02  0.40455012742E+02  0.47080836540E+03  0.47775607764E+03  0.00000000000E+00 0. -1.
         22    1    3    3    0    0 -0.77304882881E+01  0.55901813566E+02  0.67739240649E+01  0.56838888592E+02  0.00000000000E+00 0.  1.
         22    1    3    3    0    0 -0.23768863837E+02 -0.54201721145E+02  0.76166670321E+02  0.96458007086E+02  0.00000000000E+00 0.  1.
</event>
<event>
 7    1  0.5452757E-006  0.4859463E+02  0.7818608E-02  0.1468680E+00
          2   -1    0    0  502    0  0.00000000000E+00  0.00000000000E+00  0.32775951739E+03  0.32775951739E+03  0.00000000000E+00 0. -1.
          1   -1    0    0  501    0 -0.00000000000E+00 -0.00000000000E+00 -0.14733216293E+04  0.14733216293E+04  0.00000000000E+00 0. -1.
         25    2    1    2    0    0 -0.71579373236E+02  0.35063297709E+02 -0.21332812284E+03  0.25978358183E+03  0.12500231948E+03 0.  0.
          2    1    1    2  501    0  0.48124916194E+02  0.14438855750E+01 -0.12347485031E+04  0.12356868366E+04  0.00000000000E+00 0. -1.
          1    1    1    2  502    0  0.23454457042E+02 -0.36507183284E+02  0.30251451404E+03  0.30561072820E+03  0.00000000000E+00 0. -1.
         22    1    3    3    0    0 -0.72436782105E+02  0.56628602301E+02 -0.71904188898E+02  0.11672231313E+03  0.00000000000E+00 0. -1.
         22    1    3    3    0    0  0.85740886900E+00 -0.21565304592E+02 -0.14142393394E+03  0.14306126871E+03  0.00000000000E+00 0. -1.
</event>
<event>
 7    1  0.5452757E-006  0.1483400E+03  0.7818608E-02  0.1330493E+00
          2   -1    0    0  502    0  0.00000000000E+00  0.00000000000E+00  0.22441181497E+04  0.22441181497E+04  0.00000000000E+00 0. -1.
          1   -1    0    0  501    0 -0.00000000000E+00 -0.00000000000E+00 -0.54321497261E+02  0.54321497261E+02  0.00000000000E+00 0. -1.
         25    2    1    2    0    0 -0.12242616775E+03 -0.63023022446E+02  0.61854823810E+03  0.64589991944E+03  0.12499886066E+03 0.  0.
          2    1    1    2  501    0  0.11276197912E+02 -0.41080760938E+02 -0.24766054283E+02  0.49276150452E+02  0.00000000000E+00 0. -1.
          1    1    1    2  502    0  0.11114996984E+03  0.10410378338E+03  0.15960144687E+04  0.16032635771E+04  0.00000000000E+00 0. -1.
         22    1    3    3    0    0 -0.12300356508E+03 -0.33780109251E+02  0.29974303399E+03  0.32575582762E+03  0.00000000000E+00 0.  1.
         22    1    3    3    0    0  0.57739732252E+00 -0.29242913195E+02  0.31880520410E+03  0.32014409181E+03  0.00000000000E+00 0.  1.
</event>
<event>
 7    1  0.5452757E-006  0.6863371E+02  0.7818608E-02  0.1456868E+00
          2   -1    0    0  502    0  0.00000000000E+00  0.00000000000E+00  0.31215187779E+02  0.31215187779E+02  0.00000000000E+00 0. -1.
          1   -1    0    0  501    0 -0.00000000000E+00 -0.00000000000E+00 -0.19168936715E+04  0.19168936715E+04  0.00000000000E+00 0. -1.
         25    2    1    2    0    0 -0.51404375723E+02  0.42776073597E+02 -0.55878697331E+03  0.57649049780E+03  0.12500484067E+03 0.  0.
          2    1    1    2  501    0  0.68175804906E+02 -0.13817942470E+02 -0.13353026045E+04  0.13371132793E+04  0.00000000000E+00 0. -1.
          1    1    1    2  502    0 -0.16771429184E+02 -0.28958131126E+02  0.84110941180E+01  0.34505082226E+02  0.00000000000E+00 0. -1.
         22    1    3    3    0    0  0.10558050515E+02  0.41978688385E+02 -0.44347754940E+03  0.44558503064E+03  0.00000000000E+00 0. -1.
         22    1    3    3    0    0 -0.61962426237E+02  0.79738521126E+00 -0.11530942392E+03  0.13090546716E+03  0.00000000000E+00 0. -1.
</event>
<event>
 7    1  0.5452757E-006  0.9554380E+02  0.7818608E-02  0.1356827E+00
          2   -1    0    0  502    0  0.00000000000E+00  0.00000000000E+00  0.98021156080E+03  0.98021156080E+03  0.00000000000E+00 0. -1.
          1   -1    0    0  501    0 -0.00000000000E+00 -0.00000000000E+00 -0.98697023335E+02  0.98697023335E+02  0.00000000000E+00 0. -1.
         25    2    1    2    0    0 -0.19654320401E+02 -0.11622683593E+03  0.47839286187E+02  0.17835007326E+03  0.12500072651E+03 0.  0.
          2    1    1    2  501    0 -0.22329892617E+02  0.84348053571E+02  0.25832269845E+02  0.90997386835E+02  0.00000000000E+00 0. -1.
          1    1    1    2  502    0  0.41984213017E+02  0.31878782355E+02  0.80784298144E+03  0.80956112404E+03  0.00000000000E+00 0. -1.
         22    1    3    3    0    0 -0.56481597006E+02 -0.75819197324E+01  0.18881731648E+02  0.60034790724E+02  0.00000000000E+00 0. -1.
         22    1    3    3    0    0  0.36827276605E+02 -0.10864491619E+03  0.28957554539E+02  0.11831528254E+03  0.00000000000E+00 0. -1.
</event>
<event>
 7    1  0.5452757E-006  0.5165719E+02  0.7818608E-02  0.1524633E+00
          2   -1    0    0  502    0  0.00000000000E+00  0.00000000000E+00  0.39860879306E+03  0.39860879306E+03  0.00000000000E+00 0. -1.
          1   -1    0    0  501    0 -0.00000000000E+00 -0.00000000000E+00 -0.18988584323E+03  0.18988584323E+03  0.00000000000E+00 0. -1.
         25    2    1    2    0    0  0.15700159733E+02 -0.25326233244E+02 -0.11063811846E+03  0.16956977507E+03  0.12500080902E+03 0.  0.
          2    1    1    2  501    0 -0.90336678291E+01 -0.26225313130E+02 -0.43919015043E+02  0.51944721441E+02  0.00000000000E+00 0. -1.
          1    1    1    2  502    0 -0.66664919042E+01  0.51551546374E+02  0.36328008333E+03  0.36698013978E+03  0.00000000000E+00 0. -1.
         22    1    3    3    0    0  0.28603993329E+02  0.32695794375E+02  0.60087796358E+00  0.43446109820E+02  0.00000000000E+00 0. -1.
         22    1    3    3    0    0 -0.12903833596E+02 -0.58022027620E+02 -0.11123899643E+03  0.12612366525E+03  0.00000000000E+00 0. -1.
</event>
<event>
 7    1  0.5452757E-006  0.5355986E+02  0.7818608E-02  0.1509725E+00
          2   -1    0    0  502    0  0.00000000000E+00  0.00000000000E+00  0.13667112707E+04  0.13667112707E+04  0.00000000000E+00 0. -1.
          1   -1    0    0  501    0 -0.00000000000E+00 -0.00000000000E+00 -0.43323909892E+04  0.43323909892E+04  0.00000000000E+00 0. -1.
         25    2    1    2    0    0  0.40439490653E+02  0.64723679390E+02 -0.14576585977E+04  0.14649978484E+04  0.12500240500E+03 0.  0.
          2    1    1    2  501    0 -0.14720491541E+02 -0.50136311266E+02 -0.28706646276E+04  0.28711401475E+04  0.00000000000E+00 0. -1.
          1    1    1    2  502    0 -0.25718999111E+02 -0.14587368124E+02  0.13626435068E+04  0.13629642640E+04  0.00000000000E+00 0. -1.
         22    1    3    3    0    0  0.37095223520E+02  0.10129730347E+03 -0.11800264415E+04  0.11849470882E+04  0.00000000000E+00 0.  1.
         22    1    3    3    0    0  0.33442671326E+01 -0.36573624082E+02 -0.27763215624E+03  0.28005076018E+03  0.00000000000E+00 0.  1.
</event>
<event>
 7    1  0.5452757E-006  0.7454400E+02  0.7818608E-02  0.1422679E+00
          2   -1    0    0  502    0  0.00000000000E+00  0.00000000000E+00  0.20341728458E+04  0.20341728458E+04  0.00000000000E+00 0. -1.
          1   -1    0    0  501    0 -0.00000000000E+00 -0.00000000000E+00 -0.10754636912E+04  0.10754636912E+04  0.00000000000E+00 0. -1.
         25    2    1    2    0    0  0.10655348857E+03 -0.12823636043E+02  0.36057938847E+03  0.39643418931E+03  0.12499791799E+03 0.  0.
          2    1    1    2  501    0 -0.33820513328E+02  0.20951805127E+02 -0.10563528875E+04  0.10571018060E+04  0.00000000000E+00 0. -1.
          1    1    1    2  502    0 -0.72732975237E+02 -0.81281690841E+01  0.16544826537E+04  0.16561005417E+04  0.00000000000E+00 0. -1.
         22    1    3    3    0    0 -0.28444375895E+02  0.34577177620E+01  0.57187823225E+02  0.63964720412E+02  0.00000000000E+00 0. -1.
         22    1    3    3    0    0  0.13499786446E+03 -0.16281353805E+02  0.30339156524E+03  0.33246946890E+03  0.00000000000E+00 0. -1.
</event>
<event>
 7    1  0.5452757E-006  0.5275235E+02  0.7818608E-02  0.1467373E+00
          2   -1    0    0  502    0  0.00000000000E+00  0.00000000000E+00  0.90793090336E+02  0.90793090336E+02  0.00000000000E+00 0. -1.
          1   -1    0    0  501    0 -0.00000000000E+00 -0.00000000000E+00 -0.14870490757E+04  0.14870490757E+04  0.00000000000E+00 0. -1.
         25    2    1    2    0    0 -0.89950905785E+02  0.17057395118E+02 -0.95265170907E+03  0.96516970951E+03  0.12500067674E+03 0.  0.
          2    1    1    2  501    0  0.40348978447E+02 -0.76212202723E-01 -0.51915056699E+03  0.52071619629E+03  0.00000000000E+00 0. -1.
          1    1    1    2  502    0  0.49601927339E+02 -0.16981182916E+02  0.75546290666E+02  0.91956260267E+02  0.00000000000E+00 0. -1.
         22    1    3    3    0    0 -0.80318792844E+02  0.18243208822E+02 -0.95187722437E+03  0.95543402359E+03  0.00000000000E+00 0. -1.
         22    1    3    3    0    0 -0.96321129410E+01 -0.11858137036E+01 -0.77448469752E+00  0.97356859232E+01  0.00000000000E+00 0. -1.
</event>
<event>
 7    1  0.5452757E-006  0.5304217E+02  0.7818608E-02  0.1475619E+00
          2   -1    0    0  502    0  0.00000000000E+00  0.00000000000E+00  0.87480301117E+03  0.87480301117E+03  0.00000000000E+00 0. -1.
          1   -1    0    0  501    0 -0.00000000000E+00 -0.00000000000E+00 -0.23231936354E+03  0.23231936354E+03  0.00000000000E+00 0. -1.
         25    2    1    2    0    0  0.15508246021E+02 -0.14523120168E+02  0.49486133786E+03  0.51084642577E+03  0.12499960121E+03 0.  0.
          2    1    1    2  501    0 -0.52712867230E+02  0.76632379996E+01 -0.22018071533E+03  0.22653237956E+03  0.00000000000E+00 0. -1.
          1    1    1    2  502    0  0.37204621209E+02  0.68598821686E+01  0.36780302510E+03  0.36974356937E+03  0.00000000000E+00 0. -1.
         22    1    3    3    0    0 -0.46838788063E+02 -0.32056475683E+02  0.30517443347E+03  0.31040767475E+03  0.00000000000E+00 0.  1.
         22    1    3    3    0    0  0.62347034083E+02  0.17533355515E+02  0.18968690439E+03  0.20043875102E+03  0.00000000000E+00 0.  1.
</event>
<event>
 7    1  0.5452757E-006  0.2375581E+03  0.7818608E-02  0.1284741E+00
          2   -1    0    0  502    0  0.00000000000E+00  0.00000000000E+00  0.16838547869E+04  0.16838547869E+04  0.00000000000E+00 0. -1.
          1   -1    0    0  501    0 -0.00000000000E+00 -0.00000000000E+00 -0.26129571482E+04  0.26129571482E+04  0.00000000000E+00 0. -1.
         25    2    1    2    0    0 -0.21806611779E+03  0.15527696804E+03  0.29528622391E+03  0.41771261566E+03  0.12500442681E+03 0.  0.
          2    1    1    2  501    0  0.18338993216E+02 -0.35951058741E+02 -0.25413874961E+04  0.25417079302E+04  0.00000000000E+00 0. -1.
          1    1    1    2  502    0  0.19972712458E+03 -0.11932590930E+03  0.13169989108E+04  0.13373913892E+04  0.00000000000E+00 0. -1.
         22    1    3    3    0    0 -0.12632454021E+03  0.34210235262E+02  0.77225425082E+02  0.15196050781E+03  0.00000000000E+00 0.  1.
         22    1    3    3    0    0 -0.91741577585E+02  0.12106673278E+03  0.21806079883E+03  0.26575210785E+03  0.00000000000E+00 0.  1.
</event>
<event>
 7    1  0.5452757E-006  0.5786516E+02  0.7818608E-02  0.1502151E+00
          2   -1    0    0  502    0  0.00000000000E+00  0.00000000000E+00  0.11637509589E+02  0.11637509589E+02  0.00000000000E+00 0. -1.
          1   -1    0    0  501    0 -0.00000000000E+00 -0.00000000000E+00 -0.17412053232E+04  0.17412053232E+04  0.00000000000E+00 0. -1.
         25    2    1    2    0    0 -0.35213701562E+02 -0.91382450219E+01 -0.84328353037E+03  0.85327312407E+03  0.12499759745E+03 0.  0.
          2    1    1    2  501    0 -0.18001760898E+02 -0.22503234951E+02 -0.74204817273E+03  0.74260753405E+03  0.00000000000E+00 0. -1.
          1    1    1    2  502    0  0.53215462460E+02  0.31641479973E+02 -0.14423611047E+03  0.15696217463E+03  0.00000000000E+00 0. -1.
         22    1    3    3    0    0 -0.37513377754E+02  0.53977331658E+02 -0.48988870060E+03  0.49427901515E+03  0.00000000000E+00 0. -1.
         22    1    3    3    0    0  0.22996761922E+01 -0.63115576680E+02 -0.35339482977E+03  0.35899410892E+03  0.00000000000E+00 0. -1.
</event>
<event>
 7    1  0.5452757E-006  0.8776221E+02  0.7818608E-02  0.1331417E+00
          2   -1    0    0  502    0  0.00000000000E+00  0.00000000000E+00  0.26080444459E+04  0.26080444459E+04  0.00000000000E+00 0. -1.
          1   -1    0    0  501    0 -0.00000000000E+00 -0.00000000000E+00 -0.12215467767E+04  0.12215467767E+04  0.00000000000E+00 0. -1.
         25    2    1    2    0    0  0.57186706230E+02  0.10620740611E+02  0.10619730842E+04  0.10708854394E+04  0.12500269302E+03 0.  0.
          2    1    1    2  501    0  0.75334589365E+01  0.71024840982E+02 -0.12142797575E+04  0.12163784816E+04  0.00000000000E+00 0. -1.
          1    1    1    2  502    0 -0.64720165167E+02 -0.81645581593E+02  0.15388043426E+04  0.15423273017E+04  0.00000000000E+00 0. -1.
         22    1    3    3    0    0  0.54958062640E+02  0.37370045278E+02  0.10118271373E+04  0.10140074283E+04  0.00000000000E+00 0.  1.
         22    1    3    3    0    0  0.22286435897E+01 -0.26749304668E+02  0.50145946847E+02  0.56878011020E+02  0.00000000000E+00 0.  1.
</event>
<event>
 7    1  0.5452757E-006  0.1046642E+03  0.7818608E-02  0.1384966E+00
          2   -1    0    0  502    0  0.00000000000E+00  0.00000000000E+00  0.12525222237E+04  0.12525222237E+04  0.00000000000E+00 0. -1.
          1   -1    0    0  501    0 -0.00000000000E+00 -0.00000000000E+00 -0.62123808432E+02  0.62123808432E+02  0.00000000000E+00 0. -1.
         25    2    1    2    0    0 -0.61272052239E+02 -0.38062261485E+02  0.26200332402E+03  0.29912209867E+03  0.12500115192E+03 0.  0.
          2    1    1    2  501    0 -0.33824136840E+02 -0.17610032472E+02 -0.31415992113E+02  0.49407995680E+02  0.00000000000E+00 0. -1.
          1    1    1    2  502    0  0.95096189079E+02  0.55672293957E+02  0.95981108335E+03  0.96611593777E+03  0.00000000000E+00 0. -1.
         22    1    3    3    0    0 -0.34690786372E+02 -0.83222216784E+02  0.18730321242E+03  0.20787467717E+03  0.00000000000E+00 0. -1.
         22    1    3    3    0    0 -0.26581265867E+02  0.45159955298E+02  0.74700111605E+02  0.91247421506E+02  0.00000000000E+00 0. -1.
</event>
<event>
 7    1  0.5452757E-006  0.1027212E+03  0.7818608E-02  0.1462104E+00
          2   -1    0    0  502    0  0.00000000000E+00  0.00000000000E+00  0.12216506724E+04  0.12216506724E+04  0.00000000000E+00 0. -1.
          1   -1    0    0  501    0 -0.00000000000E+00 -0.00000000000E+00 -0.27874877992E+02  0.27874877992E+02  0.00000000000E+00 0. -1.
         25    2    1    2    0    0 -0.88546584198E+02 -0.40028588418E+02  0.50039913626E+03  0.52485008887E+03  0.12500213902E+03 0.  0.
          2    1    1    2  501    0  0.33126467669E+01 -0.21267761693E+02 -0.18155071459E+01  0.21600633838E+02  0.00000000000E+00 0. -1.
          1    1    1    2  502    0  0.85233937431E+02  0.61296350111E+02  0.69519216525E+03  0.70307482764E+03  0.00000000000E+00 0. -1.
         22    1    3    3    0    0  0.27586213564E+02 -0.15771533673E+02  0.18829708395E+03  0.19095950429E+03  0.00000000000E+00 0. -1.
         22    1    3    3    0    0 -0.11613279776E+03 -0.24257054746E+02  0.31210205231E+03  0.33389058458E+03  0.00000000000E+00 0. -1.
</event>
<event>
 7    1  0.5452757E-006  0.7490916E+02  0.7818608E-02  0.1477417E+00
          2   -1    0    0  502    0  0.00000000000E+00  0.00000000000E+00  0.17976453728E+04  0.17976453728E+04  0.00000000000E+00 0. -1.
          1   -1    0    0  501    0 -0.00000000000E+00 -0.00000000000E+00 -0.37526800943E+02  0.37526800943E+02  0.00000000000E+00 0. -1.
         25    2    1    2    0    0  0.39431788423E+02 -0.46794029695E+02  0.17672635891E+03  0.22494961956E+03  0.12500231298E+03 0.  0.
          2    1    1    2  501    0 -0.11977671569E+02 -0.23580979002E+02  0.14611467192E+01  0.26488905917E+02  0.00000000000E+00 0. -1.
          1    1    1    2  502    0 -0.27454116854E+02  0.70375008697E+02  0.15819310662E+04  0.15837336482E+04  0.00000000000E+00 0. -1.
         22    1    3    3    0    0  0.59864123494E+02 -0.79243908020E+02  0.14153083171E+03  0.17289964304E+03  0.00000000000E+00 0.  1.
         22    1    3    3    0    0 -0.20432335071E+02  0.32449878325E+02  0.35195527209E+02  0.52049976516E+02  0.00000000000E+00 0.  1.
</event>
<event>
 7    1  0.5452757E-006  0.2221511E+03  0.7818608E-02  0.1272183E+00
          2   -1    0    0  502    0  0.00000000000E+00  0.00000000000E+00  0.14546182541E+04  0.14546182541E+04  0.00000000000E+00 0. -1.
          1   -1    0    0  501    0 -0.00000000000E+00 -0.00000000000E+00 -0.13530873445E+04  0.13530873445E+04  0.00000000000E+00 0. -1.
         25    2    1    2    0    0  0.23403397393E+03 -0.25242388868E+02  0.40814860487E+02  0.26962961015E+03  0.12500077872E+03 0.  0.
          2    1    1    2  501    0 -0.21089600745E+03  0.68037888993E+02 -0.12283064158E+04  0.12481357824E+04  0.00000000000E+00 0. -1.
          1    1    1    2  502    0 -0.23137966484E+02 -0.42795500125E+02  0.12890224649E+04  0.12899402061E+04  0.00000000000E+00 0. -1.
         22    1    3    3    0    0  0.15519896902E+03 -0.22367278925E+02  0.85877233547E+02  0.17877895400E+03  0.00000000000E+00 0. -1.
         22    1    3    3    0    0  0.78835004916E+02 -0.28751099433E+01 -0.45062373060E+02  0.90850656152E+02  0.00000000000E+00 0. -1.
</event>
<event>
 7    1  0.5452757E-006  0.1889550E+03  0.7818608E-02  0.1262541E+00
          2   -1    0    0  502    0  0.00000000000E+00  0.00000000000E+00  0.11222918286E+04  0.11222918286E+04  0.00000000000E+00 0. -1.
          1   -1    0    0  501    0 -0.00000000000E+00 -0.00000000000E+00 -0.14834669240E+04  0.14834669240E+04  0.00000000000E+00 0. -1.
         25    2    1    2    0    0  0.13417213328E+03 -0.78182272520E+02  0.47541527942E+02  0.20493890678E+03  0.12500051819E+03 0.  0.
          2    1    1    2  501    0 -0.13622483346E+01 -0.62796128775E+02 -0.13946391767E+04  0.13960528796E+04  0.00000000000E+00 0. -1.
          1    1    1    2  502    0 -0.13280988495E+03  0.14097840130E+03  0.98592255335E+03  0.10047669662E+04  0.00000000000E+00 0. -1.
         22    1    3    3    0    0  0.14578630645E+03 -0.53146753072E+02  0.69155343250E+02  0.16988433126E+03  0.00000000000E+00 0. -1.
         22    1    3    3    0    0 -0.11614173164E+02 -0.25035519448E+02 -0.21613815308E+02  0.35054575514E+02  0.00000000000E+00 0. -1.
</event>
<event>
 7    1  0.5452757E-006  0.1518988E+03  0.7818608E-02  0.1205686E+00
          2   -1    0    0  502    0  0.00000000000E+00  0.00000000000E+00  0.33367238588E+03  0.33367238588E+03  0.00000000000E+00 0. -1.
          1   -1    0    0  501    0 -0.00000000000E+00 -0.00000000000E+00 -0.48978146905E+03  0.48978146905E+03  0.00000000000E+00 0. -1.
         25    2    1    2    0    0 -0.11679165007E+03 -0.32018879043E+02  0.16897742257E+03  0.24257710219E+03  0.12499913211E+03 0.  0.
          2    1    1    2  501    0 -0.26751359861E+02 -0.14952457416E+03 -0.31442676558E+03  0.34919539579E+03  0.00000000000E+00 0. -1.
          1    1    1    2  502    0  0.14354300993E+03  0.18154345320E+03 -0.10659740167E+02  0.23168135695E+03  0.00000000000E+00 0. -1.
         22    1    3    3    0    0 -0.13247749207E+03 -0.25843562201E+02  0.17805419695E+03  0.22343113629E+03  0.00000000000E+00 0. -1.
         22    1    3    3    0    0  0.15685841999E+02 -0.61753168419E+01 -0.90767743777E+01  0.19145965904E+02  0.00000000000E+00 0. -1.
</event>
<event>
 7    1  0.5452757E-006  0.9788168E+02  0.7818608E-02  0.1400224E+00
          2   -1    0    0  502    0  0.00000000000E+00  0.00000000000E+00  0.16213931160E+04  0.16213931160E+04  0.00000000000E+00 0. -1.
          1   -1    0    0  501    0 -0.00000000000E+00 -0.00000000000E+00 -0.63107033020E+03  0.63107033020E+03  0.00000000000E+00 0. -1.
         25    2    1    2    0    0  0.93400417763E+01  0.86586729513E+02  0.33157361603E+02  0.15590900769E+03  0.12499483967E+03 0.  0.
          2    1    1    2  501    0 -0.35124634159E+02  0.82827508945E+01 -0.56753830404E+03  0.56868450870E+03  0.00000000000E+00 0. -1.
          1    1    1    2  502    0  0.25784592382E+02 -0.94869480408E+02  0.15247037283E+04  0.15278699299E+04  0.00000000000E+00 0. -1.
         22    1    3    3    0    0  0.13219530538E+02  0.18454955508E+02 -0.46060347306E+02  0.51350725062E+02  0.00000000000E+00 0.  1.
         22    1    3    3    0    0 -0.38794887619E+01  0.68131774006E+02  0.79217708909E+02  0.10455828263E+03  0.00000000000E+00 0.  1.
</event>
<event>
 7    1  0.5452757E-006  0.6483421E+02  0.7818608E-02  0.1406689E+00
          2   -1    0    0  502    0  0.00000000000E+00  0.00000000000E+00  0.24550537158E+03  0.24550537158E+03  0.00000000000E+00 0. -1.
          1   -1    0    0  501    0 -0.00000000000E+00 -0.00000000000E+00 -0.84593179036E+03  0.84593179036E+03  0.00000000000E+00 0. -1.
         25    2    1    2    0    0 -0.13423208707E+02  0.51885152730E+01  0.22611520255E+02  0.12784290632E+03  0.12500169849E+03 0.  0.
          2    1    1    2  501    0  0.54978827053E+02 -0.36076202409E+02 -0.78797855947E+03  0.79071763228E+03  0.00000000000E+00 0. -1.
          1    1    1    2  502    0 -0.41555618346E+02  0.30887687136E+02  0.16494062043E+03  0.17287662335E+03  0.00000000000E+00 0. -1.
         22    1    3    3    0    0 -0.60157318606E+01  0.37161814595E+02 -0.41370101650E+02  0.55934558230E+02  0.00000000000E+00 0.  1.
         22    1    3    3    0    0 -0.74074768468E+01 -0.31973299322E+02  0.63981621905E+02  0.71908348086E+02  0.00000000000E+00 0.  1.
</event>
<event>
 7    1  0.5452757E-006  0.9007372E+02  0.7818608E-02  0.1302829E+00
          2   -1    0    0  502    0  0.00000000000E+00  0.00000000000E+00  0.15830866181E+03  0.15830866181E+03  0.00000000000E+00 0. -1.
          1   -1    0    0  501    0 -0.00000000000E+00 -0.00000000000E+00 -0.97545179590E+03  0.97545179590E+03  0.00000000000E+00 0. -1.
         25    2    1    2    0    0  0.79179482547E+02  0.65518093241E+02 -0.18529463812E+03  0.24600885914E+03  0.12499697941E+03 0.  0.
          2    1    1    2  501    0  0.97572565295E+01 -0.89543677980E+02 -0.74012564294E+03  0.74558650850E+03  0.00000000000E+00 0. -1.
          1    1    1    2  502    0 -0.88936739077E+02  0.24025584739E+02  0.10827714697E+03  0.14216509007E+03  0.00000000000E+00 0. -1.
         22    1    3    3    0    0  0.10271238422E+03  0.12072085774E+02 -0.11932806327E+03  0.15790742798E+03  0.00000000000E+00 0. -1.
         22    1    3    3    0    0 -0.23532901674E+02  0.53446007467E+02 -0.65966574846E+02  0.88101431159E+02  0.00000000000E+00 0. -1.
</event>
<event>
 7    1  0.5452757E-006  0.4019654E+02  0.7818608E-02  0.1539707E+00
          2   -1    0    0  502    0  0.00000000000E+00  0.00000000000E+00  0.22902489578E+03  0.22902489578E+03  0.00000000000E+00 0. -1.
          1   -1    0    0  501    0 -0.00000000000E+00 -0.00000000000E+00 -0.52787598407E+03  0.52787598407E+03  0.00000000000E+00 0. -1.
         25    2    1    2    0    0 -0.84720682055E+01 -0.70443921551E+01 -0.22612047281E+03  0.25860709280E+03  0.12500304325E+03 0.  0.
          2    1    1    2  501    0  0.36770070378E+02  0.22578245171E+02 -0.28264103881E+03  0.28591567297E+03  0.00000000000E+00 0. -1.
          1    1    1    2  502    0 -0.28298002172E+02 -0.15533853015E+02  0.20991042333E+03  0.21237811407E+03  0.00000000000E+00 0. -1.
         22    1    3    3    0    0  0.52527416006E+02  0.18159280433E+02 -0.13587168879E+03  0.14679919861E+03  0.00000000000E+00 0.  1.
         22    1    3    3    0    0 -0.60999484211E+02 -0.25203672588E+02 -0.90248784013E+02  0.11180789418E+03  0.00000000000E+00 0.  1.
</event>
<event>
 7    1  0.8443809E-006  0.6312444E+02  0.7818608E-02  0.1403655E+00
          2   -1    0    0  502    0  0.00000000000E+00  0.00000000000E+00  0.18107445094E+04  0.18107445094E+04  0.00000000000E+00 0. -1.
          1   -1    0    0  501    0 -0.00000000000E+00 -0.00000000000E+00 -0.69831222031E+03  0.69831222031E+03  0.00000000000E+00 0. -1.
         25    2    1    2    0    0  0.13899315239E+02 -0.73052631120E+01 -0.56700615818E+02  0.13815473934E+03  0.12500085733E+03 0.  0.
          2    1    1    2  501    0 -0.23862378478E+02  0.60849467179E+02 -0.59868651382E+03  0.60224381491E+03  0.00000000000E+00 0. -1.
          1    1    1    2  502    0  0.99630632394E+01 -0.53544204067E+02  0.17678194187E+04  0.17686581754E+04  0.00000000000E+00 0. -1.
         22    1    3    3    0    0 -0.10639474413E+02 -0.15458546436E+02  0.36711459505E+02  0.41229799086E+02  0.00000000000E+00 0. -1.
         22    1    3    3    0    0  0.24538789652E+02  0.81532833238E+01 -0.93412075323E+02  0.96924940251E+02  0.00000000000E+00 0. -1.
</event>
<event>
 7    1  0.5452757E-006  0.7341973E+02  0.7818608E-02  0.1409642E+00
          2   -1    0    0  502    0  0.00000000000E+00  0.00000000000E+00  0.10788995492E+04  0.10788995492E+04  0.00000000000E+00 0. -1.
          1   -1    0    0  501    0 -0.00000000000E+00 -0.00000000000E+00 -0.17725317271E+04  0.17725317271E+04  0.00000000000E+00 0. -1.
         25    2    1    2    0    0 -0.57838887188E+02 -0.83160996454E+02  0.23240542791E+03  0.28266237562E+03  0.12499858986E+03 0.  0.
          2    1    1    2  501    0  0.14604865448E+02  0.71892559944E+02 -0.17460248647E+04  0.17475653551E+04  0.00000000000E+00 0. -1.
          1    1    1    2  502    0  0.43234021741E+02  0.11268436509E+02  0.81998725890E+03  0.82120354545E+03  0.00000000000E+00 0. -1.
         22    1    3    3    0    0 -0.13328888864E+02 -0.10869492597E+03  0.15440345266E+03  0.18929519910E+03  0.00000000000E+00 0. -1.
         22    1    3    3    0    0 -0.44509998325E+02  0.25533929518E+02  0.78001975250E+02  0.93367176515E+02  0.00000000000E+00 0. -1.
</event>
<event>
 7    1  0.5452757E-006  0.1065979E+03  0.7818608E-02  0.1269080E+00
          2   -1    0    0  502    0  0.00000000000E+00  0.00000000000E+00  0.12035779451E+04  0.12035779451E+04  0.00000000000E+00 0. -1.
          1   -1    0    0  501    0 -0.00000000000E+00 -0.00000000000E+00 -0.20692472630E+03  0.20692472630E+03  0.00000000000E+00 0. -1.
         25    2    1    2    0    0  0.24121932568E+02  0.40157816300E+01  0.21686498269E+03  0.25150335591E+03  0.12500209273E+03 0.  0.
          2    1    1    2  501    0 -0.50387859210E+02  0.99295456302E+02 -0.17001502392E+03  0.20323295096E+03  0.00000000000E+00 0. -1.
          1    1    1    2  502    0  0.26265926642E+02 -0.10331123793E+03  0.94980326001E+03  0.95576636450E+03  0.00000000000E+00 0. -1.
         22    1    3    3    0    0 -0.21661022669E+02 -0.24538799802E+02  0.52898764637E+01  0.33156227044E+02  0.00000000000E+00 0.  1.
         22    1    3    3    0    0  0.45782955237E+02  0.28554581432E+02  0.21157510623E+03  0.21834712887E+03  0.00000000000E+00 0.  1.
</event>
<event>
 7    1  0.5452757E-006  0.3668824E+02  0.7818608E-02  0.1565482E+00
          2   -1    0    0  502    0  0.00000000000E+00  0.00000000000E+00  0.16970174178E+04  0.16970174178E+04  0.00000000000E+00 0. -1.
          1   -1    0    0  501    0 -0.00000000000E+00 -0.00000000000E+00 -0.10228130241E+03  0.10228130241E+03  0.00000000000E+00 0. -1.
         25    2    1    2    0    0  0.32168771043E+02 -0.41035176188E+02  0.13370340147E+03  0.19032843803E+03  0.12501839562E+03 0.  0.
          2    1    1    2  501    0 -0.34751484959E+02  0.11158023286E+02 -0.69310460655E+02  0.78333308029E+02  0.00000000000E+00 0. -1.
          1    1    1    2  502    0  0.25827139158E+01  0.29877152902E+02  0.15303431746E+04  0.15306369742E+04  0.00000000000E+00 0. -1.
         22    1    3    3    0    0  0.11664082135E+02  0.44911598027E+02  0.55408590891E+02  0.72271809123E+02  0.00000000000E+00 0. -1.
         22    1    3    3    0    0  0.20504688908E+02 -0.85946774215E+02  0.78294810578E+02  0.11805662891E+03  0.00000000000E+00 0. -1.
</event>
<event>
 7    1  0.5452757E-006  0.9195933E+02  0.7818608E-02  0.1413676E+00
          2   -1    0    0  502    0  0.00000000000E+00  0.00000000000E+00  0.16957668445E+03  0.16957668445E+03  0.00000000000E+00 0. -1.
          1   -1    0    0  501    0 -0.00000000000E+00 -0.00000000000E+00 -0.38769836359E+04  0.38769836359E+04  0.00000000000E+00 0. -1.
         25    2    1    2    0    0  0.52582534011E+02 -0.42841697102E+02 -0.27713331867E+04  0.27749810095E+04  0.12502654797E+03 0.  0.
          2    1    1    2  501    0  0.33244359852E+02  0.94756406430E+01 -0.10908951229E+04  0.10914426895E+04  0.00000000000E+00 0. -1.
          1    1    1    2  502    0 -0.85826893863E+02  0.33366056459E+02  0.15482135811E+03  0.18013662138E+03  0.00000000000E+00 0. -1.
         22    1    3    3    0    0  0.78842290474E+02 -0.19434618753E+02 -0.99771453050E+03  0.10010135341E+04  0.00000000000E+00 0.  1.
         22    1    3    3    0    0 -0.26259756462E+02 -0.23407078349E+02 -0.17736186562E+04  0.17739674753E+04  0.00000000000E+00 0.  1.
</event>
<event>
 7    1  0.5452757E-006  0.1049797E+03  0.7818608E-02  0.1306677E+00
          2   -1    0    0  502    0  0.00000000000E+00  0.00000000000E+00  0.76385348318E+03  0.76385348318E+03  0.00000000000E+00 0. -1.
          1   -1    0    0  501    0 -0.00000000000E+00 -0.00000000000E+00 -0.28849655213E+03  0.28849655213E+03  0.00000000000E+00 0. -1.
         25    2    1    2    0    0 -0.86275456549E+02 -0.40845095866E+02  0.25045587524E+03  0.29574559117E+03  0.12500213198E+03 0.  0.
          2    1    1    2  501    0  0.39404861063E+02  0.98758900548E+02 -0.25221182701E+03  0.27370946129E+03  0.00000000000E+00 0. -1.
          1    1    1    2  502    0  0.46870595485E+02 -0.57913804682E+02  0.47711288283E+03  0.48289498285E+03  0.00000000000E+00 0. -1.
         22    1    3    3    0    0 -0.88023844353E+02 -0.34271348364E+02  0.26410836997E+03  0.28049234140E+03  0.00000000000E+00 0.  1.
         22    1    3    3    0    0  0.17483878045E+01 -0.65737475016E+01 -0.13652494738E+02  0.15253249775E+02  0.00000000000E+00 0.  1.
</event>
<event>
 7    1  0.5452757E-006  0.9056041E+02  0.7818608E-02  0.1432651E+00
          2   -1    0    0  502    0  0.00000000000E+00  0.00000000000E+00  0.10810582257E+04  0.10810582257E+04  0.00000000000E+00 0. -1.
          1   -1    0    0  501    0 -0.00000000000E+00 -0.00000000000E+00 -0.30384224899E+03  0.30384224899E+03  0.00000000000E+00 0. -1.
         25    2    1    2    0    0  0.32971562633E+02  0.92076480326E+02  0.79896714699E+02  0.17769027837E+03  0.12500059134E+03 0.  0.
          2    1    1    2  501    0  0.22358917911E+02 -0.20532331048E+02 -0.25188458461E+03  0.25370719696E+03  0.00000000000E+00 0. -1.
          1    1    1    2  502    0 -0.55330480544E+02 -0.71544149278E+02  0.94920384663E+03  0.95350299939E+03  0.00000000000E+00 0. -1.
         22    1    3    3    0    0 -0.11491159526E+02 -0.10150124696E+01 -0.26859524231E+02  0.29232020790E+02  0.00000000000E+00 0. -1.
         22    1    3    3    0    0  0.44462722159E+02  0.93091492795E+02  0.10675623893E+03  0.14845825758E+03  0.00000000000E+00 0. -1.
</event>
<event>
 7    1  0.5675294E-006  0.1279963E+03  0.7818608E-02  0.1351120E+00
          2   -1    0    0  502    0  0.00000000000E+00  0.00000000000E+00  0.12860460979E+04  0.12860460979E+04  0.00000000000E+00 0. -1.
          1   -1    0    0  501    0 -0.00000000000E+00 -0.00000000000E+00 -0.44025238445E+03  0.44025238445E+03  0.00000000000E+00 0. -1.
         25    2    1    2    0    0 -0.22016578587E+02  0.87355539406E+02 -0.55295371334E+02  0.16370062893E+03  0.12499839128E+03 0.  0.
          2    1    1    2  501    0  0.60899425995E+01  0.40849934074E+02 -0.32606085386E+03  0.32866622117E+03  0.00000000000E+00 0. -1.
          1    1    1    2  502    0  0.15926635988E+02 -0.12820547348E+03  0.12271499386E+04  0.12339316322E+04  0.00000000000E+00 0. -1.
         22    1    3    3    0    0  0.34574691145E+01 -0.17075574594E+01 -0.69826831475E+02  0.69933227002E+02  0.00000000000E+00 0.  1.
         22    1    3    3    0    0 -0.25474047702E+02  0.89063096865E+02  0.14531460141E+02  0.93767401923E+02  0.00000000000E+00 0.  1.
</event>
<event>
 7    1  0.5452757E-006  0.7570364E+02  0.7818608E-02  0.1408689E+00
          2   -1    0    0  502    0  0.00000000000E+00  0.00000000000E+00  0.11310629731E+03  0.11310629731E+03  0.00000000000E+00 0. -1.
          1   -1    0    0  501    0 -0.00000000000E+00 -0.00000000000E+00 -0.37635449177E+03  0.37635449177E+03  0.00000000000E+00 0. -1.
         25    2    1    2    0    0  0.22658669895E+01 -0.23451941867E+01  0.18016613921E+02  0.12633271596E+03  0.12499889061E+03 0.  0.
          2    1    1    2  501    0 -0.54268506496E+02 -0.52782297186E+02 -0.27707144772E+03  0.28722748621E+03  0.00000000000E+00 0. -1.
          1    1    1    2  502    0  0.52002639507E+02  0.55127491373E+02 -0.41933606645E+01  0.75900586917E+02  0.00000000000E+00 0. -1.
         22    1    3    3    0    0 -0.49063626318E+02  0.35688504030E+01  0.46191902052E+02  0.67480870888E+02  0.00000000000E+00 0.  1.
         22    1    3    3    0    0  0.51329493307E+02 -0.59140445897E+01 -0.28175288131E+02  0.58851845068E+02  0.00000000000E+00 0.  1.
</event>
<event>
 7    1  0.5452757E-006  0.1789631E+03  0.7818608E-02  0.1330834E+00
          2   -1    0    0  502    0  0.00000000000E+00  0.00000000000E+00  0.35878495164E+03  0.35878495164E+03  0.00000000000E+00 0. -1.
          1   -1    0    0  501    0 -0.00000000000E+00 -0.00000000000E+00 -0.10174215544E+04  0.10174215544E+04  0.00000000000E+00 0. -1.
         25    2    1    2    0    0 -0.13286536382E+03 -0.10435445655E+03 -0.47207347728E+03  0.51674115949E+03  0.12500000184E+03 0.  0.
          2    1    1    2  501    0  0.16482005618E+03  0.89579803768E+02 -0.50519264984E+03  0.53889684135E+03  0.00000000000E+00 0. -1.
          1    1    1    2  502    0 -0.31954692356E+02  0.14774652782E+02  0.31862952436E+03  0.32056850519E+03  0.00000000000E+00 0. -1.
         22    1    3    3    0    0  0.99066627356E+01 -0.59576782913E+02 -0.14435681109E+03  0.15648138527E+03  0.00000000000E+00 0. -1.
         22    1    3    3    0    0 -0.14277202656E+03 -0.44777673638E+02 -0.32771666619E+03  0.36025977422E+03  0.00000000000E+00 0. -1.
</event>
<event>
 7    1  0.5452757E-006  0.8956243E+02  0.7818608E-02  0.1356986E+00
          2   -1    0    0  502    0  0.00000000000E+00  0.00000000000E+00  0.34428435908E+03  0.34428435908E+03  0.00000000000E+00 0. -1.
          1   -1    0    0  501    0 -0.00000000000E+00 -0.00000000000E+00 -0.23626203522E+04  0.23626203522E+04  0.00000000000E+00 0. -1.
         25    2    1    2    0    0 -0.12590908420E+03 -0.23236232079E+02 -0.17325457462E+04  0.17417611792E+04  0.12499689013E+03 0.  0.
          2    1    1    2  501    0  0.71631330255E+02  0.88154599333E+01 -0.62104141731E+03  0.62522092241E+03  0.00000000000E+00 0. -1.
          1    1    1    2  502    0  0.54277753949E+02  0.14420772146E+02  0.33525117047E+03  0.33992260964E+03  0.00000000000E+00 0. -1.
         22    1    3    3    0    0 -0.14415599089E+03 -0.40950359331E+02 -0.13307604911E+04  0.13391718958E+04  0.00000000000E+00 0.  1.
         22    1    3    3    0    0  0.18246906681E+02  0.17714127252E+02 -0.40178525510E+03  0.40258928342E+03  0.00000000000E+00 0.  1.
</event>
<event>
 7    1  0.5452757E-006  0.1244636E+03  0.7818608E-02  0.1238599E+00
          2   -1    0    0  502    0  0.00000000000E+00  0.00000000000E+00  0.19273516895E+04  0.19273516895E+04  0.00000000000E+00 0. -1.
          1   -1    0    0  501    0 -0.00000000000E+00 -0.00000000000E+00 -0.60088868982E+02  0.60088868982E+02  0.00000000000E+00 0. -1.
         25    2    1    2    0    0  0.88958516337E+02 -0.83945172842E+02  0.14560359390E+04  0.14665012346E+04  0.12499922273E+03 0.  0.
          2    1    1    2  501    0  0.81852087222E+02  0.89243988640E+02  0.71440998933E+02  0.14059896877E+03  0.00000000000E+00 0. -1.
          1    1    1    2  502    0 -0.17081060356E+03 -0.52988157983E+01  0.33978588256E+03  0.38034035511E+03  0.00000000000E+00 0. -1.
         22    1    3    3    0    0  0.10455688570E+03 -0.10530823579E+03  0.12463096411E+04  0.12551134165E+04  0.00000000000E+00 0.  1.
         22    1    3    3    0    0 -0.15598369358E+02  0.21363062946E+02  0.20972629789E+03  0.21138781803E+03  0.00000000000E+00 0.  1.
</event>
<event>
 7    1  0.5452757E-006  0.4475671E+02  0.7818608E-02  0.1566678E+00
          2   -1    0    0  502    0  0.00000000000E+00  0.00000000000E+00  0.28328118024E+02  0.28328118024E+02  0.00000000000E+00 0. -1.
          1   -1    0    0  501    0 -0.00000000000E+00 -0.00000000000E+00 -0.84875182289E+03  0.84875182289E+03  0.00000000000E+00 0. -1.
         25    2    1    2    0    0  0.52564024865E+02  0.30100645673E+02 -0.28991414860E+03  0.32147255230E+03  0.12500145094E+03 0.  0.
          2    1    1    2  501    0 -0.24271899307E+02  0.24801830948E+01 -0.50477797885E+03  0.50536727667E+03  0.00000000000E+00 0. -1.
          1    1    1    2  502    0 -0.28292125558E+02 -0.32580828767E+02 -0.25731577412E+02  0.50240111941E+02  0.00000000000E+00 0. -1.
         22    1    3    3    0    0 -0.26420728661E+02  0.25585392358E+02 -0.19248841104E+03  0.19597054776E+03  0.00000000000E+00 0. -1.
         22    1    3    3    0    0  0.78984753526E+02  0.45152533148E+01 -0.97425737563E+02  0.12550200453E+03  0.00000000000E+00 0. -1.
</event>
<event>
 7    1  0.5452757E-006  0.1385341E+03  0.7818608E-02  0.1254292E+00
          2   -1    0    0  502    0  0.00000000000E+00  0.00000000000E+00  0.37955706439E+02  0.37955706439E+02  0.00000000000E+00 0. -1.
          1   -1    0    0  501    0 -0.00000000000E+00 -0.00000000000E+00 -0.22065753886E+04  0.22065753886E+04  0.00000000000E+00 0. -1.
         25    2    1    2    0    0  0.10376803669E+03 -0.38652944749E+02 -0.35311977491E+03  0.39061544165E+03  0.12499996896E+03 0.  0.
          2    1    1    2  501    0  0.76147770870E+02  0.53259572880E+02 -0.13712356833E+04  0.13743807203E+04  0.00000000000E+00 0. -1.
          1    1    1    2  502    0 -0.17991580756E+03 -0.14606628131E+02 -0.44426422389E+03  0.47953493306E+03  0.00000000000E+00 0. -1.
         22    1    3    3    0    0  0.12510834596E+02  0.27587160139E+02 -0.14249170362E+02  0.33475532002E+02  0.00000000000E+00 0. -1.
         22    1    3    3    0    0  0.91257202098E+02 -0.66240104888E+02 -0.33887060455E+03  0.35713990964E+03  0.00000000000E+00 0. -1.
</event>
<event>
 7    1  0.5452757E-006  0.1592296E+03  0.7818608E-02  0.1305798E+00
          2   -1    0    0  502    0  0.00000000000E+00  0.00000000000E+00  0.57599083482E+03  0.57599083482E+03  0.00000000000E+00 0. -1.
          1   -1    0    0  501    0 -0.00000000000E+00 -0.00000000000E+00 -0.10452648377E+04  0.10452648377E+04  0.00000000000E+00 0. -1.
         25    2    1    2    0    0 -0.71778175972E+02  0.19133758952E+03 -0.11037419432E+03  0.26375902521E+03  0.12499672356E+03 0.  0.
          2    1    1    2  501    0  0.58627753409E+02 -0.14359952970E+03 -0.84993459278E+03  0.86397155648E+03  0.00000000000E+00 0. -1.
          1    1    1    2  502    0  0.13150422563E+02 -0.47738059816E+02  0.49103478421E+03  0.49352509083E+03  0.00000000000E+00 0. -1.
         22    1    3    3    0    0  0.30053799665E+02  0.14689086076E+02 -0.28826083495E+02  0.44158161348E+02  0.00000000000E+00 0. -1.
         22    1    3    3    0    0 -0.10183197564E+03  0.17664850344E+03 -0.81548110827E+02  0.21960086386E+03  0.00000000000E+00 0. -1.
</event>
<event>
 7    1  0.5452757E-006  0.1480773E+03  0.7818608E-02  0.1217573E+00
          2   -1    0    0  502    0  0.00000000000E+00  0.00000000000E+00  0.72293958569E+03  0.72293958569E+03  0.00000000000E+00 0. -1.
          1   -1    0    0  501    0 -0.00000000000E+00 -0.00000000000E+00 -0.99618156652E+02  0.99618156652E+02  0.00000000000E+00 0. -1.
         25    2    1    2    0    0 -0.74360175887E+02 -0.11886048648E+03  0.94504768891E+02  0.21026974747E+03  0.12499985742E+03 0.  0.
          2    1    1    2  501    0 -0.72757719732E+02  0.13568901757E+03  0.20646216507E+03  0.25754964740E+03  0.00000000000E+00 0. -1.
          1    1    1    2  502    0  0.14711789562E+03 -0.16828531089E+02  0.32235449508E+03  0.35473834747E+03  0.00000000000E+00 0. -1.
         22    1    3    3    0    0 -0.88282947531E+02 -0.86986959173E+02  0.16717339645E+02  0.12506030280E+03  0.00000000000E+00 0.  1.
         22    1    3    3    0    0  0.13922771644E+02 -0.31873527306E+02  0.77787429246E+02  0.85209444676E+02  0.00000000000E+00 0.  1.
</event>
<event>
 7    1  0.5452757E-006  0.1137537E+03  0.7818608E-02  0.1394845E+00
          2   -1    0    0  502    0  0.00000000000E+00  0.00000000000E+00  0.29631431511E+04  0.29631431511E+04  0.00000000000E+00 0. -1.
          1   -1    0    0  501    0 -0.00000000000E+00 -0.00000000000E+00 -0.19971527565E+03  0.19971527565E+03  0.00000000000E+00 0. -1.
         25    2    1    2    0    0  0.53735235672E+02 -0.71272820223E+02  0.12069892154E+04  0.12167233693E+04  0.12500200312E+03 0.  0.
          2    1    1    2  501    0 -0.48567102101E+02  0.10326689250E+03 -0.17797490129E+03  0.21141873139E+03  0.00000000000E+00 0. -1.
          1    1    1    2  502    0 -0.51681335720E+01 -0.31994072275E+02  0.17344135613E+04  0.17347163261E+04  0.00000000000E+00 0. -1.
         22    1    3    3    0    0 -0.10077122622E+02  0.28796068044E+02  0.38546765955E+03  0.38667308995E+03  0.00000000000E+00 0. -1.
         22    1    3    3    0    0  0.63812358294E+02 -0.10006888827E+03  0.82152155584E+03  0.83005027931E+03  0.00000000000E+00 0. -1.
</event>
<event>
 7    1  0.5452757E-006  0.1345316E+03  0.7818608E-02  0.1417895E+00
          2   -1    0    0  502    0  0.00000000000E+00  0.00000000000E+00  0.28599706948E+03  0.28599706948E+03  0.00000000000E+00 0. -1.
          1   -1    0    0  501    0 -0.00000000000E+00 -0.00000000000E+00 -0.78271260675E+03  0.78271260675E+03  0.00000000000E+00 0. -1.
         25    2    1    2    0    0  0.11104840062E+03 -0.49657329632E+02 -0.26220417592E+03  0.31491867823E+03  0.12500058543E+03 0.  0.
          2    1    1    2  501    0  0.19147407144E+02  0.12507303911E+02 -0.47620758431E+03  0.47675645691E+03  0.00000000000E+00 0. -1.
          1    1    1    2  502    0 -0.13019580776E+03  0.37150025721E+02  0.24169622296E+03  0.27703454110E+03  0.00000000000E+00 0. -1.
         22    1    3    3    0    0  0.12063262834E+03 -0.23850558260E+02 -0.25961923676E+03  0.28726856466E+03  0.00000000000E+00 0.  1.
         22    1    3    3    0    0 -0.95842277196E+01 -0.25806771373E+02 -0.25849391662E+01  0.27650113565E+02  0.00000000000E+00 0.  1.
</event>
<event>
 7    1  0.5452757E-006  0.1550991E+03  0.7818608E-02  0.1297606E+00
          2   -1    0    0  502    0  0.00000000000E+00  0.00000000000E+00  0.48727425995E+02  0.48727425995E+02  0.00000000000E+00 0. -1.
          1   -1    0    0  501    0 -0.00000000000E+00 -0.00000000000E+00 -0.25660674965E+04  0.25660674965E+04  0.00000000000E+00 0. -1.
         25    2    1    2    0    0  0.14321638686E+03  0.92540764605E+02 -0.10510922805E+04  0.10721448735E+04  0.12499968439E+03 0.  0.
          2    1    1    2  501    0 -0.47228393085E+02  0.27816311221E+02 -0.13464971296E+04  0.13476122544E+04  0.00000000000E+00 0. -1.
          1    1    1    2  502    0 -0.95987993771E+02 -0.12035707583E+03 -0.11975066051E+03  0.19503779465E+03  0.00000000000E+00 0. -1.
         22    1    3    3    0    0  0.40719464752E+02 -0.29588409695E+02 -0.19922294359E+03  0.20548316245E+03  0.00000000000E+00 0.  1.
         22    1    3    3    0    0  0.10249692210E+03  0.12212917430E+03 -0.85186933691E+03  0.86666171106E+03  0.00000000000E+00 0.  1.
</event>
<event>
 7    1  0.5452757E-006  0.1194341E+03  0.7818608E-02  0.1446181E+00
          2   -1    0    0  502    0  0.00000000000E+00  0.00000000000E+00  0.12899393887E+04  0.12899393887E+04  0.00000000000E+00 0. -1.
          1   -1    0    0  501    0 -0.00000000000E+00 -0.00000000000E+00 -0.20651880968E+03  0.20651880968E+03  0.00000000000E+00 0. -1.
         25    2    1    2    0    0 -0.76562333777E+02  0.11565418211E+03  0.81299287617E+03  0.83415713503E+03  0.12499211347E+03 0.  0.
          2    1    1    2  501    0  0.60413081806E+02 -0.10254173449E+03 -0.17760019218E+03  0.21379049564E+03  0.00000000000E+00 0. -1.
          1    1    1    2  502    0  0.16149251972E+02 -0.13112447618E+02  0.44802789504E+03  0.44851056772E+03  0.00000000000E+00 0. -1.
         22    1    3    3    0    0  0.18000143901E+02 -0.12202699885E+02  0.46399453003E+02  0.51242758552E+02  0.00000000000E+00 0.  1.
         22    1    3    3    0    0 -0.94562477679E+02  0.12785688199E+03  0.76659342316E+03  0.78291437648E+03  0.00000000000E+00 0.  1.
</event>
<event>
 7    1  0.5452757E-006  0.1147014E+03  0.7818608E-02  0.1313165E+00
          2   -1    0    0  502    0  0.00000000000E+00  0.00000000000E+00  0.30526500851E+03  0.30526500851E+03  0.00000000000E+00 0. -1.
          1   -1    0    0  501    0 -0.00000000000E+00 -0.00000000000E+00 -0.27154342784E+03  0.27154342784E+03  0.00000000000E+00 0. -1.
         25    2    1    2    0    0  0.13581864592E+03  0.61074012071E+02 -0.65295659763E+02  0.20510100289E+03  0.12500463460E+03 0.  0.
          2    1    1    2  501    0 -0.23511305306E+02 -0.59837055285E+02 -0.11400902043E+03  0.13088663569E+03  0.00000000000E+00 0. -1.
          1    1    1    2  502    0 -0.11230734061E+03 -0.12369567860E+01  0.21302626087E+03  0.24082079777E+03  0.00000000000E+00 0. -1.
         22    1    3    3    0    0  0.15069717213E+03  0.62364924389E+02 -0.82123806697E+02  0.18260159120E+03  0.00000000000E+00 0.  1.
         22    1    3    3    0    0 -0.14878526216E+02 -0.12909123187E+01  0.16828146934E+02  0.22499411686E+02  0.00000000000E+00 0.  1.
</event>
<event>
 7    1  0.5452757E-006  0.5596246E+02  0.7818608E-02  0.1421856E+00
          2   -1    0    0  502    0  0.00000000000E+00  0.00000000000E+00  0.50014118858E+02  0.50014118858E+02  0.00000000000E+00 0. -1.
          1   -1    0    0  501    0 -0.00000000000E+00 -0.00000000000E+00 -0.20961454267E+04  0.20961454267E+04  0.00000000000E+00 0. -1.
         25    2    1    2    0    0 -0.46037030882E+02 -0.77488175368E+02 -0.47869069163E+03  0.50288333559E+03  0.12499218143E+03 0.  0.
          2    1    1    2  501    0  0.49529662985E+02  0.24272897379E+02 -0.15858873042E+04  0.15868462127E+04  0.00000000000E+00 0. -1.
          1    1    1    2  502    0 -0.34926321026E+01  0.53215277989E+02  0.18446688034E+02  0.56429997252E+02  0.00000000000E+00 0. -1.
         22    1    3    3    0    0 -0.56080735286E+02 -0.90944558589E+02 -0.22977443956E+03  0.25340137072E+03  0.00000000000E+00 0.  1.
         22    1    3    3    0    0  0.10043704404E+02  0.13456383221E+02 -0.24891625208E+03  0.24948196487E+03  0.00000000000E+00 0.  1.
</event>
<event>
 7    1  0.5452757E-006  0.4011863E+02  0.7818608E-02  0.1541085E+00
          2   -1    0    0  502    0  0.00000000000E+00  0.00000000000E+00  0.14905827094E+04  0.14905827094E+04  0.00000000000E+00 0. -1.
          1   -1    0    0  501    0 -0.00000000000E+00 -0.00000000000E+00 -0.10331891388E+04  0.10331891388E+04  0.00000000000E+00 0. -1.
         25    2    1    2    0    0 -0.52598235244E+02  0.30904950297E+02  0.37943974307E+03  0.40412966741E+03  0.12499831662E+03 0.  0.
          2    1    1    2  501    0  0.20726986285E+02 -0.34333720505E+02 -0.10202163242E+04  0.10210042901E+04  0.00000000000E+00 0. -1.
          1    1    1    2  502    0  0.31871248959E+02  0.34287702079E+01  0.10981701516E+04  0.10986378907E+04  0.00000000000E+00 0. -1.
         22    1    3    3    0    0 -0.75433984230E+02  0.61738395889E+02  0.30773841246E+03  0.32280775394E+03  0.00000000000E+00 0. -1.
         22    1    3    3    0    0  0.22835748986E+02 -0.30833445592E+02  0.71701330609E+02  0.81321913467E+02  0.00000000000E+00 0. -1.
</event>
<event>
 7    1  0.5452757E-006  0.9046018E+02  0.7818608E-02  0.1454099E+00
          2   -1    0    0  502    0  0.00000000000E+00  0.00000000000E+00  0.23189867061E+03  0.23189867061E+03  0.00000000000E+00 0. -1.
          1   -1    0    0  501    0 -0.00000000000E+00 -0.00000000000E+00 -0.69419269151E+03  0.69419269151E+03  0.00000000000E+00 0. -1.
         25    2    1    2    0    0  0.71466445233E+02  0.25497798115E+02 -0.20038833883E+03  0.24806628734E+03  0.12499522420E+03 0.  0.
          2    1    1    2  501    0 -0.92983917079E+02 -0.11065972128E+02 -0.46446762893E+03  0.47381287751E+03  0.00000000000E+00 0. -1.
          1    1    1    2  502    0  0.21517471846E+02 -0.14431825987E+02  0.20256194686E+03  0.20421219726E+03  0.00000000000E+00 0. -1.
         22    1    3    3    0    0  0.71806128614E+02  0.38433094604E+02 -0.21418733328E+03  0.22914937618E+03  0.00000000000E+00 0. -1.
         22    1    3    3    0    0 -0.33968338102E+00 -0.12935296488E+02  0.13798994448E+02  0.18916911160E+02  0.00000000000E+00 0. -1.
</event>
<event>
 7    1  0.5452757E-006  0.8652457E+02  0.7818608E-02  0.1434705E+00
          2   -1    0    0  502    0  0.00000000000E+00  0.00000000000E+00  0.11305287889E+04  0.11305287889E+04  0.00000000000E+00 0. -1.
          1   -1    0    0  501    0 -0.00000000000E+00 -0.00000000000E+00 -0.36257723004E+02  0.36257723004E+02  0.00000000000E+00 0. -1.
         25    2    1    2    0    0 -0.30204862013E+02 -0.10477545144E+03  0.17851244108E+03  0.24368245381E+03  0.12499687102E+03 0.  0.
          2    1    1    2  501    0 -0.95571551781E+01  0.29788169575E+02  0.23370110400E+03  0.23578566596E+03  0.00000000000E+00 0. -1.
          1    1    1    2  502    0  0.39762017191E+02  0.74987281867E+02  0.68205752082E+03  0.68731839213E+03  0.00000000000E+00 0. -1.
         22    1    3    3    0    0 -0.75525417659E+02 -0.36723826739E+02  0.95318957385E+02  0.12703712764E+03  0.00000000000E+00 0. -1.
         22    1    3    3    0    0  0.45320555646E+02 -0.68051624703E+02  0.83193483692E+02  0.11664532617E+03  0.00000000000E+00 0. -1.
</event>
<event>
 7    1  0.5452757E-006  0.7999582E+02  0.7818608E-02  0.1423026E+00
          2   -1    0    0  502    0  0.00000000000E+00  0.00000000000E+00  0.77897108893E+02  0.77897108893E+02  0.00000000000E+00 0. -1.
          1   -1    0    0  501    0 -0.00000000000E+00 -0.00000000000E+00 -0.15346651349E+04  0.15346651349E+04  0.00000000000E+00 0. -1.
         25    2    1    2    0    0 -0.32319990023E+02 -0.36041947980E+02 -0.15731585057E+03  0.20668052445E+03  0.12499983430E+03 0.  0.
          2    1    1    2  501    0  0.37199989163E+02  0.72693217377E+02 -0.13448527889E+04  0.13473296430E+04  0.00000000000E+00 0. -1.
          1    1    1    2  502    0 -0.48799991402E+01 -0.36651269397E+02  0.45400613483E+02  0.58552076348E+02  0.00000000000E+00 0. -1.
         22    1    3    3    0    0  0.18680607698E+02 -0.65657571042E+01 -0.14519697820E+03  0.14654090469E+03  0.00000000000E+00 0. -1.
         22    1    3    3    0    0 -0.51000597721E+02 -0.29476190876E+02 -0.12118872377E+02  0.60139619754E+02  0.00000000000E+00 0. -1.
</event>
<event>
 7    1  0.5452757E-006  0.1207473E+03  0.7818608E-02  0.1315073E+00
          2   -1    0    0  502    0  0.00000000000E+00  0.00000000000E+00  0.21906818358E+04  0.21906818358E+04  0.00000000000E+00 0. -1.
          1   -1    0    0  501    0 -0.00000000000E+00 -0.00000000000E+00 -0.21577672084E+03  0.21577672084E+03  0.00000000000E+00 0. -1.
         25    2    1    2    0    0  0.92141927120E+02 -0.10910352341E+03  0.11020720776E+04  0.11182933307E+04  0.12499358346E+03 0.  0.
          2    1    1    2  501    0 -0.10904758860E+03  0.51503806273E+02 -0.18923788741E+03  0.22439919045E+03  0.00000000000E+00 0. -1.
          1    1    1    2  502    0  0.16905661484E+02  0.57599717133E+02  0.10620709249E+04  0.10637660355E+04  0.00000000000E+00 0. -1.
         22    1    3    3    0    0  0.95695359177E+02 -0.98207063055E+02  0.10973721064E+04  0.11059058590E+04  0.00000000000E+00 0.  1.
         22    1    3    3    0    0 -0.35534320569E+01 -0.10896460350E+02  0.46999711209E+01  0.12387471739E+02  0.00000000000E+00 0.  1.
</event>
<event>
 7    1  0.5452757E-006  0.5050322E+02  0.7818608E-02  0.1502045E+00
          2   -1    0    0  502    0  0.00000000000E+00  0.00000000000E+00  0.25916343588E+04  0.25916343588E+04  0.00000000000E+00 0. -1.
          1   -1    0    0  501    0 -0.00000000000E+00 -0.00000000000E+00 -0.85164561223E+03  0.85164561223E+03  0.00000000000E+00 0. -1.
         25    2    1    2    0    0 -0.26871914767E+02  0.76680124563E+02  0.75246846273E+02  0.16699967994E+03  0.12499945568E+03 0.  0.
          2    1    1    2  501    0  0.18689232676E+01 -0.32989771214E+02 -0.80517387785E+03  0.80585159394E+03  0.00000000000E+00 0. -1.
          1    1    1    2  502    0  0.25002991499E+02 -0.43690353349E+02  0.24699157782E+04  0.24704286972E+04  0.00000000000E+00 0. -1.
         22    1    3    3    0    0  0.40174760759E+02  0.11673692858E+02 -0.71694898003E+01  0.42446296553E+02  0.00000000000E+00 0. -1.
         22    1    3    3    0    0 -0.67046675526E+02  0.65006431705E+02  0.82416336073E+02  0.12455338339E+03  0.00000000000E+00 0. -1.
</event>
<event>
 7    1  0.5452757E-006  0.1082401E+03  0.7818608E-02  0.1328370E+00
          2   -1    0    0  502    0  0.00000000000E+00  0.00000000000E+00  0.11501553414E+03  0.11501553414E+03  0.00000000000E+00 0. -1.
          1   -1    0    0  501    0 -0.00000000000E+00 -0.00000000000E+00 -0.10517466262E+04  0.10517466262E+04  0.00000000000E+00 0. -1.
         25    2    1    2    0    0 -0.98437575817E+02 -0.10591039197E+03 -0.14958177171E+03  0.24270675746E+03  0.12499958493E+03 0.  0.
          2    1    1    2  501    0  0.39393210711E+02  0.98691323584E+02 -0.83866169317E+03  0.84536692506E+03  0.00000000000E+00 0. -1.
          1    1    1    2  502    0  0.59044365106E+02  0.72190683831E+01  0.51512372767E+02  0.78688477855E+02  0.00000000000E+00 0. -1.
         22    1    3    3    0    0 -0.44824270666E+01  0.39908751878E+00  0.20631979297E+02  0.21117054553E+02  0.00000000000E+00 0. -1.
         22    1    3    3    0    0 -0.93955148751E+02 -0.10630947949E+03 -0.17021375100E+03  0.22158970291E+03  0.00000000000E+00 0. -1.
</event>
<event>
 7    1  0.5452757E-006  0.2395126E+03  0.7818608E-02  0.1229263E+00
          2   -1    0    0  502    0  0.00000000000E+00  0.00000000000E+00  0.73898188531E+03  0.73898188531E+03  0.00000000000E+00 0. -1.
          1   -1    0    0  501    0 -0.00000000000E+00 -0.00000000000E+00 -0.70357853399E+03  0.70357853399E+03  0.00000000000E+00 0. -1.
         25    2    1    2    0    0 -0.21713479823E+03  0.12048914228E+03 -0.36597390956E+03  0.45959487121E+03  0.12500155662E+03 0.  0.
          2    1    1    2  501    0  0.16583143054E+03 -0.16700608781E+03 -0.24100583357E+03  0.33686036950E+03  0.00000000000E+00 0. -1.
          1    1    1    2  502    0  0.51303367690E+02  0.46516945526E+02  0.64238309446E+03  0.64610517859E+03  0.00000000000E+00 0. -1.
         22    1    3    3    0    0 -0.29073819178E+02 -0.19002985163E+02 -0.15344264706E+02  0.37971658722E+02  0.00000000000E+00 0.  1.
         22    1    3    3    0    0 -0.18806097906E+03  0.13949212745E+03 -0.35062964485E+03  0.42162321249E+03  0.00000000000E+00 0.  1.
</event>
<event>
 7    1  0.7583925E-006  0.9854345E+02  0.7818608E-02  0.1315369E+00
          2   -1    0    0  502    0  0.00000000000E+00  0.00000000000E+00  0.81735330398E+03  0.81735330398E+03  0.00000000000E+00 0. -1.
          1   -1    0    0  501    0 -0.00000000000E+00 -0.00000000000E+00 -0.22519114524E+04  0.22519114524E+04  0.00000000000E+00 0. -1.
         25    2    1    2    0    0  0.38566134675E+02 -0.70063401670E+02 -0.25414887025E+03  0.29430053171E+03  0.12499971087E+03 0.  0.
          2    1    1    2  501    0 -0.97685451894E+02  0.26628733970E+02 -0.19746994803E+04  0.19772934973E+04  0.00000000000E+00 0. -1.
          1    1    1    2  502    0  0.59119317218E+02  0.43434667700E+02  0.79429020215E+03  0.79767072734E+03  0.00000000000E+00 0. -1.
         22    1    3    3    0    0 -0.95838393766E+01  0.20118263474E+02 -0.21900911564E+01  0.22391761915E+02  0.00000000000E+00 0. -1.
         22    1    3    3    0    0  0.48149974052E+02 -0.90181665144E+02 -0.25195877909E+03  0.27190876979E+03  0.00000000000E+00 0. -1.
</event>
<event>
 7    1  0.5452757E-006  0.9306941E+02  0.7818608E-02  0.1444753E+00
          2   -1    0    0  502    0  0.00000000000E+00  0.00000000000E+00  0.59383247548E+03  0.59383247548E+03  0.00000000000E+00 0. -1.
          1   -1    0    0  501    0 -0.00000000000E+00 -0.00000000000E+00 -0.32663261321E+03  0.32663261321E+03  0.00000000000E+00 0. -1.
         25    2    1    2    0    0  0.39353531728E+02  0.97939739664E+02  0.16878667505E+03  0.23506330102E+03  0.12499968300E+03 0.  0.
          2    1    1    2  501    0 -0.54067789065E+02 -0.75326307477E+02 -0.28568600926E+03  0.30035624565E+03  0.00000000000E+00 0. -1.
          1    1    1    2  502    0  0.14714257337E+02 -0.22613432187E+02  0.38409919648E+03  0.38504554201E+03  0.00000000000E+00 0. -1.
         22    1    3    3    0    0  0.83793253187E+02  0.47499229505E+02  0.96306567275E+02  0.13620734556E+03  0.00000000000E+00 0. -1.
         22    1    3    3    0    0 -0.44439721459E+02  0.50440510159E+02  0.72480107774E+02  0.98855955468E+02  0.00000000000E+00 0. -1.
</event>
<event>
 7    1  0.5452757E-006  0.7093211E+02  0.7818608E-02  0.1372128E+00
          2   -1    0    0  502    0  0.00000000000E+00  0.00000000000E+00  0.57223630927E+03  0.57223630927E+03  0.00000000000E+00 0. -1.
          1   -1    0    0  501    0 -0.00000000000E+00 -0.00000000000E+00 -0.27006216169E+03  0.27006216169E+03  0.00000000000E+00 0. -1.
         25    2    1    2    0    0  0.21185382996E+02  0.12112584856E+03  0.16204623000E+03  0.23875535567E+03  0.12499939026E+03 0.  0.
          2    1    1    2  501    0 -0.35188138241E+02 -0.60221628204E+02 -0.22373384465E+03  0.23435375572E+03  0.00000000000E+00 0. -1.
          1    1    1    2  502    0  0.14002755245E+02 -0.60904220352E+02  0.36386176223E+03  0.36918935957E+03  0.00000000000E+00 0. -1.
         22    1    3    3    0    0  0.45325377849E+02  0.10599865627E+03  0.17328602624E+03  0.20813013212E+03  0.00000000000E+00 0. -1.
         22    1    3    3    0    0 -0.24139994853E+02  0.15127192289E+02 -0.11239796239E+02  0.30625223551E+02  0.00000000000E+00 0. -1.
</event>
<event>
 7    1  0.5452757E-006  0.8438290E+02  0.7818608E-02  0.1457504E+00
          2   -1    0    0  502    0  0.00000000000E+00  0.00000000000E+00  0.10403735663E+04  0.10403735663E+04  0.00000000000E+00 0. -1.
          1   -1    0    0  501    0 -0.00000000000E+00 -0.00000000000E+00 -0.11112566940E+03  0.11112566940E+03  0.00000000000E+00 0. -1.
         25    2    1    2    0    0  0.10522982513E+02 -0.61247388467E+02  0.11716202087E+03  0.18223240812E+03  0.12497894095E+03 0.  0.
          2    1    1    2  501    0 -0.11327539076E+02 -0.24610845098E+02 -0.74117369097E+02  0.78913821602E+02  0.00000000000E+00 0. -1.
          1    1    1    2  502    0  0.80455656307E+00  0.85858233565E+02  0.88620324514E+03  0.89035300599E+03  0.00000000000E+00 0. -1.
         22    1    3    3    0    0  0.16754107229E+02 -0.32690668590E+02  0.14025263665E+03  0.14498338528E+03  0.00000000000E+00 0.  1.
         22    1    3    3    0    0 -0.62311247153E+01 -0.28556719878E+02 -0.23090615778E+02  0.37249022838E+02  0.00000000000E+00 0.  1.
</event>
<event>
 7    1  0.5452757E-006  0.1165059E+03  0.7818608E-02  0.1338125E+00
          2   -1    0    0  502    0  0.00000000000E+00  0.00000000000E+00  0.26745904252E+04  0.26745904252E+04  0.00000000000E+00 0. -1.
          1   -1    0    0  501    0 -0.00000000000E+00 -0.00000000000E+00 -0.32010108503E+03  0.32010108503E+03  0.00000000000E+00 0. -1.
         25    2    1    2    0    0 -0.10610956920E+03 -0.12645690419E+03  0.22264635782E+03  0.30405438428E+03  0.12500831437E+03 0.  0.
          2    1    1    2  501    0  0.27645454163E+02  0.42548560347E+02 -0.27571234872E+03  0.28034255895E+03  0.00000000000E+00 0. -1.
          1    1    1    2  502    0  0.78464115033E+02  0.83908343843E+02  0.24075553310E+04  0.24102945670E+04  0.00000000000E+00 0. -1.
         22    1    3    3    0    0 -0.85913711201E+02 -0.84493427699E+02  0.22728615800E+03  0.25725338232E+03  0.00000000000E+00 0.  1.
         22    1    3    3    0    0 -0.20195857995E+02 -0.41963476491E+02 -0.46398001797E+01  0.46801001967E+02  0.00000000000E+00 0.  1.
</event>
<event>
 7    1  0.5452757E-006  0.2530880E+02  0.7818608E-02  0.1678055E+00
          2   -1    0    0  502    0  0.00000000000E+00  0.00000000000E+00  0.24316049272E+02  0.24316049272E+02  0.00000000000E+00 0. -1.
          1   -1    0    0  501    0 -0.00000000000E+00 -0.00000000000E+00 -0.19843963310E+04  0.19843963310E+04  0.00000000000E+00 0. -1.
         25    2    1    2    0    0  0.17486396445E+02  0.37740131964E+02 -0.94361476538E+03  0.95276648960E+03  0.12500026650E+03 0.  0.
          2    1    1    2  501    0 -0.19615971713E+02 -0.15361539954E+02 -0.10296059178E+04  0.10299073304E+04  0.00000000000E+00 0. -1.
          1    1    1    2  502    0  0.21295752676E+01 -0.22378592010E+02  0.13140401447E+02  0.26038560278E+02  0.00000000000E+00 0. -1.
         22    1    3    3    0    0 -0.24193127853E+02 -0.17979333307E+02 -0.67878656419E+02  0.74270289206E+02  0.00000000000E+00 0.  1.
         22    1    3    3    0    0  0.41679524299E+02  0.55719465270E+02 -0.87573610896E+03  0.87849620039E+03  0.00000000000E+00 0.  1.
</event>
<event>
 7    1  0.5452757E-006  0.1623887E+03  0.7818608E-02  0.1264823E+00
          2   -1    0    0  502    0  0.00000000000E+00  0.00000000000E+00  0.46189220109E+03  0.46189220109E+03  0.00000000000E+00 0. -1.
          1   -1    0    0  501    0 -0.00000000000E+00 -0.00000000000E+00 -0.30089995708E+04  0.30089995708E+04  0.00000000000E+00 0. -1.
         25    2    1    2    0    0 -0.21837499589E+03  0.56208699169E+02 -0.43260138491E+03  0.50360217345E+03  0.12499653669E+03 0.  0.
          2    1    1    2  501    0  0.14693411042E+03 -0.58426966713E+02 -0.25354220585E+04  0.25403480781E+04  0.00000000000E+00 0. -1.
          1    1    1    2  502    0  0.71440885472E+02  0.22182675442E+01  0.42091607361E+03  0.42694152041E+03  0.00000000000E+00 0. -1.
         22    1    3    3    0    0 -0.88551147384E+02 -0.42913087635E+01 -0.28269535003E+03  0.29627079162E+03  0.00000000000E+00 0. -1.
         22    1    3    3    0    0 -0.12982384850E+03  0.60500007933E+02 -0.14990603487E+03  0.20733138183E+03  0.00000000000E+00 0. -1.
</event>
<event>
 7    1  0.5452757E-006  0.9931297E+02  0.7818608E-02  0.1443408E+00
          2   -1    0    0  502    0  0.00000000000E+00  0.00000000000E+00  0.38511640918E+03  0.38511640918E+03  0.00000000000E+00 0. -1.
          1   -1    0    0  501    0 -0.00000000000E+00 -0.00000000000E+00 -0.82504754800E+03  0.82504754800E+03  0.00000000000E+00 0. -1.
         25    2    1    2    0    0  0.98808653326E+02 -0.51341720915E+02  0.22660428943E+03  0.28173433551E+03  0.12500243813E+03 0.  0.
          2    1    1    2  501    0 -0.25072185277E+02 -0.48503125433E+01 -0.78083903147E+03  0.78125650914E+03  0.00000000000E+00 0. -1.
          1    1    1    2  502    0 -0.73736468050E+02  0.56192033459E+02  0.11430360322E+03  0.14717311254E+03  0.00000000000E+00 0. -1.
         22    1    3    3    0    0  0.99464236640E+02 -0.26434918173E+01  0.81316710551E+02  0.12850108884E+03  0.00000000000E+00 0. -1.
         22    1    3    3    0    0 -0.65558331362E+00 -0.48698229098E+02  0.14528757888E+03  0.15323324666E+03  0.00000000000E+00 0. -1.
</event>
<event>
 7    1  0.5452757E-006  0.9368312E+02  0.7818608E-02  0.1313174E+00
          2   -1    0    0  502    0  0.00000000000E+00  0.00000000000E+00  0.35745373261E+04  0.35745373261E+04  0.00000000000E+00 0. -1.
          1   -1    0    0  501    0 -0.00000000000E+00 -0.00000000000E+00 -0.20254628533E+04  0.20254628533E+04  0.00000000000E+00 0. -1.
         25    2    1    2    0    0 -0.27379869713E+02  0.15624537309E+03  0.37666520518E+03  0.42738935510E+03  0.12499084039E+03 0.  0.
          2    1    1    2  501    0 -0.17833027682E+02 -0.91819049487E+02 -0.19985186289E+04  0.20007062415E+04  0.00000000000E+00 0. -1.
          1    1    1    2  502    0  0.45212897395E+02 -0.64426323608E+02  0.31709278966E+04  0.31719045828E+04  0.00000000000E+00 0. -1.
         22    1    3    3    0    0 -0.75718919120E+02  0.10915963862E+03  0.27437268282E+03  0.30484348524E+03  0.00000000000E+00 0. -1.
         22    1    3    3    0    0  0.48339049407E+02  0.47085734478E+02  0.10229252236E+03  0.12254586986E+03  0.00000000000E+00 0. -1.
</event>
<event>
 7    1  0.5452757E-006  0.1605003E+03  0.7818608E-02  0.1226327E+00
          2   -1    0    0  502    0  0.00000000000E+00  0.00000000000E+00  0.15170292898E+03  0.15170292898E+03  0.00000000000E+00 0. -1.
          1   -1    0    0  501    0 -0.00000000000E+00 -0.00000000000E+00 -0.17317523019E+04  0.17317523019E+04  0.00000000000E+00 0. -1.
         25    2    1    2    0    0  0.76305494565E+02 -0.21025544966E+03 -0.91339644569E+03  0.94865570276E+03  0.12499877101E+03 0.  0.
          2    1    1    2  501    0 -0.94264398056E+02  0.10524399549E+03 -0.77208942979E+03  0.78491028972E+03  0.00000000000E+00 0. -1.
          1    1    1    2  502    0  0.17958903491E+02  0.10501145417E+03  0.10543650254E+03  0.14988923841E+03  0.00000000000E+00 0. -1.
         22    1    3    3    0    0  0.93467924706E+02 -0.18758911996E+03 -0.63240723830E+03  0.66623182596E+03  0.00000000000E+00 0.  1.
         22    1    3    3    0    0 -0.17162430141E+02 -0.22666329706E+02 -0.28098920739E+03  0.28242387679E+03  0.00000000000E+00 0.  1.
</event>
<event>
 7    1  0.5452757E-006  0.1933478E+03  0.7818608E-02  0.1213584E+00
          2   -1    0    0  502    0  0.00000000000E+00  0.00000000000E+00  0.77065824454E+03  0.77065824454E+03  0.00000000000E+00 0. -1.
          1   -1    0    0  501    0 -0.00000000000E+00 -0.00000000000E+00 -0.20966943870E+03  0.20966943870E+03  0.00000000000E+00 0. -1.
         25    2    1    2    0    0 -0.98122659769E+02  0.24656319012E+03  0.12959659988E+02  0.29362827752E+03  0.12501259732E+03 0.  0.
          2    1    1    2  501    0  0.80738325338E+02 -0.60844431826E+02 -0.68277250943E+01  0.10132788310E+03  0.00000000000E+00 0. -1.
          1    1    1    2  502    0  0.17384334431E+02 -0.18571875830E+03  0.55485687094E+03  0.58537152263E+03  0.00000000000E+00 0. -1.
         22    1    3    3    0    0 -0.71812017585E+02  0.47833468404E+02  0.32526849085E+02  0.92211726373E+02  0.00000000000E+00 0. -1.
         22    1    3    3    0    0 -0.26310642184E+02  0.19872972172E+03 -0.19567189097E+02  0.20141655114E+03  0.00000000000E+00 0. -1.
</event>
<event>
 7    1  0.5452757E-006  0.1122104E+03  0.7818608E-02  0.1300174E+00
          2   -1    0    0  502    0  0.00000000000E+00  0.00000000000E+00  0.76138768089E+03  0.76138768089E+03  0.00000000000E+00 0. -1.
          1   -1    0    0  501    0 -0.00000000000E+00 -0.00000000000E+00 -0.72380672688E+03  0.72380672688E+03  0.00000000000E+00 0. -1.
         25    2    1    2    0    0  0.85469264805E+02 -0.10673356657E+03  0.48517452087E+02  0.19150921029E+03  0.12499914004E+03 0.  0.
          2    1    1    2  501    0 -0.10621474831E+03  0.35716190270E+02 -0.64533252164E+03  0.65498952854E+03  0.00000000000E+00 0. -1.
          1    1    1    2  502    0  0.20745483505E+02  0.71017376295E+02  0.63439602357E+03  0.63869566895E+03  0.00000000000E+00 0. -1.
         22    1    3    3    0    0  0.26997236407E+02 -0.10045589558E+03 -0.14830465152E+02  0.10507226288E+03  0.00000000000E+00 0. -1.
         22    1    3    3    0    0  0.58472028398E+02 -0.62776709834E+01  0.63347917240E+02  0.86436947404E+02  0.00000000000E+00 0. -1.
</event>
<event>
 7    1  0.5452757E-006  0.6791669E+02  0.7818608E-02  0.1397164E+00
          2   -1    0    0  502    0  0.00000000000E+00  0.00000000000E+00  0.17639238357E+04  0.17639238357E+04  0.00000000000E+00 0. -1.
          1   -1    0    0  501    0 -0.00000000000E+00 -0.00000000000E+00 -0.69452542906E+03  0.69452542906E+03  0.00000000000E+00 0. -1.
         25    2    1    2    0    0  0.33836866041E+02  0.64855034464E+01  0.33593630535E+03  0.36009107306E+03  0.12500153753E+03 0.  0.
          2    1    1    2  501    0  0.24384072715E+02 -0.47381865227E+02 -0.68051198248E+03  0.68259518198E+03  0.00000000000E+00 0. -1.
          1    1    1    2  502    0 -0.58220938757E+02  0.40896361781E+02  0.14139740837E+04  0.14157630097E+04  0.00000000000E+00 0. -1.
         22    1    3    3    0    0  0.47150322688E+02 -0.44875560576E+02  0.10832651726E+03  0.12637880838E+03  0.00000000000E+00 0.  1.
         22    1    3    3    0    0 -0.13313456647E+02  0.51361064022E+02  0.22760978809E+03  0.23371226467E+03  0.00000000000E+00 0.  1.
</event>
<event>
 7    1  0.5452757E-006  0.6018170E+02  0.7818608E-02  0.1426732E+00
          2   -1    0    0  502    0  0.00000000000E+00  0.00000000000E+00  0.91317012996E+03  0.91317012996E+03  0.00000000000E+00 0. -1.
          1   -1    0    0  501    0 -0.00000000000E+00 -0.00000000000E+00 -0.72671684053E+03  0.72671684053E+03  0.00000000000E+00 0. -1.
         25    2    1    2    0    0  0.61787206939E+02 -0.59990622962E+01  0.14986764054E+03  0.20478464672E+03  0.12499117633E+03 0.  0.
          2    1    1    2  501    0 -0.23652285351E+02 -0.41511308081E+02 -0.69717840351E+03  0.69881352707E+03  0.00000000000E+00 0. -1.
          1    1    1    2  502    0 -0.38134921588E+02  0.47510370377E+02  0.73376405240E+03  0.73628879670E+03  0.00000000000E+00 0. -1.
         22    1    3    3    0    0  0.97952447937E+02  0.38394086586E+01  0.84435095025E+02  0.12937816040E+03  0.00000000000E+00 0. -1.
         22    1    3    3    0    0 -0.36165240998E+02 -0.98384709548E+01  0.65432545511E+02  0.75406486321E+02  0.00000000000E+00 0. -1.
</event>
<event>
 7    1  0.5452757E-006  0.1832624E+03  0.7818608E-02  0.1230011E+00
          2   -1    0    0  502    0  0.00000000000E+00  0.00000000000E+00  0.18258425897E+04  0.18258425897E+04  0.00000000000E+00 0. -1.
          1   -1    0    0  501    0 -0.00000000000E+00 -0.00000000000E+00 -0.16658913478E+03  0.16658913478E+03  0.00000000000E+00 0. -1.
         25    2    1    2    0    0 -0.12206369728E+03  0.11934693520E+02  0.20836151415E+03  0.27218131087E+03  0.12500464912E+03 0.  0.
          2    1    1    2  501    0  0.20176436009E+03  0.29463961678E+02 -0.55389733918E+02  0.21129364558E+03  0.00000000000E+00 0. -1.
          1    1    1    2  502    0 -0.79700662806E+02 -0.41398655198E+02  0.15062816747E+04  0.15089567681E+04  0.00000000000E+00 0. -1.
         22    1    3    3    0    0 -0.12077586000E+02  0.55278112272E+02  0.75310068096E+02  0.94197367991E+02  0.00000000000E+00 0.  1.
         22    1    3    3    0    0 -0.10998611128E+03 -0.43343418752E+02  0.13305144606E+03  0.17798394288E+03  0.00000000000E+00 0.  1.
</event>
<event>
 7    1  0.5452757E-006  0.7351054E+02  0.7818608E-02  0.1359780E+00
          2   -1    0    0  502    0  0.00000000000E+00  0.00000000000E+00  0.11494483762E+04  0.11494483762E+04  0.00000000000E+00 0. -1.
          1   -1    0    0  501    0 -0.00000000000E+00 -0.00000000000E+00 -0.32946868674E+03  0.32946868674E+03  0.00000000000E+00 0. -1.
         25    2    1    2    0    0 -0.94197163857E+01  0.23919955561E+01  0.31009611340E+01  0.12542521942E+03  0.12500966766E+03 0.  0.
          2    1    1    2  501    0 -0.61981852508E+02 -0.24997093605E+02 -0.26282727473E+03  0.27119141040E+03  0.00000000000E+00 0. -1.
          1    1    1    2  502    0  0.71401568894E+02  0.22605098049E+02  0.10797060031E+04  0.10823004331E+04  0.00000000000E+00 0. -1.
         22    1    3    3    0    0  0.17223922817E+02  0.39251451784E+02  0.46020443300E+02  0.62890549257E+02  0.00000000000E+00 0.  1.
         22    1    3    3    0    0 -0.26643639202E+02 -0.36859456228E+02 -0.42919482166E+02  0.62534670166E+02  0.00000000000E+00 0.  1.
</event>
<event>
 7    1  0.5452757E-006  0.4161300E+02  0.7818608E-02  0.1521069E+00
          2   -1    0    0  502    0  0.00000000000E+00  0.00000000000E+00  0.22769187825E+04  0.22769187825E+04  0.00000000000E+00 0. -1.
          1   -1    0    0  501    0 -0.00000000000E+00 -0.00000000000E+00 -0.52227236837E+02  0.52227236837E+02  0.00000000000E+00 0. -1.
         25    2    1    2    0    0  0.71195402522E+02 -0.27787184389E+02  0.28372308128E+03  0.31931998037E+03  0.12500220020E+03 0.  0.
          2    1    1    2  501    0 -0.33190604263E+02  0.11901359193E+02 -0.25128385822E+02  0.43297740541E+02  0.00000000000E+00 0. -1.
          1    1    1    2  502    0 -0.38004798259E+02  0.15885825197E+02  0.19660968502E+04  0.19665282985E+04  0.00000000000E+00 0. -1.
         22    1    3    3    0    0  0.15976591480E+02 -0.34761818021E+02  0.93834535589E+01  0.39391428866E+02  0.00000000000E+00 0.  1.
         22    1    3    3    0    0  0.55218811042E+02  0.69746336314E+01  0.27433962772E+03  0.27992855150E+03  0.00000000000E+00 0.  1.
</event>
<event>
 7    1  0.5452757E-006  0.5257755E+02  0.7818608E-02  0.1468834E+00
          2   -1    0    0  502    0  0.00000000000E+00  0.00000000000E+00  0.25026065016E+03  0.25026065016E+03  0.00000000000E+00 0. -1.
          1   -1    0    0  501    0 -0.00000000000E+00 -0.00000000000E+00 -0.11284619572E+04  0.11284619572E+04  0.00000000000E+00 0. -1.
         25    2    1    2    0    0 -0.66407304243E+02  0.62230835107E+02 -0.44550117472E+03  0.47157213325E+03  0.12500549304E+03 0.  0.
          2    1    1    2  501    0  0.23238875913E+02 -0.32631523973E+02 -0.66642930490E+03  0.66763229412E+03  0.00000000000E+00 0. -1.
          1    1    1    2  502    0  0.43168428331E+02 -0.29599311133E+02  0.23372917259E+03  0.23951817998E+03  0.00000000000E+00 0. -1.
         22    1    3    3    0    0 -0.58308573824E+02 -0.54296309287E+01 -0.76550123842E+02  0.96380973919E+02  0.00000000000E+00 0. -1.
         22    1    3    3    0    0 -0.80987304192E+01  0.67660466035E+02 -0.36895105088E+03  0.37519115934E+03  0.00000000000E+00 0. -1.
</event>
<event>
 7    1  0.5452757E-006  0.1224700E+03  0.7818608E-02  0.1295881E+00
          2   -1    0    0  502    0  0.00000000000E+00  0.00000000000E+00  0.91751798476E+03  0.91751798476E+03  0.00000000000E+00 0. -1.
          1   -1    0    0  501    0 -0.00000000000E+00 -0.00000000000E+00 -0.60043011623E+03  0.60043011623E+03  0.00000000000E+00 0. -1.
         25    2    1    2    0    0 -0.35013442631E+02 -0.40942788740E+02 -0.12760314598E+03  0.18657407217E+03  0.12500027371E+03 0.  0.
          2    1    1    2  501    0 -0.48054567983E+02 -0.51629667033E+02 -0.43613920356E+03  0.44180569134E+03  0.00000000000E+00 0. -1.
          1    1    1    2  502    0  0.83068010614E+02  0.92572455773E+02  0.88083021808E+03  0.88956833747E+03  0.00000000000E+00 0. -1.
         22    1    3    3    0    0 -0.12529591035E+02  0.19489854281E+02  0.16672702952E+02  0.28545123842E+02  0.00000000000E+00 0. -1.
         22    1    3    3    0    0 -0.22483851596E+02 -0.60432643021E+02 -0.14427584894E+03  0.15802894833E+03  0.00000000000E+00 0. -1.
</event>
<event>
 7    1  0.5452757E-006  0.5669051E+02  0.7818608E-02  0.1525710E+00
          2   -1    0    0  502    0  0.00000000000E+00  0.00000000000E+00  0.23058456107E+03  0.23058456107E+03  0.00000000000E+00 0. -1.
          1   -1    0    0  501    0 -0.00000000000E+00 -0.00000000000E+00 -0.97814933479E+03  0.97814933479E+03  0.00000000000E+00 0. -1.
         25    2    1    2    0    0 -0.16975446212E+02  0.42941394279E+02 -0.36558892230E+03  0.38911920158E+03  0.12500545512E+03 0.  0.
          2    1    1    2  501    0  0.20989662757E+02  0.13754284472E+02 -0.59683630687E+03  0.59736364426E+03  0.00000000000E+00 0. -1.
          1    1    1    2  502    0 -0.40142165444E+01 -0.56695678751E+02  0.21486045545E+03  0.22225105003E+03  0.00000000000E+00 0. -1.
         22    1    3    3    0    0 -0.25086538896E+02  0.42529148214E+02 -0.37410607753E+03  0.37735052687E+03  0.00000000000E+00 0.  1.
         22    1    3    3    0    0  0.81110926836E+01  0.41224606503E+00  0.85171552270E+01  0.11768674713E+02  0.00000000000E+00 0.  1.
</event>
<event>
 7    1  0.5452757E-006  0.7193148E+02  0.7818608E-02  0.1410320E+00
          2   -1    0    0  502    0  0.00000000000E+00  0.00000000000E+00  0.27406746165E+03  0.27406746165E+03  0.00000000000E+00 0. -1.
          1   -1    0    0  501    0 -0.00000000000E+00 -0.00000000000E+00 -0.63315865072E+03  0.63315865072E+03  0.00000000000E+00 0. -1.
         25    2    1    2    0    0  0.34986781315E+02  0.12053104688E+02 -0.15884991133E+03  0.20549694799E+03  0.12500539631E+03 0.  0.
          2    1    1    2  501    0 -0.77147629341E+02  0.46861841210E+01 -0.44557917910E+03  0.45223281823E+03  0.00000000000E+00 0. -1.
          1    1    1    2  502    0  0.42160848027E+02 -0.16739288809E+02  0.24533790136E+03  0.24949634615E+03  0.00000000000E+00 0. -1.
         22    1    3    3    0    0  0.47616831348E+02  0.24938467638E+02 -0.89223500747E+01  0.54487596080E+02  0.00000000000E+00 0.  1.
         22    1    3    3    0    0 -0.12630050033E+02 -0.12885362950E+02 -0.14992756125E+03  0.15100935191E+03  0.00000000000E+00 0.  1.
</event>
<event>
 7    1  0.5452757E-006  0.1493276E+03  0.7818608E-02  0.1406049E+00
          2   -1    0    0  502    0  0.00000000000E+00  0.00000000000E+00  0.35816540672E+03  0.35816540672E+03  0.00000000000E+00 0. -1.
          1   -1    0    0  501    0 -0.00000000000E+00 -0.00000000000E+00 -0.89804628052E+03  0.89804628052E+03  0.00000000000E+00 0. -1.
         25    2    1    2    0    0 -0.17038432236E+03  0.15215238037E+02  0.11497803357E+03  0.24105614403E+03  0.12500318235E+03 0.  0.
          2    1    1    2  501    0  0.14779831099E+03 -0.14631693472E+02 -0.82766175824E+03  0.84088192586E+03  0.00000000000E+00 0. -1.
          1    1    1    2  502    0  0.22586011368E+02 -0.58354456507E+00  0.17280285088E+03  0.17427361735E+03  0.00000000000E+00 0. -1.
         22    1    3    3    0    0 -0.10706257495E+03  0.55774381611E+02  0.24101576709E+02  0.12310183833E+03  0.00000000000E+00 0. -1.
         22    1    3    3    0    0 -0.63321747405E+02 -0.40559143574E+02  0.90876456864E+02  0.11795430570E+03  0.00000000000E+00 0. -1.
</event>
<event>
 7    1  0.5452757E-006  0.1134261E+03  0.7818608E-02  0.1398815E+00
          2   -1    0    0  502    0  0.00000000000E+00  0.00000000000E+00  0.80713080496E+02  0.80713080496E+02  0.00000000000E+00 0. -1.
          1   -1    0    0  501    0 -0.00000000000E+00 -0.00000000000E+00 -0.20877041515E+04  0.20877041515E+04  0.00000000000E+00 0. -1.
         25    2    1    2    0    0 -0.11200157586E+03  0.80561069540E+02 -0.64786106378E+03  0.67407859915E+03  0.12499424367E+03 0.  0.
          2    1    1    2  501    0  0.31332736254E+02 -0.31628321337E+01 -0.13802143131E+04  0.13805735381E+04  0.00000000000E+00 0. -1.
          1    1    1    2  502    0  0.80668839605E+02 -0.77398237406E+02  0.21084305890E+02  0.11376509479E+03  0.00000000000E+00 0. -1.
         22    1    3    3    0    0 -0.73182806237E+02  0.22296261256E+02 -0.12501612660E+03  0.14656697549E+03  0.00000000000E+00 0. -1.
         22    1    3    3    0    0 -0.38818769621E+02  0.58264808284E+02 -0.52284493719E+03  0.52751162367E+03  0.00000000000E+00 0. -1.
</event>
<event>
 7    1  0.5452757E-006  0.7208193E+02  0.7818608E-02  0.1388181E+00
          2   -1    0    0  502    0  0.00000000000E+00  0.00000000000E+00  0.16788297779E+04  0.16788297779E+04  0.00000000000E+00 0. -1.
          1   -1    0    0  501    0 -0.00000000000E+00 -0.00000000000E+00 -0.88150768121E+02  0.88150768121E+02  0.00000000000E+00 0. -1.
         25    2    1    2    0    0 -0.33371616129E+02 -0.46230099302E+02  0.44459572166E+03  0.46533864412E+03  0.12499524452E+03 0.  0.
          2    1    1    2  501    0 -0.14041245488E+02  0.71975383042E+02 -0.59756194618E+02  0.94596062995E+02  0.00000000000E+00 0. -1.
          1    1    1    2  502    0  0.47412861617E+02 -0.25745283740E+02  0.12058394827E+04  0.12070458389E+04  0.00000000000E+00 0. -1.
         22    1    3    3    0    0  0.32230696371E+02 -0.96613484490E+01  0.30473864471E+03  0.30659060818E+03  0.00000000000E+00 0.  1.
         22    1    3    3    0    0 -0.65602312500E+02 -0.36568750853E+02  0.13985707695E+03  0.15874803594E+03  0.00000000000E+00 0.  1.
</event>
<event>
 7    1  0.5452757E-006  0.8985081E+02  0.7818608E-02  0.1364395E+00
          2   -1    0    0  502    0  0.00000000000E+00  0.00000000000E+00  0.73460293782E+03  0.73460293782E+03  0.00000000000E+00 0. -1.
          1   -1    0    0  501    0 -0.00000000000E+00 -0.00000000000E+00 -0.19872860777E+04  0.19872860777E+04  0.00000000000E+00 0. -1.
         25    2    1    2    0    0  0.62452920023E+02  0.36852966986E+02  0.30511143552E+03  0.33760380194E+03  0.12499932242E+03 0.  0.
          2    1    1    2  501    0 -0.89573287859E+02  0.82222929157E+01 -0.19683344935E+04  0.19703887074E+04  0.00000000000E+00 0. -1.
          1    1    1    2  502    0  0.27120367835E+02 -0.45075259902E+02  0.41053991813E+03  0.41389650613E+03  0.00000000000E+00 0. -1.
         22    1    3    3    0    0  0.20184755877E+02  0.48352505506E+02  0.28433399181E+03  0.28912144171E+03  0.00000000000E+00 0.  1.
         22    1    3    3    0    0  0.42268164146E+02 -0.11499538520E+02  0.20777443709E+02  0.48482360231E+02  0.00000000000E+00 0.  1.
</event>
<event>
 7    1  0.5452757E-006  0.1530626E+03  0.7818608E-02  0.1334034E+00
          2   -1    0    0  502    0  0.00000000000E+00  0.00000000000E+00  0.16539642864E+04  0.16539642864E+04  0.00000000000E+00 0. -1.
          1   -1    0    0  501    0 -0.00000000000E+00 -0.00000000000E+00 -0.14977924222E+04  0.14977924222E+04  0.00000000000E+00 0. -1.
         25    2    1    2    0    0  0.11844861458E+02 -0.12280785542E+03  0.18648835465E+03  0.25617358616E+03  0.12499971892E+03 0.  0.
          2    1    1    2  501    0  0.27510448019E+02 -0.29070556896E+02 -0.14583788607E+04  0.14589279705E+04  0.00000000000E+00 0. -1.
          1    1    1    2  502    0 -0.39355309477E+02  0.15187841232E+03  0.14280623702E+04  0.14366551520E+04  0.00000000000E+00 0. -1.
         22    1    3    3    0    0 -0.26704782418E+02  0.44300673623E+01 -0.93887356086E-01  0.27069904241E+02  0.00000000000E+00 0. -1.
         22    1    3    3    0    0  0.38549643876E+02 -0.12723792278E+03  0.18658224200E+03  0.22910368192E+03  0.00000000000E+00 0. -1.
</event>
<event>
 7    1  0.5452757E-006  0.5984444E+02  0.7818608E-02  0.1493202E+00
          2   -1    0    0  502    0  0.00000000000E+00  0.00000000000E+00  0.33158079743E+03  0.33158079743E+03  0.00000000000E+00 0. -1.
          1   -1    0    0  501    0 -0.00000000000E+00 -0.00000000000E+00 -0.18749632974E+04  0.18749632974E+04  0.00000000000E+00 0. -1.
         25    2    1    2    0    0 -0.28706858341E+02  0.65368084567E+02 -0.22209159750E+03  0.26466419647E+03  0.12500155607E+03 0.  0.
          2    1    1    2  501    0  0.29105805525E+02 -0.55890503949E+01 -0.16285700455E+04  0.16288397031E+04  0.00000000000E+00 0. -1.
          1    1    1    2  502    0 -0.39894718362E+00 -0.59779034172E+02  0.30727914303E+03  0.31304019522E+03  0.00000000000E+00 0. -1.
         22    1    3    3    0    0  0.35341814494E+02  0.99367954676E+01 -0.14684342919E+03  0.15136306172E+03  0.00000000000E+00 0. -1.
         22    1    3    3    0    0 -0.64048672835E+02  0.55431289100E+02 -0.75248168310E+02  0.11330113476E+03  0.00000000000E+00 0. -1.
</event>
<event>
 7    1  0.5452757E-006  0.2261878E+03  0.7818608E-02  0.1298183E+00
          2   -1    0    0  502    0  0.00000000000E+00  0.00000000000E+00  0.12751452127E+04  0.12751452127E+04  0.00000000000E+00 0. -1.
          1   -1    0    0  501    0 -0.00000000000E+00 -0.00000000000E+00 -0.70949345295E+03  0.70949345295E+03  0.00000000000E+00 0. -1.
         25    2    1    2    0    0 -0.13440757556E+03  0.19589440162E+03  0.23967278374E+02  0.26951726013E+03  0.12500044049E+03 0.  0.
          2    1    1    2  501    0 -0.19912494730E+02 -0.31640015795E+02 -0.57485167973E+03  0.57606601335E+03  0.00000000000E+00 0. -1.
          1    1    1    2  502    0  0.15432007028E+03 -0.16425438582E+03  0.11165361611E+04  0.11390553922E+04  0.00000000000E+00 0. -1.
         22    1    3    3    0    0  0.20678635623E+02  0.50355140395E+02  0.15786261266E+02  0.56678498393E+02  0.00000000000E+00 0. -1.
         22    1    3    3    0    0 -0.15508621118E+03  0.14553926122E+03  0.81810171081E+01  0.21283876173E+03  0.00000000000E+00 0. -1.
</event>
<event>
 7    1  0.5452757E-006  0.1087238E+03  0.7818608E-02  0.1305087E+00
          2   -1    0    0  502    0  0.00000000000E+00  0.00000000000E+00  0.57894876850E+03  0.57894876850E+03  0.00000000000E+00 0. -1.
          1   -1    0    0  501    0 -0.00000000000E+00 -0.00000000000E+00 -0.38372158475E+04  0.38372158475E+04  0.00000000000E+00 0. -1.
         25    2    1    2    0    0  0.13372921434E+03 -0.90990921261E+02  0.21119918899E+03  0.29392673996E+03  0.12499992207E+03 0.  0.
          2    1    1    2  501    0 -0.60744994336E+02  0.90017256470E+02 -0.37909839947E+04  0.37925390847E+04  0.00000000000E+00 0. -1.
          1    1    1    2  502    0 -0.72984220006E+02  0.97366479031E+00  0.32151772674E+03  0.32969879133E+03  0.00000000000E+00 0. -1.
         22    1    3    3    0    0  0.14027883028E+03 -0.70802579043E+02  0.11321916692E+03  0.19367430181E+03  0.00000000000E+00 0.  1.
         22    1    3    3    0    0 -0.65496159429E+01 -0.20188342218E+02  0.97980022070E+02  0.10025243815E+03  0.00000000000E+00 0.  1.
</event>
<event>
 7    1  0.5452757E-006  0.1049541E+03  0.7818608E-02  0.1320787E+00
          2   -1    0    0  502    0  0.00000000000E+00  0.00000000000E+00  0.96971126325E+03  0.96971126325E+03  0.00000000000E+00 0. -1.
          1   -1    0    0  501    0 -0.00000000000E+00 -0.00000000000E+00 -0.23193945211E+03  0.23193945211E+03  0.00000000000E+00 0. -1.
         25    2    1    2    0    0  0.10078211376E+03  0.39016092740E+02  0.36899432111E+03  0.40430180431E+03  0.12499539993E+03 0.  0.
          2    1    1    2  501    0  0.45235871242E+01 -0.65458751244E+02 -0.20404084114E+03  0.21433146248E+03  0.00000000000E+00 0. -1.
          1    1    1    2  502    0 -0.10530570088E+03  0.26442658503E+02  0.57281833116E+03  0.58301744858E+03  0.00000000000E+00 0. -1.
         22    1    3    3    0    0  0.11622242876E+03 -0.22676124912E+01  0.21865452489E+03  0.24763399659E+03  0.00000000000E+00 0. -1.
         22    1    3    3    0    0 -0.15440315003E+02  0.41283705232E+02  0.15033979622E+03  0.15666780771E+03  0.00000000000E+00 0. -1.
</event>
<event>
 7    1  0.5452757E-006  0.1520132E+03  0.7818608E-02  0.1346812E+00
          2   -1    0    0  502    0  0.00000000000E+00  0.00000000000E+00  0.10752059072E+04  0.10752059072E+04  0.00000000000E+00 0. -1.
          1   -1    0    0  501    0 -0.00000000000E+00 -0.00000000000E+00 -0.15501152492E+03  0.15501152492E+03  0.00000000000E+00 0. -1.
         25    2    1    2    0    0  0.81575361270E+02  0.10827113921E+03  0.74883874973E+02  0.19902041382E+03  0.12499740491E+03 0.  0.
          2    1    1    2  501    0  0.35204868261E+02 -0.78987868990E+01 -0.82841644168E+02  0.90357686957E+02  0.00000000000E+00 0. -1.
          1    1    1    2  502    0 -0.11678022953E+03 -0.10037235231E+03  0.92815215144E+03  0.94083933131E+03  0.00000000000E+00 0. -1.
         22    1    3    3    0    0 -0.23919102489E+02 -0.16279845284E+01 -0.83991367177E+01  0.25403135537E+02  0.00000000000E+00 0. -1.
         22    1    3    3    0    0  0.10549446376E+03  0.10989912374E+03  0.83283011691E+02  0.17361727828E+03  0.00000000000E+00 0. -1.
</event>
<event>
 7    1  0.5452757E-006  0.8942067E+02  0.7818608E-02  0.1307212E+00
          2   -1    0    0  502    0  0.00000000000E+00  0.00000000000E+00  0.12563545016E+04  0.12563545016E+04  0.00000000000E+00 0. -1.
          1   -1    0    0  501    0 -0.00000000000E+00 -0.00000000000E+00 -0.67614450043E+03  0.67614450043E+03  0.00000000000E+00 0. -1.
         25    2    1    2    0    0  0.39157032434E+02 -0.39860937908E+02  0.42737852269E+03  0.44877600691E+03  0.12500134065E+03 0.  0.
          2    1    1    2  501    0  0.66754293691E+02  0.55858230277E+02 -0.65906674779E+03  0.66478963263E+03  0.00000000000E+00 0. -1.
          1    1    1    2  502    0 -0.10591132613E+03 -0.15997292369E+02  0.81189822627E+03  0.81893336248E+03  0.00000000000E+00 0. -1.
         22    1    3    3    0    0 -0.26688090873E+02  0.88908426971E+01  0.26894971692E+03  0.27041681071E+03  0.00000000000E+00 0.  1.
         22    1    3    3    0    0  0.65845123308E+02 -0.48751780605E+02  0.15842880576E+03  0.17835919620E+03  0.00000000000E+00 0.  1.
</event>
<event>
 7    1  0.5452757E-006  0.4261760E+02  0.7818608E-02  0.1547431E+00
          2   -1    0    0  502    0  0.00000000000E+00  0.00000000000E+00  0.39115315674E+02  0.39115315674E+02  0.00000000000E+00 0. -1.
          1   -1    0    0  501    0 -0.00000000000E+00 -0.00000000000E+00 -0.24976296933E+04  0.24976296933E+04  0.00000000000E+00 0. -1.
         25    2    1    2    0    0  0.67899850687E+02  0.99918962346E+00 -0.58392630276E+03  0.60100475340E+03  0.12500159381E+03 0.  0.
          2    1    1    2  501    0 -0.40602248140E+02 -0.10674038271E+02 -0.18980215987E+04  0.18984858352E+04  0.00000000000E+00 0. -1.
          1    1    1    2  502    0 -0.27297602547E+02  0.96748486476E+01  0.23433523753E+02  0.37254420364E+02  0.00000000000E+00 0. -1.
         22    1    3    3    0    0  0.60325717481E+02  0.55815846115E+02 -0.42071599979E+03  0.42866834889E+03  0.00000000000E+00 0.  1.
         22    1    3    3    0    0  0.75741332061E+01 -0.54816656492E+02 -0.16321030297E+03  0.17233640451E+03  0.00000000000E+00 0.  1.
</event>
<event>
 7    1  0.5452757E-006  0.1182911E+03  0.7818608E-02  0.1267873E+00
          2   -1    0    0  502    0  0.00000000000E+00  0.00000000000E+00  0.39466046054E+03  0.39466046054E+03  0.00000000000E+00 0. -1.
          1   -1    0    0  501    0 -0.00000000000E+00 -0.00000000000E+00 -0.88900983438E+03  0.88900983438E+03  0.00000000000E+00 0. -1.
         25    2    1    2    0    0 -0.79581666302E+02 -0.75488295600E+02  0.30950324815E+02  0.16915767368E+03  0.12499868629E+03 0.  0.
          2    1    1    2  501    0 -0.45293213310E+01  0.12019240790E+03 -0.80763507389E+03  0.81654218645E+03  0.00000000000E+00 0. -1.
          1    1    1    2  502    0  0.84110987633E+02 -0.44704112304E+02  0.28233537523E+03  0.29797043479E+03  0.00000000000E+00 0. -1.
         22    1    3    3    0    0 -0.58365166591E+02  0.20609507274E+02  0.34151702172E+02  0.70693586856E+02  0.00000000000E+00 0.  1.
         22    1    3    3    0    0 -0.21216499711E+02 -0.96097802874E+02 -0.32013773579E+01  0.98464086824E+02  0.00000000000E+00 0.  1.
</event>
<event>
 7    1  0.5452757E-006  0.3846835E+02  0.7818608E-02  0.1617731E+00
          2   -1    0    0  502    0  0.00000000000E+00  0.00000000000E+00  0.37288950535E+04  0.37288950535E+04  0.00000000000E+00 0. -1.
          1   -1    0    0  501    0 -0.00000000000E+00 -0.00000000000E+00 -0.39740345026E+01  0.39740345026E+01  0.00000000000E+00 0. -1.
         25    2    1    2    0    0 -0.90966590006E+00  0.28169871958E+02  0.20683631202E+04  0.20723284435E+04  0.12499924677E+03 0.  0.
          2    1    1    2  501    0  0.19403684022E+02  0.75281933847E+01  0.60563551270E+02  0.64039990566E+02  0.00000000000E+00 0. -1.
          1    1    1    2  502    0 -0.18494018122E+02 -0.35698065343E+02  0.15959943476E+04  0.15965006539E+04  0.00000000000E+00 0. -1.
         22    1    3    3    0    0  0.53194761693E+02  0.43938544203E+02  0.92008592772E+03  0.92266916754E+03  0.00000000000E+00 0. -1.
         22    1    3    3    0    0 -0.54104427593E+02 -0.15768672245E+02  0.11482771925E+04  0.11496592760E+04  0.00000000000E+00 0. -1.
</event>
<event>
 7    1  0.5452757E-006  0.6152286E+02  0.7818608E-02  0.1497160E+00
          2   -1    0    0  502    0  0.00000000000E+00  0.00000000000E+00  0.74236120247E+03  0.74236120247E+03  0.00000000000E+00 0. -1.
          1   -1    0    0  501    0 -0.00000000000E+00 -0.00000000000E+00 -0.42753523341E+03  0.42753523341E+03  0.00000000000E+00 0. -1.
         25    2    1    2    0    0 -0.19501011444E+02  0.41016231088E+02 -0.84213970074E+02  0.15741563727E+03  0.12500027777E+03 0.  0.
          2    1    1    2  501    0  0.23683159064E+01 -0.63226616782E+02 -0.30317451753E+03  0.30970631583E+03  0.00000000000E+00 0. -1.
          1    1    1    2  502    0  0.17132695538E+02  0.22210385693E+02  0.70221445666E+03  0.70277448277E+03  0.00000000000E+00 0. -1.
         22    1    3    3    0    0  0.14589564864E+02  0.19557256928E+02 -0.10794139490E+03  0.11066474793E+03  0.00000000000E+00 0. -1.
         22    1    3    3    0    0 -0.34090576308E+02  0.21458974161E+02  0.23727424829E+02  0.46750889339E+02  0.00000000000E+00 0. -1.
</event>
<event>
 7    1  0.5452757E-006  0.7709546E+02  0.7818608E-02  0.1473886E+00
          2   -1    0    0  502    0  0.00000000000E+00  0.00000000000E+00  0.75631875977E+03  0.75631875977E+03  0.00000000000E+00 0. -1.
          1   -1    0    0  501    0 -0.00000000000E+00 -0.00000000000E+00 -0.19784498349E+04  0.19784498349E+04  0.00000000000E+00 0. -1.
         25    2    1    2    0    0  0.58456760343E+02  0.19699616357E+02  0.87681061042E+02  0.16467211656E+03  0.12499467905E+03 0.  0.
          2    1    1    2  501    0  0.19740254931E+02 -0.17456269351E+02 -0.19374364167E+04  0.19376156140E+04  0.00000000000E+00 0. -1.
          1    1    1    2  502    0 -0.78197015274E+02 -0.22433470054E+01  0.62762428057E+03  0.63248086403E+03  0.00000000000E+00 0. -1.
         22    1    3    3    0    0  0.53205537840E+02  0.28320367708E+02 -0.14500613686E+02  0.61993066397E+02  0.00000000000E+00 0. -1.
         22    1    3    3    0    0  0.52512225030E+01 -0.86207513514E+01  0.10218167473E+03  0.10267905016E+03  0.00000000000E+00 0. -1.
</event>
<event>
 7    1  0.5452757E-006  0.8610990E+02  0.7818608E-02  0.1330798E+00
          2   -1    0    0  502    0  0.00000000000E+00  0.00000000000E+00  0.76851032011E+02  0.76851032011E+02  0.00000000000E+00 0. -1.
          1   -1    0    0  501    0 -0.00000000000E+00 -0.00000000000E+00 -0.94753992253E+03  0.94753992253E+03  0.00000000000E+00 0. -1.
         25    2    1    2    0    0  0.17119418248E+02 -0.70504162033E+01 -0.91076988402E+02  0.15576770933E+03  0.12500311438E+03 0.  0.
          2    1    1    2  501    0 -0.82253354930E+02  0.40432578966E+02 -0.78946973267E+03  0.79477221054E+03  0.00000000000E+00 0. -1.
          1    1    1    2  502    0  0.65133936682E+02 -0.33382162763E+02  0.98578305558E+01  0.73851034669E+02  0.00000000000E+00 0. -1.
         22    1    3    3    0    0 -0.45796152517E+01 -0.26135147161E+02 -0.11514338014E+03  0.11816097826E+03  0.00000000000E+00 0. -1.
         22    1    3    3    0    0  0.21699033500E+02  0.19084730958E+02  0.24066391740E+02  0.37606731072E+02  0.00000000000E+00 0. -1.
</event>
<event>
 7    1  0.5452757E-006  0.7644500E+02  0.7818608E-02  0.1407633E+00
          2   -1    0    0  502    0  0.00000000000E+00  0.00000000000E+00  0.79481873771E+03  0.79481873771E+03  0.00000000000E+00 0. -1.
          1   -1    0    0  501    0 -0.00000000000E+00 -0.00000000000E+00 -0.14250015860E+03  0.14250015860E+03  0.00000000000E+00 0. -1.
         25    2    1    2    0    0 -0.10640188389E+03 -0.34129602093E+02  0.61216996276E+03  0.63471632989E+03  0.12500626179E+03 0.  0.
          2    1    1    2  501    0  0.75818476897E+02  0.30696413279E+01 -0.11703800330E+03  0.13948389998E+03  0.00000000000E+00 0. -1.
          1    1    1    2  502    0  0.30583406993E+02  0.31059960765E+02  0.15718661965E+03  0.16311866644E+03  0.00000000000E+00 0. -1.
         22    1    3    3    0    0  0.23582669313E+02 -0.99980782249E+00  0.19712186907E+03  0.19853003091E+03  0.00000000000E+00 0.  1.
         22    1    3    3    0    0 -0.12998455320E+03 -0.33129794271E+02  0.41504809369E+03  0.43618629898E+03  0.00000000000E+00 0.  1.
</event>
<event>
 7    1  0.5452757E-006  0.9663607E+02  0.7818608E-02  0.1383672E+00
          2   -1    0    0  502    0  0.00000000000E+00  0.00000000000E+00  0.40504008118E+03  0.40504008118E+03  0.00000000000E+00 0. -1.
          1   -1    0    0  501    0 -0.00000000000E+00 -0.00000000000E+00 -0.10437831791E+03  0.10437831791E+03  0.00000000000E+00 0. -1.
         25    2    1    2    0    0  0.98863038721E+02  0.13821329396E+02  0.12946657782E+03  0.20579401575E+03  0.12499861030E+03 0.  0.
          2    1    1    2  501    0 -0.82418094287E+02 -0.52182184215E+02 -0.26892363399E+02  0.10118755766E+03  0.00000000000E+00 0. -1.
          1    1    1    2  502    0 -0.16444944434E+02  0.38360854819E+02  0.19808754885E+03  0.20243682568E+03  0.00000000000E+00 0. -1.
         22    1    3    3    0    0 -0.15984120389E+02 -0.30973588619E+02  0.42328605812E+02  0.54832163613E+02  0.00000000000E+00 0.  1.
         22    1    3    3    0    0  0.11484715911E+03  0.44794918015E+02  0.87137972003E+02  0.15096185214E+03  0.00000000000E+00 0.  1.
</event>
<event>
 7    1  0.5452757E-006  0.1208382E+03  0.7818608E-02  0.1373307E+00
          2   -1    0    0  502    0  0.00000000000E+00  0.00000000000E+00  0.15440485663E+03  0.15440485663E+03  0.00000000000E+00 0. -1.
          1   -1    0    0  501    0 -0.00000000000E+00 -0.00000000000E+00 -0.15768944366E+04  0.15768944366E+04  0.00000000000E+00 0. -1.
         25    2    1    2    0    0  0.12933080775E+03  0.63038940624E+02 -0.55174860756E+02  0.19841475957E+03  0.12499514265E+03 0.  0.
          2    1    1    2  501    0 -0.11658322126E+03 -0.29020172005E+02 -0.14434946980E+04  0.14484856786E+04  0.00000000000E+00 0. -1.
          1    1    1    2  502    0 -0.12747586495E+02 -0.34018768619E+02  0.76179978762E+02  0.84398855110E+02  0.00000000000E+00 0. -1.
         22    1    3    3    0    0  0.57216218874E+02  0.20392976202E+02 -0.89258951328E+02  0.10796633537E+03  0.00000000000E+00 0. -1.
         22    1    3    3    0    0  0.72114588876E+02  0.42645964421E+02  0.34084090572E+02  0.90448424200E+02  0.00000000000E+00 0. -1.
</event>
<event>
 7    1  0.5452757E-006  0.2367031E+03  0.7818608E-02  0.1244247E+00
          2   -1    0    0  502    0  0.00000000000E+00  0.00000000000E+00  0.62280753640E+03  0.62280753640E+03  0.00000000000E+00 0. -1.
          1   -1    0    0  501    0 -0.00000000000E+00 -0.00000000000E+00 -0.13768421344E+04  0.13768421344E+04  0.00000000000E+00 0. -1.
         25    2    1    2    0    0 -0.87206942987E+02  0.19524353413E+03  0.28039133906E+03  0.37412674716E+03  0.12500572545E+03 0.  0.
          2    1    1    2  501    0 -0.49338715151E+02  0.34376245830E+02 -0.12687457244E+04  0.12701699683E+04  0.00000000000E+00 0. -1.
          1    1    1    2  502    0  0.13654565814E+03 -0.22961977996E+03  0.23431978738E+03  0.35535295533E+03  0.00000000000E+00 0. -1.
         22    1    3    3    0    0 -0.10140867495E+03  0.10747565524E+03  0.11843784133E+03  0.18937332991E+03  0.00000000000E+00 0.  1.
         22    1    3    3    0    0  0.14201731962E+02  0.87767878892E+02  0.16195349774E+03  0.18475341725E+03  0.00000000000E+00 0.  1.
</event>
<event>
 7    1  0.5452757E-006  0.1806448E+03  0.7818608E-02  0.1344788E+00
          2   -1    0    0  502    0  0.00000000000E+00  0.00000000000E+00  0.59732052287E+03  0.59732052287E+03  0.00000000000E+00 0. -1.
          1   -1    0    0  501    0 -0.00000000000E+00 -0.00000000000E+00 -0.18580666947E+04  0.18580666947E+04  0.00000000000E+00 0. -1.
         25    2    1    2    0    0  0.95932076739E+02  0.17268670853E+03 -0.14828902225E+02  0.23424064074E+03  0.12500047513E+03 0.  0.
          2    1    1    2  501    0 -0.10778610392E+03 -0.14415758035E+03 -0.17283640860E+04  0.17377116176E+04  0.00000000000E+00 0. -1.
          1    1    1    2  502    0  0.11854027183E+02 -0.28529128181E+02  0.48244681642E+03  0.48343495921E+03  0.00000000000E+00 0. -1.
         22    1    3    3    0    0  0.58558439537E+02  0.12812334148E+03 -0.67106325624E+02  0.15603826585E+03  0.00000000000E+00 0. -1.
         22    1    3    3    0    0  0.37373637202E+02  0.44563367052E+02  0.52277423399E+02  0.78202374887E+02  0.00000000000E+00 0. -1.
</event>
<event>
 7    1  0.5452757E-006  0.2061169E+03  0.7818608E-02  0.1315489E+00
          2   -1    0    0  502    0  0.00000000000E+00  0.00000000000E+00  0.85420466414E+03  0.85420466414E+03  0.00000000000E+00 0. -1.
          1   -1    0    0  501    0 -0.00000000000E+00 -0.00000000000E+00 -0.83584394294E+03  0.83584394294E+03  0.00000000000E+00 0. -1.
         25    2    1    2    0    0 -0.18670362419E+03 -0.44473316073E+02 -0.40536595244E+02  0.23260168993E+03  0.12499684587E+03 0.  0.
          2    1    1    2  501    0 -0.20495767757E+02  0.28414414591E+02 -0.68457710445E+03  0.68547302455E+03  0.00000000000E+00 0. -1.
          1    1    1    2  502    0  0.20719939195E+03  0.16058901482E+02  0.74347442089E+03  0.77197389260E+03  0.00000000000E+00 0. -1.
         22    1    3    3    0    0 -0.81773288689E+02 -0.56879703604E+02  0.31786702797E+02  0.10455891114E+03  0.00000000000E+00 0. -1.
         22    1    3    3    0    0 -0.10493033550E+03  0.12406387531E+02 -0.72323298041E+02  0.12804277879E+03  0.00000000000E+00 0. -1.
</event>
<event>
 7    1  0.5452757E-006  0.4307838E+02  0.7818608E-02  0.1515415E+00
          2   -1    0    0  502    0  0.00000000000E+00  0.00000000000E+00  0.96351243313E+03  0.96351243313E+03  0.00000000000E+00 0. -1.
          1   -1    0    0  501    0 -0.00000000000E+00 -0.00000000000E+00 -0.36338671798E+02  0.36338671798E+02  0.00000000000E+00 0. -1.
         25    2    1    2    0    0 -0.15386881106E+02 -0.32630601978E+01  0.21746963589E+03  0.25132625597E+03  0.12499776291E+03 0.  0.
          2    1    1    2  501    0  0.42663905183E+02 -0.19263132673E+02  0.99244515320E+01  0.47851560309E+02  0.00000000000E+00 0. -1.
          1    1    1    2  502    0 -0.27277024077E+02  0.22526192871E+02  0.69977967391E+03  0.70067328865E+03  0.00000000000E+00 0. -1.
         22    1    3    3    0    0  0.37789874285E+02  0.38771390092E+02  0.65887883759E+02  0.85279003948E+02  0.00000000000E+00 0.  1.
         22    1    3    3    0    0 -0.53176755391E+02 -0.42034450289E+02  0.15158175213E+03  0.16604725202E+03  0.00000000000E+00 0.  1.
</event>
<event>
 7    1  0.5452757E-006  0.3149839E+03  0.7818608E-02  0.1273567E+00
          2   -1    0    0  502    0  0.00000000000E+00  0.00000000000E+00  0.10938025016E+04  0.10938025016E+04  0.00000000000E+00 0. -1.
          1   -1    0    0  501    0 -0.00000000000E+00 -0.00000000000E+00 -0.63733377128E+03  0.63733377128E+03  0.00000000000E+00 0. -1.
         25    2    1    2    0    0 -0.23938826324E+03 -0.16698913461E+03  0.22361380052E+03  0.38835453406E+03  0.12499600267E+03 0.  0.
          2    1    1    2  501    0 -0.20871399303E+02 -0.26659202923E+02 -0.52099624583E+03  0.52209521792E+03  0.00000000000E+00 0. -1.
          1    1    1    2  502    0  0.26025966255E+03  0.19364833754E+03  0.75385117561E+03  0.82068652088E+03  0.00000000000E+00 0. -1.
         22    1    3    3    0    0 -0.24873926031E+03 -0.16539518715E+03  0.19138917080E+03  0.35476274079E+03  0.00000000000E+00 0.  1.
         22    1    3    3    0    0  0.93509970650E+01 -0.15939474639E+01  0.32224629720E+02  0.33591793272E+02  0.00000000000E+00 0.  1.
</event>
<event>
 7    1  0.5452757E-006  0.9625251E+02  0.7818608E-02  0.1466241E+00
          2   -1    0    0  502    0  0.00000000000E+00  0.00000000000E+00  0.19402013361E+04  0.19402013361E+04  0.00000000000E+00 0. -1.
          1   -1    0    0  501    0 -0.00000000000E+00 -0.00000000000E+00 -0.90295436499E+02  0.90295436499E+02  0.00000000000E+00 0. -1.
         25    2    1    2    0    0  0.69171971020E+02  0.93780020495E+02  0.33022756913E+03  0.37182531407E+03  0.12499745179E+03 0.  0.
          2    1    1    2  501    0 -0.54053884682E+02 -0.77394092396E+02 -0.37321958085E+02  0.10151155866E+03  0.00000000000E+00 0. -1.
          1    1    1    2  502    0 -0.15118086338E+02 -0.16385928100E+02  0.15570002886E+04  0.15571598999E+04  0.00000000000E+00 0. -1.
         22    1    3    3    0    0 -0.16107323260E+02  0.80145165033E+02  0.12733599103E+03  0.15131803578E+03  0.00000000000E+00 0.  1.
         22    1    3    3    0    0  0.85279294280E+02  0.13634855463E+02  0.20289157810E+03  0.22050727829E+03  0.00000000000E+00 0.  1.
</event>
<event>
 7    1  0.5452757E-006  0.4687385E+02  0.7818608E-02  0.1473365E+00
          2   -1    0    0  502    0  0.00000000000E+00  0.00000000000E+00  0.54500483012E+03  0.54500483012E+03  0.00000000000E+00 0. -1.
          1   -1    0    0  501    0 -0.00000000000E+00 -0.00000000000E+00 -0.15381402853E+03  0.15381402853E+03  0.00000000000E+00 0. -1.
         25    2    1    2    0    0  0.26124086013E+02  0.55972659159E+02  0.19843117336E+03  0.24251916198E+03  0.12500082769E+03 0.  0.
          2    1    1    2  501    0  0.17932017177E+02 -0.39634779956E+02 -0.12641195772E+03  0.13368790550E+03  0.00000000000E+00 0. -1.
          1    1    1    2  502    0 -0.44056103190E+02 -0.16337879203E+02  0.31917158596E+03  0.32261179118E+03  0.00000000000E+00 0. -1.
         22    1    3    3    0    0 -0.12445085779E+02  0.86782009225E+02  0.10448367909E+03  0.13639221562E+03  0.00000000000E+00 0.  1.
         22    1    3    3    0    0  0.38569171792E+02 -0.30809350067E+02  0.93947494268E+02  0.10612694636E+03  0.00000000000E+00 0.  1.
</event>
<event>
 7    1  0.5452757E-006  0.1079771E+03  0.7818608E-02  0.1463950E+00
          2   -1    0    0  502    0  0.00000000000E+00  0.00000000000E+00  0.20360947005E+03  0.20360947005E+03  0.00000000000E+00 0. -1.
          1   -1    0    0  501    0 -0.00000000000E+00 -0.00000000000E+00 -0.20581799701E+03  0.20581799701E+03  0.00000000000E+00 0. -1.
         25    2    1    2    0    0  0.11955234450E+03  0.36354816369E+01  0.85525979923E+02  0.19299043968E+03  0.12499854705E+03 0.  0.
          2    1    1    2  501    0 -0.10592776746E+03  0.11284603894E+02 -0.13090486673E+03  0.16877238618E+03  0.00000000000E+00 0. -1.
          1    1    1    2  502    0 -0.13624577035E+02 -0.14920085530E+02  0.43170359842E+02  0.47664641198E+02  0.00000000000E+00 0. -1.
         22    1    3    3    0    0  0.34491307790E+02  0.44122312664E+02  0.81259360620E+02  0.98688968362E+02  0.00000000000E+00 0. -1.
         22    1    3    3    0    0  0.85061036709E+02 -0.40486831027E+02  0.42666193027E+01  0.94301471319E+02  0.00000000000E+00 0. -1.
</event>
<event>
 7    1  0.5452757E-006  0.1293784E+03  0.7818608E-02  0.1287290E+00
          2   -1    0    0  502    0  0.00000000000E+00  0.00000000000E+00  0.26107173274E+04  0.26107173274E+04  0.00000000000E+00 0. -1.
          1   -1    0    0  501    0 -0.00000000000E+00 -0.00000000000E+00 -0.34356061699E+03  0.34356061699E+03  0.00000000000E+00 0. -1.
         25    2    1    2    0    0  0.14180957390E+03 -0.47139461218E+01  0.63554367099E+03  0.66307851323E+03  0.12500072176E+03 0.  0.
          2    1    1    2  501    0 -0.11372765579E+03 -0.61959030356E+02 -0.31638107441E+03  0.34186237784E+03  0.00000000000E+00 0. -1.
          1    1    1    2  502    0 -0.28081918104E+02  0.66672976478E+02  0.19479941139E+04  0.19493370533E+04  0.00000000000E+00 0. -1.
         22    1    3    3    0    0  0.16775642332E+02  0.39460861568E+02  0.28654718804E+03  0.28973759291E+03  0.00000000000E+00 0. -1.
         22    1    3    3    0    0  0.12503393157E+03 -0.44174807690E+02  0.34899648295E+03  0.37334092033E+03  0.00000000000E+00 0. -1.
</event>
<event>
 7    1  0.5452757E-006  0.1991017E+03  0.7818608E-02  0.1258068E+00
          2   -1    0    0  502    0  0.00000000000E+00  0.00000000000E+00  0.12720399282E+04  0.12720399282E+04  0.00000000000E+00 0. -1.
          1   -1    0    0  501    0 -0.00000000000E+00 -0.00000000000E+00 -0.42044721666E+03  0.42044721666E+03  0.00000000000E+00 0. -1.
         25    2    1    2    0    0  0.62526802791E+02 -0.17841437711E+03  0.27369156145E+02  0.22828070542E+03  0.12498687424E+03 0.  0.
          2    1    1    2  501    0 -0.58165668934E+02 -0.22281079267E+02 -0.30804564090E+03  0.31427982501E+03  0.00000000000E+00 0. -1.
          1    1    1    2  502    0 -0.43611338573E+01  0.20069545638E+03  0.11322691962E+04  0.11499266144E+04  0.00000000000E+00 0. -1.
         22    1    3    3    0    0  0.47519210582E+01 -0.63642360669E+02 -0.47509318605E+02  0.79561713026E+02  0.00000000000E+00 0. -1.
         22    1    3    3    0    0  0.57774881733E+02 -0.11477201644E+03  0.74878474751E+02  0.14871899239E+03  0.00000000000E+00 0. -1.
</event>
<event>
 7    1  0.5452757E-006  0.7485210E+02  0.7818608E-02  0.1456837E+00
          2   -1    0    0  502    0  0.00000000000E+00  0.00000000000E+00  0.22854883681E+03  0.22854883681E+03  0.00000000000E+00 0. -1.
          1   -1    0    0  501    0 -0.00000000000E+00 -0.00000000000E+00 -0.76837074811E+03  0.76837074811E+03  0.00000000000E+00 0. -1.
         25    2    1    2    0    0  0.92384968542E+02 -0.20101389433E+01 -0.81272806082E+02  0.17541149210E+03  0.12499959792E+03 0.  0.
          2    1    1    2  501    0 -0.22105371603E+02 -0.21290827642E+02 -0.63208870566E+03  0.63283337350E+03  0.00000000000E+00 0. -1.
          1    1    1    2  502    0 -0.70279596939E+02  0.23300966585E+02  0.17353960045E+03  0.18867471933E+03  0.00000000000E+00 0. -1.
         22    1    3    3    0    0  0.11607730047E+03  0.12748238680E+01 -0.93027253818E+02  0.14876032675E+03  0.00000000000E+00 0. -1.
         22    1    3    3    0    0 -0.23692331930E+02 -0.32849628113E+01  0.11754447736E+02  0.26651165351E+02  0.00000000000E+00 0. -1.
</event>
<event>
 7    1  0.5452757E-006  0.6371820E+02  0.7818608E-02  0.1513884E+00
          2   -1    0    0  502    0  0.00000000000E+00  0.00000000000E+00  0.33432633350E+03  0.33432633350E+03  0.00000000000E+00 0. -1.
          1   -1    0    0  501    0 -0.00000000000E+00 -0.00000000000E+00 -0.34701667466E+03  0.34701667466E+03  0.00000000000E+00 0. -1.
         25    2    1    2    0    0 -0.12652937857E+02  0.85023537574E+02 -0.42853381451E+02  0.15764096182E+03  0.12500064705E+03 0.  0.
          2    1    1    2  501    0 -0.27717345887E+01 -0.24005238508E+02 -0.24258551973E+03  0.24378611193E+03  0.00000000000E+00 0. -1.
          1    1    1    2  502    0  0.15424672446E+02 -0.61018299066E+02  0.27274856003E+03  0.27991593441E+03  0.00000000000E+00 0. -1.
         22    1    3    3    0    0  0.15171663205E+02 -0.23718874814E+02 -0.35282677336E+02  0.45140134103E+02  0.00000000000E+00 0. -1.
         22    1    3    3    0    0 -0.27824601062E+02  0.10874241239E+03 -0.75707041143E+01  0.11250082772E+03  0.00000000000E+00 0. -1.
</event>
<event>
 7    1  0.5452757E-006  0.1441405E+03  0.7818608E-02  0.1319214E+00
          2   -1    0    0  502    0  0.00000000000E+00  0.00000000000E+00  0.10993685380E+04  0.10993685380E+04  0.00000000000E+00 0. -1.
          1   -1    0    0  501    0 -0.00000000000E+00 -0.00000000000E+00 -0.13344341354E+04  0.13344341354E+04  0.00000000000E+00 0. -1.
         25    2    1    2    0    0 -0.16573645659E+03  0.92554250902E+02  0.53916303322E+02  0.23359606293E+03  0.12500116179E+03 0.  0.
          2    1    1    2  501    0  0.40910815687E+02 -0.25961364584E+02 -0.12388816421E+04  0.12398287827E+04  0.00000000000E+00 0. -1.
          1    1    1    2  502    0  0.12482564091E+03 -0.66592886318E+02  0.94989974145E+03  0.96037782770E+03  0.00000000000E+00 0. -1.
         22    1    3    3    0    0  0.82840146444E+01  0.85999231308E+01 -0.22777570928E+02  0.25717723730E+02  0.00000000000E+00 0. -1.
         22    1    3    3    0    0 -0.17402047124E+03  0.83954327771E+02  0.76693874250E+02  0.20787833920E+03  0.00000000000E+00 0. -1.
</event>
<event>
 7    1  0.5452757E-006  0.9090104E+02  0.7818608E-02  0.1343534E+00
          2   -1    0    0  502    0  0.00000000000E+00  0.00000000000E+00  0.11999900410E+04  0.11999900410E+04  0.00000000000E+00 0. -1.
          1   -1    0    0  501    0 -0.00000000000E+00 -0.00000000000E+00 -0.13948750315E+03  0.13948750315E+03  0.00000000000E+00 0. -1.
         25    2    1    2    0    0  0.11548048106E+03  0.77797234984E+02  0.21429860684E+02  0.18833227767E+03  0.12498662571E+03 0.  0.
          2    1    1    2  501    0 -0.69315202188E+02 -0.36320971292E+02 -0.27366402265E+02  0.82901931116E+02  0.00000000000E+00 0. -1.
          1    1    1    2  502    0 -0.46165278873E+02 -0.41476263692E+02  0.10664390795E+04  0.10682433354E+04  0.00000000000E+00 0. -1.
         22    1    3    3    0    0  0.12553442876E+03  0.49122380131E+02 -0.20704469333E+02  0.13638392898E+03  0.00000000000E+00 0. -1.
         22    1    3    3    0    0 -0.10053947699E+02  0.28674854854E+02  0.42134330018E+02  0.51948348687E+02  0.00000000000E+00 0. -1.
</event>
<event>
 7    1  0.5452757E-006  0.1053810E+03  0.7818608E-02  0.1307476E+00
          2   -1    0    0  502    0  0.00000000000E+00  0.00000000000E+00  0.22152063734E+04  0.22152063734E+04  0.00000000000E+00 0. -1.
          1   -1    0    0  501    0 -0.00000000000E+00 -0.00000000000E+00 -0.50847953867E+02  0.50847953867E+02  0.00000000000E+00 0. -1.
         25    2    1    2    0    0 -0.31579619580E+02 -0.56572293734E+02  0.84488813285E+02  0.16419445019E+03  0.12499504435E+03 0.  0.
          2    1    1    2  501    0  0.55747209054E+02 -0.48179356571E+02  0.13317486243E+03  0.15219903318E+03  0.00000000000E+00 0. -1.
          1    1    1    2  502    0 -0.24167589475E+02  0.10475165031E+03  0.19466947438E+04  0.19496608439E+04  0.00000000000E+00 0. -1.
         22    1    3    3    0    0 -0.48826132279E+02 -0.54673332828E+02 -0.45863041865E+01  0.73445208842E+02  0.00000000000E+00 0.  1.
         22    1    3    3    0    0  0.17246512699E+02 -0.18989609062E+01  0.89075117471E+02  0.90749241348E+02  0.00000000000E+00 0.  1.
</event>
<event>
 7    1  0.5452757E-006  0.8980383E+02  0.7818608E-02  0.1358770E+00
          2   -1    0    0  502    0  0.00000000000E+00  0.00000000000E+00  0.22550312710E+03  0.22550312710E+03  0.00000000000E+00 0. -1.
          1   -1    0    0  501    0 -0.00000000000E+00 -0.00000000000E+00 -0.57538294026E+03  0.57538294026E+03  0.00000000000E+00 0. -1.
         25    2    1    2    0    0 -0.85787113513E+01 -0.44764599322E+02 -0.13666068603E+03  0.19073295527E+03  0.12500181390E+03 0.  0.
          2    1    1    2  501    0  0.31212242890E+02 -0.45497044549E+02 -0.39877338531E+03  0.40257222706E+03  0.00000000000E+00 0. -1.
          1    1    1    2  502    0 -0.22633531539E+02  0.90261643871E+02  0.18555425818E+03  0.20758088504E+03  0.00000000000E+00 0. -1.
         22    1    3    3    0    0  0.12961714942E+02  0.35161782396E+02 -0.85676133083E+02  0.93513404256E+02  0.00000000000E+00 0.  1.
         22    1    3    3    0    0 -0.21540426293E+02 -0.79926381718E+02 -0.50984552951E+02  0.97219551012E+02  0.00000000000E+00 0.  1.
</event>
<event>
 7    1  0.5452757E-006  0.1260323E+03  0.7818608E-02  0.1246281E+00
          2   -1    0    0  502    0  0.00000000000E+00  0.00000000000E+00  0.31366319955E+03  0.31366319955E+03  0.00000000000E+00 0. -1.
          1   -1    0    0  501    0 -0.00000000000E+00 -0.00000000000E+00 -0.59380580030E+03  0.59380580030E+03  0.00000000000E+00 0. -1.
         25    2    1    2    0    0  0.11699123350E+03 -0.63202605680E+02  0.24789460860E+02  0.18417715226E+03  0.12500075186E+03 0.  0.
          2    1    1    2  501    0 -0.26127398930E+02  0.12634562712E+03 -0.49052997204E+03  0.50721347767E+03  0.00000000000E+00 0. -1.
          1    1    1    2  502    0 -0.90863834567E+02 -0.63143021436E+02  0.18559791043E+03  0.21607836991E+03  0.00000000000E+00 0. -1.
         22    1    3    3    0    0  0.77324570893E+02 -0.10066829262E+03  0.26122955662E+02  0.12959785190E+03  0.00000000000E+00 0.  1.
         22    1    3    3    0    0  0.39666662603E+02  0.37465686944E+02 -0.13334948019E+01  0.54579300368E+02  0.00000000000E+00 0.  1.
</event>
<event>
 7    1  0.5452757E-006  0.3755027E+02  0.7818608E-02  0.1613611E+00
          2   -1    0    0  502    0  0.00000000000E+00  0.00000000000E+00  0.22637784359E+04  0.22637784359E+04  0.00000000000E+00 0. -1.
          1   -1    0    0  501    0 -0.00000000000E+00 -0.00000000000E+00 -0.41691661714E+02  0.41691661714E+02  0.00000000000E+00 0. -1.
         25    2    1    2    0    0  0.16904677659E+02 -0.51315018013E+02  0.43245123032E+03  0.45338502944E+03  0.12499967645E+03 0.  0.
          2    1    1    2  501    0  0.51416261077E+01  0.21232436338E+02 -0.27188704299E+02  0.34878049162E+02  0.00000000000E+00 0. -1.
          1    1    1    2  502    0 -0.22046303767E+02  0.30082581675E+02  0.18168242481E+04  0.18172070190E+04  0.00000000000E+00 0. -1.
         22    1    3    3    0    0  0.54764237951E+02  0.22581080794E+01  0.95533389417E+02  0.11014013485E+03  0.00000000000E+00 0. -1.
         22    1    3    3    0    0 -0.37859560292E+02 -0.53573126092E+02  0.33691784090E+03  0.34324489459E+03  0.00000000000E+00 0. -1.
</event>
<event>
 7    1  0.5452757E-006  0.1962305E+03  0.7818608E-02  0.1198069E+00
          2   -1    0    0  502    0  0.00000000000E+00  0.00000000000E+00  0.25965442366E+04  0.25965442366E+04  0.00000000000E+00 0. -1.
          1   -1    0    0  501    0 -0.00000000000E+00 -0.00000000000E+00 -0.95819242679E+03  0.95819242679E+03  0.00000000000E+00 0. -1.
         25    2    1    2    0    0 -0.42220781192E+02  0.26722910397E+03  0.25656442269E+03  0.39324765024E+03  0.12499769222E+03 0.  0.
          2    1    1    2  501    0  0.10175382752E+03 -0.16569807118E+03 -0.87767831016E+03  0.89895990363E+03  0.00000000000E+00 0. -1.
          1    1    1    2  502    0 -0.59533046323E+02 -0.10153103279E+03  0.22594656973E+04  0.22625291095E+04  0.00000000000E+00 0. -1.
         22    1    3    3    0    0 -0.80423298453E+02  0.19042851983E+03  0.14490745989E+03  0.25244623196E+03  0.00000000000E+00 0. -1.
         22    1    3    3    0    0  0.38202517260E+02  0.76800584138E+02  0.11165696280E+03  0.14080141828E+03  0.00000000000E+00 0. -1.
</event>
<event>
 7    1  0.5452757E-006  0.1442502E+03  0.7818608E-02  0.1256004E+00
          2   -1    0    0  502    0  0.00000000000E+00  0.00000000000E+00  0.98582563542E+03  0.98582563542E+03  0.00000000000E+00 0. -1.
          1   -1    0    0  501    0 -0.00000000000E+00 -0.00000000000E+00 -0.21298714967E+04  0.21298714967E+04  0.00000000000E+00 0. -1.
         25    2    1    2    0    0 -0.40387062620E+02 -0.22308648127E+03 -0.76345946797E+02  0.26991355443E+03  0.12500372124E+03 0.  0.
          2    1    1    2  501    0 -0.12456962739E+01  0.87733457894E+02 -0.19501098818E+04  0.19520828012E+04  0.00000000000E+00 0. -1.
          1    1    1    2  502    0  0.41632758894E+02  0.13535302337E+03  0.88240996733E+03  0.89370077654E+03  0.00000000000E+00 0. -1.
         22    1    3    3    0    0 -0.79876309702E+02 -0.13957110037E+03 -0.75199894030E+02  0.17752560652E+03  0.00000000000E+00 0.  1.
         22    1    3    3    0    0  0.39489247082E+02 -0.83515380903E+02 -0.11460527663E+01  0.92387947912E+02  0.00000000000E+00 0.  1.
</event>
<event>
 7    1  0.5452757E-006  0.9440206E+02  0.7818608E-02  0.1470156E+00
          2   -1    0    0  502    0  0.00000000000E+00  0.00000000000E+00  0.12180703935E+04  0.12180703935E+04  0.00000000000E+00 0. -1.
          1   -1    0    0  501    0 -0.00000000000E+00 -0.00000000000E+00 -0.23708451658E+03  0.23708451658E+03  0.00000000000E+00 0. -1.
         25    2    1    2    0    0  0.10272582601E+03  0.31896699967E+02  0.35880563723E+03  0.39488926039E+03  0.12500419138E+03 0.  0.
          2    1    1    2  501    0 -0.93337326336E+02 -0.11888380374E+02 -0.20878457662E+03  0.22900696389E+03  0.00000000000E+00 0. -1.
          1    1    1    2  502    0 -0.93884996777E+01 -0.20008319593E+02  0.83096481636E+03  0.83125868585E+03  0.00000000000E+00 0. -1.
         22    1    3    3    0    0  0.22164864011E+02 -0.42142433756E+02  0.59474079500E+02  0.76186823348E+02  0.00000000000E+00 0. -1.
         22    1    3    3    0    0  0.80560962003E+02  0.74039133722E+02  0.29933155773E+03  0.31870243704E+03  0.00000000000E+00 0. -1.
</event>
<event>
 7    1  0.5452757E-006  0.5683034E+02  0.7818608E-02  0.1464981E+00
          2   -1    0    0  502    0  0.00000000000E+00  0.00000000000E+00  0.48700065223E+02  0.48700065223E+02  0.00000000000E+00 0. -1.
          1   -1    0    0  501    0 -0.00000000000E+00 -0.00000000000E+00 -0.19565739100E+04  0.19565739100E+04  0.00000000000E+00 0. -1.
         25    2    1    2    0    0 -0.89282151623E+02 -0.16302228921E+02 -0.45787254938E+03  0.48322694414E+03  0.12499577114E+03 0.  0.
          2    1    1    2  501    0  0.33929694232E+02  0.17341738935E+02 -0.14643579230E+04  0.14648536059E+04  0.00000000000E+00 0. -1.
          1    1    1    2  502    0  0.55352457391E+02 -0.10395100142E+01  0.14356627657E+02  0.57193425129E+02  0.00000000000E+00 0. -1.
         22    1    3    3    0    0 -0.22981115857E+02 -0.62444987013E+02 -0.13644754698E+03  0.15180725004E+03  0.00000000000E+00 0. -1.
         22    1    3    3    0    0 -0.66301035766E+02  0.46142758092E+02 -0.32142500240E+03  0.33141969410E+03  0.00000000000E+00 0. -1.
</event>
<event>
 7    1  0.5452757E-006  0.5257498E+02  0.7818608E-02  0.1453498E+00
          2   -1    0    0  502    0  0.00000000000E+00  0.00000000000E+00  0.27027157953E+03  0.27027157953E+03  0.00000000000E+00 0. -1.
          1   -1    0    0  501    0 -0.00000000000E+00 -0.00000000000E+00 -0.27688055984E+03  0.27688055984E+03  0.00000000000E+00 0. -1.
         25    2    1    2    0    0 -0.31810507150E+01  0.33359444354E+02  0.82245698104E+02  0.15333630587E+03  0.12499878491E+03 0.  0.
          2    1    1    2  501    0 -0.41594296815E+02 -0.33550444696E+02 -0.23498227149E+03  0.24098212752E+03  0.00000000000E+00 0. -1.
          1    1    1    2  502    0  0.44775347530E+02  0.19100034202E+00  0.14612759308E+03  0.15283370599E+03  0.00000000000E+00 0. -1.
         22    1    3    3    0    0  0.54772340442E+02  0.44128707619E+02  0.41318741699E+02  0.81575673636E+02  0.00000000000E+00 0.  1.
         22    1    3    3    0    0 -0.57953391157E+02 -0.10769263264E+02  0.40926956405E+02  0.71760632232E+02  0.00000000000E+00 0.  1.
</event>
<event>
 7    1  0.5452757E-006  0.2980354E+02  0.7818608E-02  0.1620018E+00
          2   -1    0    0  502    0  0.00000000000E+00  0.00000000000E+00  0.23167797858E+03  0.23167797858E+03  0.00000000000E+00 0. -1.
          1   -1    0    0  501    0 -0.00000000000E+00 -0.00000000000E+00 -0.75967551207E+03  0.75967551207E+03  0.00000000000E+00 0. -1.
         25    2    1    2    0    0  0.55386520910E+02 -0.10128344597E+01  0.57275036708E+02  0.14823987050E+03  0.12500374732E+03 0.  0.
          2    1    1    2  501    0 -0.26497978713E+02  0.63196890644E+00 -0.71232489411E+03  0.71281785684E+03  0.00000000000E+00 0. -1.
          1    1    1    2  502    0 -0.28888542198E+02  0.38086555326E+00  0.12705232390E+03  0.13029576332E+03  0.00000000000E+00 0. -1.
         22    1    3    3    0    0  0.46922274599E+01 -0.33587075844E+02 -0.27893131225E+02  0.43910538961E+02  0.00000000000E+00 0. -1.
         22    1    3    3    0    0  0.50694293450E+02  0.32574241384E+02  0.85168167933E+02  0.10432933154E+03  0.00000000000E+00 0. -1.
</event>
<event>
 7    1  0.5452757E-006  0.6395018E+02  0.7818608E-02  0.1390846E+00
          2   -1    0    0  502    0  0.00000000000E+00  0.00000000000E+00  0.51586732286E+03  0.51586732286E+03  0.00000000000E+00 0. -1.
          1   -1    0    0  501    0 -0.00000000000E+00 -0.00000000000E+00 -0.44032699364E+03  0.44032699364E+03  0.00000000000E+00 0. -1.
         25    2    1    2    0    0 -0.12178096050E+03  0.13423531816E+02 -0.76794051592E+02  0.19111929820E+03  0.12497386222E+03 0.  0.
          2    1    1    2  501    0  0.59119039374E+02 -0.69205738255E+01 -0.30128168889E+03  0.30710521197E+03  0.00000000000E+00 0. -1.
          1    1    1    2  502    0  0.62661921122E+02 -0.65029579905E+01  0.45361606970E+03  0.45796980633E+03  0.00000000000E+00 0. -1.
         22    1    3    3    0    0 -0.86411744007E+02  0.46338931563E+02 -0.97751189304E+02  0.13845425631E+03  0.00000000000E+00 0. -1.
         22    1    3    3    0    0 -0.35369216489E+02 -0.32915399747E+02  0.20957137712E+02  0.52665041884E+02  0.00000000000E+00 0. -1.
</event>
<event>
 7    1  0.5452757E-006  0.1371388E+03  0.7818608E-02  0.1224030E+00
          2   -1    0    0  502    0  0.00000000000E+00  0.00000000000E+00  0.14587918485E+04  0.14587918485E+04  0.00000000000E+00 0. -1.
          1   -1    0    0  501    0 -0.00000000000E+00 -0.00000000000E+00 -0.44010476441E+02  0.44010476441E+02  0.00000000000E+00 0. -1.
         25    2    1    2    0    0 -0.15714224441E+03 -0.76840982509E+02  0.63350290306E+03  0.66898689385E+03  0.12497725547E+03 0.  0.
          2    1    1    2  501    0  0.29380553293E+02  0.12427600523E+03  0.20404183381E+03  0.24070897850E+03  0.00000000000E+00 0. -1.
          1    1    1    2  502    0  0.12776169112E+03 -0.47435022721E+02  0.57723663519E+03  0.59310645259E+03  0.00000000000E+00 0. -1.
         22    1    3    3    0    0 -0.75914266256E+02  0.99789888934E+01  0.39659949631E+03  0.40392290913E+03  0.00000000000E+00 0.  1.
         22    1    3    3    0    0 -0.81227978154E+02 -0.86819971403E+02  0.23690340675E+03  0.26506398472E+03  0.00000000000E+00 0.  1.
</event>
<event>
 7    1  0.5452757E-006  0.5702279E+02  0.7818608E-02  0.1442234E+00
          2   -1    0    0  502    0  0.00000000000E+00  0.00000000000E+00  0.81905092849E+03  0.81905092849E+03  0.00000000000E+00 0. -1.
          1   -1    0    0  501    0 -0.00000000000E+00 -0.00000000000E+00 -0.11971689868E+03  0.11971689868E+03  0.00000000000E+00 0. -1.
         25    2    1    2    0    0  0.14687250496E+02  0.41472168801E+02  0.32719913388E+03  0.35301550607E+03  0.12500007280E+03 0.  0.
          2    1    1    2  501    0 -0.43099760349E+02  0.12467075691E+02 -0.10004921535E+03  0.10964881582E+03  0.00000000000E+00 0. -1.
          1    1    1    2  502    0  0.28412509853E+02 -0.53939244493E+02  0.47218411127E+03  0.47610350529E+03  0.00000000000E+00 0. -1.
         22    1    3    3    0    0 -0.22507834851E+02  0.64810380786E+02  0.97880661450E+02  0.11953079927E+03  0.00000000000E+00 0.  1.
         22    1    3    3    0    0  0.37195085347E+02 -0.23338211984E+02  0.22931847243E+03  0.23348470680E+03  0.00000000000E+00 0.  1.
</event>
<event>
 7    1  0.5452757E-006  0.7227944E+02  0.7818608E-02  0.1408488E+00
          2   -1    0    0  502    0  0.00000000000E+00  0.00000000000E+00  0.26883789350E+03  0.26883789350E+03  0.00000000000E+00 0. -1.
          1   -1    0    0  501    0 -0.00000000000E+00 -0.00000000000E+00 -0.42051383861E+03  0.42051383861E+03  0.00000000000E+00 0. -1.
         25    2    1    2    0    0 -0.30856118878E+02  0.10160652305E+02  0.79011442138E+01  0.12939132705E+03  0.12499739400E+03 0.  0.
          2    1    1    2  501    0  0.74580074663E+02  0.34542574315E+01 -0.35319537662E+03  0.36100012950E+03  0.00000000000E+00 0. -1.
          1    1    1    2  502    0 -0.43723955785E+02 -0.13614909737E+02  0.19361828730E+03  0.19896027556E+03  0.00000000000E+00 0. -1.
         22    1    3    3    0    0 -0.31560318866E+01  0.24531197179E+02  0.62103636696E+02  0.66847601776E+02  0.00000000000E+00 0.  1.
         22    1    3    3    0    0 -0.27700086992E+02 -0.14370544874E+02 -0.54202492482E+02  0.62543725270E+02  0.00000000000E+00 0.  1.
</event>
<event>
 7    1  0.5452757E-006  0.1260184E+03  0.7818608E-02  0.1328129E+00
          2   -1    0    0  502    0  0.00000000000E+00  0.00000000000E+00  0.25207087728E+03  0.25207087728E+03  0.00000000000E+00 0. -1.
          1   -1    0    0  501    0 -0.00000000000E+00 -0.00000000000E+00 -0.95558156366E+03  0.95558156366E+03  0.00000000000E+00 0. -1.
         25    2    1    2    0    0  0.12439944645E+03  0.11433809084E+02  0.20844258458E+02  0.17795393797E+03  0.12500866634E+03 0.  0.
          2    1    1    2  501    0 -0.16182166684E+01 -0.51175123874E+02 -0.84884494310E+03  0.85038770532E+03  0.00000000000E+00 0. -1.
          1    1    1    2  502    0 -0.12278122978E+03  0.39741314790E+02  0.12448999826E+03  0.17931079765E+03  0.00000000000E+00 0. -1.
         22    1    3    3    0    0  0.91725716063E+02  0.65939857540E+02  0.91466572167E+01  0.11333725397E+03  0.00000000000E+00 0. -1.
         22    1    3    3    0    0  0.32673730389E+02 -0.54506048456E+02  0.11697601241E+02  0.64616683996E+02  0.00000000000E+00 0. -1.
</event>
<event>
 7    1  0.5452757E-006  0.1207387E+03  0.7818608E-02  0.1383061E+00
          2   -1    0    0  502    0  0.00000000000E+00  0.00000000000E+00  0.11402824997E+03  0.11402824997E+03  0.00000000000E+00 0. -1.
          1   -1    0    0  501    0 -0.00000000000E+00 -0.00000000000E+00 -0.12133056961E+04  0.12133056961E+04  0.00000000000E+00 0. -1.
         25    2    1    2    0    0 -0.31745031583E+02  0.10833542503E+03 -0.28279497375E+02  0.17078863540E+03  0.12499886664E+03 0.  0.
          2    1    1    2  501    0 -0.33252304160E+02  0.46166933668E+01 -0.10135847676E+04  0.10141405773E+04  0.00000000000E+00 0. -1.
          1    1    1    2  502    0  0.64997335744E+02 -0.11295211840E+03 -0.57413181235E+02  0.14240473336E+03  0.00000000000E+00 0. -1.
         22    1    3    3    0    0 -0.60162521231E+00  0.10756792902E+03  0.23736403474E+02  0.11015733365E+03  0.00000000000E+00 0. -1.
         22    1    3    3    0    0 -0.31143406371E+02  0.76749600790E+00 -0.52015900848E+02  0.60631301747E+02  0.00000000000E+00 0. -1.
</event>
<event>
 7    1  0.5452757E-006  0.7792168E+02  0.7818608E-02  0.1411723E+00
          2   -1    0    0  502    0  0.00000000000E+00  0.00000000000E+00  0.22678730282E+03  0.22678730282E+03  0.00000000000E+00 0. -1.
          1   -1    0    0  501    0 -0.00000000000E+00 -0.00000000000E+00 -0.83921281994E+03  0.83921281994E+03  0.00000000000E+00 0. -1.
         25    2    1    2    0    0  0.27093632896E+02  0.11389867679E+03 -0.47413812217E+03  0.50412178727E+03  0.12499937594E+03 0.  0.
          2    1    1    2  501    0 -0.33798734759E-01 -0.41419812587E+02 -0.34172528036E+03  0.34422633434E+03  0.00000000000E+00 0. -1.
          1    1    1    2  502    0 -0.27059834161E+02 -0.72478864207E+02  0.20343788541E+03  0.21765200115E+03  0.00000000000E+00 0. -1.
         22    1    3    3    0    0  0.28509465178E+02  0.28138180354E+02 -0.35536829728E+03  0.35761875441E+03  0.00000000000E+00 0. -1.
         22    1    3    3    0    0 -0.14158322815E+01  0.85760496440E+02 -0.11876982489E+03  0.14650303286E+03  0.00000000000E+00 0. -1.
</event>
<event>
 7    1  0.5452757E-006  0.3437873E+02  0.7818608E-02  0.1603002E+00
          2   -1    0    0  502    0  0.00000000000E+00  0.00000000000E+00  0.30373248519E+02  0.30373248519E+02  0.00000000000E+00 0. -1.
          1   -1    0    0  501    0 -0.00000000000E+00 -0.00000000000E+00 -0.95682562790E+03  0.95682562790E+03  0.00000000000E+00 0. -1.
         25    2    1    2    0    0 -0.12541452075E+02  0.32817288142E+02 -0.23545280272E+03  0.26888085950E+03  0.12499852748E+03 0.  0.
          2    1    1    2  501    0 -0.12865707409E+02 -0.32113813170E+02 -0.69201658521E+03  0.69288078168E+03  0.00000000000E+00 0. -1.
          1    1    1    2  502    0  0.25407159484E+02 -0.70347497186E+00  0.10170085529E+01  0.25437235236E+02  0.00000000000E+00 0. -1.
         22    1    3    3    0    0  0.56375121234E+02  0.18896128526E+02 -0.11246332325E+03  0.12721327385E+03  0.00000000000E+00 0. -1.
         22    1    3    3    0    0 -0.68916573308E+02  0.13921159616E+02 -0.12298947947E+03  0.14166758564E+03  0.00000000000E+00 0. -1.
</event>
<event>
 7    1  0.5452757E-006  0.1878294E+03  0.7818608E-02  0.1263336E+00
          2   -1    0    0  502    0  0.00000000000E+00  0.00000000000E+00  0.30530783940E+04  0.30530783940E+04  0.00000000000E+00 0. -1.
          1   -1    0    0  501    0 -0.00000000000E+00 -0.00000000000E+00 -0.63326384680E+03  0.63326384680E+03  0.00000000000E+00 0. -1.
         25    2    1    2    0    0 -0.14647446967E+03 -0.16599142424E+01  0.24455819320E+03  0.31126385542E+03  0.12497580665E+03 0.  0.
          2    1    1    2  501    0  0.18406471219E+03 -0.48520193229E+02 -0.58444622975E+03  0.61466366648E+03  0.00000000000E+00 0. -1.
          1    1    1    2  502    0 -0.37590242522E+02  0.50180107472E+02  0.27597025838E+04  0.27604147189E+04  0.00000000000E+00 0. -1.
         22    1    3    3    0    0 -0.71131566257E+02  0.60614643423E+02  0.10118283859E+03  0.13773816298E+03  0.00000000000E+00 0.  1.
         22    1    3    3    0    0 -0.75342903416E+02 -0.62274557665E+02  0.14337535461E+03  0.17352569244E+03  0.00000000000E+00 0.  1.
</event>
<event>
 7    1  0.5452757E-006  0.4930863E+02  0.7818608E-02  0.1458101E+00
          2   -1    0    0  502    0  0.00000000000E+00  0.00000000000E+00  0.36185152939E+03  0.36185152939E+03  0.00000000000E+00 0. -1.
          1   -1    0    0  501    0 -0.00000000000E+00 -0.00000000000E+00 -0.15776122099E+04  0.15776122099E+04  0.00000000000E+00 0. -1.
         25    2    1    2    0    0  0.33045375378E+02 -0.46453401194E+01  0.11723456042E+03  0.17459118780E+03  0.12499825872E+03 0.  0.
          2    1    1    2  501    0 -0.28485565029E+00  0.46161899477E+02 -0.15453460062E+04  0.15460353428E+04  0.00000000000E+00 0. -1.
          1    1    1    2  502    0 -0.32760519727E+02 -0.41516559358E+02  0.21235076535E+03  0.21883720867E+03  0.00000000000E+00 0. -1.
         22    1    3    3    0    0  0.80719856784E+02  0.23820498545E+01  0.66429599665E+02  0.10456701752E+03  0.00000000000E+00 0.  1.
         22    1    3    3    0    0 -0.47674481406E+02 -0.70273899739E+01  0.50804960753E+02  0.70024170287E+02  0.00000000000E+00 0.  1.
</event>
<event>
 7    1  0.5452757E-006  0.8032360E+02  0.7818608E-02  0.1479373E+00
          2   -1    0    0  502    0  0.00000000000E+00  0.00000000000E+00  0.15693354619E+04  0.15693354619E+04  0.00000000000E+00 0. -1.
          1   -1    0    0  501    0 -0.00000000000E+00 -0.00000000000E+00 -0.51029621217E+03  0.51029621217E+03  0.00000000000E+00 0. -1.
         25    2    1    2    0    0 -0.38492874436E+02  0.86329424795E+02  0.77768767671E+02  0.17495156950E+03  0.12500239789E+03 0.  0.
          2    1    1    2  501    0  0.23048536637E+02 -0.77811110280E+01 -0.46027308969E+03  0.46091549966E+03  0.00000000000E+00 0. -1.
          1    1    1    2  502    0  0.15444337799E+02 -0.78548313767E+02  0.14415435717E+04  0.14437646049E+04  0.00000000000E+00 0. -1.
         22    1    3    3    0    0 -0.21916260272E+02  0.20804918545E+02 -0.33279250553E+02  0.44951925625E+02  0.00000000000E+00 0.  1.
         22    1    3    3    0    0 -0.16576614164E+02  0.65524506250E+02  0.11104801822E+03  0.12999964388E+03  0.00000000000E+00 0.  1.
</event>
<event>
 7    1  0.5452757E-006  0.4201416E+02  0.7818608E-02  0.1603264E+00
          2   -1    0    0  502    0  0.00000000000E+00  0.00000000000E+00  0.16538875937E+02  0.16538875937E+02  0.00000000000E+00 0. -1.
          1   -1    0    0  501    0 -0.00000000000E+00 -0.00000000000E+00 -0.21711870091E+04  0.21711870091E+04  0.00000000000E+00 0. -1.
         25    2    1    2    0    0 -0.68683269526E+01 -0.28727572429E+02 -0.16649549339E+04  0.16699017796E+04  0.12499829726E+03 0.  0.
          2    1    1    2  501    0  0.16618480709E+02 -0.12450753362E+02 -0.47117562133E+03  0.47163297308E+03  0.00000000000E+00 0. -1.
          1    1    1    2  502    0 -0.97501537559E+01  0.41178325790E+02 -0.18517577910E+02  0.46191132318E+02  0.00000000000E+00 0. -1.
         22    1    3    3    0    0 -0.48819114922E+02 -0.58968533812E+02 -0.10356124918E+04  0.10384381673E+04  0.00000000000E+00 0.  1.
         22    1    3    3    0    0  0.41950787970E+02  0.30240961383E+02 -0.62934244207E+03  0.63146361237E+03  0.00000000000E+00 0.  1.
</event>
<event>
 7    1  0.5452757E-006  0.2331976E+03  0.7818608E-02  0.1255292E+00
          2   -1    0    0  502    0  0.00000000000E+00  0.00000000000E+00  0.32276924282E+03  0.32276924282E+03  0.00000000000E+00 0. -1.
          1   -1    0    0  501    0 -0.00000000000E+00 -0.00000000000E+00 -0.64978709367E+03  0.64978709367E+03  0.00000000000E+00 0. -1.
         25    2    1    2    0    0  0.25404883622E+03 -0.96519588594E+02 -0.11539098542E+03  0.32061959196E+03  0.12500000427E+03 0.  0.
          2    1    1    2  501    0 -0.54520632300E+02 -0.38921309167E+01 -0.37261228250E+03  0.37660000146E+03  0.00000000000E+00 0. -1.
          1    1    1    2  502    0 -0.19952820392E+03  0.10041171951E+03  0.16098541707E+03  0.27533674307E+03  0.00000000000E+00 0. -1.
         22    1    3    3    0    0  0.11793936826E+03 -0.10456886740E+03 -0.32135623275E+02  0.16086342312E+03  0.00000000000E+00 0. -1.
         22    1    3    3    0    0  0.13610946796E+03  0.80492788037E+01 -0.83255362141E+02  0.15975616885E+03  0.00000000000E+00 0. -1.
</event>
<event>
 7    1  0.5452757E-006  0.6953285E+02  0.7818608E-02  0.1491522E+00
          2   -1    0    0  502    0  0.00000000000E+00  0.00000000000E+00  0.99520602647E+03  0.99520602647E+03  0.00000000000E+00 0. -1.
          1   -1    0    0  501    0 -0.00000000000E+00 -0.00000000000E+00 -0.71022833852E+03  0.71022833852E+03  0.00000000000E+00 0. -1.
         25    2    1    2    0    0  0.73987815456E+02 -0.46322909721E+02  0.41172565887E+03  0.43904831124E+03  0.12500157053E+03 0.  0.
          2    1    1    2  501    0 -0.25802362557E+02 -0.50998413821E+00 -0.69434549800E+03  0.69482493665E+03  0.00000000000E+00 0. -1.
          1    1    1    2  502    0 -0.48185452899E+02  0.46832893859E+02  0.56759752709E+03  0.57156111710E+03  0.00000000000E+00 0. -1.
         22    1    3    3    0    0 -0.80621669363E+01  0.16527172906E+01 -0.62930848712E+01  0.10360160585E+02  0.00000000000E+00 0. -1.
         22    1    3    3    0    0  0.82049982392E+02 -0.47975627011E+02  0.41801874374E+03  0.42868815066E+03  0.00000000000E+00 0. -1.
</event>
<event>
 7    1  0.5452757E-006  0.1964830E+03  0.7818608E-02  0.1313058E+00
          2   -1    0    0  502    0  0.00000000000E+00  0.00000000000E+00  0.19727385195E+04  0.19727385195E+04  0.00000000000E+00 0. -1.
          1   -1    0    0  501    0 -0.00000000000E+00 -0.00000000000E+00 -0.10137618998E+03  0.10137618998E+03  0.00000000000E+00 0. -1.
         25    2    1    2    0    0  0.28845135818E+02 -0.17034935474E+03  0.60296431225E+03  0.63956420548E+03  0.12500186625E+03 0.  0.
          2    1    1    2  501    0 -0.11175226507E+02 -0.35866359670E+02 -0.70427981010E+02  0.79820936806E+02  0.00000000000E+00 0. -1.
          1    1    1    2  502    0 -0.17669909312E+02  0.20621571441E+03  0.13388259983E+04  0.13547295672E+04  0.00000000000E+00 0. -1.
         22    1    3    3    0    0  0.61966306892E+02 -0.15880341851E+03  0.55180378025E+03  0.57753420749E+03  0.00000000000E+00 0.  1.
         22    1    3    3    0    0 -0.33121171074E+02 -0.11545936237E+02  0.51160531998E+02  0.62029997994E+02  0.00000000000E+00 0.  1.
</event>
<event>
 7    1  0.5452757E-006  0.1645989E+03  0.7818608E-02  0.1259002E+00
          2   -1    0    0  502    0  0.00000000000E+00  0.00000000000E+00  0.10799446937E+04  0.10799446937E+04  0.00000000000E+00 0. -1.
          1   -1    0    0  501    0 -0.00000000000E+00 -0.00000000000E+00 -0.59516552976E+03  0.59516552976E+03  0.00000000000E+00 0. -1.
         25    2    1    2    0    0  0.49957160632E+02  0.79480830393E+02 -0.19839119045E+03  0.25257552722E+03  0.12498964839E+03 0.  0.
          2    1    1    2  501    0  0.19483546419E+02  0.72066848726E+02 -0.35922190858E+03  0.36689728654E+03  0.00000000000E+00 0. -1.
          1    1    1    2  502    0 -0.69440707050E+02 -0.15154767912E+03  0.10423922630E+04  0.10556374097E+04  0.00000000000E+00 0. -1.
         22    1    3    3    0    0 -0.33865584278E+02  0.24508198105E+02 -0.16599359931E+02  0.44978531801E+02  0.00000000000E+00 0.  1.
         22    1    3    3    0    0  0.83822744910E+02  0.54972632288E+02 -0.18179183052E+03  0.20759699542E+03  0.00000000000E+00 0.  1.
</event>
<event>
 7    1  0.5452757E-006  0.5232749E+02  0.7818608E-02  0.1470905E+00
          2   -1    0    0  502    0  0.00000000000E+00  0.00000000000E+00  0.22418390234E+03  0.22418390234E+03  0.00000000000E+00 0. -1.
          1   -1    0    0  501    0 -0.00000000000E+00 -0.00000000000E+00 -0.16177927501E+03  0.16177927501E+03  0.00000000000E+00 0. -1.
         25    2    1    2    0    0  0.20625461490E+02 -0.35129802520E+02  0.76237421743E+02  0.15197160261E+03  0.12499484325E+03 0.  0.
          2    1    1    2  501    0 -0.34317250704E+02 -0.19879694170E+02 -0.11300425938E+03  0.11976159057E+03  0.00000000000E+00 0. -1.
          1    1    1    2  502    0  0.13691789214E+02  0.55009496690E+02  0.99171464972E+02  0.11422998417E+03  0.00000000000E+00 0. -1.
         22    1    3    3    0    0  0.54000287369E+02 -0.54303710438E+02  0.82954020434E+02  0.11289948410E+03  0.00000000000E+00 0. -1.
         22    1    3    3    0    0 -0.33374825879E+02  0.19173907918E+02 -0.67165986913E+01  0.39072118516E+02  0.00000000000E+00 0. -1.
</event>
<event>
 7    1  0.5452757E-006  0.3867146E+02  0.7818608E-02  0.1611581E+00
          2   -1    0    0  502    0  0.00000000000E+00  0.00000000000E+00  0.42997777705E+03  0.42997777705E+03  0.00000000000E+00 0. -1.
          1   -1    0    0  501    0 -0.00000000000E+00 -0.00000000000E+00 -0.15554356839E+03  0.15554356839E+03  0.00000000000E+00 0. -1.
         25    2    1    2    0    0 -0.17735779884E+02 -0.46135790646E+01  0.60502091010E+02  0.14007538439E+03  0.12499906918E+03 0.  0.
          2    1    1    2  501    0  0.36022289163E+02  0.15862155206E+02 -0.11204774035E+03  0.11875988128E+03  0.00000000000E+00 0. -1.
          1    1    1    2  502    0 -0.18286509279E+02 -0.11248576141E+02  0.32597985801E+03  0.32668607977E+03  0.00000000000E+00 0. -1.
         22    1    3    3    0    0  0.17308595573E+02 -0.23725463630E+02  0.87226831542E+02  0.92038064115E+02  0.00000000000E+00 0.  1.
         22    1    3    3    0    0 -0.35044375457E+02  0.19111884566E+02 -0.26724740532E+02  0.48037320276E+02  0.00000000000E+00 0.  1.
</event>
<event>
 7    1  0.5452757E-006  0.1130914E+03  0.7818608E-02  0.1354036E+00
          2   -1    0    0  502    0  0.00000000000E+00  0.00000000000E+00  0.18206069714E+04  0.18206069714E+04  0.00000000000E+00 0. -1.
          1   -1    0    0  501    0 -0.00000000000E+00 -0.00000000000E+00 -0.14063996213E+03  0.14063996213E+03  0.00000000000E+00 0. -1.
         25    2    1    2    0    0  0.86013901831E+02 -0.76516207544E+02  0.24157915152E+03  0.29536221172E+03  0.12500091336E+03 0.  0.
          2    1    1    2  501    0 -0.37369078986E+02 -0.26133708561E+02 -0.10700833054E+03  0.11631939474E+03  0.00000000000E+00 0. -1.
          1    1    1    2  502    0 -0.48644822845E+02  0.10264991611E+03  0.15453961883E+04  0.15495653271E+04  0.00000000000E+00 0. -1.
         22    1    3    3    0    0  0.56311250742E+02 -0.29646960875E+02  0.23004823503E+03  0.23868826886E+03  0.00000000000E+00 0.  1.
         22    1    3    3    0    0  0.29702651089E+02 -0.46869246670E+02  0.11530916490E+02  0.56673942868E+02  0.00000000000E+00 0.  1.
</event>
<event>
 7    1  0.5452757E-006  0.5654885E+02  0.7818608E-02  0.1544121E+00
          2   -1    0    0  502    0  0.00000000000E+00  0.00000000000E+00  0.14653561500E+04  0.14653561500E+04  0.00000000000E+00 0. -1.
          1   -1    0    0  501    0 -0.00000000000E+00 -0.00000000000E+00 -0.14359124350E+02  0.14359124350E+02  0.00000000000E+00 0. -1.
         25    2    1    2    0    0 -0.58711856799E+01 -0.73467523902E+02  0.76875000242E+03  0.78232757127E+03  0.12501165813E+03 0.  0.
          2    1    1    2  501    0 -0.53319780363E+01  0.54188101586E+02  0.93355574953E+02  0.10807425095E+03  0.00000000000E+00 0. -1.
          1    1    1    2  502    0  0.11203163716E+02  0.19279422316E+02  0.58889144830E+03  0.58931345215E+03  0.00000000000E+00 0. -1.
         22    1    3    3    0    0 -0.27971277494E+02  0.13903486688E+02  0.44997529275E+03  0.45105815965E+03  0.00000000000E+00 0.  1.
         22    1    3    3    0    0  0.22100091814E+02 -0.87371010590E+02  0.31877470967E+03  0.33126941162E+03  0.00000000000E+00 0.  1.
</event>
<event>
 7    1  0.5452757E-006  0.8290404E+02  0.7818608E-02  0.1391572E+00
          2   -1    0    0  502    0  0.00000000000E+00  0.00000000000E+00  0.91088128896E+03  0.91088128896E+03  0.00000000000E+00 0. -1.
          1   -1    0    0  501    0 -0.00000000000E+00 -0.00000000000E+00 -0.19892618406E+04  0.19892618406E+04  0.00000000000E+00 0. -1.
         25    2    1    2    0    0  0.37522937820E+02  0.88385901349E+02  0.19203347806E+03  0.24843780020E+03  0.12499778179E+03 0.  0.
          2    1    1    2  501    0 -0.45242122763E+02 -0.60716557947E+01 -0.19583185402E+04  0.19588504842E+04  0.00000000000E+00 0. -1.
          1    1    1    2  502    0  0.77191849424E+01 -0.82314245555E+02  0.68790451050E+03  0.69285484512E+03  0.00000000000E+00 0. -1.
         22    1    3    3    0    0  0.21221121839E+02  0.34606420078E+02 -0.73775426953E+01  0.41259768043E+02  0.00000000000E+00 0. -1.
         22    1    3    3    0    0  0.16301815981E+02  0.53779481272E+02  0.19941102075E+03  0.20717803216E+03  0.00000000000E+00 0. -1.
</event>
<event>
 7    1  0.5452757E-006  0.4509262E+02  0.7818608E-02  0.1508273E+00
          2   -1    0    0  502    0  0.00000000000E+00  0.00000000000E+00  0.31485389646E+03  0.31485389646E+03  0.00000000000E+00 0. -1.
          1   -1    0    0  501    0 -0.00000000000E+00 -0.00000000000E+00 -0.82723841763E+03  0.82723841763E+03  0.00000000000E+00 0. -1.
         25    2    1    2    0    0  0.52626160169E+02 -0.59656619062E+02 -0.19026067000E+02  0.14938020937E+03  0.12499612312E+03 0.  0.
          2    1    1    2  501    0 -0.25528800774E+02  0.24621819086E+02 -0.74064331985E+03  0.74149206394E+03  0.00000000000E+00 0. -1.
          1    1    1    2  502    0 -0.27097359396E+02  0.35034799977E+02  0.24728486568E+03  0.25122004078E+03  0.00000000000E+00 0. -1.
         22    1    3    3    0    0  0.48254868394E+02  0.27179611731E+02  0.12710898004E+02  0.56822799524E+02  0.00000000000E+00 0.  1.
         22    1    3    3    0    0  0.43712917751E+01 -0.86836230794E+02 -0.31736965004E+02  0.92557409849E+02  0.00000000000E+00 0.  1.
</event>
<event>
 7    1  0.1060169E-005  0.8097028E+02  0.7818608E-02  0.1415463E+00
          2   -1    0    0  502    0  0.00000000000E+00  0.00000000000E+00  0.22524173107E+04  0.22524173107E+04  0.00000000000E+00 0. -1.
          1   -1    0    0  501    0 -0.00000000000E+00 -0.00000000000E+00 -0.80360761298E+03  0.80360761298E+03  0.00000000000E+00 0. -1.
         25    2    1    2    0    0  0.33617961518E+02 -0.96571777513E+02 -0.83053050535E+02  0.18159949154E+03  0.12499716227E+03 0.  0.
          2    1    1    2  501    0 -0.35391864569E+02  0.15704486961E+02 -0.66997977072E+03  0.67109768898E+03  0.00000000000E+00 0. -1.
          1    1    1    2  502    0  0.17739030503E+01  0.80867290552E+02  0.22018425190E+04  0.22033277432E+04  0.00000000000E+00 0. -1.
         22    1    3    3    0    0 -0.20663147130E+02 -0.10077494175E+03 -0.73236381166E+02  0.12627795556E+03  0.00000000000E+00 0.  1.
         22    1    3    3    0    0  0.54281108648E+02  0.42031642326E+01 -0.98166693691E+01  0.55321535980E+02  0.00000000000E+00 0.  1.
</event>
<event>
 7    1  0.5452757E-006  0.7192194E+02  0.7818608E-02  0.1353709E+00
          2   -1    0    0  502    0  0.00000000000E+00  0.00000000000E+00  0.60958499625E+03  0.60958499625E+03  0.00000000000E+00 0. -1.
          1   -1    0    0  501    0 -0.00000000000E+00 -0.00000000000E+00 -0.10003699474E+04  0.10003699474E+04  0.00000000000E+00 0. -1.
         25    2    1    2    0    0 -0.42381597836E+02  0.43583760257E+01  0.87362808471E+02  0.15834263214E+03  0.12499973429E+03 0.  0.
          2    1    1    2  501    0  0.29386015608E+02  0.66359497065E+02 -0.96084864917E+03  0.96358562015E+03  0.00000000000E+00 0. -1.
          1    1    1    2  502    0  0.12995582227E+02 -0.70717873091E+02  0.48270088953E+03  0.48802669137E+03  0.00000000000E+00 0. -1.
         22    1    3    3    0    0  0.38072368969E+02 -0.19187415833E+02  0.52302513705E+02  0.67477515849E+02  0.00000000000E+00 0.  1.
         22    1    3    3    0    0 -0.80453966805E+02  0.23545791858E+02  0.35060294766E+02  0.90865116288E+02  0.00000000000E+00 0.  1.
</event>
<event>
 7    1  0.5452757E-006  0.3445813E+02  0.7818608E-02  0.1624707E+00
          2   -1    0    0  502    0  0.00000000000E+00  0.00000000000E+00  0.15887323860E+03  0.15887323860E+03  0.00000000000E+00 0. -1.
          1   -1    0    0  501    0 -0.00000000000E+00 -0.00000000000E+00 -0.50575994666E+03  0.50575994666E+03  0.00000000000E+00 0. -1.
         25    2    1    2    0    0 -0.52530520742E+02  0.13132355203E+02 -0.91934682026E+02  0.16434548243E+03  0.12500214987E+03 0.  0.
          2    1    1    2  501    0  0.22171688411E+02  0.24363945232E+01 -0.37490961887E+03  0.37557255239E+03  0.00000000000E+00 0. -1.
          1    1    1    2  502    0  0.30358832331E+02 -0.15568749726E+02  0.11995759285E+03  0.12471515044E+03  0.00000000000E+00 0. -1.
         22    1    3    3    0    0 -0.29006985270E+02  0.24735611968E+02 -0.12001278289E+03  0.12592189544E+03  0.00000000000E+00 0. -1.
         22    1    3    3    0    0 -0.23523535472E+02 -0.11603256765E+02  0.28078100866E+02  0.38423586986E+02  0.00000000000E+00 0. -1.
</event>
<event>
 7    1  0.5452757E-006  0.3853014E+02  0.7818608E-02  0.1537841E+00
          2   -1    0    0  502    0  0.00000000000E+00  0.00000000000E+00  0.51630573345E+03  0.51630573345E+03  0.00000000000E+00 0. -1.
          1   -1    0    0  501    0 -0.00000000000E+00 -0.00000000000E+00 -0.68943768755E+02  0.68943768755E+02  0.00000000000E+00 0. -1.
         25    2    1    2    0    0  0.20713614865E+02 -0.32982225487E+02  0.22597105791E+03  0.26116017946E+03  0.12499935712E+03 0.  0.
          2    1    1    2  501    0  0.13175579534E+02  0.36673325097E+02 -0.42699333996E+02  0.57807973442E+02  0.00000000000E+00 0. -1.
          1    1    1    2  502    0 -0.33889194399E+02 -0.36910996105E+01  0.26409024078E+03  0.26628134931E+03  0.00000000000E+00 0. -1.
         22    1    3    3    0    0 -0.42700410045E+02  0.12717930975E+02  0.12977711213E+03  0.13721213364E+03  0.00000000000E+00 0.  1.
         22    1    3    3    0    0  0.63414024910E+02 -0.45700156462E+02  0.96193945786E+02  0.12394804582E+03  0.00000000000E+00 0.  1.
</event>
<event>
 7    1  0.5452757E-006  0.2198052E+03  0.7818608E-02  0.1236547E+00
          2   -1    0    0  502    0  0.00000000000E+00  0.00000000000E+00  0.83449749341E+03  0.83449749341E+03  0.00000000000E+00 0. -1.
          1   -1    0    0  501    0 -0.00000000000E+00 -0.00000000000E+00 -0.24900312398E+04  0.24900312398E+04  0.00000000000E+00 0. -1.
         25    2    1    2    0    0 -0.35776271967E+02 -0.15417926277E+03 -0.93835383087E+02  0.22244665207E+03  0.12500498869E+03 0.  0.
          2    1    1    2  501    0  0.39407095935E+01 -0.69908717723E+02 -0.23147207614E+04  0.23157795580E+04  0.00000000000E+00 0. -1.
          1    1    1    2  502    0  0.31835562374E+02  0.22408798049E+03  0.75302239804E+03  0.78630252319E+03  0.00000000000E+00 0. -1.
         22    1    3    3    0    0 -0.18919776674E+02 -0.17397526258E+03 -0.87634391141E+02  0.19571698048E+03  0.00000000000E+00 0. -1.
         22    1    3    3    0    0 -0.16856495293E+02  0.19795999813E+02 -0.62009919459E+01  0.26729671590E+02  0.00000000000E+00 0. -1.
</event>
<event>
 7    1  0.5452757E-006  0.6386740E+02  0.7818608E-02  0.1428873E+00
          2   -1    0    0  502    0  0.00000000000E+00  0.00000000000E+00  0.22078907754E+04  0.22078907754E+04  0.00000000000E+00 0. -1.
          1   -1    0    0  501    0 -0.00000000000E+00 -0.00000000000E+00 -0.21068839206E+02  0.21068839206E+02  0.00000000000E+00 0. -1.
         25    2    1    2    0    0 -0.70721510631E+02 -0.20811322415E+02  0.44580570332E+03  0.46883150264E+03  0.12500243818E+03 0.  0.
          2    1    1    2  501    0  0.32211584728E+02 -0.30401481605E+02  0.45845290688E+02  0.63746583852E+02  0.00000000000E+00 0. -1.
          1    1    1    2  502    0  0.38509925903E+02  0.51212804020E+02  0.16951709422E+04  0.16963815281E+04  0.00000000000E+00 0. -1.
         22    1    3    3    0    0 -0.72617774602E+02  0.33803382201E+02  0.34489023498E+03  0.35406960335E+03  0.00000000000E+00 0.  1.
         22    1    3    3    0    0  0.18962639710E+01 -0.54614704616E+02  0.10091546834E+03  0.11476189928E+03  0.00000000000E+00 0.  1.
</event>
<event>
 7    1  0.5452757E-006  0.6236465E+02  0.7818608E-02  0.1495217E+00
          2   -1    0    0  502    0  0.00000000000E+00  0.00000000000E+00  0.50427218031E+03  0.50427218031E+03  0.00000000000E+00 0. -1.
          1   -1    0    0  501    0 -0.00000000000E+00 -0.00000000000E+00 -0.17625054957E+04  0.17625054957E+04  0.00000000000E+00 0. -1.
         25    2    1    2    0    0  0.32393735849E+02 -0.50159519661E+02 -0.19329686243E+03  0.23780315117E+03  0.12498531971E+03 0.  0.
          2    1    1    2  501    0 -0.53796697642E+02  0.32035481553E+02 -0.15459132698E+04  0.15471807246E+04  0.00000000000E+00 0. -1.
          1    1    1    2  502    0  0.21402961793E+02  0.18124038108E+02  0.48097681690E+03  0.48179380021E+03  0.00000000000E+00 0. -1.
         22    1    3    3    0    0  0.76983400646E+02 -0.86827298335E+01 -0.10277324914E+03  0.12870188231E+03  0.00000000000E+00 0. -1.
         22    1    3    3    0    0 -0.44589664797E+02 -0.41476789828E+02 -0.90523613299E+02  0.10910126885E+03  0.00000000000E+00 0. -1.
</event>
<event>
 7    1  0.5452757E-006  0.3241146E+02  0.7818608E-02  0.1640021E+00
          2   -1    0    0  502    0  0.00000000000E+00  0.00000000000E+00  0.35947490978E+03  0.35947490978E+03  0.00000000000E+00 0. -1.
          1   -1    0    0  501    0 -0.00000000000E+00 -0.00000000000E+00 -0.21067088559E+03  0.21067088559E+03  0.00000000000E+00 0. -1.
         25    2    1    2    0    0  0.12347390756E+02  0.49126143731E+02 -0.14134788441E+03  0.19537183022E+03  0.12500036624E+03 0.  0.
          2    1    1    2  501    0 -0.56873777446E+01 -0.28466017812E+02 -0.36929609675E+02  0.46972933765E+02  0.00000000000E+00 0. -1.
          1    1    1    2  502    0 -0.66600130113E+01 -0.20660125919E+02  0.32708151828E+03  0.32780103138E+03  0.00000000000E+00 0. -1.
         22    1    3    3    0    0 -0.40644290408E+02 -0.77711456086E-01 -0.10866272496E+03  0.11601531010E+03  0.00000000000E+00 0.  1.
         22    1    3    3    0    0  0.52991681164E+02  0.49203855187E+02 -0.32685159451E+02  0.79356520124E+02  0.00000000000E+00 0.  1.
</event>
<event>
 7    1  0.5452757E-006  0.4135142E+03  0.7818608E-02  0.1208567E+00
          2   -1    0    0  502    0  0.00000000000E+00  0.00000000000E+00  0.32040429533E+04  0.32040429533E+04  0.00000000000E+00 0. -1.
          1   -1    0    0  501    0 -0.00000000000E+00 -0.00000000000E+00 -0.12197986126E+04  0.12197986126E+04  0.00000000000E+00 0. -1.
         25    2    1    2    0    0 -0.36738634438E+03 -0.22621144673E+03  0.60715856406E+03  0.75525534010E+03  0.12499904868E+03 0.  0.
          2    1    1    2  501    0  0.37294620454E+03  0.17665546771E+03 -0.11083338156E+04  0.11826664249E+04  0.00000000000E+00 0. -1.
          1    1    1    2  502    0 -0.55598601651E+01  0.49555979019E+02  0.24854195922E+04  0.24859198009E+04  0.00000000000E+00 0. -1.
         22    1    3    3    0    0 -0.26024818924E+03 -0.12483052805E+03  0.31041399861E+03  0.42387336702E+03  0.00000000000E+00 0. -1.
         22    1    3    3    0    0 -0.10713815514E+03 -0.10138091868E+03  0.29674456545E+03  0.33138197308E+03  0.00000000000E+00 0. -1.
</event>
<event>
 7    1  0.5452757E-006  0.5590289E+02  0.7818608E-02  0.1514243E+00
          2   -1    0    0  502    0  0.00000000000E+00  0.00000000000E+00  0.31695939602E+03  0.31695939602E+03  0.00000000000E+00 0. -1.
          1   -1    0    0  501    0 -0.00000000000E+00 -0.00000000000E+00 -0.15144182279E+04  0.15144182279E+04  0.00000000000E+00 0. -1.
         25    2    1    2    0    0 -0.31950341668E+02  0.67941909126E+01  0.52374761007E+02  0.13940782214E+03  0.12499775966E+03 0.  0.
          2    1    1    2  501    0 -0.26032859492E+02 -0.87891972271E+01 -0.14669642768E+04  0.14672215747E+04  0.00000000000E+00 0. -1.
          1    1    1    2  502    0  0.57983201160E+02  0.19950063145E+01  0.21713068395E+03  0.22474822708E+03  0.00000000000E+00 0. -1.
         22    1    3    3    0    0 -0.21234373934E+02 -0.35859548611E+02  0.78052198571E+02  0.88481362810E+02  0.00000000000E+00 0.  1.
         22    1    3    3    0    0 -0.10715967734E+02  0.42653739524E+02 -0.25677437564E+02  0.50926459328E+02  0.00000000000E+00 0.  1.
</event>
<event>
 7    1  0.5452757E-006  0.5803375E+02  0.7818608E-02  0.1459918E+00
          2   -1    0    0  502    0  0.00000000000E+00  0.00000000000E+00  0.41069694989E+03  0.41069694989E+03  0.00000000000E+00 0. -1.
          1   -1    0    0  501    0 -0.00000000000E+00 -0.00000000000E+00 -0.47609377794E+03  0.47609377794E+03  0.00000000000E+00 0. -1.
         25    2    1    2    0    0  0.41977563825E+02  0.19520920220E+02  0.91382234559E+01  0.13361179578E+03  0.12500169060E+03 0.  0.
          2    1    1    2  501    0  0.14702781560E+02 -0.35806285571E+02 -0.41037701120E+03  0.41219843910E+03  0.00000000000E+00 0. -1.
          1    1    1    2  502    0 -0.56680345385E+02  0.16285365351E+02  0.33584195970E+03  0.34098049295E+03  0.00000000000E+00 0. -1.
         22    1    3    3    0    0 -0.92686958379E+01  0.68721136759E+01 -0.51754921836E+02  0.53025527844E+02  0.00000000000E+00 0.  1.
         22    1    3    3    0    0  0.51246259663E+02  0.12648806544E+02  0.60893145292E+02  0.80586267936E+02  0.00000000000E+00 0.  1.
</event>
<event>
 7    1  0.5452757E-006  0.7474837E+02  0.7818608E-02  0.1459177E+00
          2   -1    0    0  502    0  0.00000000000E+00  0.00000000000E+00  0.19713043883E+04  0.19713043883E+04  0.00000000000E+00 0. -1.
          1   -1    0    0  501    0 -0.00000000000E+00 -0.00000000000E+00 -0.95537954431E+03  0.95537954431E+03  0.00000000000E+00 0. -1.
         25    2    1    2    0    0  0.11435356765E+02 -0.43301822389E+02  0.23510582159E+03  0.27001172118E+03  0.12500306805E+03 0.  0.
          2    1    1    2  501    0 -0.21767370293E+02  0.71694498502E+02 -0.93629711742E+03  0.93929027016E+03  0.00000000000E+00 0. -1.
          1    1    1    2  502    0  0.10332013528E+02 -0.28392676113E+02  0.17171161398E+04  0.17173819413E+04  0.00000000000E+00 0. -1.
         22    1    3    3    0    0  0.39384154331E+02 -0.19541204829E+02  0.14378780440E+02  0.46257103514E+02  0.00000000000E+00 0. -1.
         22    1    3    3    0    0 -0.27948797566E+02 -0.23760617560E+02  0.22072704115E+03  0.22375461767E+03  0.00000000000E+00 0. -1.
</event>
<event>
 7    1  0.5452757E-006  0.3374761E+02  0.7818608E-02  0.1603032E+00
          2   -1    0    0  502    0  0.00000000000E+00  0.00000000000E+00  0.62100021791E+02  0.62100021791E+02  0.00000000000E+00 0. -1.
          1   -1    0    0  501    0 -0.00000000000E+00 -0.00000000000E+00 -0.98068587495E+03  0.98068587495E+03  0.00000000000E+00 0. -1.
         25    2    1    2    0    0 -0.41558367026E+02  0.41573717368E+02 -0.22135700052E+03  0.26091742414E+03  0.12499403463E+03 0.  0.
          2    1    1    2  501    0  0.16610098855E+02 -0.19856347639E+02 -0.73282196290E+03  0.73327907323E+03  0.00000000000E+00 0. -1.
          1    1    1    2  502    0  0.24948268171E+02 -0.21717369729E+02  0.35593110266E+02  0.48589399369E+02  0.00000000000E+00 0. -1.
         22    1    3    3    0    0 -0.79777992319E+02  0.52798202235E+02 -0.13140956272E+03  0.16254430593E+03  0.00000000000E+00 0.  1.
         22    1    3    3    0    0  0.38219625293E+02 -0.11224484867E+02 -0.89947437801E+02  0.98373118203E+02  0.00000000000E+00 0.  1.
</event>
<event>
 7    1  0.5452757E-006  0.6632612E+02  0.7818608E-02  0.1413025E+00
          2   -1    0    0  502    0  0.00000000000E+00  0.00000000000E+00  0.12825398626E+04  0.12825398626E+04  0.00000000000E+00 0. -1.
          1   -1    0    0  501    0 -0.00000000000E+00 -0.00000000000E+00 -0.14627096715E+04  0.14627096715E+04  0.00000000000E+00 0. -1.
         25    2    1    2    0    0  0.32164783970E+02  0.41717073350E+02  0.33608610670E+03  0.36242706776E+03  0.12499848316E+03 0.  0.
          2    1    1    2  501    0 -0.40000867363E+02  0.26840015428E+02 -0.14478626205E+04  0.14486637372E+04  0.00000000000E+00 0. -1.
          1    1    1    2  502    0  0.78360833929E+01 -0.68557088778E+02  0.93160670490E+03  0.93415872914E+03  0.00000000000E+00 0. -1.
         22    1    3    3    0    0 -0.10246806938E+02  0.77496836974E+02  0.16527733384E+03  0.18283149038E+03  0.00000000000E+00 0. -1.
         22    1    3    3    0    0  0.42411590908E+02 -0.35779763624E+02  0.17080877286E+03  0.17959557738E+03  0.00000000000E+00 0. -1.
</event>
<event>
 7    1  0.5452757E-006  0.4684576E+02  0.7818608E-02  0.1570267E+00
          2   -1    0    0  502    0  0.00000000000E+00  0.00000000000E+00  0.23032551202E+04  0.23032551202E+04  0.00000000000E+00 0. -1.
          1   -1    0    0  501    0 -0.00000000000E+00 -0.00000000000E+00 -0.43231298482E+03  0.43231298482E+03  0.00000000000E+00 0. -1.
         25    2    1    2    0    0 -0.56640374705E+01  0.26220686729E+02  0.36311199229E+03  0.38496024983E+03  0.12499787708E+03 0.  0.
          2    1    1    2  501    0  0.86360148273E+01  0.21092198527E+02 -0.42078918780E+03  0.42140598258E+03  0.00000000000E+00 0. -1.
          1    1    1    2  502    0 -0.29719773568E+01 -0.47312885257E+02  0.19286193309E+04  0.19292018726E+04  0.00000000000E+00 0. -1.
         22    1    3    3    0    0 -0.34140608478E+02  0.10137294258E+02  0.21114368259E+02  0.41402444723E+02  0.00000000000E+00 0. -1.
         22    1    3    3    0    0  0.28476571007E+02  0.16083392471E+02  0.34199762403E+03  0.34355780511E+03  0.00000000000E+00 0. -1.
</event>
<event>
 7    1  0.5452757E-006  0.8344165E+02  0.7818608E-02  0.1397893E+00
          2   -1    0    0  502    0  0.00000000000E+00  0.00000000000E+00  0.22950348318E+04  0.22950348318E+04  0.00000000000E+00 0. -1.
          1   -1    0    0  501    0 -0.00000000000E+00 -0.00000000000E+00 -0.26027873107E+03  0.26027873107E+03  0.00000000000E+00 0. -1.
         25    2    1    2    0    0 -0.37932163058E+02 -0.31613413934E+02  0.22679463871E+03  0.26362744922E+03  0.12500146757E+03 0.  0.
          2    1    1    2  501    0 -0.42885935703E+02  0.45155532140E+01 -0.23904609789E+03  0.24290457101E+03  0.00000000000E+00 0. -1.
          1    1    1    2  502    0  0.80818098762E+02  0.27097860720E+02  0.20470075599E+04  0.20487815426E+04  0.00000000000E+00 0. -1.
         22    1    3    3    0    0 -0.80323161697E+02 -0.39453425097E+00  0.11773052506E+03  0.14252172639E+03  0.00000000000E+00 0.  1.
         22    1    3    3    0    0  0.42390998638E+02 -0.31218879683E+02  0.10906411365E+03  0.12110572282E+03  0.00000000000E+00 0.  1.
</event>
<event>
 7    1  0.5452757E-006  0.6180127E+02  0.7818608E-02  0.1467814E+00
          2   -1    0    0  502    0  0.00000000000E+00  0.00000000000E+00  0.42094909855E+03  0.42094909855E+03  0.00000000000E+00 0. -1.
          1   -1    0    0  501    0 -0.00000000000E+00 -0.00000000000E+00 -0.45498721365E+03  0.45498721365E+03  0.00000000000E+00 0. -1.
         25    2    1    2    0    0 -0.32901091649E+02 -0.54983819074E+01 -0.25602121809E+02  0.13187977543E+03  0.12499636991E+03 0.  0.
          2    1    1    2  501    0  0.54601182349E+02  0.32102990869E+02 -0.37276777879E+03  0.37811070871E+03  0.00000000000E+00 0. -1.
          1    1    1    2  502    0 -0.21700090700E+02 -0.26604608961E+02  0.36433178549E+03  0.36594582806E+03  0.00000000000E+00 0. -1.
         22    1    3    3    0    0 -0.39112859515E+02  0.55118954809E+02 -0.59199072611E+01  0.67845119653E+02  0.00000000000E+00 0.  1.
         22    1    3    3    0    0  0.62117678665E+01 -0.60617336716E+02 -0.19682214548E+02  0.64034655774E+02  0.00000000000E+00 0.  1.
</event>
<event>
 7    1  0.5452757E-006  0.4133398E+02  0.7818608E-02  0.1518746E+00
          2   -1    0    0  502    0  0.00000000000E+00  0.00000000000E+00  0.78481491727E+03  0.78481491727E+03  0.00000000000E+00 0. -1.
          1   -1    0    0  501    0 -0.00000000000E+00 -0.00000000000E+00 -0.64970379667E+02  0.64970379667E+02  0.00000000000E+00 0. -1.
         25    2    1    2    0    0  0.77392129767E+00  0.19374936900E+02  0.52762625612E+03  0.54257744776E+03  0.12499933417E+03 0.  0.
          2    1    1    2  501    0  0.30013917463E+02  0.19975675890E+02 -0.49019444712E+02  0.60850380678E+02  0.00000000000E+00 0. -1.
          1    1    1    2  502    0 -0.30787838761E+02 -0.39350612791E+02  0.24123772620E+03  0.24635746850E+03  0.00000000000E+00 0. -1.
         22    1    3    3    0    0  0.53261346618E+02  0.19713387548E+02  0.13501822794E+03  0.14647631402E+03  0.00000000000E+00 0. -1.
         22    1    3    3    0    0 -0.52487425321E+02 -0.33845064722E+00  0.39260802817E+03  0.39610113374E+03  0.00000000000E+00 0. -1.
</event>
<event>
 7    1  0.5452757E-006  0.8355439E+02  0.7818608E-02  0.1331239E+00
          2   -1    0    0  502    0  0.00000000000E+00  0.00000000000E+00  0.31326066114E+04  0.31326066114E+04  0.00000000000E+00 0. -1.
          1   -1    0    0  501    0 -0.00000000000E+00 -0.00000000000E+00 -0.38553145193E+03  0.38553145193E+03  0.00000000000E+00 0. -1.
         25    2    1    2    0    0  0.14191917818E+03  0.54294453370E+02  0.57506125685E+02  0.20498831689E+03  0.12499725904E+03 0.  0.
          2    1    1    2  501    0 -0.67374856266E+02 -0.44874946274E+02 -0.30605688962E+03  0.31658166679E+03  0.00000000000E+00 0. -1.
          1    1    1    2  502    0 -0.74544321914E+02 -0.94195070957E+01  0.29956259234E+04  0.29965680796E+04  0.00000000000E+00 0. -1.
         22    1    3    3    0    0  0.30233781265E+02  0.48967170597E+02 -0.28219350520E+02  0.64095218774E+02  0.00000000000E+00 0.  1.
         22    1    3    3    0    0  0.11168539692E+03  0.53272827726E+01  0.85725476205E+02  0.14089309811E+03  0.00000000000E+00 0.  1.
</event>
<event>
 7    1  0.5452757E-006  0.9226858E+02  0.7818608E-02  0.1423243E+00
          2   -1    0    0  502    0  0.00000000000E+00  0.00000000000E+00  0.17070492804E+04  0.17070492804E+04  0.00000000000E+00 0. -1.
          1   -1    0    0  501    0 -0.00000000000E+00 -0.00000000000E+00 -0.17998701626E+03  0.17998701626E+03  0.00000000000E+00 0. -1.
         25    2    1    2    0    0 -0.12867876738E+02  0.11209601524E+03 -0.31774855657E+02  0.17136381970E+03  0.12499927346E+03 0.  0.
          2    1    1    2  501    0  0.24336484632E+02 -0.82218253471E+02 -0.54772560327E+02  0.10174546207E+03  0.00000000000E+00 0. -1.
          1    1    1    2  502    0 -0.11468607894E+02 -0.29877761768E+02  0.16136096801E+04  0.16139270149E+04  0.00000000000E+00 0. -1.
         22    1    3    3    0    0 -0.13936688741E+02  0.41950316952E+02  0.47916794929E+02  0.65192634720E+02  0.00000000000E+00 0.  1.
         22    1    3    3    0    0  0.10688120039E+01  0.70145698287E+02 -0.79691650585E+02  0.10617118498E+03  0.00000000000E+00 0.  1.
</event>
<event>
 7    1  0.5452757E-006  0.8042871E+02  0.7818608E-02  0.1413199E+00
          2   -1    0    0  502    0  0.00000000000E+00  0.00000000000E+00  0.17193506230E+04  0.17193506230E+04  0.00000000000E+00 0. -1.
          1   -1    0    0  501    0 -0.00000000000E+00 -0.00000000000E+00 -0.52399192447E+02  0.52399192447E+02  0.00000000000E+00 0. -1.
         25    2    1    2    0    0 -0.28250827218E+02 -0.48874682022E+02  0.70722093967E+03  0.72039880050E+03  0.12500452186E+03 0.  0.
          2    1    1    2  501    0  0.11704603868E+02 -0.37904979601E+02 -0.34880368142E+02  0.52824476448E+02  0.00000000000E+00 0. -1.
          1    1    1    2  502    0  0.16546223350E+02  0.86779661622E+02  0.99461085902E+03  0.99852653849E+03  0.00000000000E+00 0. -1.
         22    1    3    3    0    0 -0.40263906182E+01  0.40899267094E+02  0.29308888581E+03  0.29595617388E+03  0.00000000000E+00 0.  1.
         22    1    3    3    0    0 -0.24224436600E+02 -0.89773949115E+02  0.41413205385E+03  0.42444262662E+03  0.00000000000E+00 0.  1.
</event>
<event>
 7    1  0.5452757E-006  0.1791625E+03  0.7818608E-02  0.1296837E+00
          2   -1    0    0  502    0  0.00000000000E+00  0.00000000000E+00  0.15826389269E+04  0.15826389269E+04  0.00000000000E+00 0. -1.
          1   -1    0    0  501    0 -0.00000000000E+00 -0.00000000000E+00 -0.24012614059E+03  0.24012614059E+03  0.00000000000E+00 0. -1.
         25    2    1    2    0    0  0.20766456349E+03 -0.19554935924E+01  0.15670286146E+03  0.28863202926E+03  0.12499706653E+03 0.  0.
          2    1    1    2  501    0 -0.17160441145E+03 -0.29403785578E+02 -0.13010693238E+03  0.21734873012E+03  0.00000000000E+00 0. -1.
          1    1    1    2  502    0 -0.36060152043E+02  0.31359279170E+02  0.13159168572E+04  0.13167843081E+04  0.00000000000E+00 0. -1.
         22    1    3    3    0    0  0.17944038692E+03  0.44678101184E+02  0.10103428537E+03  0.21071998482E+03  0.00000000000E+00 0.  1.
         22    1    3    3    0    0  0.28224176566E+02 -0.46633594776E+02  0.55668576090E+02  0.77912044437E+02  0.00000000000E+00 0.  1.
</event>
<event>
 7    1  0.5452757E-006  0.6533286E+02  0.7818608E-02  0.1510681E+00
          2   -1    0    0  502    0  0.00000000000E+00  0.00000000000E+00  0.20984887098E+04  0.20984887098E+04  0.00000000000E+00 0. -1.
          1   -1    0    0  501    0 -0.00000000000E+00 -0.00000000000E+00 -0.39076813503E+03  0.39076813503E+03  0.00000000000E+00 0. -1.
         25    2    1    2    0    0 -0.69519362183E+02  0.35847216532E+02  0.94501570602E+03  0.95645484245E+03  0.12503286115E+03 0.  0.
          2    1    1    2  501    0  0.71076536085E+01 -0.23010451525E+02 -0.38378649600E+03  0.38454138155E+03  0.00000000000E+00 0. -1.
          1    1    1    2  502    0  0.62411708575E+02 -0.12836765006E+02  0.11464913648E+04  0.11482606209E+04  0.00000000000E+00 0. -1.
         22    1    3    3    0    0 -0.65292021588E+02  0.44013206391E+02  0.94391531041E+03  0.94719392082E+03  0.00000000000E+00 0. -1.
         22    1    3    3    0    0 -0.42273405949E+01 -0.81659898591E+01  0.11003956124E+01  0.92609216274E+01  0.00000000000E+00 0. -1.
</event>
<event>
 7    1  0.5452757E-006  0.9364641E+02  0.7818608E-02  0.1325808E+00
          2   -1    0    0  502    0  0.00000000000E+00  0.00000000000E+00  0.21345529902E+04  0.21345529902E+04  0.00000000000E+00 0. -1.
          1   -1    0    0  501    0 -0.00000000000E+00 -0.00000000000E+00 -0.10205794445E+03  0.10205794445E+03  0.00000000000E+00 0. -1.
         25    2    1    2    0    0 -0.26877592609E+01  0.67684307723E+02  0.17545824504E+03  0.22582830341E+03  0.12499774920E+03 0.  0.
          2    1    1    2  501    0  0.72990468000E+02 -0.69585903046E+02 -0.42866561104E+02  0.10957804699E+03  0.00000000000E+00 0. -1.
          1    1    1    2  502    0 -0.70302708739E+02  0.19015953228E+01  0.18999033618E+04  0.19012045842E+04  0.00000000000E+00 0. -1.
         22    1    3    3    0    0  0.49579115711E+02  0.57388028493E+01  0.27146358926E+02  0.56815027728E+02  0.00000000000E+00 0.  1.
         22    1    3    3    0    0 -0.52266874971E+02  0.61945504874E+02  0.14831188612E+03  0.16901327568E+03  0.00000000000E+00 0.  1.
</event>
<event>
 7    1  0.5452757E-006  0.1469077E+03  0.7818608E-02  0.1266368E+00
          2   -1    0    0  502    0  0.00000000000E+00  0.00000000000E+00  0.17540372724E+04  0.17540372724E+04  0.00000000000E+00 0. -1.
          1   -1    0    0  501    0 -0.00000000000E+00 -0.00000000000E+00 -0.19072836666E+03  0.19072836666E+03  0.00000000000E+00 0. -1.
         25    2    1    2    0    0 -0.32299536650E+02  0.70948832299E+02  0.43181033883E+03  0.45624813506E+03  0.12500078059E+03 0.  0.
          2    1    1    2  501    0  0.31648422629E+02 -0.14877402165E+03 -0.14470669318E+03  0.20994132328E+03  0.00000000000E+00 0. -1.
          1    1    1    2  502    0  0.65111402078E+00  0.77825189347E+02  0.12762052601E+04  0.12785761807E+04  0.00000000000E+00 0. -1.
         22    1    3    3    0    0  0.26702737557E+02 -0.21984375701E+02  0.14422200397E+03  0.14831161585E+03  0.00000000000E+00 0.  1.
         22    1    3    3    0    0 -0.59002274207E+02  0.92933208001E+02  0.28758833486E+03  0.30793651921E+03  0.00000000000E+00 0.  1.
</event>
<event>
 7    1  0.5452757E-006  0.1082362E+03  0.7818608E-02  0.1417858E+00
          2   -1    0    0  502    0  0.00000000000E+00  0.00000000000E+00  0.87998335133E+03  0.87998335133E+03  0.00000000000E+00 0. -1.
          1   -1    0    0  501    0 -0.00000000000E+00 -0.00000000000E+00 -0.11962718719E+03  0.11962718719E+03  0.00000000000E+00 0. -1.
         25    2    1    2    0    0 -0.84976725888E+02 -0.92446831300E+02  0.43598781184E+03  0.47061653330E+03  0.12500835485E+03 0.  0.
          2    1    1    2  501    0  0.27336257301E+02  0.78273038692E+01 -0.94037808698E+02  0.98242796753E+02  0.00000000000E+00 0. -1.
          1    1    1    2  502    0  0.57640468587E+02  0.84619527431E+02  0.41840616100E+03  0.43075120847E+03  0.00000000000E+00 0. -1.
         22    1    3    3    0    0 -0.80365205649E+02 -0.12232709846E+03  0.34594559473E+03  0.37563391727E+03  0.00000000000E+00 0.  1.
         22    1    3    3    0    0 -0.46115202389E+01  0.29880267157E+02  0.90042217114E+02  0.94982616026E+02  0.00000000000E+00 0.  1.
</event>
<event>
 7    1  0.5452757E-006  0.8770308E+02  0.7818608E-02  0.1373006E+00
          2   -1    0    0  502    0  0.00000000000E+00  0.00000000000E+00  0.12938830447E+03  0.12938830447E+03  0.00000000000E+00 0. -1.
          1   -1    0    0  501    0 -0.00000000000E+00 -0.00000000000E+00 -0.15497932472E+04  0.15497932472E+04  0.00000000000E+00 0. -1.
         25    2    1    2    0    0 -0.13310675675E+03 -0.21033916420E+01 -0.48885818352E+03  0.52184964458E+03  0.12499157976E+03 0.  0.
          2    1    1    2  501    0  0.82997815175E+02  0.47416649392E+01 -0.10371168749E+04  0.10404434309E+04  0.00000000000E+00 0. -1.
          1    1    1    2  502    0  0.50108941577E+02 -0.26382732972E+01  0.10557011575E+03  0.11688847613E+03  0.00000000000E+00 0. -1.
         22    1    3    3    0    0 -0.23183181843E+02 -0.23312162249E+02 -0.30372821800E+03  0.30550245046E+03  0.00000000000E+00 0.  1.
         22    1    3    3    0    0 -0.10992357491E+03  0.21208770607E+02 -0.18512996551E+03  0.21634719412E+03  0.00000000000E+00 0.  1.
</event>
<event>
 7    1  0.5452757E-006  0.1106632E+03  0.7818608E-02  0.1359030E+00
          2   -1    0    0  502    0  0.00000000000E+00  0.00000000000E+00  0.22258610118E+04  0.22258610118E+04  0.00000000000E+00 0. -1.
          1   -1    0    0  501    0 -0.00000000000E+00 -0.00000000000E+00 -0.12989895349E+02  0.12989895349E+02  0.00000000000E+00 0. -1.
         25    2    1    2    0    0 -0.74561178940E+02 -0.41213404671E+02  0.10339133257E+04  0.10449207714E+04  0.12499895782E+03 0.  0.
          2    1    1    2  501    0 -0.42566240651E+02 -0.13567271306E+02  0.13996894870E+03  0.14692604362E+03  0.00000000000E+00 0. -1.
          1    1    1    2  502    0  0.11712741959E+03  0.54780675977E+02  0.10389888421E+04  0.10470040921E+04  0.00000000000E+00 0. -1.
         22    1    3    3    0    0 -0.50191064380E+02 -0.31125617461E+02  0.10010110942E+04  0.10027517927E+04  0.00000000000E+00 0.  1.
         22    1    3    3    0    0 -0.24370114560E+02 -0.10087787209E+02  0.32902231489E+02  0.42168978780E+02  0.00000000000E+00 0.  1.
</event>
<event>
 7    1  0.5452757E-006  0.4734137E+02  0.7818608E-02  0.1519163E+00
          2   -1    0    0  502    0  0.00000000000E+00  0.00000000000E+00  0.13022618743E+04  0.13022618743E+04  0.00000000000E+00 0. -1.
          1   -1    0    0  501    0 -0.00000000000E+00 -0.00000000000E+00 -0.84771161198E+02  0.84771161198E+02  0.00000000000E+00 0. -1.
         25    2    1    2    0    0 -0.77877595531E+02  0.95469018329E+01  0.40326684719E+02  0.15299221024E+03  0.12499724666E+03 0.  0.
          2    1    1    2  501    0  0.31242082897E+02 -0.30519418652E+01 -0.19169445473E+02  0.36781105647E+02  0.00000000000E+00 0. -1.
          1    1    1    2  502    0  0.46635512634E+02 -0.64949599677E+01  0.11963334739E+04  0.11972597197E+04  0.00000000000E+00 0. -1.
         22    1    3    3    0    0 -0.71218123204E+00  0.50723490887E+02  0.41467407070E+02  0.65520421084E+02  0.00000000000E+00 0. -1.
         22    1    3    3    0    0 -0.77165414299E+02 -0.41176589055E+02 -0.11407223512E+01  0.87471789153E+02  0.00000000000E+00 0. -1.
</event>
<event>
 7    1  0.5452757E-006  0.1411393E+03  0.7818608E-02  0.1415963E+00
          2   -1    0    0  502    0  0.00000000000E+00  0.00000000000E+00  0.35135408914E+04  0.35135408914E+04  0.00000000000E+00 0. -1.
          1   -1    0    0  501    0 -0.00000000000E+00 -0.00000000000E+00 -0.21654015408E+03  0.21654015408E+03  0.00000000000E+00 0. -1.
         25    2    1    2    0    0 -0.56915925460E+02  0.13741807606E+03  0.72982151504E+02  0.20754345174E+03  0.12499895888E+03 0.  0.
          2    1    1    2  501    0  0.22113887403E+02 -0.77494389260E+00 -0.14695734215E+03  0.14861387878E+03  0.00000000000E+00 0. -1.
          1    1    1    2  502    0  0.34802038057E+02 -0.13664313216E+03  0.33709759280E+04  0.33739237149E+04  0.00000000000E+00 0. -1.
         22    1    3    3    0    0 -0.89946507269E+02  0.12815400297E+03  0.74103592013E+02  0.17321999017E+03  0.00000000000E+00 0. -1.
         22    1    3    3    0    0  0.33030581809E+02  0.92640730916E+01 -0.11214405093E+01  0.34323461563E+02  0.00000000000E+00 0. -1.
</event>
<event>
 7    1  0.5452757E-006  0.1323457E+03  0.7818608E-02  0.1314542E+00
          2   -1    0    0  502    0  0.00000000000E+00  0.00000000000E+00  0.62553286487E+03  0.62553286487E+03  0.00000000000E+00 0. -1.
          1   -1    0    0  501    0 -0.00000000000E+00 -0.00000000000E+00 -0.14399678060E+03  0.14399678060E+03  0.00000000000E+00 0. -1.
         25    2    1    2    0    0  0.33896041678E+02  0.10717929490E+03  0.12359186812E+03  0.20865308906E+03  0.12499927525E+03 0.  0.
          2    1    1    2  501    0 -0.88913577173E+02 -0.10840690203E+03 -0.50288214032E+02  0.14895161994E+03  0.00000000000E+00 0. -1.
          1    1    1    2  502    0  0.55017535495E+02  0.12276071305E+01  0.40823243017E+03  0.41192493646E+03  0.00000000000E+00 0. -1.
         22    1    3    3    0    0 -0.20403787071E+02  0.53156379663E+02  0.11899936685E+03  0.13191953812E+03  0.00000000000E+00 0. -1.
         22    1    3    3    0    0  0.54299828749E+02  0.54022915238E+02  0.45925012660E+01  0.76733550946E+02  0.00000000000E+00 0. -1.
</event>
<event>
 7    1  0.5452757E-006  0.1236905E+03  0.7818608E-02  0.1240469E+00
          2   -1    0    0  502    0  0.00000000000E+00  0.00000000000E+00  0.40505395464E+03  0.40505395464E+03  0.00000000000E+00 0. -1.
          1   -1    0    0  501    0 -0.00000000000E+00 -0.00000000000E+00 -0.15866987908E+04  0.15866987908E+04  0.00000000000E+00 0. -1.
         25    2    1    2    0    0 -0.59709691920E+02  0.48278941253E+02 -0.11760627881E+02  0.14717553781E+03  0.12500489224E+03 0.  0.
          2    1    1    2  501    0  0.11303493872E+03  0.58729039930E+02 -0.14938411577E+04  0.14992622859E+04  0.00000000000E+00 0. -1.
          1    1    1    2  502    0 -0.53325246798E+02 -0.10700798118E+03  0.32395694950E+03  0.34531492165E+03  0.00000000000E+00 0. -1.
         22    1    3    3    0    0 -0.55690172473E+02  0.83874582018E+02 -0.32485313962E+02  0.10579053097E+03  0.00000000000E+00 0.  1.
         22    1    3    3    0    0 -0.40195194468E+01 -0.35595640765E+02  0.20724686082E+02  0.41385006841E+02  0.00000000000E+00 0.  1.
</event>
<event>
 7    1  0.5452757E-006  0.5119353E+02  0.7818608E-02  0.1490539E+00
          2   -1    0    0  502    0  0.00000000000E+00  0.00000000000E+00  0.36428790787E+03  0.36428790787E+03  0.00000000000E+00 0. -1.
          1   -1    0    0  501    0 -0.00000000000E+00 -0.00000000000E+00 -0.53744669879E+03  0.53744669879E+03  0.00000000000E+00 0. -1.
         25    2    1    2    0    0  0.37806562410E+01  0.26780213518E+02  0.20007964940E+03  0.23745948751E+03  0.12499467550E+03 0.  0.
          2    1    1    2  501    0  0.23953158975E+02  0.25919777643E+02 -0.51203100482E+03  0.51324588512E+03  0.00000000000E+00 0. -1.
          1    1    1    2  502    0 -0.27733815216E+02 -0.52699991161E+02  0.13879256450E+03  0.15102923404E+03  0.00000000000E+00 0. -1.
         22    1    3    3    0    0  0.56002683086E+02  0.41247614356E+02  0.14143458693E+03  0.15761157502E+03  0.00000000000E+00 0. -1.
         22    1    3    3    0    0 -0.52222026845E+02 -0.14467400839E+02  0.58645062474E+02  0.79847912480E+02  0.00000000000E+00 0. -1.
</event>
<event>
 7    1  0.5452757E-006  0.1473342E+03  0.7818608E-02  0.1319679E+00
          2   -1    0    0  502    0  0.00000000000E+00  0.00000000000E+00  0.16363973060E+04  0.16363973060E+04  0.00000000000E+00 0. -1.
          1   -1    0    0  501    0 -0.00000000000E+00 -0.00000000000E+00 -0.49183698458E+03  0.49183698458E+03  0.00000000000E+00 0. -1.
         25    2    1    2    0    0 -0.11227457371E+03  0.43342948627E+02 -0.25690502033E+02  0.17540906804E+03  0.12499659258E+03 0.  0.
          2    1    1    2  501    0  0.12510879918E+03 -0.88770697528E+02 -0.37587783100E+03  0.40597609808E+03  0.00000000000E+00 0. -1.
          1    1    1    2  502    0 -0.12834225469E+02  0.45427748901E+02  0.15461286545E+04  0.15468491245E+04  0.00000000000E+00 0. -1.
         22    1    3    3    0    0 -0.66740831173E+02  0.77711828573E+02 -0.49280994890E+02  0.11367534167E+03  0.00000000000E+00 0. -1.
         22    1    3    3    0    0 -0.45533742540E+02 -0.34368879946E+02  0.23590492857E+02  0.61733726371E+02  0.00000000000E+00 0. -1.
</event>
<event>
 7    1  0.5452757E-006  0.7998772E+02  0.7818608E-02  0.1428926E+00
          2   -1    0    0  502    0  0.00000000000E+00  0.00000000000E+00  0.64165598066E+02  0.64165598066E+02  0.00000000000E+00 0. -1.
          1   -1    0    0  501    0 -0.00000000000E+00 -0.00000000000E+00 -0.12884154707E+04  0.12884154707E+04  0.00000000000E+00 0. -1.
         25    2    1    2    0    0  0.15274190285E+01 -0.88808546029E+02 -0.22502293376E+03  0.27229696208E+03  0.12498409493E+03 0.  0.
          2    1    1    2  501    0 -0.33004932329E+02  0.72717997323E+02 -0.10301956843E+04  0.10332862046E+04  0.00000000000E+00 0. -1.
          1    1    1    2  502    0  0.31477513300E+02  0.16090548706E+02  0.30968745456E+02  0.46997902042E+02  0.00000000000E+00 0. -1.
         22    1    3    3    0    0 -0.15951093205E+02 -0.10538991765E+03 -0.10407708622E+03  0.14897487034E+03  0.00000000000E+00 0.  1.
         22    1    3    3    0    0  0.17478512234E+02  0.16581371618E+02 -0.12094584754E+03  0.12332209175E+03  0.00000000000E+00 0.  1.
</event>
<event>
 7    1  0.5452757E-006  0.4977066E+02  0.7818608E-02  0.1567178E+00
          2   -1    0    0  502    0  0.00000000000E+00  0.00000000000E+00  0.16065955504E+04  0.16065955504E+04  0.00000000000E+00 0. -1.
          1   -1    0    0  501    0 -0.00000000000E+00 -0.00000000000E+00 -0.27898808639E+02  0.27898808639E+02  0.00000000000E+00 0. -1.
         25    2    1    2    0    0 -0.38708593600E+02  0.53424920520E+02  0.12862819495E+04  0.12940240608E+04  0.12499775554E+03 0.  0.
          2    1    1    2  501    0  0.38114714026E+02 -0.31561449448E+02  0.23074771416E+01  0.49539690828E+02  0.00000000000E+00 0. -1.
          1    1    1    2  502    0  0.59387957354E+00 -0.21863471072E+02  0.29010731511E+03  0.29093060743E+03  0.00000000000E+00 0. -1.
         22    1    3    3    0    0  0.24682255812E+02  0.15829780168E+02  0.91650536349E+03  0.91697430553E+03  0.00000000000E+00 0.  1.
         22    1    3    3    0    0 -0.63390849412E+02  0.37595140352E+02  0.36977658604E+03  0.37704975527E+03  0.00000000000E+00 0.  1.
</event>
<event>
 7    1  0.5452757E-006  0.5852021E+02  0.7818608E-02  0.1454988E+00
          2   -1    0    0  502    0  0.00000000000E+00  0.00000000000E+00  0.90785442178E+03  0.90785442178E+03  0.00000000000E+00 0. -1.
          1   -1    0    0  501    0 -0.00000000000E+00 -0.00000000000E+00 -0.80195056924E+02  0.80195056924E+02  0.00000000000E+00 0. -1.
         25    2    1    2    0    0  0.31165606159E+02  0.21009898171E+02  0.67748625194E+03  0.68994586152E+03  0.12499983772E+03 0.  0.
          2    1    1    2  501    0 -0.14650244582E+02 -0.57210927093E+02 -0.60005000743E+02  0.84192160914E+02  0.00000000000E+00 0. -1.
          1    1    1    2  502    0 -0.16515361577E+02  0.36201028922E+02  0.21017811365E+03  0.21391145627E+03  0.00000000000E+00 0. -1.
         22    1    3    3    0    0  0.60117476511E+02 -0.26512607909E+02  0.23631863752E+03  0.24528254687E+03  0.00000000000E+00 0.  1.
         22    1    3    3    0    0 -0.28951870351E+02  0.47522506080E+02  0.44116761442E+03  0.44466331465E+03  0.00000000000E+00 0.  1.
</event>
<event>
 7    1  0.5452757E-006  0.2892923E+02  0.7818608E-02  0.1648483E+00
          2   -1    0    0  502    0  0.00000000000E+00  0.00000000000E+00  0.53638230058E+03  0.53638230058E+03  0.00000000000E+00 0. -1.
          1   -1    0    0  501    0 -0.00000000000E+00 -0.00000000000E+00 -0.55296959427E+03  0.55296959427E+03  0.00000000000E+00 0. -1.
         25    2    1    2    0    0  0.30629070320E+02 -0.19813425863E+02 -0.30174230840E+03  0.32863976709E+03  0.12499985617E+03 0.  0.
          2    1    1    2  501    0 -0.87896503675E+01  0.27573886338E+02 -0.23663972856E+03  0.23840289070E+03  0.00000000000E+00 0. -1.
          1    1    1    2  502    0 -0.21839419952E+02 -0.77604604754E+01  0.52179474327E+03  0.52230923705E+03  0.00000000000E+00 0. -1.
         22    1    3    3    0    0 -0.11489471853E+02  0.48124361609E+02 -0.98088119780E+02  0.10986009915E+03  0.00000000000E+00 0. -1.
         22    1    3    3    0    0  0.42118542173E+02 -0.67937787472E+02 -0.20365418861E+03  0.21877966794E+03  0.00000000000E+00 0. -1.
</event>
<event>
 7    1  0.5452757E-006  0.9151097E+02  0.7818608E-02  0.1340578E+00
          2   -1    0    0  502    0  0.00000000000E+00  0.00000000000E+00  0.12995647472E+04  0.12995647472E+04  0.00000000000E+00 0. -1.
          1   -1    0    0  501    0 -0.00000000000E+00 -0.00000000000E+00 -0.50355578901E+03  0.50355578901E+03  0.00000000000E+00 0. -1.
         25    2    1    2    0    0 -0.80347169240E+02  0.61118351690E+02  0.12921788763E+03  0.20617981130E+03  0.12498692567E+03 0.  0.
          2    1    1    2  501    0  0.56776325388E+02  0.27853260460E+02 -0.46104156266E+03  0.46535865496E+03  0.00000000000E+00 0. -1.
          1    1    1    2  502    0  0.23570843852E+02 -0.88971612149E+02  0.11278326332E+04  0.11315820700E+04  0.00000000000E+00 0. -1.
         22    1    3    3    0    0  0.66464088736E+01 -0.15712328309E+02 -0.13835286965E+02  0.21965135493E+02  0.00000000000E+00 0. -1.
         22    1    3    3    0    0 -0.86993578114E+02  0.76830679999E+02  0.14305317460E+03  0.18421467581E+03  0.00000000000E+00 0. -1.
</event>
<event>
 7    1  0.5452757E-006  0.2995963E+02  0.7818608E-02  0.1623838E+00
          2   -1    0    0  502    0  0.00000000000E+00  0.00000000000E+00  0.26005797750E+03  0.26005797750E+03  0.00000000000E+00 0. -1.
          1   -1    0    0  501    0 -0.00000000000E+00 -0.00000000000E+00 -0.48985724168E+03  0.48985724168E+03  0.00000000000E+00 0. -1.
         25    2    1    2    0    0  0.49603364567E+02 -0.19485630087E+02 -0.99768643035E+02  0.16857623727E+03  0.12499592827E+03 0.  0.
          2    1    1    2  501    0 -0.25732313027E+02  0.16439259384E+01 -0.35423017259E+03  0.35516738251E+03  0.00000000000E+00 0. -1.
          1    1    1    2  502    0 -0.23871051539E+02  0.17841704148E+02  0.22419955144E+03  0.22617159940E+03  0.00000000000E+00 0. -1.
         22    1    3    3    0    0  0.76715645084E+02  0.75808748361E+01 -0.10462628220E+03  0.12995929667E+03  0.00000000000E+00 0. -1.
         22    1    3    3    0    0 -0.27112280518E+02 -0.27066504923E+02  0.48576391597E+01  0.38616940607E+02  0.00000000000E+00 0. -1.
</event>
<event>
 7    1  0.5452757E-006  0.7489876E+02  0.7818608E-02  0.1424391E+00
          2   -1    0    0  502    0  0.00000000000E+00  0.00000000000E+00  0.15602427708E+04  0.15602427708E+04  0.00000000000E+00 0. -1.
          1   -1    0    0  501    0 -0.00000000000E+00 -0.00000000000E+00 -0.89627244221E+02  0.89627244221E+02  0.00000000000E+00 0. -1.
         25    2    1    2    0    0  0.19733553416E+02 -0.16987512840E+02  0.13517857251E+04  0.13578028107E+04  0.12500334964E+03 0.  0.
          2    1    1    2  501    0  0.72286520902E+02 -0.19608234232E+02 -0.54371892080E+02  0.92553371642E+02  0.00000000000E+00 0. -1.
          1    1    1    2  502    0 -0.92020074318E+02  0.36595747072E+02  0.17320169358E+03  0.19951383270E+03  0.00000000000E+00 0. -1.
         22    1    3    3    0    0 -0.35639053442E+02  0.35316873362E+02  0.44360129618E+03  0.44642976340E+03  0.00000000000E+00 0.  1.
         22    1    3    3    0    0  0.55372606858E+02 -0.52304386202E+02  0.90818442894E+03  0.91137304732E+03  0.00000000000E+00 0.  1.
</event>
<event>
 7    1  0.5452757E-006  0.9307660E+02  0.7818608E-02  0.1399112E+00
          2   -1    0    0  502    0  0.00000000000E+00  0.00000000000E+00  0.64600963289E+03  0.64600963289E+03  0.00000000000E+00 0. -1.
          1   -1    0    0  501    0 -0.00000000000E+00 -0.00000000000E+00 -0.15992605012E+03  0.15992605012E+03  0.00000000000E+00 0. -1.
         25    2    1    2    0    0  0.12452552042E+03  0.21437810863E+02  0.37589275625E+03  0.41579762749E+03  0.12500447134E+03 0.  0.
          2    1    1    2  501    0 -0.87053453567E+02 -0.29294457368E+02 -0.12317589744E+03  0.15365145857E+03  0.00000000000E+00 0. -1.
          1    1    1    2  502    0 -0.37472066850E+02  0.78566465047E+01  0.23336672396E+03  0.23648659695E+03  0.00000000000E+00 0. -1.
         22    1    3    3    0    0 -0.22373623982E+02 -0.13718262404E+02  0.66844936380E+02  0.71812361702E+02  0.00000000000E+00 0. -1.
         22    1    3    3    0    0  0.14689914440E+03  0.35156073268E+02  0.30904781987E+03  0.34398526579E+03  0.00000000000E+00 0. -1.
</event>
<event>
 7    1  0.5452757E-006  0.8632298E+02  0.7818608E-02  0.1337982E+00
          2   -1    0    0  502    0  0.00000000000E+00  0.00000000000E+00  0.12477900675E+04  0.12477900675E+04  0.00000000000E+00 0. -1.
          1   -1    0    0  501    0 -0.00000000000E+00 -0.00000000000E+00 -0.58077597720E+03  0.58077597720E+03  0.00000000000E+00 0. -1.
         25    2    1    2    0    0 -0.14085398299E+03 -0.59578425228E+02  0.89388147268E+03  0.91544554680E+03  0.12500811443E+03 0.  0.
          2    1    1    2  501    0  0.74135698103E+02  0.43759284450E+02 -0.56326513178E+03  0.56980574355E+03  0.00000000000E+00 0. -1.
          1    1    1    2  502    0  0.66718284891E+02  0.15819140779E+02  0.33639774940E+03  0.34331475435E+03  0.00000000000E+00 0. -1.
         22    1    3    3    0    0 -0.44628623879E+02 -0.77011836352E+02  0.27951658150E+03  0.29334630787E+03  0.00000000000E+00 0.  1.
         22    1    3    3    0    0 -0.96225359115E+02  0.17433411124E+02  0.61436489118E+03  0.62209923893E+03  0.00000000000E+00 0.  1.
</event>
<event>
 7    1  0.5452757E-006  0.3649660E+02  0.7818608E-02  0.1622322E+00
          2   -1    0    0  502    0  0.00000000000E+00  0.00000000000E+00  0.80853706568E+03  0.80853706568E+03  0.00000000000E+00 0. -1.
          1   -1    0    0  501    0 -0.00000000000E+00 -0.00000000000E+00 -0.14572159618E+04  0.14572159618E+04  0.00000000000E+00 0. -1.
         25    2    1    2    0    0  0.13211558632E+02  0.13139386726E+02 -0.12605446467E+04  0.12668642310E+04  0.12499993859E+03 0.  0.
          2    1    1    2  501    0 -0.11753962691E+01  0.21322253480E+02 -0.19250720068E+03  0.19368800263E+03  0.00000000000E+00 0. -1.
          1    1    1    2  502    0 -0.12036162363E+02 -0.34461640207E+02  0.80437295123E+03  0.80520079391E+03  0.00000000000E+00 0. -1.
         22    1    3    3    0    0  0.10811376177E+02  0.38411886793E+02 -0.12064416853E+04  0.12071014452E+04  0.00000000000E+00 0.  1.
         22    1    3    3    0    0  0.24001824545E+01 -0.25272500067E+02 -0.54102961386E+02  0.59762785797E+02  0.00000000000E+00 0.  1.
</event>
<event>
 7    1  0.5452757E-006  0.6558489E+02  0.7818608E-02  0.1462782E+00
          2   -1    0    0  502    0  0.00000000000E+00  0.00000000000E+00  0.37756999419E+03  0.37756999419E+03  0.00000000000E+00 0. -1.
          1   -1    0    0  501    0 -0.00000000000E+00 -0.00000000000E+00 -0.13134576856E+03  0.13134576856E+03  0.00000000000E+00 0. -1.
         25    2    1    2    0    0  0.86436400367E+01  0.46886988899E+02  0.22129814875E+03  0.25859376185E+03  0.12499904314E+03 0.  0.
          2    1    1    2  501    0  0.25214495717E+02  0.22127400750E+02 -0.98977966970E+02  0.10450851929E+03  0.00000000000E+00 0. -1.
          1    1    1    2  502    0 -0.33858135753E+02 -0.69014389649E+02  0.12390404385E+03  0.14581348160E+03  0.00000000000E+00 0. -1.
         22    1    3    3    0    0  0.10265837574E+02 -0.82148845656E+01 -0.12645950365E+02  0.18242582332E+02  0.00000000000E+00 0. -1.
         22    1    3    3    0    0 -0.16221975374E+01  0.55101873465E+02  0.23394409912E+03  0.24035117952E+03  0.00000000000E+00 0. -1.
</event>
<event>
 7    1  0.5452757E-006  0.8815064E+02  0.7818608E-02  0.1308396E+00
          2   -1    0    0  502    0  0.00000000000E+00  0.00000000000E+00  0.16470761368E+04  0.16470761368E+04  0.00000000000E+00 0. -1.
          1   -1    0    0  501    0 -0.00000000000E+00 -0.00000000000E+00 -0.15131882838E+03  0.15131882838E+03  0.00000000000E+00 0. -1.
         25    2    1    2    0    0  0.45007976821E+02 -0.42897009759E+02  0.54767543733E+02  0.14996982975E+03  0.12500237823E+03 0.  0.
          2    1    1    2  501    0 -0.78774907708E+02 -0.39560693375E+02 -0.83448835750E+02  0.12138468904E+03  0.00000000000E+00 0. -1.
          1    1    1    2  502    0  0.33766930887E+02  0.82457703134E+02  0.15244386004E+04  0.15270404464E+04  0.00000000000E+00 0. -1.
         22    1    3    3    0    0 -0.34421410594E+02  0.18597977772E+02  0.16869598307E+02  0.42606356704E+02  0.00000000000E+00 0.  1.
         22    1    3    3    0    0  0.79429387416E+02 -0.61494987531E+02  0.37897945426E+02  0.10736347304E+03  0.00000000000E+00 0.  1.
</event>
<event>
 7    1  0.5452757E-006  0.1883799E+03  0.7818608E-02  0.1221386E+00
          2   -1    0    0  502    0  0.00000000000E+00  0.00000000000E+00  0.47729421877E+03  0.47729421877E+03  0.00000000000E+00 0. -1.
          1   -1    0    0  501    0 -0.00000000000E+00 -0.00000000000E+00 -0.66872150660E+03  0.66872150660E+03  0.00000000000E+00 0. -1.
         25    2    1    2    0    0  0.97059105806E+02  0.12178152223E+03 -0.22072941761E+03  0.29765338265E+03  0.12499940490E+03 0.  0.
          2    1    1    2  501    0 -0.19152169193E+03 -0.10727412625E+03 -0.37412393523E+03  0.43377069467E+03  0.00000000000E+00 0. -1.
          1    1    1    2  502    0  0.94462586123E+02 -0.14507395978E+02  0.40342606500E+03  0.41459164806E+03  0.00000000000E+00 0. -1.
         22    1    3    3    0    0  0.69192091633E+02  0.14657087273E+03 -0.17274426140E+03  0.23687791396E+03  0.00000000000E+00 0.  1.
         22    1    3    3    0    0  0.27867014174E+02 -0.24789350496E+02 -0.47985156212E+02  0.60775468683E+02  0.00000000000E+00 0.  1.
</event>
<event>
 7    1  0.5452757E-006  0.1251728E+03  0.7818608E-02  0.1385450E+00
          2   -1    0    0  502    0  0.00000000000E+00  0.00000000000E+00  0.20904697630E+04  0.20904697630E+04  0.00000000000E+00 0. -1.
          1   -1    0    0  501    0 -0.00000000000E+00 -0.00000000000E+00 -0.21102445917E+04  0.21102445917E+04  0.00000000000E+00 0. -1.
         25    2    1    2    0    0 -0.12255271353E+03 -0.10240714212E+02  0.91971315419E+01  0.17559312889E+03  0.12499727943E+03 0.  0.
          2    1    1    2  501    0  0.11815972347E+03  0.41696758614E+02 -0.20249837742E+04  0.20288567287E+04  0.00000000000E+00 0. -1.
          1    1    1    2  502    0  0.43929900676E+01 -0.31456044403E+02  0.19960118139E+04  0.19962644971E+04  0.00000000000E+00 0. -1.
         22    1    3    3    0    0 -0.10971830630E+03  0.62663548262E+01  0.56721908862E+02  0.12367194057E+03  0.00000000000E+00 0.  1.
         22    1    3    3    0    0 -0.12834407232E+02 -0.16507069038E+02 -0.47524777320E+02  0.51921188320E+02  0.00000000000E+00 0.  1.
</event>
<event>
 7    1  0.5452757E-006  0.5180095E+02  0.7818608E-02  0.1494368E+00
          2   -1    0    0  502    0  0.00000000000E+00  0.00000000000E+00  0.21893060568E+04  0.21893060568E+04  0.00000000000E+00 0. -1.
          1   -1    0    0  501    0 -0.00000000000E+00 -0.00000000000E+00 -0.85980549233E+02  0.85980549233E+02  0.00000000000E+00 0. -1.
         25    2    1    2    0    0 -0.42360654479E+01  0.52794781546E+02  0.77909768922E+03  0.79083720007E+03  0.12500013782E+03 0.  0.
          2    1    1    2  501    0 -0.31025688236E+02 -0.13819183086E+02 -0.75995552207E+02  0.83239936971E+02  0.00000000000E+00 0. -1.
          1    1    1    2  502    0  0.35261753684E+02 -0.38975598460E+02  0.14002233706E+04  0.14012094690E+04  0.00000000000E+00 0. -1.
         22    1    3    3    0    0  0.46463863815E+02  0.61617695781E+02  0.58357011980E+03  0.58865075877E+03  0.00000000000E+00 0. -1.
         22    1    3    3    0    0 -0.50699929263E+02 -0.88229142354E+01  0.19552756942E+03  0.20218644130E+03  0.00000000000E+00 0. -1.
</event>
<event>
 7    1  0.5452757E-006  0.4692037E+02  0.7818608E-02  0.1522680E+00
          2   -1    0    0  502    0  0.00000000000E+00  0.00000000000E+00  0.34499964436E+02  0.34499964436E+02  0.00000000000E+00 0. -1.
          1   -1    0    0  501    0 -0.00000000000E+00 -0.00000000000E+00 -0.26370437741E+04  0.26370437741E+04  0.00000000000E+00 0. -1.
         25    2    1    2    0    0 -0.32142900127E+02  0.12531235180E+02 -0.69808005701E+03  0.71002030811E+03  0.12499149588E+03 0.  0.
          2    1    1    2  501    0  0.97511646546E+01  0.29360446280E+02 -0.19130100318E+04  0.19132601765E+04  0.00000000000E+00 0. -1.
          1    1    1    2  502    0  0.22391735472E+02 -0.41891681460E+02  0.85462791871E+01  0.48263253941E+02  0.00000000000E+00 0. -1.
         22    1    3    3    0    0 -0.34869463826E+02  0.32975776139E+02 -0.68246545135E+03  0.68415084127E+03  0.00000000000E+00 0. -1.
         22    1    3    3    0    0  0.27265636989E+01 -0.20444540959E+02 -0.15614605660E+02  0.25869466839E+02  0.00000000000E+00 0. -1.
</event>
<event>
 7    1  0.5452757E-006  0.1306218E+03  0.7818608E-02  0.1245156E+00
          2   -1    0    0  502    0  0.00000000000E+00  0.00000000000E+00  0.91483463616E+03  0.91483463616E+03  0.00000000000E+00 0. -1.
          1   -1    0    0  501    0 -0.00000000000E+00 -0.00000000000E+00 -0.26339230672E+03  0.26339230672E+03  0.00000000000E+00 0. -1.
         25    2    1    2    0    0  0.29903891767E+02 -0.19882757488E+03  0.25302986102E+03  0.34651923396E+03  0.12499928666E+03 0.  0.
          2    1    1    2  501    0  0.43041246413E+02  0.99027082953E+02 -0.19643288242E+03  0.22415349506E+03  0.00000000000E+00 0. -1.
          1    1    1    2  502    0 -0.72945138180E+02  0.99800491923E+02  0.59484535084E+03  0.60755421387E+03  0.00000000000E+00 0. -1.
         22    1    3    3    0    0  0.49180828998E+02 -0.27738949399E+02  0.10604361174E+03  0.12013929767E+03  0.00000000000E+00 0. -1.
         22    1    3    3    0    0 -0.19276937231E+02 -0.17108862548E+03  0.14698624928E+03  0.22637993629E+03  0.00000000000E+00 0. -1.
</event>
<event>
 7    1  0.5452757E-006  0.4817180E+02  0.7818608E-02  0.1579953E+00
          2   -1    0    0  502    0  0.00000000000E+00  0.00000000000E+00  0.78802086578E+03  0.78802086578E+03  0.00000000000E+00 0. -1.
          1   -1    0    0  501    0 -0.00000000000E+00 -0.00000000000E+00 -0.85821847661E+02  0.85821847661E+02  0.00000000000E+00 0. -1.
         25    2    1    2    0    0 -0.30415719829E+02 -0.97777031447E+01  0.16226887680E+03  0.20730961867E+03  0.12500148049E+03 0.  0.
          2    1    1    2  501    0 -0.18537550709E+02  0.95864510087E+01 -0.60557811422E+02  0.64053019862E+02  0.00000000000E+00 0. -1.
          1    1    1    2  502    0  0.48953270538E+02  0.19125213605E+00  0.60048795275E+03  0.60248007491E+03  0.00000000000E+00 0. -1.
         22    1    3    3    0    0 -0.74249780333E+02  0.28935721158E+00  0.59565135177E+02  0.95189909842E+02  0.00000000000E+00 0. -1.
         22    1    3    3    0    0  0.43834060503E+02 -0.10067060356E+02  0.10270374162E+03  0.11211970882E+03  0.00000000000E+00 0. -1.
</event>
<event>
 7    1  0.6009679E-006  0.8416376E+02  0.7818608E-02  0.1353072E+00
          2   -1    0    0  502    0  0.00000000000E+00  0.00000000000E+00  0.67958752491E+03  0.67958752491E+03  0.00000000000E+00 0. -1.
          1   -1    0    0  501    0 -0.00000000000E+00 -0.00000000000E+00 -0.16369867695E+04  0.16369867695E+04  0.00000000000E+00 0. -1.
         25    2    1    2    0    0 -0.35596872780E+02  0.16186343246E+02 -0.26430992826E+03  0.29498057418E+03  0.12499866362E+03 0.  0.
          2    1    1    2  501    0  0.44330738939E+02 -0.77342699346E+02 -0.13544367176E+04  0.13573672788E+04  0.00000000000E+00 0. -1.
          1    1    1    2  502    0 -0.87338661584E+01  0.61156356100E+02  0.66134740128E+03  0.66422644143E+03  0.00000000000E+00 0. -1.
         22    1    3    3    0    0 -0.36457627479E+02  0.67714525589E+02 -0.18557286375E+03  0.20087733406E+03  0.00000000000E+00 0.  1.
         22    1    3    3    0    0  0.86075469893E+00 -0.51528182343E+02 -0.78737064508E+02  0.94103240122E+02  0.00000000000E+00 0.  1.
</event>
<event>
 7    1  0.5452757E-006  0.1255465E+03  0.7818608E-02  0.1408732E+00
          2   -1    0    0  502    0  0.00000000000E+00  0.00000000000E+00  0.12946993813E+04  0.12946993813E+04  0.00000000000E+00 0. -1.
          1   -1    0    0  501    0 -0.00000000000E+00 -0.00000000000E+00 -0.11132858346E+03  0.11132858346E+03  0.00000000000E+00 0. -1.
         25    2    1    2    0    0  0.93185826564E+02  0.56076203070E+02  0.42236292080E+03  0.45370110967E+03  0.12500448483E+03 0.  0.
          2    1    1    2  501    0  0.26242067879E+02 -0.19508602662E+01 -0.88720906840E+02  0.92541078948E+02  0.00000000000E+00 0. -1.
          1    1    1    2  502    0 -0.11942789444E+03 -0.54125342803E+02  0.84972878389E+03  0.85978577616E+03  0.00000000000E+00 0. -1.
         22    1    3    3    0    0  0.14275826637E+02 -0.87697778655E+01  0.26851152825E+03  0.26903373215E+03  0.00000000000E+00 0. -1.
         22    1    3    3    0    0  0.78909999927E+02  0.64845980935E+02  0.15385139255E+03  0.18466737752E+03  0.00000000000E+00 0. -1.
</event>
<event>
 7    1  0.5452757E-006  0.4573193E+02  0.7818608E-02  0.1546326E+00
          2   -1    0    0  502    0  0.00000000000E+00  0.00000000000E+00  0.17507202661E+02  0.17507202661E+02  0.00000000000E+00 0. -1.
          1   -1    0    0  501    0 -0.00000000000E+00 -0.00000000000E+00 -0.71587133000E+03  0.71587133000E+03  0.00000000000E+00 0. -1.
         25    2    1    2    0    0 -0.31836761244E+02  0.16883085523E+02 -0.30413962492E+03  0.33079458400E+03  0.12500210963E+03 0.  0.
          2    1    1    2  501    0  0.22223592678E+02 -0.42308447952E+02 -0.31979694469E+03  0.32334807665E+03  0.00000000000E+00 0. -1.
          1    1    1    2  502    0  0.96131685659E+01  0.25425362429E+02 -0.74427557734E+02  0.79235872020E+02  0.00000000000E+00 0. -1.
         22    1    3    3    0    0 -0.47589798576E+02 -0.40553045168E+02 -0.98196469457E+02  0.11641256382E+03  0.00000000000E+00 0.  1.
         22    1    3    3    0    0  0.15753037331E+02  0.57436130691E+02 -0.20594315546E+03  0.21438202018E+03  0.00000000000E+00 0.  1.
</event>
<event>
 7    1  0.5452757E-006  0.6241065E+02  0.7818608E-02  0.1468248E+00
          2   -1    0    0  502    0  0.00000000000E+00  0.00000000000E+00  0.83531464244E+03  0.83531464244E+03  0.00000000000E+00 0. -1.
          1   -1    0    0  501    0 -0.00000000000E+00 -0.00000000000E+00 -0.23776445994E+04  0.23776445994E+04  0.00000000000E+00 0. -1.
         25    2    1    2    0    0  0.31458670137E+02  0.60038422626E+02  0.23408634911E+03  0.27389022068E+03  0.12500069611E+03 0.  0.
          2    1    1    2  501    0  0.21349930779E+02 -0.26321176045E+02 -0.23559322208E+04  0.23561759809E+04  0.00000000000E+00 0. -1.
          1    1    1    2  502    0 -0.52808600916E+02 -0.33717246581E+02  0.57951591470E+03  0.58289304031E+03  0.00000000000E+00 0. -1.
         22    1    3    3    0    0 -0.65899195402E+01 -0.31263467171E+02  0.11357808431E+03  0.11798649352E+03  0.00000000000E+00 0.  1.
         22    1    3    3    0    0  0.38048589677E+02  0.91301889797E+02  0.12050826480E+03  0.15590372716E+03  0.00000000000E+00 0.  1.
</event>
<event>
 7    1  0.5452757E-006  0.9028476E+02  0.7818608E-02  0.1356054E+00
          2   -1    0    0  502    0  0.00000000000E+00  0.00000000000E+00  0.14042609003E+04  0.14042609003E+04  0.00000000000E+00 0. -1.
          1   -1    0    0  501    0 -0.00000000000E+00 -0.00000000000E+00 -0.29983182324E+03  0.29983182324E+03  0.00000000000E+00 0. -1.
         25    2    1    2    0    0  0.93092891881E+02  0.10443234404E+03 -0.13010840514E+03  0.22831007821E+03  0.12499957490E+03 0.  0.
          2    1    1    2  501    0 -0.19634272588E+02 -0.52607387089E+02 -0.11250717303E+03  0.12574142444E+03  0.00000000000E+00 0. -1.
          1    1    1    2  502    0 -0.73458619294E+02 -0.51824956947E+02  0.13470446552E+04  0.13500412209E+04  0.00000000000E+00 0. -1.
         22    1    3    3    0    0  0.39776547128E+02  0.17355950667E+02 -0.11771262846E+03  0.12545782408E+03  0.00000000000E+00 0.  1.
         22    1    3    3    0    0  0.53316344754E+02  0.87076393369E+02 -0.12395776685E+02  0.10285225413E+03  0.00000000000E+00 0.  1.
</event>
<event>
 7    1  0.5452757E-006  0.6919716E+02  0.7818608E-02  0.1466485E+00
          2   -1    0    0  502    0  0.00000000000E+00  0.00000000000E+00  0.20863930468E+04  0.20863930468E+04  0.00000000000E+00 0. -1.
          1   -1    0    0  501    0 -0.00000000000E+00 -0.00000000000E+00 -0.23707935770E+03  0.23707935770E+03  0.00000000000E+00 0. -1.
         25    2    1    2    0    0 -0.60865375950E+02  0.27825869311E+02  0.15159951985E+04  0.15226112980E+04  0.12499940028E+03 0.  0.
          2    1    1    2  501    0  0.69199464437E+02  0.19884409598E+01 -0.22821037488E+03  0.23847954834E+03  0.00000000000E+00 0. -1.
          1    1    1    2  502    0 -0.83340884875E+01 -0.29814310270E+02  0.56152886546E+03  0.56238155809E+03  0.00000000000E+00 0. -1.
         22    1    3    3    0    0 -0.38189814377E+02 -0.12570146329E+02  0.13405632991E+04  0.13411660708E+04  0.00000000000E+00 0. -1.
         22    1    3    3    0    0 -0.22675561572E+02  0.40396015640E+02  0.17543189935E+03  0.18144522722E+03  0.00000000000E+00 0. -1.
</event>
<event>
 7    1  0.5452757E-006  0.1251459E+03  0.7818608E-02  0.1347226E+00
          2   -1    0    0  502    0  0.00000000000E+00  0.00000000000E+00  0.20778071847E+04  0.20778071847E+04  0.00000000000E+00 0. -1.
          1   -1    0    0  501    0 -0.00000000000E+00 -0.00000000000E+00 -0.97014046712E+02  0.97014046712E+02  0.00000000000E+00 0. -1.
         25    2    1    2    0    0 -0.29192766594E+02  0.14760139483E+03  0.17074137658E+03  0.25964557659E+03  0.12499927355E+03 0.  0.
          2    1    1    2  501    0 -0.24944569413E+02 -0.35845383515E+02 -0.41037064330E+02  0.59926319021E+02  0.00000000000E+00 0. -1.
          1    1    1    2  502    0  0.54137336007E+02 -0.11175601132E+03  0.18510888258E+04  0.18552493358E+04  0.00000000000E+00 0. -1.
         22    1    3    3    0    0  0.29904978621E+02  0.13075031516E+03  0.11497372296E+03  0.17666043596E+03  0.00000000000E+00 0.  1.
         22    1    3    3    0    0 -0.59097745214E+02  0.16851079671E+02  0.55767653620E+02  0.82985140632E+02  0.00000000000E+00 0.  1.
</event>
<event>
 7    1  0.5452757E-006  0.2438356E+03  0.7818608E-02  0.1298273E+00
          2   -1    0    0  502    0  0.00000000000E+00  0.00000000000E+00  0.25207072636E+04  0.25207072636E+04  0.00000000000E+00 0. -1.
          1   -1    0    0  501    0 -0.00000000000E+00 -0.00000000000E+00 -0.15403179035E+03  0.15403179035E+03  0.00000000000E+00 0. -1.
         25    2    1    2    0    0 -0.34870173368E+00  0.23195332122E+03  0.15527578916E+04  0.15749558190E+04  0.12500518770E+03 0.  0.
          2    1    1    2  501    0  0.15056128584E+02  0.31207781706E+02 -0.12233005073E+03  0.12714265201E+03  0.00000000000E+00 0. -1.
          1    1    1    2  502    0 -0.14707426851E+02 -0.26316110293E+03  0.93624763234E+03  0.97264058293E+03  0.00000000000E+00 0. -1.
         22    1    3    3    0    0  0.66299043779E+01  0.12060144755E+03  0.42918160322E+03  0.44585369050E+03  0.00000000000E+00 0.  1.
         22    1    3    3    0    0 -0.69786061116E+01  0.11135187367E+03  0.11235762884E+04  0.11291021285E+04  0.00000000000E+00 0.  1.
</event>
<event>
 7    1  0.5452757E-006  0.9484124E+02  0.7818608E-02  0.1426411E+00
          2   -1    0    0  502    0  0.00000000000E+00  0.00000000000E+00  0.14549299321E+04  0.14549299321E+04  0.00000000000E+00 0. -1.
          1   -1    0    0  501    0 -0.00000000000E+00 -0.00000000000E+00 -0.46194253438E+03  0.46194253438E+03  0.00000000000E+00 0. -1.
         25    2    1    2    0    0 -0.12088501789E+03  0.28580825862E+02 -0.43184950607E+03  0.46642121509E+03  0.12499881135E+03 0.  0.
          2    1    1    2  501    0  0.27418153403E+02 -0.13109469621E+02  0.93490536754E+01  0.31796511356E+02  0.00000000000E+00 0. -1.
          1    1    1    2  502    0  0.93466864489E+02 -0.15471356240E+02  0.14154878501E+04  0.14186547401E+04  0.00000000000E+00 0. -1.
         22    1    3    3    0    0  0.14106897659E+02 -0.17451836596E+01 -0.16706191870E+03  0.16766554478E+03  0.00000000000E+00 0.  1.
         22    1    3    3    0    0 -0.13499191555E+03  0.30326009521E+02 -0.26478758737E+03  0.29875567031E+03  0.00000000000E+00 0.  1.
</event>
<event>
 7    1  0.5452757E-006  0.4576252E+02  0.7818608E-02  0.1542470E+00
          2   -1    0    0  502    0  0.00000000000E+00  0.00000000000E+00  0.72388760808E+03  0.72388760808E+03  0.00000000000E+00 0. -1.
          1   -1    0    0  501    0 -0.00000000000E+00 -0.00000000000E+00 -0.35847122764E+03  0.35847122764E+03  0.00000000000E+00 0. -1.
         25    2    1    2    0    0  0.59422021921E+02  0.34431410255E+02  0.27730364363E+03  0.31183125408E+03  0.12499968619E+03 0.  0.
          2    1    1    2  501    0 -0.31611578945E+02 -0.32944010791E+02 -0.33922474248E+03  0.34228354573E+03  0.00000000000E+00 0. -1.
          1    1    1    2  502    0 -0.27810442976E+02 -0.14873994635E+01  0.42733747928E+03  0.42824403592E+03  0.00000000000E+00 0. -1.
         22    1    3    3    0    0 -0.30653020074E+02  0.18755075000E+02  0.15511304434E+03  0.15922128314E+03  0.00000000000E+00 0.  1.
         22    1    3    3    0    0  0.90075041995E+02  0.15676335254E+02  0.12219059929E+03  0.15260997095E+03  0.00000000000E+00 0.  1.
</event>
<event>
 7    1  0.5452757E-006  0.7450603E+02  0.7818608E-02  0.1432534E+00
          2   -1    0    0  502    0  0.00000000000E+00  0.00000000000E+00  0.24575440028E+03  0.24575440028E+03  0.00000000000E+00 0. -1.
          1   -1    0    0  501    0 -0.00000000000E+00 -0.00000000000E+00 -0.74701188112E+03  0.74701188112E+03  0.00000000000E+00 0. -1.
         25    2    1    2    0    0  0.53543648003E+02  0.89749103710E+02 -0.40417064075E+03  0.43577695194E+03  0.12500328450E+03 0.  0.
          2    1    1    2  501    0 -0.37635798372E+02 -0.56421071839E+02 -0.32199971166E+03  0.32906474283E+03  0.00000000000E+00 0. -1.
          1    1    1    2  502    0 -0.15907849630E+02 -0.33328031872E+02  0.22491287158E+03  0.22792458663E+03  0.00000000000E+00 0. -1.
         22    1    3    3    0    0 -0.38310792007E+02  0.31290157143E+02 -0.17828920611E+03  0.18502386801E+03  0.00000000000E+00 0. -1.
         22    1    3    3    0    0  0.91854440010E+02  0.58458946567E+02 -0.22588143464E+03  0.25075308393E+03  0.00000000000E+00 0. -1.
</event>
<event>
 7    1  0.5452757E-006  0.8915672E+02  0.7818608E-02  0.1441800E+00
          2   -1    0    0  502    0  0.00000000000E+00  0.00000000000E+00  0.21035122514E+04  0.21035122514E+04  0.00000000000E+00 0. -1.
          1   -1    0    0  501    0 -0.00000000000E+00 -0.00000000000E+00 -0.77205792367E+03  0.77205792367E+03  0.00000000000E+00 0. -1.
         25    2    1    2    0    0  0.10357806532E+03  0.15836781494E+02  0.68479309503E+03  0.70395020221E+03  0.12500033973E+03 0.  0.
          2    1    1    2  501    0 -0.16603843542E+02 -0.23518012880E+02 -0.76085437409E+03  0.76139882001E+03  0.00000000000E+00 0. -1.
          1    1    1    2  502    0 -0.86974221774E+02  0.76812313854E+01  0.14075156068E+04  0.14102211529E+04  0.00000000000E+00 0. -1.
         22    1    3    3    0    0  0.12284002219E+03 -0.15648542354E+02  0.57275749656E+03  0.58599120966E+03  0.00000000000E+00 0. -1.
         22    1    3    3    0    0 -0.19261956873E+02  0.31485323849E+02  0.11203559847E+03  0.11795899256E+03  0.00000000000E+00 0. -1.
</event>
<event>
 7    1  0.5452757E-006  0.6518589E+02  0.7818608E-02  0.1428277E+00
          2   -1    0    0  502    0  0.00000000000E+00  0.00000000000E+00  0.26800952738E+04  0.26800952738E+04  0.00000000000E+00 0. -1.
          1   -1    0    0  501    0 -0.00000000000E+00 -0.00000000000E+00 -0.23643633979E+03  0.23643633979E+03  0.00000000000E+00 0. -1.
         25    2    1    2    0    0  0.76294104301E+01 -0.90986880897E+02  0.56659497165E+03  0.58736184983E+03  0.12500904101E+03 0.  0.
          2    1    1    2  501    0 -0.33394657508E+02  0.55822178226E+02 -0.22114223456E+03  0.23051075167E+03  0.00000000000E+00 0. -1.
          1    1    1    2  502    0  0.25765247077E+02  0.35164702672E+02  0.20982061970E+04  0.20986590121E+04  0.00000000000E+00 0. -1.
         22    1    3    3    0    0 -0.43044545459E+02  0.84149466289E+00  0.95859081638E+02  0.10508332189E+03  0.00000000000E+00 0.  1.
         22    1    3    3    0    0  0.50673955889E+02 -0.91828375560E+02  0.47073589001E+03  0.48227852794E+03  0.00000000000E+00 0.  1.
</event>
<event>
 7    1  0.5452757E-006  0.1026404E+03  0.7818608E-02  0.1367634E+00
          2   -1    0    0  502    0  0.00000000000E+00  0.00000000000E+00  0.24285375660E+04  0.24285375660E+04  0.00000000000E+00 0. -1.
          1   -1    0    0  501    0 -0.00000000000E+00 -0.00000000000E+00 -0.15460488577E+04  0.15460488577E+04  0.00000000000E+00 0. -1.
         25    2    1    2    0    0  0.11565144330E+03  0.51692603774E+02  0.63043670319E+03  0.65507506641E+03  0.12500209710E+03 0.  0.
          2    1    1    2  501    0 -0.15574222010E+02 -0.42032018211E+02 -0.15319864284E+04  0.15326420534E+04  0.00000000000E+00 0. -1.
          1    1    1    2  502    0 -0.10007722129E+03 -0.96605855634E+01  0.17840384335E+04  0.17868693040E+04  0.00000000000E+00 0. -1.
         22    1    3    3    0    0  0.13235315417E+03  0.11027524897E+02  0.50437614901E+03  0.52156903993E+03  0.00000000000E+00 0.  1.
         22    1    3    3    0    0 -0.16701710866E+02  0.40665078877E+02  0.12606055418E+03  0.13350602648E+03  0.00000000000E+00 0.  1.
</event>
<event>
 7    1  0.5452757E-006  0.9544036E+02  0.7818608E-02  0.1302496E+00
          2   -1    0    0  502    0  0.00000000000E+00  0.00000000000E+00  0.16693797887E+04  0.16693797887E+04  0.00000000000E+00 0. -1.
          1   -1    0    0  501    0 -0.00000000000E+00 -0.00000000000E+00 -0.50916590275E+03  0.50916590275E+03  0.00000000000E+00 0. -1.
         25    2    1    2    0    0 -0.18981049276E+02 -0.73884414275E+02  0.66075436474E+02  0.16065224932E+03  0.12499597994E+03 0.  0.
          2    1    1    2  501    0  0.85104768490E+02  0.26933171495E+01 -0.45641966744E+03  0.46429407535E+03  0.00000000000E+00 0. -1.
          1    1    1    2  502    0 -0.66123719214E+02  0.71191097126E+02  0.15505581169E+04  0.15535993668E+04  0.00000000000E+00 0. -1.
         22    1    3    3    0    0 -0.40435812993E+02  0.23091364249E+02  0.27665444407E+02  0.54163113735E+02  0.00000000000E+00 0. -1.
         22    1    3    3    0    0  0.21454763717E+02 -0.96975778524E+02  0.38409992067E+02  0.10648913558E+03  0.00000000000E+00 0. -1.
</event>
<event>
 7    1  0.5452757E-006  0.2782379E+03  0.7818608E-02  0.1199299E+00
          2   -1    0    0  502    0  0.00000000000E+00  0.00000000000E+00  0.22383093693E+03  0.22383093693E+03  0.00000000000E+00 0. -1.
          1   -1    0    0  501    0 -0.00000000000E+00 -0.00000000000E+00 -0.66150867092E+03  0.66150867092E+03  0.00000000000E+00 0. -1.
         25    2    1    2    0    0  0.12578250160E+03  0.22832374923E+03 -0.31901951602E+03  0.43052459482E+03  0.12500001188E+03 0.  0.
          2    1    1    2  501    0 -0.63308835952E+02  0.51963123097E+02 -0.14490814311E+03  0.16645283059E+03  0.00000000000E+00 0. -1.
          1    1    1    2  502    0 -0.62473665646E+02 -0.28028687232E+03  0.26249925135E+02  0.28836218245E+03  0.00000000000E+00 0. -1.
         22    1    3    3    0    0  0.65519248100E+01  0.14136317161E+03 -0.15440609982E+03  0.20944621665E+03  0.00000000000E+00 0. -1.
         22    1    3    3    0    0  0.11923057679E+03  0.86960577617E+02 -0.16461341620E+03  0.22107837817E+03  0.00000000000E+00 0. -1.
</event>
<event>
 7    1  0.5452757E-006  0.7443293E+02  0.7818608E-02  0.1387240E+00
          2   -1    0    0  502    0  0.00000000000E+00  0.00000000000E+00  0.12997479917E+04  0.12997479917E+04  0.00000000000E+00 0. -1.
          1   -1    0    0  501    0 -0.00000000000E+00 -0.00000000000E+00 -0.27714505608E+03  0.27714505608E+03  0.00000000000E+00 0. -1.
         25    2    1    2    0    0  0.87896687039E+02 -0.83346492462E+02 -0.38396839351E+02  0.17824079068E+03  0.12499198691E+03 0.  0.
          2    1    1    2  501    0 -0.23345649928E+02  0.47186220583E+02 -0.16357816553E+03  0.17184113309E+03  0.00000000000E+00 0. -1.
          1    1    1    2  502    0 -0.64551037110E+02  0.36160271879E+02  0.12245779405E+04  0.12268111241E+04  0.00000000000E+00 0. -1.
         22    1    3    3    0    0  0.84267918936E+02 -0.84835117596E+02 -0.75182777157E+02  0.14124634268E+03  0.00000000000E+00 0.  1.
         22    1    3    3    0    0  0.36287681027E+01  0.14886251342E+01  0.36785937805E+02  0.36994448002E+02  0.00000000000E+00 0.  1.
</event>
<event>
 7    1  0.5452757E-006  0.1018368E+03  0.7818608E-02  0.1413046E+00
          2   -1    0    0  502    0  0.00000000000E+00  0.00000000000E+00  0.62272548011E+03  0.62272548011E+03  0.00000000000E+00 0. -1.
          1   -1    0    0  501    0 -0.00000000000E+00 -0.00000000000E+00 -0.21748518324E+03  0.21748518324E+03  0.00000000000E+00 0. -1.
         25    2    1    2    0    0 -0.68213463069E+02  0.11287773605E+03 -0.32092239644E+02  0.18452172603E+03  0.12499558269E+03 0.  0.
          2    1    1    2  501    0  0.15208617112E+02 -0.27434984866E+02 -0.10218014791E+03  0.10688668325E+03  0.00000000000E+00 0. -1.
          1    1    1    2  502    0  0.53004845956E+02 -0.85442751181E+02  0.53951268442E+03  0.54880225408E+03  0.00000000000E+00 0. -1.
         22    1    3    3    0    0  0.41244485776E-01  0.53077641842E+02  0.41748742338E+02  0.67529217761E+02  0.00000000000E+00 0. -1.
         22    1    3    3    0    0 -0.68254707554E+02  0.59800094206E+02 -0.73840981982E+02  0.11699250827E+03  0.00000000000E+00 0. -1.
</event>
<event>
 7    1  0.5452757E-006  0.7352424E+02  0.7818608E-02  0.1371935E+00
          2   -1    0    0  502    0  0.00000000000E+00  0.00000000000E+00  0.57637201305E+03  0.57637201305E+03  0.00000000000E+00 0. -1.
          1   -1    0    0  501    0 -0.00000000000E+00 -0.00000000000E+00 -0.16805170425E+03  0.16805170425E+03  0.00000000000E+00 0. -1.
         25    2    1    2    0    0 -0.83096569313E+02  0.35257453853E+02  0.31273807043E+02  0.15732629951E+03  0.12500154250E+03 0.  0.
          2    1    1    2  501    0  0.31634396654E+02 -0.66850663945E+02 -0.89815234850E+02  0.11634656305E+03  0.00000000000E+00 0. -1.
          1    1    1    2  502    0  0.51462172659E+02  0.31593210092E+02  0.46686173661E+03  0.47075085475E+03  0.00000000000E+00 0. -1.
         22    1    3    3    0    0 -0.10100619474E+03 -0.13485852912E+02  0.15648493496E+02  0.10309701719E+03  0.00000000000E+00 0. -1.
         22    1    3    3    0    0  0.17909625431E+02  0.48743306765E+02  0.15625313546E+02  0.54229282319E+02  0.00000000000E+00 0. -1.
</event>
<event>
 7    1  0.5452757E-006  0.9129855E+02  0.7818608E-02  0.1365996E+00
          2   -1    0    0  502    0  0.00000000000E+00  0.00000000000E+00  0.37690163560E+03  0.37690163560E+03  0.00000000000E+00 0. -1.
          1   -1    0    0  501    0 -0.00000000000E+00 -0.00000000000E+00 -0.13135685237E+04  0.13135685237E+04  0.00000000000E+00 0. -1.
         25    2    1    2    0    0  0.67935177056E+02 -0.19993389527E+02 -0.14108519134E+03  0.20134909278E+03  0.12498600738E+03 0.  0.
          2    1    1    2  501    0 -0.80643665219E+01 -0.50443684941E+02 -0.11356058837E+04  0.11367542929E+04  0.00000000000E+00 0. -1.
          1    1    1    2  502    0 -0.59870810534E+02  0.70437074468E+02  0.34002418696E+03  0.35236677359E+03  0.00000000000E+00 0. -1.
         22    1    3    3    0    0  0.49225666462E+01  0.49545924536E+02 -0.47234366175E+02  0.68630282299E+02  0.00000000000E+00 0.  1.
         22    1    3    3    0    0  0.63012610410E+02 -0.69539314063E+02 -0.93850825167E+02  0.13271881048E+03  0.00000000000E+00 0.  1.
</event>
<event>
 7    1  0.5452757E-006  0.6640738E+02  0.7818608E-02  0.1519964E+00
          2   -1    0    0  502    0  0.00000000000E+00  0.00000000000E+00  0.98929544164E+03  0.98929544164E+03  0.00000000000E+00 0. -1.
          1   -1    0    0  501    0 -0.00000000000E+00 -0.00000000000E+00 -0.51645079870E+03  0.51645079870E+03  0.00000000000E+00 0. -1.
         25    2    1    2    0    0  0.69705963481E+02 -0.13280655711E+02 -0.32791281503E+03  0.35803212007E+03  0.12499955031E+03 0.  0.
          2    1    1    2  501    0 -0.65001664492E+02 -0.84752815845E+01 -0.16715332461E+03  0.17954743304E+03  0.00000000000E+00 0. -1.
          1    1    1    2  502    0 -0.47042989881E+01  0.21755937296E+02  0.96791078257E+03  0.96816668723E+03  0.00000000000E+00 0. -1.
         22    1    3    3    0    0  0.30015008687E+02 -0.68922296596E+02 -0.18150372042E+03  0.19645555284E+03  0.00000000000E+00 0. -1.
         22    1    3    3    0    0  0.39690954794E+02  0.55641640885E+02 -0.14640909461E+03  0.16157656723E+03  0.00000000000E+00 0. -1.
</event>
<event>
 7    1  0.5452757E-006  0.6112337E+02  0.7818608E-02  0.1518404E+00
          2   -1    0    0  502    0  0.00000000000E+00  0.00000000000E+00  0.19661797419E+02  0.19661797419E+02  0.00000000000E+00 0. -1.
          1   -1    0    0  501    0 -0.00000000000E+00 -0.00000000000E+00 -0.65184995054E+03  0.65184995054E+03  0.00000000000E+00 0. -1.
         25    2    1    2    0    0  0.32704073574E+02 -0.49312131254E+02 -0.39192096081E+03  0.41560424551E+03  0.12499442644E+03 0.  0.
          2    1    1    2  501    0 -0.12096986637E+02  0.62446321734E+02 -0.16971333875E+03  0.18124154473E+03  0.00000000000E+00 0. -1.
          1    1    1    2  502    0 -0.20607086937E+02 -0.13134190481E+02 -0.70553853550E+02  0.74665957721E+02  0.00000000000E+00 0. -1.
         22    1    3    3    0    0 -0.34839420195E+02 -0.48089705489E+02 -0.26764951014E+03  0.27415810265E+03  0.00000000000E+00 0. -1.
         22    1    3    3    0    0  0.67543493769E+02 -0.12224257641E+01 -0.12427145068E+03  0.14144614286E+03  0.00000000000E+00 0. -1.
</event>
<event>
 7    1  0.5452757E-006  0.6638011E+02  0.7818608E-02  0.1452493E+00
          2   -1    0    0  502    0  0.00000000000E+00  0.00000000000E+00  0.23034765188E+04  0.23034765188E+04  0.00000000000E+00 0. -1.
          1   -1    0    0  501    0 -0.00000000000E+00 -0.00000000000E+00 -0.55776559768E+03  0.55776559768E+03  0.00000000000E+00 0. -1.
         25    2    1    2    0    0  0.79373504465E+02 -0.37262428801E+00  0.70516718539E+03  0.72054514993E+03  0.12499704667E+03 0.  0.
          2    1    1    2  501    0 -0.59531042197E+02 -0.29336468602E+02 -0.54787322512E+03  0.55187828746E+03  0.00000000000E+00 0. -1.
          1    1    1    2  502    0 -0.19842462267E+02  0.29709092890E+02  0.15884169609E+04  0.15888186791E+04  0.00000000000E+00 0. -1.
         22    1    3    3    0    0  0.43749426403E+02 -0.25917368940E+02  0.86591645797E+02  0.10041830234E+03  0.00000000000E+00 0. -1.
         22    1    3    3    0    0  0.35624078061E+02  0.25544744652E+02  0.61857553959E+03  0.62012684759E+03  0.00000000000E+00 0. -1.
</event>
<event>
 7    1  0.5452757E-006  0.9737667E+02  0.7818608E-02  0.1344939E+00
          2   -1    0    0  502    0  0.00000000000E+00  0.00000000000E+00  0.26028721799E+04  0.26028721799E+04  0.00000000000E+00 0. -1.
          1   -1    0    0  501    0 -0.00000000000E+00 -0.00000000000E+00 -0.75369005222E+03  0.75369005222E+03  0.00000000000E+00 0. -1.
         25    2    1    2    0    0  0.99354529524E+02 -0.10328809547E+03  0.71667346153E+03  0.74147514290E+03  0.12499913551E+03 0.  0.
          2    1    1    2  501    0 -0.52681206249E+02  0.22377548894E+02 -0.73901786294E+03  0.74123104760E+03  0.00000000000E+00 0. -1.
          1    1    1    2  502    0 -0.46673323275E+02  0.80910546573E+02  0.18715265291E+04  0.18738560416E+04  0.00000000000E+00 0. -1.
         22    1    3    3    0    0  0.35582081079E+02  0.22803174920E+02  0.26090105837E+03  0.26430178119E+03  0.00000000000E+00 0.  1.
         22    1    3    3    0    0  0.63772448445E+02 -0.12609127039E+03  0.45577240316E+03  0.47717336171E+03  0.00000000000E+00 0.  1.
</event>
<event>
 7    1  0.5452757E-006  0.6274833E+02  0.7818608E-02  0.1403196E+00
          2   -1    0    0  502    0  0.00000000000E+00  0.00000000000E+00  0.10772643751E+03  0.10772643751E+03  0.00000000000E+00 0. -1.
          1   -1    0    0  501    0 -0.00000000000E+00 -0.00000000000E+00 -0.28677428588E+03  0.28677428588E+03  0.00000000000E+00 0. -1.
         25    2    1    2    0    0 -0.12058827491E+02 -0.21412342847E+02 -0.87778356255E+02  0.15469828347E+03  0.12499046097E+03 0.  0.
          2    1    1    2  501    0 -0.50825885618E+01  0.73660556604E+02 -0.14512882166E+03  0.16283146251E+03  0.00000000000E+00 0. -1.
          1    1    1    2  502    0  0.17141416053E+02 -0.52248213757E+02  0.53859329543E+02  0.76970977413E+02  0.00000000000E+00 0. -1.
         22    1    3    3    0    0 -0.10277423660E+02 -0.42842489920E+02  0.17381214791E+02  0.47362548572E+02  0.00000000000E+00 0.  1.
         22    1    3    3    0    0 -0.17814038306E+01  0.21430147073E+02 -0.10515957105E+03  0.10733573490E+03  0.00000000000E+00 0.  1.
</event>
<event>
 7    1  0.5452757E-006  0.6092246E+02  0.7818608E-02  0.1480882E+00
          2   -1    0    0  502    0  0.00000000000E+00  0.00000000000E+00  0.19033957066E+04  0.19033957066E+04  0.00000000000E+00 0. -1.
          1   -1    0    0  501    0 -0.00000000000E+00 -0.00000000000E+00 -0.42835792191E+02  0.42835792191E+02  0.00000000000E+00 0. -1.
         25    2    1    2    0    0 -0.12854509470E+02  0.40184009775E+02  0.71992541629E+03  0.73191331806E+03  0.12499802829E+03 0.  0.
          2    1    1    2  501    0 -0.11335894391E+02 -0.60722589672E+02 -0.10575941079E+02  0.62670454983E+02  0.00000000000E+00 0. -1.
          1    1    1    2  502    0  0.24190403861E+02  0.20538579897E+02  0.11512104392E+04  0.11516477258E+04  0.00000000000E+00 0. -1.
         22    1    3    3    0    0  0.31597600689E+02  0.45399825371E+02  0.14410498324E+03  0.15435607765E+03  0.00000000000E+00 0. -1.
         22    1    3    3    0    0 -0.44452110159E+02 -0.52158155960E+01  0.57582043305E+03  0.57755724041E+03  0.00000000000E+00 0. -1.
</event>
<event>
 7    1  0.5452757E-006  0.8958256E+02  0.7818608E-02  0.1315646E+00
          2   -1    0    0  502    0  0.00000000000E+00  0.00000000000E+00  0.13957092283E+04  0.13957092283E+04  0.00000000000E+00 0. -1.
          1   -1    0    0  501    0 -0.00000000000E+00 -0.00000000000E+00 -0.77944249426E+02  0.77944249426E+02  0.00000000000E+00 0. -1.
         25    2    1    2    0    0 -0.13281187021E+03 -0.28729460941E+02  0.32668174039E+03  0.37524701331E+03  0.12499994678E+03 0.  0.
          2    1    1    2  501    0  0.51638561716E+02  0.61751261321E+02 -0.20474432020E+02  0.83059988546E+02  0.00000000000E+00 0. -1.
          1    1    1    2  502    0  0.81173308494E+02 -0.33021800380E+02  0.10115576705E+04  0.10153464759E+04  0.00000000000E+00 0. -1.
         22    1    3    3    0    0 -0.65532533156E+01  0.20073288985E+01 -0.11260423718E+02  0.13182247177E+02  0.00000000000E+00 0. -1.
         22    1    3    3    0    0 -0.12625861689E+03 -0.30736789839E+02  0.33794216411E+03  0.36206476613E+03  0.00000000000E+00 0. -1.
</event>
<event>
 7    1  0.5452757E-006  0.6114565E+02  0.7818608E-02  0.1493482E+00
          2   -1    0    0  502    0  0.00000000000E+00  0.00000000000E+00  0.12134298840E+04  0.12134298840E+04  0.00000000000E+00 0. -1.
          1   -1    0    0  501    0 -0.00000000000E+00 -0.00000000000E+00 -0.36794566558E+02  0.36794566558E+02  0.00000000000E+00 0. -1.
         25    2    1    2    0    0  0.78092213963E+02 -0.28990661195E+02  0.23116074861E+03  0.27567836398E+03  0.12499766539E+03 0.  0.
          2    1    1    2  501    0 -0.28469672051E+02 -0.52555101035E+01  0.18633304508E+01  0.29010594849E+02  0.00000000000E+00 0. -1.
          1    1    1    2  502    0 -0.49622541912E+02  0.34246171298E+02  0.94361123841E+03  0.94553549175E+03  0.00000000000E+00 0. -1.
         22    1    3    3    0    0  0.44728817047E+02  0.41491330372E+02  0.51558194446E+02  0.79877687654E+02  0.00000000000E+00 0.  1.
         22    1    3    3    0    0  0.33363396916E+02 -0.70481991566E+02  0.17960255416E+03  0.19580067633E+03  0.00000000000E+00 0.  1.
</event>
<event>
 7    1  0.5452757E-006  0.5288114E+02  0.7818608E-02  0.1492711E+00
          2   -1    0    0  502    0  0.00000000000E+00  0.00000000000E+00  0.46875706351E+03  0.46875706351E+03  0.00000000000E+00 0. -1.
          1   -1    0    0  501    0 -0.00000000000E+00 -0.00000000000E+00 -0.77842778676E+03  0.77842778676E+03  0.00000000000E+00 0. -1.
         25    2    1    2    0    0 -0.98419436719E+01  0.28502034760E+02 -0.58373497683E+02  0.14121296398E+03  0.12499762447E+03 0.  0.
          2    1    1    2  501    0  0.24849509837E+02  0.22696790108E+02 -0.67654936559E+03  0.67738592139E+03  0.00000000000E+00 0. -1.
          1    1    1    2  502    0 -0.15007566166E+02 -0.51198824868E+02  0.42525214003E+03  0.42858596490E+03  0.00000000000E+00 0. -1.
         22    1    3    3    0    0  0.57017019662E+02  0.11639381298E+02 -0.16280077337E+02  0.60427283955E+02  0.00000000000E+00 0. -1.
         22    1    3    3    0    0 -0.66858963334E+02  0.16862653462E+02 -0.42093420347E+02  0.80785680020E+02  0.00000000000E+00 0. -1.
</event>
<event>
 7    1  0.5452757E-006  0.9613123E+02  0.7818608E-02  0.1358705E+00
          2   -1    0    0  502    0  0.00000000000E+00  0.00000000000E+00  0.11810012804E+04  0.11810012804E+04  0.00000000000E+00 0. -1.
          1   -1    0    0  501    0 -0.00000000000E+00 -0.00000000000E+00 -0.54008127471E+03  0.54008127471E+03  0.00000000000E+00 0. -1.
         25    2    1    2    0    0 -0.10360989216E+03 -0.69339316395E+02  0.52586590508E+02  0.18421191796E+03  0.12500292263E+03 0.  0.
          2    1    1    2  501    0  0.93471525630E+02  0.18775114917E+02 -0.46884241573E+03  0.47843770946E+03  0.00000000000E+00 0. -1.
          1    1    1    2  502    0  0.10138366530E+02  0.50564201478E+02  0.10571758310E+04  0.10584329277E+04  0.00000000000E+00 0. -1.
         22    1    3    3    0    0 -0.80936949341E+02 -0.13688525212E+02 -0.25246034955E+02  0.85880892940E+02  0.00000000000E+00 0. -1.
         22    1    3    3    0    0 -0.22672942819E+02 -0.55650791183E+02  0.77832625463E+02  0.98331025022E+02  0.00000000000E+00 0. -1.
</event>
<event>
 7    1  0.5452757E-006  0.9967660E+02  0.7818608E-02  0.1424181E+00
          2   -1    0    0  502    0  0.00000000000E+00  0.00000000000E+00  0.69578436867E+03  0.69578436867E+03  0.00000000000E+00 0. -1.
          1   -1    0    0  501    0 -0.00000000000E+00 -0.00000000000E+00 -0.83313049199E+03  0.83313049199E+03  0.00000000000E+00 0. -1.
         25    2    1    2    0    0 -0.33347138461E+01 -0.82595301087E+02 -0.49337627468E+02  0.15777873054E+03  0.12500728878E+03 0.  0.
          2    1    1    2  501    0  0.29188028627E+02  0.96621271440E+02 -0.72574077747E+03  0.73272592912E+03  0.00000000000E+00 0. -1.
          1    1    1    2  502    0 -0.25853314781E+02 -0.14025970353E+02  0.63773228162E+03  0.63841020101E+03  0.00000000000E+00 0. -1.
         22    1    3    3    0    0  0.84424896526E+01 -0.11298082628E+03 -0.52822910019E+02  0.12500481015E+03  0.00000000000E+00 0. -1.
         22    1    3    3    0    0 -0.11777203499E+02  0.30385525191E+02  0.34852825515E+01  0.32773920392E+02  0.00000000000E+00 0. -1.
</event>
<event>
 7    1  0.5452757E-006  0.1765668E+03  0.7818608E-02  0.1330058E+00
          2   -1    0    0  502    0  0.00000000000E+00  0.00000000000E+00  0.48893483694E+03  0.48893483694E+03  0.00000000000E+00 0. -1.
          1   -1    0    0  501    0 -0.00000000000E+00 -0.00000000000E+00 -0.72884959842E+03  0.72884959842E+03  0.00000000000E+00 0. -1.
         25    2    1    2    0    0  0.14701439267E+03  0.36593633441E+02 -0.20574455725E+02  0.19748609332E+03  0.12500049266E+03 0.  0.
          2    1    1    2  501    0  0.22605907635E+02  0.27923893389E+02 -0.59869427883E+03  0.59977129841E+03  0.00000000000E+00 0. -1.
          1    1    1    2  502    0 -0.16962030030E+03 -0.64517526831E+02  0.37935397307E+03  0.42052704364E+03  0.00000000000E+00 0. -1.
         22    1    3    3    0    0  0.16413144961E+03  0.49387470970E+02 -0.30212479892E+02  0.17404323882E+03  0.00000000000E+00 0. -1.
         22    1    3    3    0    0 -0.17117056941E+02 -0.12793837528E+02  0.96380241666E+01  0.23442854495E+02  0.00000000000E+00 0. -1.
</event>
<event>
 7    1  0.5452757E-006  0.8944517E+02  0.7818608E-02  0.1450162E+00
          2   -1    0    0  502    0  0.00000000000E+00  0.00000000000E+00  0.79460328419E+03  0.79460328419E+03  0.00000000000E+00 0. -1.
          1   -1    0    0  501    0 -0.00000000000E+00 -0.00000000000E+00 -0.28191364075E+03  0.28191364075E+03  0.00000000000E+00 0. -1.
         25    2    1    2    0    0  0.31338731364E+02 -0.10194369267E+03  0.16857785835E+03  0.23542678099E+03  0.12503056555E+03 0.  0.
          2    1    1    2  501    0 -0.43129243665E+02  0.77685376714E+02 -0.24022499398E+03  0.25613121081E+03  0.00000000000E+00 0. -1.
          1    1    1    2  502    0  0.11790512301E+02  0.24258315959E+02  0.58433677908E+03  0.58495893314E+03  0.00000000000E+00 0. -1.
         22    1    3    3    0    0  0.49595392641E+01  0.12956224510E-01  0.11886620846E+03  0.11896962936E+03  0.00000000000E+00 0.  1.
         22    1    3    3    0    0  0.26379192100E+02 -0.10195664890E+03  0.49711649891E+02  0.11645715163E+03  0.00000000000E+00 0.  1.
</event>
<event>
 7    1  0.5452757E-006  0.9211072E+02  0.7818608E-02  0.1441487E+00
          2   -1    0    0  502    0  0.00000000000E+00  0.00000000000E+00  0.51892467273E+02  0.51892467273E+02  0.00000000000E+00 0. -1.
          1   -1    0    0  501    0 -0.00000000000E+00 -0.00000000000E+00 -0.14135013902E+04  0.14135013902E+04  0.00000000000E+00 0. -1.
         25    2    1    2    0    0 -0.50269489524E+02  0.47084572049E+02 -0.81367787225E+02  0.16431322533E+03  0.12503655753E+03 0.  0.
          2    1    1    2  501    0  0.55937210973E+02 -0.74433930641E+02 -0.12665629456E+04  0.12699807388E+04  0.00000000000E+00 0. -1.
          1    1    1    2  502    0 -0.56677214485E+01  0.27349358592E+02 -0.13678190010E+02  0.31099893308E+02  0.00000000000E+00 0. -1.
         22    1    3    3    0    0 -0.75057133245E+01  0.56150578425E+02  0.14907253022E+02  0.58578574434E+02  0.00000000000E+00 0. -1.
         22    1    3    3    0    0 -0.42763776200E+02 -0.90660063766E+01 -0.96275040247E+02  0.10573465090E+03  0.00000000000E+00 0. -1.
</event>
<event>
 7    1  0.5452757E-006  0.6195258E+02  0.7818608E-02  0.1425247E+00
          2   -1    0    0  502    0  0.00000000000E+00  0.00000000000E+00  0.19257033410E+03  0.19257033410E+03  0.00000000000E+00 0. -1.
          1   -1    0    0  501    0 -0.00000000000E+00 -0.00000000000E+00 -0.19618964883E+04  0.19618964883E+04  0.00000000000E+00 0. -1.
         25    2    1    2    0    0 -0.37836845183E+02  0.31832945228E+02 -0.91678907387E+03  0.92659336310E+03  0.12501236468E+03 0.  0.
          2    1    1    2  501    0  0.35891730222E+02  0.30250721596E+02 -0.10345188667E+04  0.10355832212E+04  0.00000000000E+00 0. -1.
          1    1    1    2  502    0  0.19451149605E+01 -0.62083666825E+02  0.18198178629E+03  0.19229023818E+03  0.00000000000E+00 0. -1.
         22    1    3    3    0    0 -0.15143162847E+02  0.77478156207E+02 -0.66703219692E+03  0.67168752541E+03  0.00000000000E+00 0.  1.
         22    1    3    3    0    0 -0.22693682335E+02 -0.45645210979E+02 -0.24975687696E+03  0.25490583769E+03  0.00000000000E+00 0.  1.
</event>
<event>
 7    1  0.5452757E-006  0.4365735E+02  0.7818608E-02  0.1570624E+00
          2   -1    0    0  502    0  0.00000000000E+00  0.00000000000E+00  0.26129120584E+03  0.26129120584E+03  0.00000000000E+00 0. -1.
          1   -1    0    0  501    0 -0.00000000000E+00 -0.00000000000E+00 -0.17087385074E+03  0.17087385074E+03  0.00000000000E+00 0. -1.
         25    2    1    2    0    0  0.53838446161E+02 -0.34512861544E+02  0.17629172694E+03  0.22537452377E+03  0.12500074832E+03 0.  0.
          2    1    1    2  501    0 -0.29601651436E+02  0.31681076518E+02 -0.14045951693E+03  0.14699940229E+03  0.00000000000E+00 0. -1.
          1    1    1    2  502    0 -0.24236794725E+02  0.28317850263E+01  0.54585145096E+02  0.59791130530E+02  0.00000000000E+00 0. -1.
         22    1    3    3    0    0  0.82690425524E+02 -0.28288417793E+02  0.61541702390E+02  0.10688929875E+03  0.00000000000E+00 0. -1.
         22    1    3    3    0    0 -0.28851979363E+02 -0.62244437511E+01  0.11475002455E+03  0.11848522501E+03  0.00000000000E+00 0. -1.
</event>
<event>
 7    1  0.5452757E-006  0.6985305E+02  0.7818608E-02  0.1417268E+00
          2   -1    0    0  502    0  0.00000000000E+00  0.00000000000E+00  0.11641311546E+03  0.11641311546E+03  0.00000000000E+00 0. -1.
          1   -1    0    0  501    0 -0.00000000000E+00 -0.00000000000E+00 -0.50051478849E+03  0.50051478849E+03  0.00000000000E+00 0. -1.
         25    2    1    2    0    0  0.96169335358E+02 -0.15644790995E+02 -0.12978476391E+03  0.20484822854E+03  0.12500164498E+03 0.  0.
          2    1    1    2  501    0 -0.30221487624E+02  0.32336207450E+02 -0.31670084265E+03  0.31977866152E+03  0.00000000000E+00 0. -1.
          1    1    1    2  502    0 -0.65947847733E+02 -0.16691416455E+02  0.62383933525E+02  0.92301013895E+02  0.00000000000E+00 0. -1.
         22    1    3    3    0    0  0.60453873934E+02  0.46808081473E+02 -0.10256568101E+03  0.12792726952E+03  0.00000000000E+00 0. -1.
         22    1    3    3    0    0  0.35715461424E+02 -0.62452872468E+02 -0.27219082896E+02  0.76920959029E+02  0.00000000000E+00 0. -1.
</event>
<event>
 7    1  0.5452757E-006  0.4796014E+02  0.7818608E-02  0.1581949E+00
          2   -1    0    0  502    0  0.00000000000E+00  0.00000000000E+00  0.14320142626E+03  0.14320142626E+03  0.00000000000E+00 0. -1.
          1   -1    0    0  501    0 -0.00000000000E+00 -0.00000000000E+00 -0.41281494850E+03  0.41281494850E+03  0.00000000000E+00 0. -1.
         25    2    1    2    0    0  0.22015881000E+02  0.19315351015E+02 -0.32024932017E+02  0.13234878496E+03  0.12503128732E+03 0.  0.
          2    1    1    2  501    0 -0.42087684744E+02 -0.24397940063E+02 -0.32765758206E+03  0.33124933777E+03  0.00000000000E+00 0. -1.
          1    1    1    2  502    0  0.20071803744E+02  0.50825890485E+01  0.90068991839E+02  0.92418252028E+02  0.00000000000E+00 0. -1.
         22    1    3    3    0    0  0.12633496885E+02  0.26273704963E+02  0.45450966921E+02  0.53997251875E+02  0.00000000000E+00 0.  1.
         22    1    3    3    0    0  0.93823841153E+01 -0.69583539481E+01 -0.77475898938E+02  0.78351533090E+02  0.00000000000E+00 0.  1.
</event>
<event>
 7    1  0.5452757E-006  0.1512881E+03  0.7818608E-02  0.1328094E+00
          2   -1    0    0  502    0  0.00000000000E+00  0.00000000000E+00  0.30300565692E+03  0.30300565692E+03  0.00000000000E+00 0. -1.
          1   -1    0    0  501    0 -0.00000000000E+00 -0.00000000000E+00 -0.95631749233E+03  0.95631749233E+03  0.00000000000E+00 0. -1.
         25    2    1    2    0    0 -0.83696631935E+02  0.12859575966E+03  0.79657400463E+02  0.21333621935E+03  0.12500018176E+03 0.  0.
          2    1    1    2  501    0  0.39141242938E+02  0.16970945746E+02 -0.85179910722E+03  0.85286679439E+03  0.00000000000E+00 0. -1.
          1    1    1    2  502    0  0.44555388997E+02 -0.14556670541E+03  0.11882987136E+03  0.19312013551E+03  0.00000000000E+00 0. -1.
         22    1    3    3    0    0  0.13545688378E+02  0.87205883176E+02  0.57567902960E+02  0.10536799887E+03  0.00000000000E+00 0.  1.
         22    1    3    3    0    0 -0.97242320313E+02  0.41389876483E+02  0.22089497503E+02  0.10796822049E+03  0.00000000000E+00 0.  1.
</event>
<event>
 7    1  0.5452757E-006  0.9111279E+02  0.7818608E-02  0.1311387E+00
          2   -1    0    0  502    0  0.00000000000E+00  0.00000000000E+00  0.31098319308E+04  0.31098319308E+04  0.00000000000E+00 0. -1.
          1   -1    0    0  501    0 -0.00000000000E+00 -0.00000000000E+00 -0.43184327683E+03  0.43184327683E+03  0.00000000000E+00 0. -1.
         25    2    1    2    0    0 -0.13296135368E+03 -0.27288017374E+01  0.66537863861E+02  0.19425280253E+03  0.12498278294E+03 0.  0.
          2    1    1    2  501    0  0.72921469303E+02 -0.53482465832E+02 -0.36185268513E+03  0.37298160889E+03  0.00000000000E+00 0. -1.
          1    1    1    2  502    0  0.60039884375E+02  0.56211267570E+02  0.29733034753E+04  0.29744407962E+04  0.00000000000E+00 0. -1.
         22    1    3    3    0    0  0.39866665484E+01  0.25316103634E+02  0.46417013310E+02  0.53022049545E+02  0.00000000000E+00 0. -1.
         22    1    3    3    0    0 -0.13694802023E+03 -0.28044905372E+02  0.20120850552E+02  0.14123075298E+03  0.00000000000E+00 0. -1.
</event>
<event>
 7    1  0.5452757E-006  0.1649438E+03  0.7818608E-02  0.1256266E+00
          2   -1    0    0  502    0  0.00000000000E+00  0.00000000000E+00  0.32879171561E+03  0.32879171561E+03  0.00000000000E+00 0. -1.
          1   -1    0    0  501    0 -0.00000000000E+00 -0.00000000000E+00 -0.20418821270E+04  0.20418821270E+04  0.00000000000E+00 0. -1.
         25    2    1    2    0    0  0.11812291842E+03 -0.76608042785E+02 -0.69312312745E+03  0.71823816242E+03  0.12499828825E+03 0.  0.
          2    1    1    2  501    0 -0.99841818469E+02  0.15092836351E+03 -0.13253300680E+04  0.13376275823E+04  0.00000000000E+00 0. -1.
          1    1    1    2  502    0 -0.18281099956E+02 -0.74320320722E+02  0.30536278403E+03  0.31480809798E+03  0.00000000000E+00 0. -1.
         22    1    3    3    0    0  0.14037537331E+03 -0.83480676550E+02 -0.57024917516E+03  0.59317652563E+03  0.00000000000E+00 0.  1.
         22    1    3    3    0    0 -0.22252454889E+02  0.68726337650E+01 -0.12287395229E+03  0.12506163678E+03  0.00000000000E+00 0.  1.
</event>
<event>
 7    1  0.9148197E-006  0.1444226E+03  0.7818608E-02  0.1247920E+00
          2   -1    0    0  502    0  0.00000000000E+00  0.00000000000E+00  0.18924964768E+04  0.18924964768E+04  0.00000000000E+00 0. -1.
          1   -1    0    0  501    0 -0.00000000000E+00 -0.00000000000E+00 -0.73004934693E+03  0.73004934693E+03  0.00000000000E+00 0. -1.
         25    2    1    2    0    0 -0.14852839099E+03 -0.30087070330E+02 -0.27151630223E+03  0.33512824669E+03  0.12499569842E+03 0.  0.
          2    1    1    2  501    0  0.18376345240E+02  0.93188767308E+02 -0.41858740871E+03  0.42922867466E+03  0.00000000000E+00 0. -1.
          1    1    1    2  502    0  0.13015204575E+03 -0.63101696978E+02  0.18525508409E+04  0.18581889024E+04  0.00000000000E+00 0. -1.
         22    1    3    3    0    0 -0.55975335517E+02 -0.63820111033E+02 -0.18686939099E+03  0.20524720229E+03  0.00000000000E+00 0.  1.
         22    1    3    3    0    0 -0.92553055476E+02  0.33733040703E+02 -0.84646911241E+02  0.12988104440E+03  0.00000000000E+00 0.  1.
</event>
<event>
 7    1  0.5452757E-006  0.7795168E+02  0.7818608E-02  0.1372547E+00
          2   -1    0    0  502    0  0.00000000000E+00  0.00000000000E+00  0.98118249866E+03  0.98118249866E+03  0.00000000000E+00 0. -1.
          1   -1    0    0  501    0 -0.00000000000E+00 -0.00000000000E+00 -0.73635559048E+02  0.73635559048E+02  0.00000000000E+00 0. -1.
         25    2    1    2    0    0 -0.13158664953E+03 -0.23468051848E+01  0.20296214540E+03  0.27228491399E+03  0.12499955236E+03 0.  0.
          2    1    1    2  501    0  0.56666817463E+02  0.56738247576E+00 -0.15347314594E+02  0.58711073823E+02  0.00000000000E+00 0. -1.
          1    1    1    2  502    0  0.74919832070E+02  0.17794227091E+01  0.71993210881E+03  0.72382206990E+03  0.00000000000E+00 0. -1.
         22    1    3    3    0    0 -0.41438396754E+02 -0.58770282042E+02  0.57394303698E+02  0.92006482781E+02  0.00000000000E+00 0.  1.
         22    1    3    3    0    0 -0.90148252779E+02  0.56423476857E+02  0.14556784170E+03  0.18027843120E+03  0.00000000000E+00 0.  1.
</event>
<event>
 7    1  0.5452757E-006  0.9327461E+02  0.7818608E-02  0.1394457E+00
          2   -1    0    0  502    0  0.00000000000E+00  0.00000000000E+00  0.10828754896E+04  0.10828754896E+04  0.00000000000E+00 0. -1.
          1   -1    0    0  501    0 -0.00000000000E+00 -0.00000000000E+00 -0.19810881913E+04  0.19810881913E+04  0.00000000000E+00 0. -1.
         25    2    1    2    0    0  0.24605366957E+02 -0.77971403343E+02  0.10068607435E+03  0.18016528026E+03  0.12504750625E+03 0.  0.
          2    1    1    2  501    0  0.12234959721E+02  0.92623311222E+02 -0.19398068195E+04  0.19420554238E+04  0.00000000000E+00 0. -1.
          1    1    1    2  502    0 -0.36840326678E+02 -0.14651907878E+02  0.94090804349E+03  0.94174297681E+03  0.00000000000E+00 0. -1.
         22    1    3    3    0    0 -0.19521416855E+01 -0.54980252299E+02 -0.16813997048E+02  0.57526945832E+02  0.00000000000E+00 0. -1.
         22    1    3    3    0    0  0.26557508643E+02 -0.22991151044E+02  0.11750007140E+03  0.12263833443E+03  0.00000000000E+00 0. -1.
</event>
<event>
 7    1  0.5452757E-006  0.1412753E+03  0.7818608E-02  0.1427848E+00
          2   -1    0    0  502    0  0.00000000000E+00  0.00000000000E+00  0.18234956433E+03  0.18234956433E+03  0.00000000000E+00 0. -1.
          1   -1    0    0  501    0 -0.00000000000E+00 -0.00000000000E+00 -0.54871262333E+03  0.54871262333E+03  0.00000000000E+00 0. -1.
         25    2    1    2    0    0  0.12254223199E+03  0.23632503424E+02 -0.13338179814E+03  0.22134092789E+03  0.12500403372E+03 0.  0.
          2    1    1    2  501    0  0.19077946045E+02  0.65783898462E+01 -0.33307637978E+03  0.33368715588E+03  0.00000000000E+00 0. -1.
          1    1    1    2  502    0 -0.14162017803E+03 -0.30210893270E+02  0.10009511892E+03  0.17603410388E+03  0.00000000000E+00 0. -1.
         22    1    3    3    0    0 -0.24971550617E+02  0.10603510210E+02 -0.11181054924E+02  0.29343291537E+02  0.00000000000E+00 0. -1.
         22    1    3    3    0    0  0.14751378261E+03  0.13028993214E+02 -0.12220074322E+03  0.19199763635E+03  0.00000000000E+00 0. -1.
</event>
<event>
 7    1  0.5452757E-006  0.1837441E+03  0.7818608E-02  0.1322741E+00
          2   -1    0    0  502    0  0.00000000000E+00  0.00000000000E+00  0.93940616407E+03  0.93940616407E+03  0.00000000000E+00 0. -1.
          1   -1    0    0  501    0 -0.00000000000E+00 -0.00000000000E+00 -0.94660613752E+03  0.94660613752E+03  0.00000000000E+00 0. -1.
         25    2    1    2    0    0 -0.15915487974E+03 -0.13854458073E+03  0.24650917656E+03  0.34773284310E+03  0.12500591765E+03 0.  0.
          2    1    1    2  501    0  0.12241486910E+03  0.13593905502E+03 -0.88611553552E+03  0.90480139763E+03  0.00000000000E+00 0. -1.
          1    1    1    2  502    0  0.36740010634E+02  0.26055257058E+01  0.63240638552E+03  0.63347806086E+03  0.00000000000E+00 0. -1.
         22    1    3    3    0    0 -0.12149040848E+03 -0.40780278507E+02  0.80213467604E+02  0.15118581565E+03  0.00000000000E+00 0.  1.
         22    1    3    3    0    0 -0.37664471259E+02 -0.97764302223E+02  0.16629570895E+03  0.19654702745E+03  0.00000000000E+00 0.  1.
</event>
<event>
 7    1  0.5452757E-006  0.1249978E+03  0.7818608E-02  0.1298765E+00
          2   -1    0    0  502    0  0.00000000000E+00  0.00000000000E+00  0.37024585642E+04  0.37024585642E+04  0.00000000000E+00 0. -1.
          1   -1    0    0  501    0 -0.00000000000E+00 -0.00000000000E+00 -0.42868588972E+02  0.42868588972E+02  0.00000000000E+00 0. -1.
         25    2    1    2    0    0 -0.62801193838E+02 -0.14216845351E+03  0.20478257054E+04  0.20575158630E+04  0.12500219115E+03 0.  0.
          2    1    1    2  501    0 -0.21908122135E+02  0.63619327472E+02 -0.44883322500E+01  0.67435374766E+02  0.00000000000E+00 0. -1.
          1    1    1    2  502    0  0.84709315974E+02  0.78549126036E+02  0.16162526021E+04  0.16203759154E+04  0.00000000000E+00 0. -1.
         22    1    3    3    0    0 -0.97007160165E+02 -0.11937302555E+03  0.14095815426E+04  0.14179493762E+04  0.00000000000E+00 0.  1.
         22    1    3    3    0    0  0.34205966327E+02 -0.22795427960E+02  0.63824416277E+03  0.63956648676E+03  0.00000000000E+00 0.  1.
</event>
<event>
 7    1  0.5452757E-006  0.7301326E+02  0.7818608E-02  0.1463739E+00
          2   -1    0    0  502    0  0.00000000000E+00  0.00000000000E+00  0.10846224572E+02  0.10846224572E+02  0.00000000000E+00 0. -1.
          1   -1    0    0  501    0 -0.00000000000E+00 -0.00000000000E+00 -0.16203381401E+04  0.16203381401E+04  0.00000000000E+00 0. -1.
         25    2    1    2    0    0  0.68644835835E+01 -0.51327495329E+02 -0.10528445411E+04  0.10615026357E+04  0.12499834014E+03 0.  0.
          2    1    1    2  501    0 -0.12684485786E+02 -0.27104860820E+02 -0.29380047014E+03  0.29532064932E+03  0.00000000000E+00 0. -1.
          1    1    1    2  502    0  0.58200022028E+01  0.78432356149E+02 -0.26284690435E+03  0.27436107968E+03  0.00000000000E+00 0. -1.
         22    1    3    3    0    0 -0.41674013327E+02  0.21721027967E+02 -0.41639143088E+03  0.41903502259E+03  0.00000000000E+00 0. -1.
         22    1    3    3    0    0  0.48538496910E+02 -0.73048523295E+02 -0.63645311021E+03  0.64246761314E+03  0.00000000000E+00 0. -1.
</event>
<event>
 7    1  0.5452757E-006  0.1182869E+03  0.7818608E-02  0.1415214E+00
          2   -1    0    0  502    0  0.00000000000E+00  0.00000000000E+00  0.11827330250E+04  0.11827330250E+04  0.00000000000E+00 0. -1.
          1   -1    0    0  501    0 -0.00000000000E+00 -0.00000000000E+00 -0.57255274200E+02  0.57255274200E+02  0.00000000000E+00 0. -1.
         25    2    1    2    0    0 -0.75729664096E+02 -0.88657284765E+02  0.36397513829E+03  0.40211716443E+03  0.12500086590E+03 0.  0.
          2    1    1    2  501    0  0.95717788271E+02  0.71173561875E+02  0.55829507304E+02  0.13169853753E+03  0.00000000000E+00 0. -1.
          1    1    1    2  502    0 -0.19988124175E+02  0.17483722890E+02  0.70567310519E+03  0.70617259722E+03  0.00000000000E+00 0. -1.
         22    1    3    3    0    0 -0.29323216926E+02  0.29619346132E+02  0.12015714162E+03  0.12718056219E+03  0.00000000000E+00 0. -1.
         22    1    3    3    0    0 -0.46406447170E+02 -0.11827663090E+03  0.24381799666E+03  0.27493660224E+03  0.00000000000E+00 0. -1.
</event>
<event>
 7    1  0.5452757E-006  0.5414724E+02  0.7818608E-02  0.1527637E+00
          2   -1    0    0  502    0  0.00000000000E+00  0.00000000000E+00  0.13997477991E+04  0.13997477991E+04  0.00000000000E+00 0. -1.
          1   -1    0    0  501    0 -0.00000000000E+00 -0.00000000000E+00 -0.19635971787E+04  0.19635971787E+04  0.00000000000E+00 0. -1.
         25    2    1    2    0    0  0.14992189975E+02  0.24847999720E+02 -0.15652433504E+03  0.20240482811E+03  0.12500263250E+03 0.  0.
          2    1    1    2  501    0 -0.33048808048E+02 -0.43471883802E+02 -0.17835924942E+04  0.17844282597E+04  0.00000000000E+00 0. -1.
          1    1    1    2  502    0  0.18056618073E+02  0.18623884082E+02  0.13762674497E+04  0.13765118901E+04  0.00000000000E+00 0. -1.
         22    1    3    3    0    0  0.16165090229E+01 -0.34978088787E+02 -0.77362780568E+00  0.35023967459E+02  0.00000000000E+00 0. -1.
         22    1    3    3    0    0  0.13375680952E+02  0.59826088508E+02 -0.15575070723E+03  0.16738086065E+03  0.00000000000E+00 0. -1.
</event>
<event>
 7    1  0.5452757E-006  0.7736476E+02  0.7818608E-02  0.1371787E+00
          2   -1    0    0  502    0  0.00000000000E+00  0.00000000000E+00  0.34187873004E+03  0.34187873004E+03  0.00000000000E+00 0. -1.
          1   -1    0    0  501    0 -0.00000000000E+00 -0.00000000000E+00 -0.51056789880E+03  0.51056789880E+03  0.00000000000E+00 0. -1.
         25    2    1    2    0    0  0.22051216514E+02 -0.15795878612E+02 -0.83904481184E+02  0.15297494547E+03  0.12500242417E+03 0.  0.
          2    1    1    2  501    0 -0.58996807623E+02  0.59801633710E+02 -0.38487193826E+03  0.39393307499E+03  0.00000000000E+00 0. -1.
          1    1    1    2  502    0  0.36945591110E+02 -0.44005755099E+02  0.30008725069E+03  0.30553860838E+03  0.00000000000E+00 0. -1.
         22    1    3    3    0    0 -0.23842637039E+02 -0.14831613902E+01  0.24604391069E+02  0.34293544124E+02  0.00000000000E+00 0.  1.
         22    1    3    3    0    0  0.45893853553E+02 -0.14312717222E+02 -0.10850887225E+03  0.11868140135E+03  0.00000000000E+00 0.  1.
</event>
<event>
 7    1  0.5452757E-006  0.1513582E+03  0.7818608E-02  0.1216545E+00
          2   -1    0    0  502    0  0.00000000000E+00  0.00000000000E+00  0.36856388249E+04  0.36856388249E+04  0.00000000000E+00 0. -1.
          1   -1    0    0  501    0 -0.00000000000E+00 -0.00000000000E+00 -0.10343996553E+04  0.10343996553E+04  0.00000000000E+00 0. -1.
         25    2    1    2    0    0  0.60429596946E+02  0.11129313043E+03  0.14965109517E+03  0.23250528231E+03  0.12500143579E+03 0.  0.
          2    1    1    2  501    0  0.61177002314E+02 -0.14090221397E+03 -0.98590250388E+03  0.99779747778E+03  0.00000000000E+00 0. -1.
          1    1    1    2  502    0 -0.12160659926E+03  0.29609083543E+02  0.34874905783E+04  0.34897357201E+04  0.00000000000E+00 0. -1.
         22    1    3    3    0    0  0.74199897832E+02  0.98075003029E+02  0.16653467235E+03  0.20702204750E+03  0.00000000000E+00 0.  1.
         22    1    3    3    0    0 -0.13770300885E+02  0.13218127402E+02 -0.16883577172E+02  0.25483234814E+02  0.00000000000E+00 0.  1.
</event>
<event>
 7    1  0.5452757E-006  0.1741927E+03  0.7818608E-02  0.1205803E+00
          2   -1    0    0  502    0  0.00000000000E+00  0.00000000000E+00  0.76546573623E+03  0.76546573623E+03  0.00000000000E+00 0. -1.
          1   -1    0    0  501    0 -0.00000000000E+00 -0.00000000000E+00 -0.12276403266E+04  0.12276403266E+04  0.00000000000E+00 0. -1.
         25    2    1    2    0    0  0.55591812452E+02  0.14136094378E+02  0.12393919532E+03  0.18513128940E+03  0.12498956517E+03 0.  0.
          2    1    1    2  501    0 -0.17431553134E+03 -0.41961193221E+02 -0.11841430745E+04  0.11976399572E+04  0.00000000000E+00 0. -1.
          1    1    1    2  502    0  0.11872371889E+03  0.27825098843E+02  0.59802928884E+03  0.61033481619E+03  0.00000000000E+00 0. -1.
         22    1    3    3    0    0  0.67198953232E+02 -0.33853306275E+02  0.11098440039E+03  0.13408684794E+03  0.00000000000E+00 0. -1.
         22    1    3    3    0    0 -0.11607140780E+02  0.47989400653E+02  0.12954794933E+02  0.51044441459E+02  0.00000000000E+00 0. -1.
</event>
<event>
 7    1  0.5452757E-006  0.9784495E+02  0.7818608E-02  0.1323860E+00
          2   -1    0    0  502    0  0.00000000000E+00  0.00000000000E+00  0.28147134099E+02  0.28147134099E+02  0.00000000000E+00 0. -1.
          1   -1    0    0  501    0 -0.00000000000E+00 -0.00000000000E+00 -0.25142398834E+04  0.25142398834E+04  0.00000000000E+00 0. -1.
         25    2    1    2    0    0 -0.12957752155E+03 -0.77635331378E+02 -0.11170678657E+04  0.11341440906E+04  0.12499849117E+03 0.  0.
          2    1    1    2  501    0  0.62569530031E+02  0.63497915597E+02 -0.13223849094E+04  0.13253862757E+04  0.00000000000E+00 0. -1.
          1    1    1    2  502    0  0.67007991522E+02  0.14137415782E+02 -0.46639974223E+02  0.82856651202E+02  0.00000000000E+00 0. -1.
         22    1    3    3    0    0 -0.15148947304E+03 -0.55356012221E+02 -0.84211374448E+03  0.85741991298E+03  0.00000000000E+00 0.  1.
         22    1    3    3    0    0  0.21911951484E+02 -0.22279319157E+02 -0.27495412126E+03  0.27672417762E+03  0.00000000000E+00 0.  1.
</event>
<event>
 7    1  0.5452757E-006  0.7761372E+02  0.7818608E-02  0.1404168E+00
          2   -1    0    0  502    0  0.00000000000E+00  0.00000000000E+00  0.18909162850E+04  0.18909162850E+04  0.00000000000E+00 0. -1.
          1   -1    0    0  501    0 -0.00000000000E+00 -0.00000000000E+00 -0.95817072086E+03  0.95817072086E+03  0.00000000000E+00 0. -1.
         25    2    1    2    0    0 -0.49488091061E+02 -0.29384747263E+02  0.17274984258E+02  0.13869662164E+03  0.12500317294E+03 0.  0.
          2    1    1    2  501    0  0.78151568739E+02 -0.41523125585E+01 -0.89548456379E+03  0.89889794380E+03  0.00000000000E+00 0. -1.
          1    1    1    2  502    0 -0.28663477678E+02  0.33537059822E+02  0.18109551437E+04  0.18114924404E+04  0.00000000000E+00 0. -1.
         22    1    3    3    0    0 -0.67771755490E+02 -0.55511453211E+02  0.43127495220E+02  0.97644831526E+02  0.00000000000E+00 0.  1.
         22    1    3    3    0    0  0.18283664429E+02  0.26126705947E+02 -0.25852510962E+02  0.41051790115E+02  0.00000000000E+00 0.  1.
</event>
<event>
 7    1  0.5452757E-006  0.3006227E+03  0.7818608E-02  0.1257920E+00
          2   -1    0    0  502    0  0.00000000000E+00  0.00000000000E+00  0.14179795816E+04  0.14179795816E+04  0.00000000000E+00 0. -1.
          1   -1    0    0  501    0 -0.00000000000E+00 -0.00000000000E+00 -0.38841354569E+03  0.38841354569E+03  0.00000000000E+00 0. -1.
         25    2    1    2    0    0 -0.64595276423E+02  0.26800591372E+03  0.17100520664E+03  0.34766754819E+03  0.12502089362E+03 0.  0.
          2    1    1    2  501    0  0.97794964367E+02 -0.29259337314E+03 -0.22029190348E+03  0.37908212804E+03  0.00000000000E+00 0. -1.
          1    1    1    2  502    0 -0.33199687944E+02  0.24587459419E+02  0.10788527327E+04  0.10796434510E+04  0.00000000000E+00 0. -1.
         22    1    3    3    0    0 -0.78989076415E+02  0.12546630101E+03  0.13366188939E+03  0.19961605035E+03  0.00000000000E+00 0.  1.
         22    1    3    3    0    0  0.14393799992E+02  0.14253961271E+03  0.37343317249E+02  0.14805149784E+03  0.00000000000E+00 0.  1.
</event>
<event>
 7    1  0.5452757E-006  0.9252102E+02  0.7818608E-02  0.1310938E+00
          2   -1    0    0  502    0  0.00000000000E+00  0.00000000000E+00  0.84749848689E+03  0.84749848689E+03  0.00000000000E+00 0. -1.
          1   -1    0    0  501    0 -0.00000000000E+00 -0.00000000000E+00 -0.11848445516E+03  0.11848445516E+03  0.00000000000E+00 0. -1.
         25    2    1    2    0    0 -0.12402637231E+03  0.11124024393E+03  0.33246796812E+03  0.39232216900E+03  0.12499920626E+03 0.  0.
          2    1    1    2  501    0  0.74629290589E+02 -0.46636308105E+02 -0.62197999979E+02  0.10776394318E+03  0.00000000000E+00 0. -1.
          1    1    1    2  502    0  0.49397081717E+02 -0.64603935827E+02  0.45874406359E+03  0.46589682987E+03  0.00000000000E+00 0. -1.
         22    1    3    3    0    0 -0.28499140502E+02  0.37328871564E+02  0.10055838093E+02  0.48028799083E+02  0.00000000000E+00 0.  1.
         22    1    3    3    0    0 -0.95527231804E+02  0.73911372369E+02  0.32241213003E+03  0.34429336992E+03  0.00000000000E+00 0.  1.
</event>
<event>
 7    1  0.5452757E-006  0.7545596E+02  0.7818608E-02  0.1431908E+00
          2   -1    0    0  502    0  0.00000000000E+00  0.00000000000E+00  0.22395449612E+03  0.22395449612E+03  0.00000000000E+00 0. -1.
          1   -1    0    0  501    0 -0.00000000000E+00 -0.00000000000E+00 -0.15536128877E+04  0.15536128877E+04  0.00000000000E+00 0. -1.
         25    2    1    2    0    0 -0.45129903236E+02 -0.41224421005E+01  0.73041912325E+02  0.15170482129E+03  0.12500211659E+03 0.  0.
          2    1    1    2  501    0  0.73200758020E+02 -0.19422224557E+02 -0.15102993187E+04  0.15121969468E+04  0.00000000000E+00 0. -1.
          1    1    1    2  502    0 -0.28070854784E+02  0.23544666658E+02  0.10759901481E+03  0.11366561575E+03  0.00000000000E+00 0. -1.
         22    1    3    3    0    0  0.10945152422E+02  0.45480778005E+02 -0.46992662960E+00  0.46781602799E+02  0.00000000000E+00 0.  1.
         22    1    3    3    0    0 -0.56075055657E+02 -0.49603220105E+02  0.73511838955E+02  0.10492321849E+03  0.00000000000E+00 0.  1.
</event>
<event>
 7    1  0.5452757E-006  0.1167537E+03  0.7818608E-02  0.1364364E+00
          2   -1    0    0  502    0  0.00000000000E+00  0.00000000000E+00  0.18582297613E+02  0.18582297613E+02  0.00000000000E+00 0. -1.
          1   -1    0    0  501    0 -0.00000000000E+00 -0.00000000000E+00 -0.36485137603E+04  0.36485137603E+04  0.00000000000E+00 0. -1.
         25    2    1    2    0    0  0.89826659625E+01  0.10766354405E+03 -0.20822662312E+04  0.20888104896E+04  0.12499790711E+03 0.  0.
          2    1    1    2  501    0 -0.39951814321E+02  0.66033897193E+01 -0.13290948203E+04  0.13297115452E+04  0.00000000000E+00 0. -1.
          1    1    1    2  502    0  0.30969148358E+02 -0.11426693377E+03 -0.21857041115E+03  0.24857402304E+03  0.00000000000E+00 0. -1.
         22    1    3    3    0    0 -0.13572695426E+02  0.30355949235E+02 -0.11036402040E+03  0.11526455967E+03  0.00000000000E+00 0. -1.
         22    1    3    3    0    0  0.22555361388E+02  0.77307594814E+02 -0.19719022108E+04  0.19735459299E+04  0.00000000000E+00 0. -1.
</event>
<event>
 7    1  0.5452757E-006  0.8312770E+02  0.7818608E-02  0.1402899E+00
          2   -1    0    0  502    0  0.00000000000E+00  0.00000000000E+00  0.10683195973E+04  0.10683195973E+04  0.00000000000E+00 0. -1.
          1   -1    0    0  501    0 -0.00000000000E+00 -0.00000000000E+00 -0.25215439480E+03  0.25215439480E+03  0.00000000000E+00 0. -1.
         25    2    1    2    0    0  0.77536937862E+02 -0.55850460599E+02  0.39918802699E+03  0.42907634250E+03  0.12499670441E+03 0.  0.
          2    1    1    2  501    0 -0.38198091792E+02 -0.16488139203E+02 -0.23276726365E+03  0.23645623692E+03  0.00000000000E+00 0. -1.
          1    1    1    2  502    0 -0.39338846069E+02  0.72338599802E+02  0.64974443911E+03  0.65494141264E+03  0.00000000000E+00 0. -1.
         22    1    3    3    0    0 -0.88099998144E+01 -0.21770361631E+02  0.26424871521E+03  0.26529030934E+03  0.00000000000E+00 0. -1.
         22    1    3    3    0    0  0.86346937676E+02 -0.34080098968E+02  0.13493931179E+03  0.16378603316E+03  0.00000000000E+00 0. -1.
</event>
<event>
 7    1  0.5452757E-006  0.1018951E+03  0.7818608E-02  0.1393283E+00
          2   -1    0    0  502    0  0.00000000000E+00  0.00000000000E+00  0.13711688662E+04  0.13711688662E+04  0.00000000000E+00 0. -1.
          1   -1    0    0  501    0 -0.00000000000E+00 -0.00000000000E+00 -0.84015431332E+03  0.84015431332E+03  0.00000000000E+00 0. -1.
         25    2    1    2    0    0  0.46927852028E+02  0.56128259445E+02  0.35563235538E+03  0.38399736456E+03  0.12500799571E+03 0.  0.
          2    1    1    2  501    0  0.10870802869E+02  0.34984744148E+02 -0.82265633894E+03  0.82347165019E+03  0.00000000000E+00 0. -1.
          1    1    1    2  502    0 -0.57798654897E+02 -0.91113003594E+02  0.99803853643E+03  0.10038541648E+04  0.00000000000E+00 0. -1.
         22    1    3    3    0    0 -0.13544302347E+02  0.77168106377E+02  0.23021487856E+03  0.24318152701E+03  0.00000000000E+00 0.  1.
         22    1    3    3    0    0  0.60472154375E+02 -0.21039846931E+02  0.12541747682E+03  0.14081583755E+03  0.00000000000E+00 0.  1.
</event>
<event>
 7    1  0.5452757E-006  0.5457421E+02  0.7818608E-02  0.1548260E+00
          2   -1    0    0  502    0  0.00000000000E+00  0.00000000000E+00  0.21192174031E+04  0.21192174031E+04  0.00000000000E+00 0. -1.
          1   -1    0    0  501    0 -0.00000000000E+00 -0.00000000000E+00 -0.20619143408E+03  0.20619143408E+03  0.00000000000E+00 0. -1.
         25    2    1    2    0    0 -0.20965676715E+02  0.43785996809E+02  0.67073694533E+03  0.68401005508E+03  0.12499972998E+03 0.  0.
          2    1    1    2  501    0 -0.21104394504E+02 -0.77887391662E+01 -0.19838740703E+03  0.19965876688E+03  0.00000000000E+00 0. -1.
          1    1    1    2  502    0  0.42070071219E+02 -0.35997257642E+02  0.14406764307E+04  0.14417400152E+04  0.00000000000E+00 0. -1.
         22    1    3    3    0    0 -0.44011495919E+02  0.79504981859E+02  0.48855269155E+03  0.49693237601E+03  0.00000000000E+00 0.  1.
         22    1    3    3    0    0  0.23045819204E+02 -0.35718985050E+02  0.18218425379E+03  0.18707767906E+03  0.00000000000E+00 0.  1.
</event>
<event>
 7    1  0.5452757E-006  0.1015464E+03  0.7818608E-02  0.1376101E+00
          2   -1    0    0  502    0  0.00000000000E+00  0.00000000000E+00  0.63820458300E+03  0.63820458300E+03  0.00000000000E+00 0. -1.
          1   -1    0    0  501    0 -0.00000000000E+00 -0.00000000000E+00 -0.10284659867E+04  0.10284659867E+04  0.00000000000E+00 0. -1.
         25    2    1    2    0    0  0.24840934776E+02 -0.60909497731E+02  0.37932096789E+02  0.14625617603E+03  0.12499994442E+03 0.  0.
          2    1    1    2  501    0  0.32430992954E+02 -0.27078080214E+02 -0.96879365513E+03  0.96971446207E+03  0.00000000000E+00 0. -1.
          1    1    1    2  502    0 -0.57271927730E+02  0.87987577945E+02  0.54060015459E+03  0.55069993165E+03  0.00000000000E+00 0. -1.
         22    1    3    3    0    0  0.11493878160E+02  0.32954058182E+02 -0.14640924368E+02  0.37847534294E+02  0.00000000000E+00 0.  1.
         22    1    3    3    0    0  0.13347056615E+02 -0.93863555913E+02  0.52573021157E+02  0.10840864173E+03  0.00000000000E+00 0.  1.
</event>
<event>
 7    1  0.5452757E-006  0.1022759E+03  0.7818608E-02  0.1330713E+00
          2   -1    0    0  502    0  0.00000000000E+00  0.00000000000E+00  0.21850479757E+04  0.21850479757E+04  0.00000000000E+00 0. -1.
          1   -1    0    0  501    0 -0.00000000000E+00 -0.00000000000E+00 -0.11912215514E+04  0.11912215514E+04  0.00000000000E+00 0. -1.
         25    2    1    2    0    0 -0.10432957399E+03 -0.47240327740E+02  0.25012531733E+03  0.30216592099E+03  0.12500104343E+03 0.  0.
          2    1    1    2  501    0  0.48154877048E+02 -0.38523060746E+02 -0.11630071882E+04  0.11646409911E+04  0.00000000000E+00 0. -1.
          1    1    1    2  502    0  0.56174696944E+02  0.85763388486E+02  0.19067082952E+04  0.19094626150E+04  0.00000000000E+00 0. -1.
         22    1    3    3    0    0 -0.49808020465E+01  0.20549126212E+02  0.13166205087E+03  0.13334905555E+03  0.00000000000E+00 0. -1.
         22    1    3    3    0    0 -0.99348771945E+02 -0.67789453952E+02  0.11846326647E+03  0.16881686544E+03  0.00000000000E+00 0. -1.
</event>
<event>
 7    1  0.5452757E-006  0.1216280E+03  0.7818608E-02  0.1289473E+00
          2   -1    0    0  502    0  0.00000000000E+00  0.00000000000E+00  0.10830423778E+04  0.10830423778E+04  0.00000000000E+00 0. -1.
          1   -1    0    0  501    0 -0.00000000000E+00 -0.00000000000E+00 -0.16776468022E+03  0.16776468022E+03  0.00000000000E+00 0. -1.
         25    2    1    2    0    0  0.22221205601E+01  0.12061059093E+03 -0.86372020549E+01  0.17393121887E+03  0.12500246067E+03 0.  0.
          2    1    1    2  501    0  0.71833718394E+02 -0.22895590198E+02 -0.53088087806E+02  0.92209740352E+02  0.00000000000E+00 0. -1.
          1    1    1    2  502    0 -0.74055838954E+02 -0.97715000730E+02  0.97700298748E+03  0.98466609884E+03  0.00000000000E+00 0. -1.
         22    1    3    3    0    0 -0.29189938495E+02  0.13287483519E+03 -0.21709829780E+02  0.13776462189E+03  0.00000000000E+00 0. -1.
         22    1    3    3    0    0  0.31412059055E+02 -0.12264244259E+02  0.13072627726E+02  0.36166596978E+02  0.00000000000E+00 0. -1.
</event>
<event>
 7    1  0.5452757E-006  0.2359593E+03  0.7818608E-02  0.1288971E+00
          2   -1    0    0  502    0  0.00000000000E+00  0.00000000000E+00  0.33545784040E+03  0.33545784040E+03  0.00000000000E+00 0. -1.
          1   -1    0    0  501    0 -0.00000000000E+00 -0.00000000000E+00 -0.75546834831E+03  0.75546834831E+03  0.00000000000E+00 0. -1.
         25    2    1    2    0    0  0.23719541462E+03  0.74011906870E+02 -0.17713680617E+03  0.32975887642E+03  0.12499616554E+03 0.  0.
          2    1    1    2  501    0 -0.22947048299E+03 -0.35737590682E+02 -0.47343252710E+03  0.52732554998E+03  0.00000000000E+00 0. -1.
          1    1    1    2  502    0 -0.77249316353E+01 -0.38274316187E+02  0.23055882536E+03  0.23384176231E+03  0.00000000000E+00 0. -1.
         22    1    3    3    0    0  0.33776847984E+02  0.18708643228E+02 -0.96713613538E+02  0.10413650577E+03  0.00000000000E+00 0.  1.
         22    1    3    3    0    0  0.20341856664E+03  0.55303263641E+02 -0.80423192632E+02  0.22562237065E+03  0.00000000000E+00 0.  1.
</event>
<event>
 7    1  0.5452757E-006  0.4115796E+02  0.7818608E-02  0.1535556E+00
          2   -1    0    0  502    0  0.00000000000E+00  0.00000000000E+00  0.42106835926E+03  0.42106835926E+03  0.00000000000E+00 0. -1.
          1   -1    0    0  501    0 -0.00000000000E+00 -0.00000000000E+00 -0.15578499708E+04  0.15578499708E+04  0.00000000000E+00 0. -1.
         25    2    1    2    0    0  0.11944745205E+01 -0.93900721791E+01 -0.66700641988E+02  0.14199851627E+03  0.12500001103E+03 0.  0.
          2    1    1    2  501    0  0.13777438758E+02 -0.29317469323E+02 -0.14521961662E+04  0.14525574126E+04  0.00000000000E+00 0. -1.
          1    1    1    2  502    0 -0.14971913279E+02  0.38707541502E+02  0.38211519663E+03  0.38436240119E+03  0.00000000000E+00 0. -1.
         22    1    3    3    0    0  0.95269571460E+01 -0.62201243777E+01  0.36592921152E+02  0.38320943858E+02  0.00000000000E+00 0. -1.
         22    1    3    3    0    0 -0.83324826255E+01 -0.31699478014E+01 -0.10329356314E+03  0.10367757242E+03  0.00000000000E+00 0. -1.
</event>
<event>
 7    1  0.5452757E-006  0.4784590E+02  0.7818608E-02  0.1488822E+00
          2   -1    0    0  502    0  0.00000000000E+00  0.00000000000E+00  0.33038600505E+04  0.33038600505E+04  0.00000000000E+00 0. -1.
          1   -1    0    0  501    0 -0.00000000000E+00 -0.00000000000E+00 -0.38274155384E+02  0.38274155384E+02  0.00000000000E+00 0. -1.
         25    2    1    2    0    0  0.16508193864E+02  0.12612723463E+02  0.87395369939E+03  0.88309206581E+03  0.12499970706E+03 0.  0.
          2    1    1    2  501    0 -0.31642347468E+01 -0.48424350407E+02 -0.16007150445E+02  0.51099500577E+02  0.00000000000E+00 0. -1.
          1    1    1    2  502    0 -0.13343959117E+02  0.35811626944E+02  0.24076393462E+04  0.24079426395E+04  0.00000000000E+00 0. -1.
         22    1    3    3    0    0  0.58474347066E+02  0.45859234911E+01  0.74370418620E+03  0.74601353643E+03  0.00000000000E+00 0. -1.
         22    1    3    3    0    0 -0.41966153202E+02  0.80267999716E+01  0.13024951318E+03  0.13707852938E+03  0.00000000000E+00 0. -1.
</event>
<event>
 7    1  0.9080373E-006  0.7934981E+02  0.7818608E-02  0.1356295E+00
          2   -1    0    0  502    0  0.00000000000E+00  0.00000000000E+00  0.16929745584E+04  0.16929745584E+04  0.00000000000E+00 0. -1.
          1   -1    0    0  501    0 -0.00000000000E+00 -0.00000000000E+00 -0.11459667546E+04  0.11459667546E+04  0.00000000000E+00 0. -1.
         25    2    1    2    0    0 -0.10911770618E+02  0.24751655581E+02 -0.12787705191E+03  0.18085113166E+03  0.12499152062E+03 0.  0.
          2    1    1    2  501    0 -0.63668340301E+02  0.34186223903E+01 -0.98962267931E+03  0.99167453933E+03  0.00000000000E+00 0. -1.
          1    1    1    2  502    0  0.74580110919E+02 -0.28170277972E+02  0.16645075351E+04  0.16664156420E+04  0.00000000000E+00 0. -1.
         22    1    3    3    0    0  0.43015536053E+02  0.34121601969E+02 -0.17464763497E+02  0.57616300010E+02  0.00000000000E+00 0.  1.
         22    1    3    3    0    0 -0.53927306671E+02 -0.93699463873E+01 -0.11041228841E+03  0.12323483165E+03  0.00000000000E+00 0.  1.
</event>
<event>
 7    1  0.5452757E-006  0.1038339E+03  0.7818608E-02  0.1354210E+00
          2   -1    0    0  502    0  0.00000000000E+00  0.00000000000E+00  0.21793851598E+04  0.21793851598E+04  0.00000000000E+00 0. -1.
          1   -1    0    0  501    0 -0.00000000000E+00 -0.00000000000E+00 -0.83558737045E+02  0.83558737045E+02  0.00000000000E+00 0. -1.
         25    2    1    2    0    0 -0.97748760299E+02  0.72761498279E+02  0.10257804177E+03  0.20247664370E+03  0.12500192326E+03 0.  0.
          2    1    1    2  501    0 -0.32218534117E+01 -0.49487987562E+02 -0.13220457208E+02  0.51324669908E+02  0.00000000000E+00 0. -1.
          1    1    1    2  502    0  0.10097061371E+03 -0.23273510717E+02  0.20064688382E+04  0.20091425832E+04  0.00000000000E+00 0. -1.
         22    1    3    3    0    0 -0.82607090497E+02  0.91514329343E+02  0.12053774513E+03  0.17241853693E+03  0.00000000000E+00 0.  1.
         22    1    3    3    0    0 -0.15141669802E+02 -0.18752831064E+02 -0.17959703367E+02  0.30058106766E+02  0.00000000000E+00 0.  1.
</event>
<event>
 7    1  0.5452757E-006  0.5186368E+02  0.7818608E-02  0.1436162E+00
          2   -1    0    0  502    0  0.00000000000E+00  0.00000000000E+00  0.77413813699E+03  0.77413813699E+03  0.00000000000E+00 0. -1.
          1   -1    0    0  501    0 -0.00000000000E+00 -0.00000000000E+00 -0.13826474773E+04  0.13826474773E+04  0.00000000000E+00 0. -1.
         25    2    1    2    0    0 -0.13170870775E+02  0.22697940541E+02  0.36703892494E+03  0.38862835227E+03  0.12500302166E+03 0.  0.
          2    1    1    2  501    0  0.50197022418E+02  0.13272924975E+02 -0.13696777255E+04  0.13706615130E+04  0.00000000000E+00 0. -1.
          1    1    1    2  502    0 -0.37026151643E+02 -0.35970865516E+02  0.39412946022E+03  0.39749574901E+03  0.00000000000E+00 0. -1.
         22    1    3    3    0    0  0.53798624165E+02  0.93735779976E+00  0.11548544900E+03  0.12740510011E+03  0.00000000000E+00 0. -1.
         22    1    3    3    0    0 -0.66969494940E+02  0.21760582742E+02  0.25155347594E+03  0.26122325216E+03  0.00000000000E+00 0. -1.
</event>
<event>
 7    1  0.5452757E-006  0.8345414E+02  0.7818608E-02  0.1406028E+00
          2   -1    0    0  502    0  0.00000000000E+00  0.00000000000E+00  0.56860618936E+02  0.56860618936E+02  0.00000000000E+00 0. -1.
          1   -1    0    0  501    0 -0.00000000000E+00 -0.00000000000E+00 -0.12953981070E+04  0.12953981070E+04  0.00000000000E+00 0. -1.
         25    2    1    2    0    0 -0.20610313560E+02  0.72356949492E+02 -0.11749277297E+03  0.18732474173E+03  0.12500277596E+03 0.  0.
          2    1    1    2  501    0  0.36102322929E+02  0.18208483564E+02 -0.10446780881E+04  0.10454602978E+04  0.00000000000E+00 0. -1.
          1    1    1    2  502    0 -0.15492009369E+02 -0.90565433056E+02 -0.76366627025E+02  0.11947368640E+03  0.00000000000E+00 0. -1.
         22    1    3    3    0    0  0.29169852180E+02 -0.22254214939E+02 -0.45437277180E+02  0.58400997562E+02  0.00000000000E+00 0. -1.
         22    1    3    3    0    0 -0.49780165740E+02  0.94611164431E+02 -0.72055495787E+02  0.12892374416E+03  0.00000000000E+00 0. -1.
</event>
<event>
 7    1  0.5452757E-006  0.8301198E+02  0.7818608E-02  0.1377699E+00
          2   -1    0    0  502    0  0.00000000000E+00  0.00000000000E+00  0.28150230958E+03  0.28150230958E+03  0.00000000000E+00 0. -1.
          1   -1    0    0  501    0 -0.00000000000E+00 -0.00000000000E+00 -0.77884348454E+03  0.77884348454E+03  0.00000000000E+00 0. -1.
         25    2    1    2    0    0  0.57108888202E+02 -0.87833458402E+02 -0.18038720127E+03  0.24318848208E+03  0.12499981563E+03 0.  0.
          2    1    1    2  501    0 -0.64602193286E+01  0.81774513889E+02 -0.56144294415E+03  0.56740372319E+03  0.00000000000E+00 0. -1.
          1    1    1    2  502    0 -0.50648668873E+02  0.60589445125E+01  0.24448897046E+03  0.24975358885E+03  0.00000000000E+00 0. -1.
         22    1    3    3    0    0  0.87980298880E+02 -0.68916747987E+02 -0.17342965114E+03  0.20631988522E+03  0.00000000000E+00 0.  1.
         22    1    3    3    0    0 -0.30871410678E+02 -0.18916710414E+02 -0.69575501255E+01  0.36868596853E+02  0.00000000000E+00 0.  1.
</event>
<event>
 7    1  0.5452757E-006  0.4863052E+02  0.7818608E-02  0.1476219E+00
          2   -1    0    0  502    0  0.00000000000E+00  0.00000000000E+00  0.29028103831E+03  0.29028103831E+03  0.00000000000E+00 0. -1.
          1   -1    0    0  501    0 -0.00000000000E+00 -0.00000000000E+00 -0.61646281986E+03  0.61646281986E+03  0.00000000000E+00 0. -1.
         25    2    1    2    0    0 -0.70461980967E+01  0.77424644059E+02 -0.48840115102E+02  0.15509522218E+03  0.12499978674E+03 0.  0.
          2    1    1    2  501    0  0.25650742788E+02 -0.40789568037E+02 -0.51157480080E+03  0.51383900813E+03  0.00000000000E+00 0. -1.
          1    1    1    2  502    0 -0.18604544692E+02 -0.36635076023E+02  0.23423313435E+03  0.23780962787E+03  0.00000000000E+00 0. -1.
         22    1    3    3    0    0  0.41825974137E+02  0.53541406469E+02 -0.69233853547E+02  0.97002169028E+02  0.00000000000E+00 0.  1.
         22    1    3    3    0    0 -0.48872172234E+02  0.23883237590E+02  0.20393738445E+02  0.58093053151E+02  0.00000000000E+00 0.  1.
</event>
<event>
 7    1  0.5452757E-006  0.9284124E+02  0.7818608E-02  0.1419384E+00
          2   -1    0    0  502    0  0.00000000000E+00  0.00000000000E+00  0.33498719353E+02  0.33498719353E+02  0.00000000000E+00 0. -1.
          1   -1    0    0  501    0 -0.00000000000E+00 -0.00000000000E+00 -0.31780551231E+04  0.31780551231E+04  0.00000000000E+00 0. -1.
         25    2    1    2    0    0  0.12084861392E+03 -0.25263608709E+02 -0.45101344613E+03  0.48402510274E+03  0.12499813632E+03 0.  0.
          2    1    1    2  501    0 -0.90493830032E+02  0.12936790874E+02 -0.26932139115E+04  0.26947648630E+04  0.00000000000E+00 0. -1.
          1    1    1    2  502    0 -0.30354783886E+02  0.12326817835E+02 -0.32904608239E+00  0.32763876663E+02  0.00000000000E+00 0. -1.
         22    1    3    3    0    0  0.11665030888E+03  0.24040645705E+02 -0.24869645344E+03  0.27574476090E+03  0.00000000000E+00 0. -1.
         22    1    3    3    0    0  0.41983050382E+01 -0.49304254414E+02 -0.20231699269E+03  0.20828034184E+03  0.00000000000E+00 0. -1.
</event>
<event>
 7    1  0.5452757E-006  0.5158499E+02  0.7818608E-02  0.1476855E+00
          2   -1    0    0  502    0  0.00000000000E+00  0.00000000000E+00  0.25414098064E+04  0.25414098064E+04  0.00000000000E+00 0. -1.
          1   -1    0    0  501    0 -0.00000000000E+00 -0.00000000000E+00 -0.34406058314E+03  0.34406058314E+03  0.00000000000E+00 0. -1.
         25    2    1    2    0    0 -0.40846771559E+02  0.79657156386E+02  0.59825489595E+01  0.15387196473E+03  0.12500827704E+03 0.  0.
          2    1    1    2  501    0  0.13339190177E+02 -0.36180015822E+02 -0.26846932396E+03  0.27122445585E+03  0.00000000000E+00 0. -1.
          1    1    1    2  502    0  0.27507581382E+02 -0.43477140564E+02  0.24598359983E+04  0.24603739690E+04  0.00000000000E+00 0. -1.
         22    1    3    3    0    0  0.34438590302E+02  0.23547090803E+02 -0.32007521834E+02  0.52582919671E+02  0.00000000000E+00 0.  1.
         22    1    3    3    0    0 -0.75285361861E+02  0.56110065584E+02  0.37990070793E+02  0.10128904506E+03  0.00000000000E+00 0.  1.
</event>
<event>
 7    1  0.5452757E-006  0.1100015E+03  0.7818608E-02  0.1351081E+00
          2   -1    0    0  502    0  0.00000000000E+00  0.00000000000E+00  0.17647137706E+04  0.17647137706E+04  0.00000000000E+00 0. -1.
          1   -1    0    0  501    0 -0.00000000000E+00 -0.00000000000E+00 -0.19666603657E+04  0.19666603657E+04  0.00000000000E+00 0. -1.
         25    2    1    2    0    0 -0.65879349237E+02 -0.12340795340E+03  0.43229252174E+01  0.18765524295E+03  0.12500476353E+03 0.  0.
          2    1    1    2  501    0  0.20450778229E+02  0.10768175380E+03 -0.18730455277E+04  0.18762497550E+04  0.00000000000E+00 0. -1.
          1    1    1    2  502    0  0.45428571008E+02  0.15726199599E+02  0.16667760074E+04  0.16674691383E+04  0.00000000000E+00 0. -1.
         22    1    3    3    0    0 -0.62153226319E+02 -0.16163117393E+02  0.38692700012E+02  0.74975962414E+02  0.00000000000E+00 0. -1.
         22    1    3    3    0    0 -0.37261229178E+01 -0.10724483601E+03 -0.34369774794E+02  0.11267928053E+03  0.00000000000E+00 0. -1.
</event>
<event>
 7    1  0.5452757E-006  0.1084591E+03  0.7818608E-02  0.1351298E+00
          2   -1    0    0  502    0  0.00000000000E+00  0.00000000000E+00  0.13393294567E+04  0.13393294567E+04  0.00000000000E+00 0. -1.
          1   -1    0    0  501    0 -0.00000000000E+00 -0.00000000000E+00 -0.81720223251E+02  0.81720223251E+02  0.00000000000E+00 0. -1.
         25    2    1    2    0    0 -0.74287820320E+02  0.10065565965E+03  0.47850914196E+03  0.51014313059E+03  0.12499909072E+03 0.  0.
          2    1    1    2  501    0 -0.16924688896E+02 -0.45629635511E+02 -0.53035068695E+02  0.71980742164E+02  0.00000000000E+00 0. -1.
          1    1    1    2  502    0  0.91212509215E+02 -0.55026024137E+02  0.83213516023E+03  0.83892580724E+03  0.00000000000E+00 0. -1.
         22    1    3    3    0    0  0.32493325688E+02  0.47402096539E+02  0.16149901726E+03  0.17141968250E+03  0.00000000000E+00 0.  1.
         22    1    3    3    0    0 -0.10678114601E+03  0.53253563109E+02  0.31701012470E+03  0.33872344809E+03  0.00000000000E+00 0.  1.
</event>
<event>
 7    1  0.5452757E-006  0.6206602E+02  0.7818608E-02  0.1412568E+00
          2   -1    0    0  502    0  0.00000000000E+00  0.00000000000E+00  0.31614744596E+04  0.31614744596E+04  0.00000000000E+00 0. -1.
          1   -1    0    0  501    0 -0.00000000000E+00 -0.00000000000E+00 -0.13808659217E+02  0.13808659217E+02  0.00000000000E+00 0. -1.
         25    2    1    2    0    0  0.25620334974E+02 -0.93897240924E+01  0.14302554595E+04  0.14359668451E+04  0.12500212899E+03 0.  0.
          2    1    1    2  501    0 -0.22955090915E+02  0.60981454950E+02  0.90131571724E+02  0.11121768865E+03  0.00000000000E+00 0. -1.
          1    1    1    2  502    0 -0.26652440586E+01 -0.51591730857E+02  0.16272787692E+04  0.16280985851E+04  0.00000000000E+00 0. -1.
         22    1    3    3    0    0  0.61780972628E+02 -0.38249157013E+02  0.59319606109E+03  0.59762986328E+03  0.00000000000E+00 0.  1.
         22    1    3    3    0    0 -0.36160637654E+02  0.28859432921E+02  0.83705939846E+03  0.83833698185E+03  0.00000000000E+00 0.  1.
</event>
<event>
 7    1  0.5452757E-006  0.1192260E+03  0.7818608E-02  0.1325724E+00
          2   -1    0    0  502    0  0.00000000000E+00  0.00000000000E+00  0.52695016103E+03  0.52695016103E+03  0.00000000000E+00 0. -1.
          1   -1    0    0  501    0 -0.00000000000E+00 -0.00000000000E+00 -0.74991816523E+03  0.74991816523E+03  0.00000000000E+00 0. -1.
         25    2    1    2    0    0  0.74821974599E+02  0.31313102908E+01 -0.13702131980E+03  0.20001519062E+03  0.12499240542E+03 0.  0.
          2    1    1    2  501    0 -0.12834163408E+03 -0.16972897396E+02 -0.57260905025E+03  0.58706113712E+03  0.00000000000E+00 0. -1.
          1    1    1    2  502    0  0.53519659482E+02  0.13841587105E+02  0.48666236585E+03  0.48979199853E+03  0.00000000000E+00 0. -1.
         22    1    3    3    0    0 -0.20097807183E+02 -0.19893503158E+02 -0.84522766730E+02  0.89127837498E+02  0.00000000000E+00 0. -1.
         22    1    3    3    0    0  0.94919781782E+02  0.23024813449E+02 -0.52498553071E+02  0.11088735312E+03  0.00000000000E+00 0. -1.
</event>
<event>
 7    1  0.5452757E-006  0.4248411E+02  0.7818608E-02  0.1547759E+00
          2   -1    0    0  502    0  0.00000000000E+00  0.00000000000E+00  0.40374083919E+03  0.40374083919E+03  0.00000000000E+00 0. -1.
          1   -1    0    0  501    0 -0.00000000000E+00 -0.00000000000E+00 -0.86485064389E+03  0.86485064389E+03  0.00000000000E+00 0. -1.
         25    2    1    2    0    0  0.52821807835E+02 -0.19751734732E+02  0.45524610438E+02  0.14448945335E+03  0.12499775024E+03 0.  0.
          2    1    1    2  501    0 -0.41851877836E+02 -0.70836801555E+01 -0.81413351674E+03  0.81523931535E+03  0.00000000000E+00 0. -1.
          1    1    1    2  502    0 -0.10969929998E+02  0.26835414887E+02  0.30749910160E+03  0.30886271439E+03  0.00000000000E+00 0. -1.
         22    1    3    3    0    0 -0.30018397136E+02 -0.28586182370E+01  0.51558801601E+02  0.59729271613E+02  0.00000000000E+00 0.  1.
         22    1    3    3    0    0  0.82840204970E+02 -0.16893116495E+02 -0.60341911632E+01  0.84760181733E+02  0.00000000000E+00 0.  1.
</event>
<event>
 7    1  0.5452757E-006  0.1320801E+03  0.7818608E-02  0.1302580E+00
          2   -1    0    0  502    0  0.00000000000E+00  0.00000000000E+00  0.17249804657E+03  0.17249804657E+03  0.00000000000E+00 0. -1.
          1   -1    0    0  501    0 -0.00000000000E+00 -0.00000000000E+00 -0.16335886187E+04  0.16335886187E+04  0.00000000000E+00 0. -1.
         25    2    1    2    0    0 -0.67206537673E+02 -0.10746715440E+03 -0.57393160145E+03  0.60090649633E+03  0.12500090484E+03 0.  0.
          2    1    1    2  501    0  0.56145555783E+02 -0.25047861113E+02 -0.10172773910E+04  0.10191334599E+04  0.00000000000E+00 0. -1.
          1    1    1    2  502    0  0.11060981890E+02  0.13251501551E+03  0.13011842031E+03  0.18604670908E+03  0.00000000000E+00 0. -1.
         22    1    3    3    0    0 -0.68186885760E+01 -0.14129075147E+02 -0.35518915046E+03  0.35553545235E+03  0.00000000000E+00 0. -1.
         22    1    3    3    0    0 -0.60387849097E+02 -0.93338079249E+02 -0.21874245099E+03  0.24537104397E+03  0.00000000000E+00 0. -1.
</event>
<event>
 7    1  0.5452757E-006  0.1219957E+03  0.7818608E-02  0.1368966E+00
          2   -1    0    0  502    0  0.00000000000E+00  0.00000000000E+00  0.10181492770E+04  0.10181492770E+04  0.00000000000E+00 0. -1.
          1   -1    0    0  501    0 -0.00000000000E+00 -0.00000000000E+00 -0.42537993641E+03  0.42537993641E+03  0.00000000000E+00 0. -1.
         25    2    1    2    0    0 -0.13763492438E+03 -0.75299407392E+02 -0.10379099497E+03  0.22585513928E+03  0.12499840055E+03 0.  0.
          2    1    1    2  501    0  0.27077947779E+02  0.25650715561E+02 -0.25536016758E+03  0.25806973796E+03  0.00000000000E+00 0. -1.
          1    1    1    2  502    0  0.11055697661E+03  0.49648691831E+02  0.95192050311E+03  0.95960433612E+03  0.00000000000E+00 0. -1.
         22    1    3    3    0    0 -0.14152611834E+02  0.30936728374E+02 -0.35669864233E+02  0.49292157577E+02  0.00000000000E+00 0.  1.
         22    1    3    3    0    0 -0.12348231255E+03 -0.10623613577E+03 -0.68121130735E+02  0.17656298170E+03  0.00000000000E+00 0.  1.
</event>
<event>
 7    1  0.5452757E-006  0.1233813E+03  0.7818608E-02  0.1367813E+00
          2   -1    0    0  502    0  0.00000000000E+00  0.00000000000E+00  0.15361557684E+04  0.15361557684E+04  0.00000000000E+00 0. -1.
          1   -1    0    0  501    0 -0.00000000000E+00 -0.00000000000E+00 -0.42877149088E+03  0.42877149088E+03  0.00000000000E+00 0. -1.
         25    2    1    2    0    0 -0.13344150012E+03  0.31355432253E+02  0.38595901167E+03  0.42822520189E+03  0.12499067069E+03 0.  0.
          2    1    1    2  501    0  0.10824974809E+03 -0.58773648433E+02 -0.39801676592E+03  0.41664096734E+03  0.00000000000E+00 0. -1.
          1    1    1    2  502    0  0.25191752038E+02  0.27418216180E+02  0.11194420317E+04  0.11200610900E+04  0.00000000000E+00 0. -1.
         22    1    3    3    0    0  0.18284918405E+02 -0.52155619322E+01  0.10608750536E+03  0.10777800852E+03  0.00000000000E+00 0. -1.
         22    1    3    3    0    0 -0.15172641853E+03  0.36570994185E+02  0.27987150631E+03  0.32044719337E+03  0.00000000000E+00 0. -1.
</event>
<event>
 7    1  0.5452757E-006  0.1383827E+03  0.7818608E-02  0.1225548E+00
          2   -1    0    0  502    0  0.00000000000E+00  0.00000000000E+00  0.26072336373E+03  0.26072336373E+03  0.00000000000E+00 0. -1.
          1   -1    0    0  501    0 -0.00000000000E+00 -0.00000000000E+00 -0.88456877112E+03  0.88456877112E+03  0.00000000000E+00 0. -1.
         25    2    1    2    0    0  0.13015037919E+03  0.52954933295E+02 -0.13248778672E+03  0.23005007592E+03  0.12500671036E+03 0.  0.
          2    1    1    2  501    0 -0.40758550265E+02 -0.13970956911E+03 -0.67656480445E+03  0.69204043071E+03  0.00000000000E+00 0. -1.
          1    1    1    2  502    0 -0.89391828926E+02  0.86754635817E+02  0.18520718378E+03  0.22320162821E+03  0.00000000000E+00 0. -1.
         22    1    3    3    0    0  0.13026149973E+03  0.84891827444E+02 -0.10240567696E+03  0.18617626957E+03  0.00000000000E+00 0. -1.
         22    1    3    3    0    0 -0.11112053557E+00 -0.31936894148E+02 -0.30082109763E+02  0.43873806347E+02  0.00000000000E+00 0. -1.
</event>
<event>
 7    1  0.5452757E-006  0.5550305E+02  0.7818608E-02  0.1418767E+00
          2   -1    0    0  502    0  0.00000000000E+00  0.00000000000E+00  0.11032522874E+04  0.11032522874E+04  0.00000000000E+00 0. -1.
          1   -1    0    0  501    0 -0.00000000000E+00 -0.00000000000E+00 -0.67501044546E+03  0.67501044546E+03  0.00000000000E+00 0. -1.
         25    2    1    2    0    0 -0.42590984909E+02  0.42519716373E+02 -0.94224982292E+02  0.16770306133E+03  0.12499620481E+03 0.  0.
          2    1    1    2  501    0 -0.11887102056E+02 -0.53764516798E+02 -0.54192504891E+03  0.54471523303E+03  0.00000000000E+00 0. -1.
          1    1    1    2  502    0  0.54478086965E+02  0.11244800425E+02  0.10643918731E+04  0.10658444385E+04  0.00000000000E+00 0. -1.
         22    1    3    3    0    0 -0.15403675450E+02  0.63810695846E+02 -0.11127256144E+03  0.12919234130E+03  0.00000000000E+00 0. -1.
         22    1    3    3    0    0 -0.27187309459E+02 -0.21290979474E+02  0.17047579145E+02  0.38510720030E+02  0.00000000000E+00 0. -1.
</event>
<event>
 7    1  0.5452757E-006  0.7945536E+02  0.7818608E-02  0.1345031E+00
          2   -1    0    0  502    0  0.00000000000E+00  0.00000000000E+00  0.17641601147E+03  0.17641601147E+03  0.00000000000E+00 0. -1.
          1   -1    0    0  501    0 -0.00000000000E+00 -0.00000000000E+00 -0.17476032484E+04  0.17476032484E+04  0.00000000000E+00 0. -1.
         25    2    1    2    0    0 -0.22375775581E+02 -0.14489398208E+03 -0.67974073378E+02  0.20430633095E+03  0.12500264332E+03 0.  0.
          2    1    1    2  501    0 -0.17715992928E+00  0.78530206558E+02 -0.15990516171E+04  0.16009787940E+04  0.00000000000E+00 0. -1.
          1    1    1    2  502    0  0.22552935510E+02  0.66363775525E+02  0.95838453572E+02  0.11873413488E+03  0.00000000000E+00 0. -1.
         22    1    3    3    0    0  0.32386651657E+02 -0.36841165972E+02  0.21650551733E+02  0.53618216177E+02  0.00000000000E+00 0. -1.
         22    1    3    3    0    0 -0.54762427238E+02 -0.10805281611E+03 -0.89624625111E+02  0.15068811477E+03  0.00000000000E+00 0. -1.
</event>
<event>
 7    1  0.5452757E-006  0.2141982E+03  0.7818608E-02  0.1341827E+00
          2   -1    0    0  502    0  0.00000000000E+00  0.00000000000E+00  0.16017005840E+04  0.16017005840E+04  0.00000000000E+00 0. -1.
          1   -1    0    0  501    0 -0.00000000000E+00 -0.00000000000E+00 -0.17600558249E+04  0.17600558249E+04  0.00000000000E+00 0. -1.
         25    2    1    2    0    0 -0.20447413105E+03 -0.78260706443E+02 -0.48879930903E+03  0.54998545816E+03  0.12499932497E+03 0.  0.
          2    1    1    2  501    0  0.18842514123E+03  0.99633565736E+02 -0.12313937045E+04  0.12497044998E+04  0.00000000000E+00 0. -1.
          1    1    1    2  502    0  0.16048989824E+02 -0.21372859293E+02  0.15618377726E+04  0.15620664509E+04  0.00000000000E+00 0. -1.
         22    1    3    3    0    0 -0.17247500447E+03 -0.20470549079E+02 -0.26669152810E+03  0.31826253582E+03  0.00000000000E+00 0.  1.
         22    1    3    3    0    0 -0.31999126583E+02 -0.57790157363E+02 -0.22210778093E+03  0.23172292235E+03  0.00000000000E+00 0.  1.
</event>
<event>
 7    1  0.5452757E-006  0.6595039E+02  0.7818608E-02  0.1383501E+00
          2   -1    0    0  502    0  0.00000000000E+00  0.00000000000E+00  0.73456102276E+03  0.73456102276E+03  0.00000000000E+00 0. -1.
          1   -1    0    0  501    0 -0.00000000000E+00 -0.00000000000E+00 -0.13441497180E+03  0.13441497180E+03  0.00000000000E+00 0. -1.
         25    2    1    2    0    0 -0.12352120613E+03 -0.21144207315E+02  0.75070041167E+02  0.19226800733E+03  0.12500763855E+03 0.  0.
          2    1    1    2  501    0  0.59882212982E+02  0.12831460944E+02 -0.61405887677E+02  0.86724903361E+02  0.00000000000E+00 0. -1.
          1    1    1    2  502    0  0.63638993147E+02  0.83127463703E+01  0.58648189747E+03  0.58998308388E+03  0.00000000000E+00 0. -1.
         22    1    3    3    0    0 -0.14722624005E+03 -0.23481262244E+02  0.78017043416E+02  0.16826643902E+03  0.00000000000E+00 0.  1.
         22    1    3    3    0    0  0.23705033924E+02  0.23370549292E+01 -0.29470022484E+01  0.24001568310E+02  0.00000000000E+00 0.  1.
</event>
<event>
 7    1  0.5452757E-006  0.4715417E+02  0.7818608E-02  0.1488323E+00
          2   -1    0    0  502    0  0.00000000000E+00  0.00000000000E+00  0.29691079791E+03  0.29691079791E+03  0.00000000000E+00 0. -1.
          1   -1    0    0  501    0 -0.00000000000E+00 -0.00000000000E+00 -0.28799452719E+03  0.28799452719E+03  0.00000000000E+00 0. -1.
         25    2    1    2    0    0  0.93504549698E+01 -0.55629366004E+01  0.38903582641E+02  0.13136509381E+03  0.12499968743E+03 0.  0.
          2    1    1    2  501    0  0.37670191579E+02 -0.97556855494E+01 -0.23727012486E+03  0.24043986543E+03  0.00000000000E+00 0. -1.
          1    1    1    2  502    0 -0.47020646549E+02  0.15318622150E+02  0.20728281295E+03  0.21310036586E+03  0.00000000000E+00 0. -1.
         22    1    3    3    0    0  0.54148263654E+02 -0.41351757155E+02  0.20780539408E+02  0.71230843703E+02  0.00000000000E+00 0. -1.
         22    1    3    3    0    0 -0.44797808684E+02  0.35788820555E+02  0.18123043233E+02  0.60134250104E+02  0.00000000000E+00 0. -1.
</event>
<event>
 7    1  0.5452757E-006  0.8548738E+02  0.7818608E-02  0.1350965E+00
          2   -1    0    0  502    0  0.00000000000E+00  0.00000000000E+00  0.37087592240E+03  0.37087592240E+03  0.00000000000E+00 0. -1.
          1   -1    0    0  501    0 -0.00000000000E+00 -0.00000000000E+00 -0.10898245938E+04  0.10898245938E+04  0.00000000000E+00 0. -1.
         25    2    1    2    0    0 -0.11754063611E+03 -0.10358843437E+02 -0.17749895540E+03  0.24706722134E+03  0.12495289480E+03 0.  0.
          2    1    1    2  501    0  0.40643274486E+02  0.46714555906E+02 -0.87104312382E+03  0.87324123188E+03  0.00000000000E+00 0. -1.
          1    1    1    2  502    0  0.76897361621E+02 -0.36355712469E+02  0.32959340783E+03  0.34039206298E+03  0.00000000000E+00 0. -1.
         22    1    3    3    0    0 -0.47265053985E+02  0.49233419446E+02 -0.33289380031E+02  0.75934825616E+02  0.00000000000E+00 0.  1.
         22    1    3    3    0    0 -0.70275582123E+02 -0.59592262883E+02 -0.14420957537E+03  0.17113239572E+03  0.00000000000E+00 0.  1.
</event>
<event>
 7    1  0.5452757E-006  0.1066653E+03  0.7818608E-02  0.1291176E+00
          2   -1    0    0  502    0  0.00000000000E+00  0.00000000000E+00  0.44428409868E+03  0.44428409868E+03  0.00000000000E+00 0. -1.
          1   -1    0    0  501    0 -0.00000000000E+00 -0.00000000000E+00 -0.23618269498E+04  0.23618269498E+04  0.00000000000E+00 0. -1.
         25    2    1    2    0    0  0.10193225832E+03 -0.70474508551E+02 -0.12951535596E+03  0.21853019776E+03  0.12499751302E+03 0.  0.
          2    1    1    2  501    0 -0.77508115408E+02 -0.33932392938E+02 -0.21797787793E+04  0.21814202809E+04  0.00000000000E+00 0. -1.
          1    1    1    2  502    0 -0.24424142910E+02  0.10440690149E+03  0.39175128416E+03  0.40616056982E+03  0.00000000000E+00 0. -1.
         22    1    3    3    0    0  0.12170195029E+03 -0.70269514048E+02 -0.72390631706E+02  0.15808090608E+03  0.00000000000E+00 0.  1.
         22    1    3    3    0    0 -0.19769691968E+02 -0.20499450355E+00 -0.57124724252E+02  0.60449291676E+02  0.00000000000E+00 0.  1.
</event>
<event>
 7    1  0.5452757E-006  0.3794769E+02  0.7818608E-02  0.1602586E+00
          2   -1    0    0  502    0  0.00000000000E+00  0.00000000000E+00  0.87955301992E+02  0.87955301992E+02  0.00000000000E+00 0. -1.
          1   -1    0    0  501    0 -0.00000000000E+00 -0.00000000000E+00 -0.13228041607E+04  0.13228041607E+04  0.00000000000E+00 0. -1.
         25    2    1    2    0    0 -0.15104363053E+02  0.44274872437E+01 -0.63496670205E+02  0.14109108799E+03  0.12500849393E+03 0.  0.
          2    1    1    2  501    0  0.33152232560E+02 -0.18819974298E+02 -0.12174854154E+04  0.12180820985E+04  0.00000000000E+00 0. -1.
          1    1    1    2  502    0 -0.18047869507E+02  0.14392487054E+02  0.46133226857E+02  0.51586276253E+02  0.00000000000E+00 0. -1.
         22    1    3    3    0    0 -0.41027634382E+02  0.38413655341E+02 -0.77834967828E+02  0.96006030626E+02  0.00000000000E+00 0.  1.
         22    1    3    3    0    0  0.25923271330E+02 -0.33986168097E+02  0.14338297623E+02  0.45085057359E+02  0.00000000000E+00 0.  1.
</event>
<event>
 7    1  0.5452757E-006  0.8035120E+02  0.7818608E-02  0.1394537E+00
          2   -1    0    0  502    0  0.00000000000E+00  0.00000000000E+00  0.54587050556E+03  0.54587050556E+03  0.00000000000E+00 0. -1.
          1   -1    0    0  501    0 -0.00000000000E+00 -0.00000000000E+00 -0.76798523784E+03  0.76798523784E+03  0.00000000000E+00 0. -1.
         25    2    1    2    0    0  0.29543288623E+02 -0.83974122752E+02  0.29338420232E+03  0.33109240883E+03  0.12499373512E+03 0.  0.
          2    1    1    2  501    0 -0.61894828632E+02  0.51280874777E+02 -0.74468364867E+03  0.74900896826E+03  0.00000000000E+00 0. -1.
          1    1    1    2  502    0  0.32351540009E+02  0.32693247975E+02  0.22918471408E+03  0.23375436631E+03  0.00000000000E+00 0. -1.
         22    1    3    3    0    0  0.72975089004E+02 -0.71218365637E+02  0.24204898751E+03  0.26265020764E+03  0.00000000000E+00 0. -1.
         22    1    3    3    0    0 -0.43431800381E+02 -0.12755757115E+02  0.51335214809E+02  0.68442201188E+02  0.00000000000E+00 0. -1.
</event>
<event>
 7    1  0.5452757E-006  0.5566214E+02  0.7818608E-02  0.1424984E+00
          2   -1    0    0  502    0  0.00000000000E+00  0.00000000000E+00  0.15377621171E+03  0.15377621171E+03  0.00000000000E+00 0. -1.
          1   -1    0    0  501    0 -0.00000000000E+00 -0.00000000000E+00 -0.65810106821E+03  0.65810106821E+03  0.00000000000E+00 0. -1.
         25    2    1    2    0    0 -0.47837521597E+00 -0.34247933392E+02 -0.34979836103E+03  0.37303777370E+03  0.12500054976E+03 0.  0.
          2    1    1    2  501    0 -0.54964760436E+02  0.29315160543E+02 -0.28777091807E+03  0.29443607934E+03  0.00000000000E+00 0. -1.
          1    1    1    2  502    0  0.55443135652E+02  0.49327728497E+01  0.13324442261E+03  0.14440342688E+03  0.00000000000E+00 0. -1.
         22    1    3    3    0    0 -0.99300962200E+01  0.25496884974E+02 -0.27718063287E+03  0.27852791815E+03  0.00000000000E+00 0. -1.
         22    1    3    3    0    0  0.94517210040E+01 -0.59744818366E+02 -0.72617728168E+02  0.94509855549E+02  0.00000000000E+00 0. -1.
</event>
<event>
 7    1  0.5452757E-006  0.9299830E+02  0.7818608E-02  0.1373584E+00
          2   -1    0    0  502    0  0.00000000000E+00  0.00000000000E+00  0.14991492756E+03  0.14991492756E+03  0.00000000000E+00 0. -1.
          1   -1    0    0  501    0 -0.00000000000E+00 -0.00000000000E+00 -0.33950088275E+03  0.33950088275E+03  0.00000000000E+00 0. -1.
         25    2    1    2    0    0 -0.12415732551E+03 -0.16706930289E+02  0.35498367704E+02  0.18049861021E+03  0.12500180470E+03 0.  0.
          2    1    1    2  501    0  0.89627794012E+02 -0.15321041970E+02 -0.24227916759E+03  0.25877996607E+03  0.00000000000E+00 0. -1.
          1    1    1    2  502    0  0.34529531502E+02  0.32027972259E+02  0.17194844695E+02  0.50137234037E+02  0.00000000000E+00 0. -1.
         22    1    3    3    0    0 -0.17429101352E+02  0.22545990776E+02 -0.36195561619E+02  0.46067493473E+02  0.00000000000E+00 0. -1.
         22    1    3    3    0    0 -0.10672822416E+03 -0.39252921065E+02  0.71693929323E+02  0.13443111674E+03  0.00000000000E+00 0. -1.
</event>
<event>
 7    1  0.5452757E-006  0.6481759E+02  0.7818608E-02  0.1445342E+00
          2   -1    0    0  502    0  0.00000000000E+00  0.00000000000E+00  0.60762923514E+03  0.60762923514E+03  0.00000000000E+00 0. -1.
          1   -1    0    0  501    0 -0.00000000000E+00 -0.00000000000E+00 -0.10668779728E+03  0.10668779728E+03  0.00000000000E+00 0. -1.
         25    2    1    2    0    0 -0.36583311027E+02  0.22425288045E+02  0.64875004680E+02  0.14722612770E+03  0.12500213701E+03 0.  0.
          2    1    1    2  501    0  0.33663979389E+02 -0.60884190658E+02 -0.46051955016E+02  0.83432192475E+02  0.00000000000E+00 0. -1.
          1    1    1    2  502    0  0.29193316370E+01  0.38458902613E+02  0.48211838820E+03  0.48365871224E+03  0.00000000000E+00 0. -1.
         22    1    3    3    0    0 -0.54669490156E+02  0.34117057179E+02  0.92166568556E+02  0.11246067359E+03  0.00000000000E+00 0. -1.
         22    1    3    3    0    0  0.18086179129E+02 -0.11691769134E+02 -0.27291563876E+02  0.34765454115E+02  0.00000000000E+00 0. -1.
</event>
<event>
 7    1  0.5452757E-006  0.1007891E+03  0.7818608E-02  0.1430511E+00
          2   -1    0    0  502    0  0.00000000000E+00  0.00000000000E+00  0.72916563184E+03  0.72916563184E+03  0.00000000000E+00 0. -1.
          1   -1    0    0  501    0 -0.00000000000E+00 -0.00000000000E+00 -0.10051149774E+04  0.10051149774E+04  0.00000000000E+00 0. -1.
         25    2    1    2    0    0 -0.54754222058E+02  0.70055086027E+02 -0.13572723438E+03  0.20482882995E+03  0.12500890975E+03 0.  0.
          2    1    1    2  501    0  0.15369212058E+02  0.23069649787E+02 -0.83092507070E+03  0.83138733124E+03  0.00000000000E+00 0. -1.
          1    1    1    2  502    0  0.39385009999E+02 -0.93124735814E+02  0.69070295949E+03  0.69806444808E+03  0.00000000000E+00 0. -1.
         22    1    3    3    0    0 -0.34543478989E+02  0.83292107531E+02 -0.15126641265E+03  0.17610325015E+03  0.00000000000E+00 0. -1.
         22    1    3    3    0    0 -0.20210743068E+02 -0.13237021504E+02  0.15539178270E+02  0.28725579802E+02  0.00000000000E+00 0. -1.
</event>
<event>
 7    1  0.5452757E-006  0.1408446E+03  0.7818608E-02  0.1274945E+00
          2   -1    0    0  502    0  0.00000000000E+00  0.00000000000E+00  0.41091282891E+03  0.41091282891E+03  0.00000000000E+00 0. -1.
          1   -1    0    0  501    0 -0.00000000000E+00 -0.00000000000E+00 -0.21539142507E+03  0.21539142507E+03  0.00000000000E+00 0. -1.
         25    2    1    2    0    0 -0.48798025737E+02 -0.14422954286E+03  0.81911940212E+02  0.21335272583E+03  0.12500564514E+03 0.  0.
          2    1    1    2  501    0  0.10515570505E+03  0.95164462641E+02 -0.10852719320E+03  0.17858373084E+03  0.00000000000E+00 0. -1.
          1    1    1    2  502    0 -0.56357679312E+02  0.49065080219E+02  0.22213665683E+03  0.23436779733E+03  0.00000000000E+00 0. -1.
         22    1    3    3    0    0 -0.46949661657E+02 -0.14842065050E+03  0.10632402809E+03  0.18851461262E+03  0.00000000000E+00 0.  1.
         22    1    3    3    0    0 -0.18483640805E+01  0.41911076369E+01 -0.24412087875E+02  0.24838113202E+02  0.00000000000E+00 0.  1.
</event>
<event>
 7    1  0.5452757E-006  0.5474411E+02  0.7818608E-02  0.1432045E+00
          2   -1    0    0  502    0  0.00000000000E+00  0.00000000000E+00  0.13700616040E+04  0.13700616040E+04  0.00000000000E+00 0. -1.
          1   -1    0    0  501    0 -0.00000000000E+00 -0.00000000000E+00 -0.18550259506E+02  0.18550259506E+02  0.00000000000E+00 0. -1.
         25    2    1    2    0    0  0.26264731685E+01  0.19121659299E+02  0.73935388621E+03  0.75009451990E+03  0.12500033403E+03 0.  0.
          2    1    1    2  501    0 -0.12366883534E+02  0.48907620846E+02  0.46209338697E+02  0.68411973864E+02  0.00000000000E+00 0. -1.
          1    1    1    2  502    0  0.97404103654E+01 -0.68029280144E+02  0.56594811960E+03  0.57010536976E+03  0.00000000000E+00 0. -1.
         22    1    3    3    0    0 -0.26958174035E+02  0.60323432355E+02  0.55397779355E+03  0.55790416326E+03  0.00000000000E+00 0. -1.
         22    1    3    3    0    0  0.29584647204E+02 -0.41201773056E+02  0.18537609266E+03  0.19219035664E+03  0.00000000000E+00 0. -1.
</event>
<event>
 7    1  0.5452757E-006  0.2266859E+03  0.7818608E-02  0.1274981E+00
          2   -1    0    0  502    0  0.00000000000E+00  0.00000000000E+00  0.88429104154E+03  0.88429104154E+03  0.00000000000E+00 0. -1.
          1   -1    0    0  501    0 -0.00000000000E+00 -0.00000000000E+00 -0.25161450899E+04  0.25161450899E+04  0.00000000000E+00 0. -1.
         25    2    1    2    0    0  0.24490628813E+03  0.11120988694E+03  0.15856257971E+03  0.33632241904E+03  0.12499579571E+03 0.  0.
          2    1    1    2  501    0 -0.19865651765E+03 -0.10734009092E+03 -0.24211593005E+04  0.24316658211E+04  0.00000000000E+00 0. -1.
          1    1    1    2  502    0 -0.46249770472E+02 -0.38697960210E+01  0.63074267235E+03  0.63244789138E+03  0.00000000000E+00 0. -1.
         22    1    3    3    0    0  0.19195929498E+03  0.13869043695E+03  0.13054002842E+03  0.27041469496E+03  0.00000000000E+00 0. -1.
         22    1    3    3    0    0  0.52946993150E+02 -0.27480550009E+02  0.28022551294E+02  0.65907724081E+02  0.00000000000E+00 0. -1.
</event>
<event>
 7    1  0.5452757E-006  0.6132757E+02  0.7818608E-02  0.1525993E+00
          2   -1    0    0  502    0  0.00000000000E+00  0.00000000000E+00  0.33802723162E+03  0.33802723162E+03  0.00000000000E+00 0. -1.
          1   -1    0    0  501    0 -0.00000000000E+00 -0.00000000000E+00 -0.55972144447E+03  0.55972144447E+03  0.00000000000E+00 0. -1.
         25    2    1    2    0    0 -0.27233743103E+02  0.28609338519E+02 -0.17716933297E+03  0.22039296417E+03  0.12499566031E+03 0.  0.
          2    1    1    2  501    0 -0.88440903556E+01  0.21398197540E+02 -0.35755804408E+03  0.35830692943E+03  0.00000000000E+00 0. -1.
          1    1    1    2  502    0  0.36077833458E+02 -0.50007536059E+02  0.31303316419E+03  0.31904878250E+03  0.00000000000E+00 0. -1.
         22    1    3    3    0    0  0.38838873982E+02 -0.12110044098E+02 -0.20506548936E+02  0.45559080867E+02  0.00000000000E+00 0.  1.
         22    1    3    3    0    0 -0.66072617085E+02  0.40719382617E+02 -0.15666278403E+03  0.17483388330E+03  0.00000000000E+00 0.  1.
</event>
<event>
 7    1  0.5452757E-006  0.6932617E+02  0.7818608E-02  0.1378859E+00
          2   -1    0    0  502    0  0.00000000000E+00  0.00000000000E+00  0.41144364957E+03  0.41144364957E+03  0.00000000000E+00 0. -1.
          1   -1    0    0  501    0 -0.00000000000E+00 -0.00000000000E+00 -0.18252525168E+04  0.18252525168E+04  0.00000000000E+00 0. -1.
         25    2    1    2    0    0  0.77576797428E+02  0.98228509361E+02  0.11586984916E+02  0.17726679796E+03  0.12498903908E+03 0.  0.
          2    1    1    2  501    0 -0.27177811103E+02 -0.54055447394E+02 -0.17383385642E+04  0.17393911546E+04  0.00000000000E+00 0. -1.
          1    1    1    2  502    0 -0.50398986324E+02 -0.44173061968E+02  0.31294271210E+03  0.32003821378E+03  0.00000000000E+00 0. -1.
         22    1    3    3    0    0  0.35463668861E+02  0.12281461964E+03  0.12922685015E+02  0.12848384488E+03  0.00000000000E+00 0.  1.
         22    1    3    3    0    0  0.42113128566E+02 -0.24586110282E+02 -0.13357000993E+01  0.48782953080E+02  0.00000000000E+00 0.  1.
</event>
<event>
 7    1  0.7537246E-006  0.5739711E+02  0.7818608E-02  0.1444644E+00
          2   -1    0    0  502    0  0.00000000000E+00  0.00000000000E+00  0.69513715112E+03  0.69513715112E+03  0.00000000000E+00 0. -1.
          1   -1    0    0  501    0 -0.00000000000E+00 -0.00000000000E+00 -0.12224622553E+04  0.12224622553E+04  0.00000000000E+00 0. -1.
         25    2    1    2    0    0 -0.23002157287E+02 -0.16821914557E+02 -0.35441912943E+03  0.37689556310E+03  0.12500108052E+03 0.  0.
          2    1    1    2  501    0 -0.33351546053E+02  0.28364552448E+02 -0.85503421918E+03  0.85615441915E+03  0.00000000000E+00 0. -1.
          1    1    1    2  502    0  0.56353703340E+02 -0.11542637891E+02  0.68212824440E+03  0.68454942420E+03  0.00000000000E+00 0. -1.
         22    1    3    3    0    0 -0.59550370329E+02 -0.16771509371E+02 -0.32247145159E+03  0.32835250451E+03  0.00000000000E+00 0. -1.
         22    1    3    3    0    0  0.36548213042E+02 -0.50405186468E-01 -0.31947677839E+02  0.48543058583E+02  0.00000000000E+00 0. -1.
</event>
<event>
 7    1  0.5452757E-006  0.5422776E+02  0.7818608E-02  0.1435252E+00
          2   -1    0    0  502    0  0.00000000000E+00  0.00000000000E+00  0.67688376442E+03  0.67688376442E+03  0.00000000000E+00 0. -1.
          1   -1    0    0  501    0 -0.00000000000E+00 -0.00000000000E+00 -0.84325165047E+03  0.84325165047E+03  0.00000000000E+00 0. -1.
         25    2    1    2    0    0 -0.26256744448E+02  0.67250144810E+02  0.35911384024E+03  0.38703796295E+03  0.12499454351E+03 0.  0.
          2    1    1    2  501    0 -0.20448926743E+02 -0.50229013418E+02 -0.82636132897E+03  0.82813897288E+03  0.00000000000E+00 0. -1.
          1    1    1    2  502    0  0.46705671191E+02 -0.17021131392E+02  0.30087960268E+03  0.30495847905E+03  0.00000000000E+00 0. -1.
         22    1    3    3    0    0 -0.22962395691E+02  0.95962768482E+02  0.33552342783E+03  0.34973146151E+03  0.00000000000E+00 0. -1.
         22    1    3    3    0    0 -0.32943487572E+01 -0.28712623672E+02  0.23590412414E+02  0.37306501440E+02  0.00000000000E+00 0. -1.
</event>
<event>
 7    1  0.6382500E-006  0.7849028E+02  0.7818608E-02  0.1397460E+00
          2   -1    0    0  502    0  0.00000000000E+00  0.00000000000E+00  0.20809813601E+04  0.20809813601E+04  0.00000000000E+00 0. -1.
          1   -1    0    0  501    0 -0.00000000000E+00 -0.00000000000E+00 -0.35508618399E+03  0.35508618399E+03  0.00000000000E+00 0. -1.
         25    2    1    2    0    0 -0.11492618492E+03  0.22861854533E+02 -0.20417093692E+03  0.26653579926E+03  0.12499947372E+03 0.  0.
          2    1    1    2  501    0  0.44519936213E+02  0.11580309691E+02 -0.11453560757E+03  0.12342825322E+03  0.00000000000E+00 0. -1.
          1    1    1    2  502    0  0.70406248709E+02 -0.34442164224E+02  0.20446017206E+04  0.20461034916E+04  0.00000000000E+00 0. -1.
         22    1    3    3    0    0 -0.62069398487E+02  0.71430533980E+02 -0.14673644508E+03  0.17460388234E+03  0.00000000000E+00 0.  1.
         22    1    3    3    0    0 -0.52856786434E+02 -0.48568679447E+02 -0.57434491837E+02  0.91931916917E+02  0.00000000000E+00 0.  1.
</event>
<event>
 7    1  0.5452757E-006  0.3521851E+02  0.7818608E-02  0.1551373E+00
          2   -1    0    0  502    0  0.00000000000E+00  0.00000000000E+00  0.35669346013E+03  0.35669346013E+03  0.00000000000E+00 0. -1.
          1   -1    0    0  501    0 -0.00000000000E+00 -0.00000000000E+00 -0.28762586784E+03  0.28762586784E+03  0.00000000000E+00 0. -1.
         25    2    1    2    0    0 -0.15823776901E+02 -0.18503120547E+02  0.11339913894E+03  0.17052027400E+03  0.12500016698E+03 0.  0.
          2    1    1    2  501    0  0.30768475869E+02 -0.14859828822E+02 -0.25636762456E+03  0.25863463137E+03  0.00000000000E+00 0. -1.
          1    1    1    2  502    0 -0.14944698967E+02  0.33362949369E+02  0.21203607791E+03  0.21516442261E+03  0.00000000000E+00 0. -1.
         22    1    3    3    0    0 -0.36219585084E+02  0.42500167802E+02  0.24962699067E+02  0.61165831570E+02  0.00000000000E+00 0. -1.
         22    1    3    3    0    0  0.20395808183E+02 -0.61003288349E+02  0.88436439876E+02  0.10935444243E+03  0.00000000000E+00 0. -1.
</event>
<event>
 7    1  0.5452757E-006  0.1845986E+03  0.7818608E-02  0.1241699E+00
          2   -1    0    0  502    0  0.00000000000E+00  0.00000000000E+00  0.94843210760E+03  0.94843210760E+03  0.00000000000E+00 0. -1.
          1   -1    0    0  501    0 -0.00000000000E+00 -0.00000000000E+00 -0.30350908917E+03  0.30350908917E+03  0.00000000000E+00 0. -1.
         25    2    1    2    0    0 -0.12577955573E+03  0.21346320616E+01  0.47487342019E+03  0.50690614053E+03  0.12499606719E+03 0.  0.
          2    1    1    2  501    0  0.18055100642E+03  0.54959508330E+02 -0.25244591537E+03  0.31519542138E+03  0.00000000000E+00 0. -1.
          1    1    1    2  502    0 -0.54771450688E+02 -0.57094140391E+02  0.42249551361E+03  0.42983963486E+03  0.00000000000E+00 0. -1.
         22    1    3    3    0    0 -0.81902689382E+02 -0.58627425931E+02  0.23731750488E+03  0.25780772627E+03  0.00000000000E+00 0.  1.
         22    1    3    3    0    0 -0.43876866347E+02  0.60762057993E+02  0.23755591531E+03  0.24909841426E+03  0.00000000000E+00 0.  1.
</event>
<event>
 7    1  0.5452757E-006  0.1211510E+03  0.7818608E-02  0.1372299E+00
          2   -1    0    0  502    0  0.00000000000E+00  0.00000000000E+00  0.17427555212E+04  0.17427555212E+04  0.00000000000E+00 0. -1.
          1   -1    0    0  501    0 -0.00000000000E+00 -0.00000000000E+00 -0.19664383603E+04  0.19664383603E+04  0.00000000000E+00 0. -1.
         25    2    1    2    0    0 -0.12402407997E+03 -0.15818067529E+02  0.34629907848E+03  0.38881930990E+03  0.12500088130E+03 0.  0.
          2    1    1    2  501    0  0.13446108040E+02 -0.33973033410E+02 -0.19423325477E+04  0.19426761672E+04  0.00000000000E+00 0. -1.
          1    1    1    2  502    0  0.11057797193E+03  0.49791100939E+02  0.13723506301E+04  0.13776984044E+04  0.00000000000E+00 0. -1.
         22    1    3    3    0    0  0.19420329410E+02  0.16158620839E+01  0.11096282888E+03  0.11266103850E+03  0.00000000000E+00 0. -1.
         22    1    3    3    0    0 -0.14344440938E+03 -0.17433929613E+02  0.23533624960E+03  0.27615827140E+03  0.00000000000E+00 0. -1.
</event>
<event>
 7    1  0.8842810E-006  0.1127108E+03  0.7818608E-02  0.1296015E+00
          2   -1    0    0  502    0  0.00000000000E+00  0.00000000000E+00  0.16230749591E+04  0.16230749591E+04  0.00000000000E+00 0. -1.
          1   -1    0    0  501    0 -0.00000000000E+00 -0.00000000000E+00 -0.20848491954E+04  0.20848491954E+04  0.00000000000E+00 0. -1.
         25    2    1    2    0    0 -0.65168266037E+01  0.18805511461E+03 -0.35703350253E+03  0.42249989823E+03  0.12500418757E+03 0.  0.
          2    1    1    2  501    0 -0.53636538105E+01 -0.76356135444E+02 -0.16922327755E+04  0.16939630440E+04  0.00000000000E+00 0. -1.
          1    1    1    2  502    0  0.11880480414E+02 -0.11169897917E+03  0.15874920416E+04  0.15914612122E+04  0.00000000000E+00 0. -1.
         22    1    3    3    0    0  0.27813197377E+02 -0.54876597571E+01 -0.32972180013E+02  0.43483939711E+02  0.00000000000E+00 0. -1.
         22    1    3    3    0    0 -0.34330023981E+02  0.19354277437E+03 -0.32406132252E+03  0.37901595851E+03  0.00000000000E+00 0. -1.
</event>
<event>
 7    1  0.5452757E-006  0.8714427E+02  0.7818608E-02  0.1350590E+00
          2   -1    0    0  502    0  0.00000000000E+00  0.00000000000E+00  0.19944179582E+04  0.19944179582E+04  0.00000000000E+00 0. -1.
          1   -1    0    0  501    0 -0.00000000000E+00 -0.00000000000E+00 -0.17853734904E+03  0.17853734904E+03  0.00000000000E+00 0. -1.
         25    2    1    2    0    0 -0.11218716485E+03 -0.44726934254E+02  0.44914102413E+03  0.48160551550E+03  0.12501901617E+03 0.  0.
          2    1    1    2  501    0  0.86044205945E+02 -0.10317404890E+02 -0.15008175334E+03  0.17330489580E+03  0.00000000000E+00 0. -1.
          1    1    1    2  502    0  0.26142958901E+02  0.55044339145E+02  0.15168213384E+04  0.15180448959E+04  0.00000000000E+00 0. -1.
         22    1    3    3    0    0 -0.13595341643E+03 -0.54845977019E+02  0.40125846972E+03  0.42719992059E+03  0.00000000000E+00 0.  1.
         22    1    3    3    0    0  0.23766251582E+02  0.10119042765E+02  0.47882554407E+02  0.54405594908E+02  0.00000000000E+00 0.  1.
</event>
<event>
 7    1  0.5452757E-006  0.4615404E+02  0.7818608E-02  0.1555548E+00
          2   -1    0    0  502    0  0.00000000000E+00  0.00000000000E+00  0.10224880973E+04  0.10224880973E+04  0.00000000000E+00 0. -1.
          1   -1    0    0  501    0 -0.00000000000E+00 -0.00000000000E+00 -0.13509137366E+04  0.13509137366E+04  0.00000000000E+00 0. -1.
         25    2    1    2    0    0 -0.14141136847E+01  0.30507016625E+02 -0.11395186757E+04  0.11467604999E+04  0.12499661565E+03 0.  0.
          2    1    1    2  501    0  0.23266171465E+02  0.10156558505E+02 -0.20647345160E+03  0.20802825921E+03  0.00000000000E+00 0. -1.
          1    1    1    2  502    0 -0.21852057780E+02 -0.40663575130E+02  0.10175664880E+04  0.10186130749E+04  0.00000000000E+00 0. -1.
         22    1    3    3    0    0 -0.21775524146E+02  0.72797150551E+02 -0.52748100148E+03  0.53292570355E+03  0.00000000000E+00 0. -1.
         22    1    3    3    0    0  0.20361410461E+02 -0.42290133926E+02 -0.61203767425E+03  0.61383479632E+03  0.00000000000E+00 0. -1.
</event>
<event>
 7    1  0.5452757E-006  0.4666058E+02  0.7818608E-02  0.1491626E+00
          2   -1    0    0  502    0  0.00000000000E+00  0.00000000000E+00  0.46801484102E+03  0.46801484102E+03  0.00000000000E+00 0. -1.
          1   -1    0    0  501    0 -0.00000000000E+00 -0.00000000000E+00 -0.59298812217E+02  0.59298812217E+02  0.00000000000E+00 0. -1.
         25    2    1    2    0    0  0.65244773869E+01 -0.82740331643E+02  0.38511271218E+03  0.41330959391E+03  0.12499795217E+03 0.  0.
          2    1    1    2  501    0 -0.96172885484E+01  0.44434889513E+02 -0.25125534534E+02  0.51944625619E+02  0.00000000000E+00 0. -1.
          1    1    1    2  502    0  0.30928111615E+01  0.38305442130E+02  0.48728851157E+02  0.62059433713E+02  0.00000000000E+00 0. -1.
         22    1    3    3    0    0 -0.54620766037E+02 -0.19915152379E+02  0.20353821014E+03  0.21167863464E+03  0.00000000000E+00 0.  1.
         22    1    3    3    0    0  0.61145243424E+02 -0.62825179263E+02  0.18157450204E+03  0.20163095926E+03  0.00000000000E+00 0.  1.
</event>
<event>
 7    1  0.5452757E-006  0.5654137E+02  0.7818608E-02  0.1444230E+00
          2   -1    0    0  502    0  0.00000000000E+00  0.00000000000E+00  0.18620001756E+04  0.18620001756E+04  0.00000000000E+00 0. -1.
          1   -1    0    0  501    0 -0.00000000000E+00 -0.00000000000E+00 -0.60421291358E+02  0.60421291358E+02  0.00000000000E+00 0. -1.
         25    2    1    2    0    0  0.50640280589E+02  0.43838875720E+02  0.62510561891E+03  0.64099076102E+03  0.12500334345E+03 0.  0.
          2    1    1    2  501    0 -0.56680479583E+02  0.33180773428E+00 -0.36643723060E+02  0.67494809443E+02  0.00000000000E+00 0. -1.
          1    1    1    2  502    0  0.60401989933E+01 -0.44170683454E+02  0.12131169884E+04  0.12139358965E+04  0.00000000000E+00 0. -1.
         22    1    3    3    0    0  0.47885482257E+02  0.48271725077E+02  0.63010533746E+03  0.63376329584E+03  0.00000000000E+00 0. -1.
         22    1    3    3    0    0  0.27547983322E+01 -0.44328493567E+01 -0.49997185539E+01  0.72274651772E+01  0.00000000000E+00 0. -1.
</event>
<event>
 7    1  0.5452757E-006  0.1070626E+03  0.7818608E-02  0.1336379E+00
          2   -1    0    0  502    0  0.00000000000E+00  0.00000000000E+00  0.42253502695E+03  0.42253502695E+03  0.00000000000E+00 0. -1.
          1   -1    0    0  501    0 -0.00000000000E+00 -0.00000000000E+00 -0.22856054636E+04  0.22856054636E+04  0.00000000000E+00 0. -1.
         25    2    1    2    0    0 -0.80796885976E+02 -0.82151867961E+02 -0.50799826543E+03  0.53569158630E+03  0.12500468695E+03 0.  0.
          2    1    1    2  501    0  0.10313127364E+03  0.30731063518E+02 -0.17601869661E+04  0.17634734513E+04  0.00000000000E+00 0. -1.
          1    1    1    2  502    0 -0.22334387665E+02  0.51420804443E+02  0.40511479493E+03  0.40897545289E+03  0.00000000000E+00 0. -1.
         22    1    3    3    0    0 -0.62440411478E+02 -0.94966830214E+01 -0.83856063253E+02  0.10498014726E+03  0.00000000000E+00 0.  1.
         22    1    3    3    0    0 -0.18356474498E+02 -0.72655184940E+02 -0.42414220217E+03  0.43071143904E+03  0.00000000000E+00 0.  1.
</event>
<event>
 7    1  0.5452757E-006  0.1918055E+03  0.7818608E-02  0.1300414E+00
          2   -1    0    0  502    0  0.00000000000E+00  0.00000000000E+00  0.32318642076E+04  0.32318642076E+04  0.00000000000E+00 0. -1.
          1   -1    0    0  501    0 -0.00000000000E+00 -0.00000000000E+00 -0.12944126224E+03  0.12944126224E+03  0.00000000000E+00 0. -1.
         25    2    1    2    0    0 -0.73385355203E+02 -0.20565341304E+03  0.10580900447E+04  0.10875927742E+04  0.12499905249E+03 0.  0.
          2    1    1    2  501    0  0.91615585720E+02  0.16650236512E+03 -0.35585247619E+02  0.19334622568E+03  0.00000000000E+00 0. -1.
          1    1    1    2  502    0 -0.18230230517E+02  0.39151047921E+02  0.20799181483E+04  0.20803664700E+04  0.00000000000E+00 0. -1.
         22    1    3    3    0    0 -0.15841454845E+02 -0.68604803884E+02  0.13156891489E+03  0.14922449589E+03  0.00000000000E+00 0. -1.
         22    1    3    3    0    0 -0.57543900359E+02 -0.13704860916E+03  0.92652112983E+03  0.93836827832E+03  0.00000000000E+00 0. -1.
</event>
<event>
 7    1  0.5452757E-006  0.9051226E+02  0.7818608E-02  0.1395130E+00
          2   -1    0    0  502    0  0.00000000000E+00  0.00000000000E+00  0.28619182908E+04  0.28619182908E+04  0.00000000000E+00 0. -1.
          1   -1    0    0  501    0 -0.00000000000E+00 -0.00000000000E+00 -0.82180081316E+03  0.82180081316E+03  0.00000000000E+00 0. -1.
         25    2    1    2    0    0  0.51292521305E+02 -0.91840024268E+02  0.85899244811E+02  0.18457881717E+03  0.12500058676E+03 0.  0.
          2    1    1    2  501    0 -0.40585328945E+02  0.20686930951E+01 -0.77117648063E+03  0.77224647147E+03  0.00000000000E+00 0. -1.
          1    1    1    2  502    0 -0.10707192360E+02  0.89771331173E+02  0.27253947134E+04  0.27268938153E+04  0.00000000000E+00 0. -1.
         22    1    3    3    0    0  0.88136884516E+02 -0.33524266574E+02  0.46484967627E+02  0.10513248345E+03  0.00000000000E+00 0.  1.
         22    1    3    3    0    0 -0.36844363210E+02 -0.58315757694E+02  0.39414277185E+02  0.79446333721E+02  0.00000000000E+00 0.  1.
</event>
<event>
 7    1  0.5452757E-006  0.1472976E+03  0.7818608E-02  0.1273456E+00
          2   -1    0    0  502    0  0.00000000000E+00  0.00000000000E+00  0.81038525397E+03  0.81038525397E+03  0.00000000000E+00 0. -1.
          1   -1    0    0  501    0 -0.00000000000E+00 -0.00000000000E+00 -0.48175197920E+03  0.48175197920E+03  0.00000000000E+00 0. -1.
         25    2    1    2    0    0 -0.22083384058E+02 -0.17473199080E+03 -0.88052868419E+01  0.21616970872E+03  0.12503145776E+03 0.  0.
          2    1    1    2  501    0 -0.41056674987E+02  0.13914295317E+03 -0.35304523134E+03  0.38169011953E+03  0.00000000000E+00 0. -1.
          1    1    1    2  502    0  0.63140059046E+02  0.35589037629E+02  0.69048379295E+03  0.69427740492E+03  0.00000000000E+00 0. -1.
         22    1    3    3    0    0 -0.35473299730E+02 -0.12964310397E+03 -0.59523105673E+02  0.14699894391E+03  0.00000000000E+00 0. -1.
         22    1    3    3    0    0  0.13389915672E+02 -0.45088886828E+02  0.50717818831E+02  0.69170764808E+02  0.00000000000E+00 0. -1.
</event>
<event>
 7    1  0.5452757E-006  0.3777732E+02  0.7818608E-02  0.1583970E+00
          2   -1    0    0  502    0  0.00000000000E+00  0.00000000000E+00  0.79340005634E+02  0.79340005634E+02  0.00000000000E+00 0. -1.
          1   -1    0    0  501    0 -0.00000000000E+00 -0.00000000000E+00 -0.91349389851E+03  0.91349389851E+03  0.00000000000E+00 0. -1.
         25    2    1    2    0    0  0.21744019039E+02  0.26319386180E+01 -0.33765257208E+03  0.36071353454E+03  0.12500106040E+03 0.  0.
          2    1    1    2  501    0  0.97684754343E+01 -0.24053845576E+02 -0.55863247665E+03  0.55923541963E+03  0.00000000000E+00 0. -1.
          1    1    1    2  502    0 -0.31512494473E+02  0.21421906958E+02  0.62131155854E+02  0.72884949978E+02  0.00000000000E+00 0. -1.
         22    1    3    3    0    0  0.36125700111E+02  0.96723912017E+01 -0.34206570326E+03  0.34410400565E+03  0.00000000000E+00 0. -1.
         22    1    3    3    0    0 -0.14381681073E+02 -0.70404525837E+01  0.44131311776E+01  0.16609528887E+02  0.00000000000E+00 0. -1.
</event>
<event>
 7    1  0.5452757E-006  0.8139838E+02  0.7818608E-02  0.1345023E+00
          2   -1    0    0  502    0  0.00000000000E+00  0.00000000000E+00  0.12008305912E+04  0.12008305912E+04  0.00000000000E+00 0. -1.
          1   -1    0    0  501    0 -0.00000000000E+00 -0.00000000000E+00 -0.81817315012E+03  0.81817315012E+03  0.00000000000E+00 0. -1.
         25    2    1    2    0    0 -0.54783553049E+02  0.38074122214E+02  0.59651863835E+03  0.61311615495E+03  0.12500422834E+03 0.  0.
          2    1    1    2  501    0  0.19221787870E+01 -0.81518537839E+02 -0.80584633998E+03  0.80996128947E+03  0.00000000000E+00 0. -1.
          1    1    1    2  502    0  0.52861374262E+02  0.43444415625E+02  0.59198514267E+03  0.59592629686E+03  0.00000000000E+00 0. -1.
         22    1    3    3    0    0 -0.47554415881E+02  0.16684698306E+02  0.70755954180E+02  0.86868905135E+02  0.00000000000E+00 0.  1.
         22    1    3    3    0    0 -0.72291371680E+01  0.21389423908E+02  0.52576268417E+03  0.52624724982E+03  0.00000000000E+00 0.  1.
</event>
<event>
 7    1  0.5452757E-006  0.3895529E+02  0.7818608E-02  0.1556840E+00
          2   -1    0    0  502    0  0.00000000000E+00  0.00000000000E+00  0.17714756276E+04  0.17714756276E+04  0.00000000000E+00 0. -1.
          1   -1    0    0  501    0 -0.00000000000E+00 -0.00000000000E+00 -0.11823695716E+04  0.11823695716E+04  0.00000000000E+00 0. -1.
         25    2    1    2    0    0  0.60137856195E+01 -0.32658010363E+02  0.73577711417E+01  0.12955131848E+03  0.12500678408E+03 0.  0.
          2    1    1    2  501    0  0.23769293447E+02  0.30967566430E+02 -0.11208023127E+04  0.11214819631E+04  0.00000000000E+00 0. -1.
          1    1    1    2  502    0 -0.29783079066E+02  0.16904439330E+01  0.17025505976E+04  0.17028119176E+04  0.00000000000E+00 0. -1.
         22    1    3    3    0    0  0.49188412692E+02 -0.32350369341E+02  0.43536065729E+02  0.73221822968E+02  0.00000000000E+00 0.  1.
         22    1    3    3    0    0 -0.43174627072E+02 -0.30764102150E+00 -0.36178294587E+02  0.56329495516E+02  0.00000000000E+00 0.  1.
</event>
<event>
 7    1  0.5452757E-006  0.4887940E+02  0.7818608E-02  0.1511284E+00
          2   -1    0    0  502    0  0.00000000000E+00  0.00000000000E+00  0.21496844417E+03  0.21496844417E+03  0.00000000000E+00 0. -1.
          1   -1    0    0  501    0 -0.00000000000E+00 -0.00000000000E+00 -0.94222590406E+03  0.94222590406E+03  0.00000000000E+00 0. -1.
         25    2    1    2    0    0 -0.78351526239E+02 -0.17250696839E+02 -0.26975465238E+03  0.30794235014E+03  0.12499748125E+03 0.  0.
          2    1    1    2  501    0  0.31910408204E+02  0.30807426245E+01 -0.64996722383E+03  0.65075737197E+03  0.00000000000E+00 0. -1.
          1    1    1    2  502    0  0.46441118034E+02  0.14169954215E+02  0.19246441633E+03  0.19849462612E+03  0.00000000000E+00 0. -1.
         22    1    3    3    0    0 -0.69989797477E+02  0.45467520093E+02 -0.12935007929E+03  0.15393930670E+03  0.00000000000E+00 0.  1.
         22    1    3    3    0    0 -0.83617287612E+01 -0.62718216932E+02 -0.14040457309E+03  0.15400304344E+03  0.00000000000E+00 0.  1.
</event>
<event>
 7    1  0.5452757E-006  0.7594334E+02  0.7818608E-02  0.1423490E+00
          2   -1    0    0  502    0  0.00000000000E+00  0.00000000000E+00  0.13174068262E+04  0.13174068262E+04  0.00000000000E+00 0. -1.
          1   -1    0    0  501    0 -0.00000000000E+00 -0.00000000000E+00 -0.49588767682E+03  0.49588767682E+03  0.00000000000E+00 0. -1.
         25    2    1    2    0    0 -0.31973496998E+02  0.10809266775E+03  0.18557548133E+03  0.25054100038E+03  0.12500481699E+03 0.  0.
          2    1    1    2  501    0  0.16239538482E+02 -0.35248660400E+02 -0.46132621421E+03  0.46295579334E+03  0.00000000000E+00 0. -1.
          1    1    1    2  502    0  0.15733958516E+02 -0.72844007352E+02  0.10972698822E+04  0.10997977093E+04  0.00000000000E+00 0. -1.
         22    1    3    3    0    0 -0.51756238550E+01  0.12682658716E+03  0.17497906292E+03  0.21616993952E+03  0.00000000000E+00 0. -1.
         22    1    3    3    0    0 -0.26797873143E+02 -0.18733919410E+02  0.10596418409E+02  0.34371060858E+02  0.00000000000E+00 0. -1.
</event>
<event>
 7    1  0.5452757E-006  0.6675403E+02  0.7818608E-02  0.1382530E+00
          2   -1    0    0  502    0  0.00000000000E+00  0.00000000000E+00  0.29840034731E+03  0.29840034731E+03  0.00000000000E+00 0. -1.
          1   -1    0    0  501    0 -0.00000000000E+00 -0.00000000000E+00 -0.17484187173E+04  0.17484187173E+04  0.00000000000E+00 0. -1.
         25    2    1    2    0    0 -0.32264103001E+01  0.10659354645E+02 -0.18748847798E+02  0.12686098152E+03  0.12497262810E+03 0.  0.
          2    1    1    2  501    0 -0.37139269888E+02 -0.56370965079E+02 -0.16711166876E+04  0.16724795947E+04  0.00000000000E+00 0. -1.
          1    1    1    2  502    0  0.40365680188E+02  0.45711610434E+02  0.23984716541E+03  0.24747848840E+03  0.00000000000E+00 0. -1.
         22    1    3    3    0    0  0.18491924707E+02  0.39635294546E+02  0.39064919479E+02  0.58642781201E+02  0.00000000000E+00 0. -1.
         22    1    3    3    0    0 -0.21718335007E+02 -0.28975939901E+02 -0.57813767277E+02  0.68218200323E+02  0.00000000000E+00 0. -1.
</event>
<event>
 7    1  0.5452757E-006  0.2097656E+03  0.7818608E-02  0.1216228E+00
          2   -1    0    0  502    0  0.00000000000E+00  0.00000000000E+00  0.18880232258E+04  0.18880232258E+04  0.00000000000E+00 0. -1.
          1   -1    0    0  501    0 -0.00000000000E+00 -0.00000000000E+00 -0.25114378740E+04  0.25114378740E+04  0.00000000000E+00 0. -1.
         25    2    1    2    0    0  0.21039509764E+03  0.67890551832E+02  0.42294728871E+03  0.49334069265E+03  0.12500162342E+03 0.  0.
          2    1    1    2  501    0 -0.20860913123E+03  0.22704075485E+02 -0.24703529958E+04  0.24792493155E+04  0.00000000000E+00 0. -1.
          1    1    1    2  502    0 -0.17859664091E+01 -0.90594627317E+02  0.14239910589E+04  0.14268710916E+04  0.00000000000E+00 0. -1.
         22    1    3    3    0    0  0.92026230139E+02 -0.79382745165E+01  0.27114699538E+03  0.28644813901E+03  0.00000000000E+00 0. -1.
         22    1    3    3    0    0  0.11836886750E+03  0.75828826349E+02  0.15180029333E+03  0.20689255365E+03  0.00000000000E+00 0. -1.
</event>
<event>
 7    1  0.5452757E-006  0.1624293E+03  0.7818608E-02  0.1240207E+00
          2   -1    0    0  502    0  0.00000000000E+00  0.00000000000E+00  0.57919622128E+03  0.57919622128E+03  0.00000000000E+00 0. -1.
          1   -1    0    0  501    0 -0.00000000000E+00 -0.00000000000E+00 -0.60587591981E+03  0.60587591981E+03  0.00000000000E+00 0. -1.
         25    2    1    2    0    0 -0.11582379123E+03  0.34499446077E+02  0.19513633376E+03  0.26135520327E+03  0.12499196427E+03 0.  0.
          2    1    1    2  501    0 -0.55156660962E+02  0.72739567841E+02 -0.53959505274E+03  0.54726238946E+03  0.00000000000E+00 0. -1.
          1    1    1    2  502    0  0.17098045219E+03 -0.10723901392E+03  0.31777902045E+03  0.37645454835E+03  0.00000000000E+00 0. -1.
         22    1    3    3    0    0 -0.49353655489E+02  0.69463765688E+02  0.15328256808E+03  0.17537543651E+03  0.00000000000E+00 0. -1.
         22    1    3    3    0    0 -0.66470135742E+02 -0.34964319611E+02  0.41853765678E+02  0.85979766764E+02  0.00000000000E+00 0. -1.
</event>
<event>
 7    1  0.5452757E-006  0.1574123E+03  0.7818608E-02  0.1315595E+00
          2   -1    0    0  502    0  0.00000000000E+00  0.00000000000E+00  0.66698069374E+03  0.66698069374E+03  0.00000000000E+00 0. -1.
          1   -1    0    0  501    0 -0.00000000000E+00 -0.00000000000E+00 -0.73712891592E+03  0.73712891592E+03  0.00000000000E+00 0. -1.
         25    2    1    2    0    0 -0.35747168511E+02 -0.15667802974E+03  0.79034898251E+02  0.21840559572E+03  0.12501449532E+03 0.  0.
          2    1    1    2  501    0  0.45824355560E+02 -0.81972804132E+00 -0.65460897415E+03  0.65621143891E+03  0.00000000000E+00 0. -1.
          1    1    1    2  502    0 -0.10077187049E+02  0.15749775778E+03  0.50542585372E+03  0.52949257503E+03  0.00000000000E+00 0. -1.
         22    1    3    3    0    0 -0.47094498920E+02 -0.14855122911E+02  0.55340999362E+02  0.74170025722E+02  0.00000000000E+00 0.  1.
         22    1    3    3    0    0  0.11347330409E+02 -0.14182290683E+03  0.23693898889E+02  0.14423557000E+03  0.00000000000E+00 0.  1.
</event>
<event>
 7    1  0.5452757E-006  0.3405943E+02  0.7818608E-02  0.1582160E+00
          2   -1    0    0  502    0  0.00000000000E+00  0.00000000000E+00  0.16654547269E+03  0.16654547269E+03  0.00000000000E+00 0. -1.
          1   -1    0    0  501    0 -0.00000000000E+00 -0.00000000000E+00 -0.32381794620E+03  0.32381794620E+03  0.00000000000E+00 0. -1.
         25    2    1    2    0    0  0.26376459739E+02  0.44483092902E+02 -0.14057431886E+03  0.19509078211E+03  0.12499924384E+03 0.  0.
          2    1    1    2  501    0  0.52933729412E+00 -0.33350487642E+02 -0.15264280977E+03  0.15624456022E+03  0.00000000000E+00 0. -1.
          1    1    1    2  502    0 -0.26905797033E+02 -0.11132605260E+02  0.13594465512E+03  0.13902807655E+03  0.00000000000E+00 0. -1.
         22    1    3    3    0    0 -0.11291205825E+02  0.79514429041E+02 -0.63291135844E+02  0.10225362405E+03  0.00000000000E+00 0.  1.
         22    1    3    3    0    0  0.37667665564E+02 -0.35031336138E+02 -0.77283183015E+02  0.92837158065E+02  0.00000000000E+00 0.  1.
</event>
<event>
 7    1  0.5452757E-006  0.2335954E+03  0.7818608E-02  0.1179138E+00
          2   -1    0    0  502    0  0.00000000000E+00  0.00000000000E+00  0.25348540573E+04  0.25348540573E+04  0.00000000000E+00 0. -1.
          1   -1    0    0  501    0 -0.00000000000E+00 -0.00000000000E+00 -0.76678672617E+03  0.76678672617E+03  0.00000000000E+00 0. -1.
         25    2    1    2    0    0  0.81086967054E+02  0.29598891447E+03  0.15527012636E+04  0.15876685836E+04  0.12500313498E+03 0.  0.
          2    1    1    2  501    0 -0.66078629262E+02 -0.10247480674E+03 -0.73446248150E+03  0.74451501529E+03  0.00000000000E+00 0. -1.
          1    1    1    2  502    0 -0.15008337793E+02 -0.19351410772E+03  0.94982854903E+03  0.96945718454E+03  0.00000000000E+00 0. -1.
         22    1    3    3    0    0  0.46629899973E+02  0.25719331664E+02  0.16195253809E+03  0.17048300849E+03  0.00000000000E+00 0. -1.
         22    1    3    3    0    0  0.34457067081E+02  0.27026958280E+03  0.13907487255E+04  0.14171855751E+04  0.00000000000E+00 0. -1.
</event>
<event>
 7    1  0.7552842E-006  0.1664449E+03  0.7818608E-02  0.1215882E+00
          2   -1    0    0  502    0  0.00000000000E+00  0.00000000000E+00  0.13389863775E+04  0.13389863775E+04  0.00000000000E+00 0. -1.
          1   -1    0    0  501    0 -0.00000000000E+00 -0.00000000000E+00 -0.90791934242E+03  0.90791934242E+03  0.00000000000E+00 0. -1.
         25    2    1    2    0    0  0.36816061743E+02 -0.56967733123E+02 -0.24463730041E+03  0.28297424038E+03  0.12500506769E+03 0.  0.
          2    1    1    2  501    0  0.11264584965E+03 -0.21151376020E+02 -0.63356328231E+03  0.64384695452E+03  0.00000000000E+00 0. -1.
          1    1    1    2  502    0 -0.14946191139E+03  0.78119109143E+02  0.13092676179E+04  0.13200845251E+04  0.00000000000E+00 0. -1.
         22    1    3    3    0    0  0.71274091205E+02 -0.12784399455E+02 -0.74692519819E+02  0.10403081016E+03  0.00000000000E+00 0.  1.
         22    1    3    3    0    0 -0.34458029461E+02 -0.44183333668E+02 -0.16994478059E+03  0.17894343022E+03  0.00000000000E+00 0.  1.
</event>
<event>
 7    1  0.5452757E-006  0.5556217E+02  0.7818608E-02  0.1451170E+00
          2   -1    0    0  502    0  0.00000000000E+00  0.00000000000E+00  0.52258828853E+03  0.52258828853E+03  0.00000000000E+00 0. -1.
          1   -1    0    0  501    0 -0.00000000000E+00 -0.00000000000E+00 -0.83900503365E+03  0.83900503365E+03  0.00000000000E+00 0. -1.
         25    2    1    2    0    0  0.28452613789E+02  0.21204777381E+02 -0.22528746037E+03  0.26007419118E+03  0.12499980522E+03 0.  0.
          2    1    1    2  501    0 -0.57215970445E+01 -0.57821971643E+02 -0.59398483489E+03  0.59681999058E+03  0.00000000000E+00 0. -1.
          1    1    1    2  502    0 -0.22731016744E+02  0.36617194262E+02  0.50285555013E+03  0.50469914041E+03  0.00000000000E+00 0. -1.
         22    1    3    3    0    0  0.41979060387E+02  0.90244407348E+01 -0.23537779178E+03  0.23926217190E+03  0.00000000000E+00 0.  1.
         22    1    3    3    0    0 -0.13526446599E+02  0.12180336646E+02  0.10090331412E+02  0.20812019277E+02  0.00000000000E+00 0.  1.
</event>
<event>
 7    1  0.5452757E-006  0.9917720E+02  0.7818608E-02  0.1419962E+00
          2   -1    0    0  502    0  0.00000000000E+00  0.00000000000E+00  0.14956039465E+04  0.14956039465E+04  0.00000000000E+00 0. -1.
          1   -1    0    0  501    0 -0.00000000000E+00 -0.00000000000E+00 -0.87301148631E+02  0.87301148631E+02  0.00000000000E+00 0. -1.
         25    2    1    2    0    0 -0.25123647235E+02 -0.66882570140E+02  0.11014295881E+03  0.18127701450E+03  0.12500163508E+03 0.  0.
          2    1    1    2  501    0 -0.19911907756E+02 -0.23147058464E+02 -0.45175573770E+02  0.54526166667E+02  0.00000000000E+00 0. -1.
          1    1    1    2  502    0  0.45035554991E+02  0.90029628604E+02  0.13433354128E+04  0.13471019139E+04  0.00000000000E+00 0. -1.
         22    1    3    3    0    0  0.33579333862E+01 -0.21464620297E+02  0.12401344173E+03  0.12590210233E+03  0.00000000000E+00 0.  1.
         22    1    3    3    0    0 -0.28481580621E+02 -0.45417949843E+02 -0.13870482913E+02  0.55374912179E+02  0.00000000000E+00 0.  1.
</event>
<event>
 7    1  0.5452757E-006  0.8570903E+02  0.7818608E-02  0.1366987E+00
          2   -1    0    0  502    0  0.00000000000E+00  0.00000000000E+00  0.23230330978E+03  0.23230330978E+03  0.00000000000E+00 0. -1.
          1   -1    0    0  501    0 -0.00000000000E+00 -0.00000000000E+00 -0.21170412886E+04  0.21170412886E+04  0.00000000000E+00 0. -1.
         25    2    1    2    0    0 -0.78904576471E+02 -0.34151220676E+02 -0.12595272065E+03  0.19718034703E+03  0.12499505331E+03 0.  0.
          2    1    1    2  501    0  0.35376188688E+02 -0.40757227884E+02 -0.19455419593E+04  0.19462903540E+04  0.00000000000E+00 0. -1.
          1    1    1    2  502    0  0.43528387783E+02  0.74908448560E+02  0.18675670115E+03  0.20587389741E+03  0.00000000000E+00 0. -1.
         22    1    3    3    0    0 -0.86516094137E+02 -0.53419984028E+02 -0.40827252196E+02  0.10957004043E+03  0.00000000000E+00 0.  1.
         22    1    3    3    0    0  0.76115176666E+01  0.19268763352E+02 -0.85125468454E+02  0.87610306595E+02  0.00000000000E+00 0.  1.
</event>
<event>
 7    1  0.5452757E-006  0.6092498E+02  0.7818608E-02  0.1530822E+00
          2   -1    0    0  502    0  0.00000000000E+00  0.00000000000E+00  0.19087447377E+04  0.19087447377E+04  0.00000000000E+00 0. -1.
          1   -1    0    0  501    0 -0.00000000000E+00 -0.00000000000E+00 -0.14752196643E+03  0.14752196643E+03  0.00000000000E+00 0. -1.
         25    2    1    2    0    0  0.28249165780E+02  0.28375789725E+02  0.48663661772E+03  0.50402755473E+03  0.12500150965E+03 0.  0.
          2    1    1    2  501    0  0.14989305423E+02  0.16879839056E+02 -0.13721079231E+03  0.13905541978E+03  0.00000000000E+00 0. -1.
          1    1    1    2  502    0 -0.43238471203E+02 -0.45255628781E+02  0.14117969459E+04  0.14131837297E+04  0.00000000000E+00 0. -1.
         22    1    3    3    0    0  0.51692627954E+02  0.55136076890E+02  0.43376852738E+03  0.44030358856E+03  0.00000000000E+00 0. -1.
         22    1    3    3    0    0 -0.23443462174E+02 -0.26760287165E+02  0.52868090340E+02  0.63723966167E+02  0.00000000000E+00 0. -1.
</event>
<event>
 7    1  0.5452757E-006  0.2215249E+03  0.7818608E-02  0.1235432E+00
          2   -1    0    0  502    0  0.00000000000E+00  0.00000000000E+00  0.52270502903E+03  0.52270502903E+03  0.00000000000E+00 0. -1.
          1   -1    0    0  501    0 -0.00000000000E+00 -0.00000000000E+00 -0.56473788571E+03  0.56473788571E+03  0.00000000000E+00 0. -1.
         25    2    1    2    0    0 -0.18218742507E+02 -0.21985856861E+03 -0.89388080799E+02  0.26885971128E+03  0.12500241035E+03 0.  0.
          2    1    1    2  501    0  0.87337865283E+02  0.20717814275E+03 -0.34948973354E+03  0.41556438658E+03  0.00000000000E+00 0. -1.
          1    1    1    2  502    0 -0.69119122776E+02  0.12680425859E+02  0.39684495766E+03  0.40301881688E+03  0.00000000000E+00 0. -1.
         22    1    3    3    0    0 -0.65479962628E+02 -0.10999064284E+03 -0.75093141134E+02  0.14840669413E+03  0.00000000000E+00 0.  1.
         22    1    3    3    0    0  0.47261220122E+02 -0.10986792577E+03 -0.14294939665E+02  0.12045301715E+03  0.00000000000E+00 0.  1.
</event>
<event>
 7    1  0.5452757E-006  0.7444067E+02  0.7818608E-02  0.1396504E+00
          2   -1    0    0  502    0  0.00000000000E+00  0.00000000000E+00  0.52281935079E+02  0.52281935079E+02  0.00000000000E+00 0. -1.
          1   -1    0    0  501    0 -0.00000000000E+00 -0.00000000000E+00 -0.23051094504E+04  0.23051094504E+04  0.00000000000E+00 0. -1.
         25    2    1    2    0    0  0.36194169358E+02  0.81381862816E+01 -0.23275048329E+03  0.26678477733E+03  0.12500032789E+03 0.  0.
          2    1    1    2  501    0 -0.54262394117E+02 -0.53549535828E+02 -0.20373458030E+04  0.20387716599E+04  0.00000000000E+00 0. -1.
          1    1    1    2  502    0  0.18068224759E+02  0.45411349546E+02  0.17268770937E+02  0.51834948281E+02  0.00000000000E+00 0. -1.
         22    1    3    3    0    0  0.30840200410E+02  0.12197698085E+02  0.76408252680E+00  0.33173568123E+02  0.00000000000E+00 0.  1.
         22    1    3    3    0    0  0.53539689475E+01 -0.40595118031E+01 -0.23351456582E+03  0.23361120921E+03  0.00000000000E+00 0.  1.
</event>
<event>
 7    1  0.5452757E-006  0.2271581E+02  0.7818608E-02  0.1701590E+00
          2   -1    0    0  502    0  0.00000000000E+00  0.00000000000E+00  0.81809264748E+03  0.81809264748E+03  0.00000000000E+00 0. -1.
          1   -1    0    0  501    0 -0.00000000000E+00 -0.00000000000E+00 -0.14899302931E+03  0.14899302931E+03  0.00000000000E+00 0. -1.
         25    2    1    2    0    0  0.53323633814E+00  0.60652952596E+01 -0.17405365156E+02  0.12636050323E+03  0.12500783133E+03 0.  0.
          2    1    1    2  501    0 -0.22021169232E+02  0.14552817472E+01 -0.75357497347E+02  0.78522621873E+02  0.00000000000E+00 0. -1.
          1    1    1    2  502    0  0.21487932894E+02 -0.75205770068E+01  0.76186248067E+03  0.76220255169E+03  0.00000000000E+00 0. -1.
         22    1    3    3    0    0  0.35478965298E+02 -0.19040334543E+02 -0.55719561615E+02  0.68745624332E+02  0.00000000000E+00 0.  1.
         22    1    3    3    0    0 -0.34945728960E+02  0.25105629803E+02  0.38314196459E+02  0.57614878900E+02  0.00000000000E+00 0.  1.
</event>
<event>
 7    1  0.5452757E-006  0.1494408E+03  0.7818608E-02  0.1346982E+00
          2   -1    0    0  502    0  0.00000000000E+00  0.00000000000E+00  0.31002566585E+04  0.31002566585E+04  0.00000000000E+00 0. -1.
          1   -1    0    0  501    0 -0.00000000000E+00 -0.00000000000E+00 -0.92475379962E+03  0.92475379962E+03  0.00000000000E+00 0. -1.
         25    2    1    2    0    0  0.16728716493E+03  0.23578511765E+02  0.61045187146E+03  0.64561397856E+03  0.12499992074E+03 0.  0.
          2    1    1    2  501    0 -0.14097832691E+03 -0.49091328243E+02 -0.90089438013E+03  0.91317880577E+03  0.00000000000E+00 0. -1.
          1    1    1    2  502    0 -0.26308838018E+02  0.25512816478E+02  0.24659453676E+04  0.24662176738E+04  0.00000000000E+00 0. -1.
         22    1    3    3    0    0  0.78931482530E+02  0.73528742403E+02  0.34233159451E+03  0.35892558490E+03  0.00000000000E+00 0.  1.
         22    1    3    3    0    0  0.88355682397E+02 -0.49950230638E+02  0.26812027694E+03  0.28668839366E+03  0.00000000000E+00 0.  1.
</event>
<event>
 7    1  0.5452757E-006  0.4628406E+02  0.7818608E-02  0.1544147E+00
          2   -1    0    0  502    0  0.00000000000E+00  0.00000000000E+00  0.96662258401E+02  0.96662258401E+02  0.00000000000E+00 0. -1.
          1   -1    0    0  501    0 -0.00000000000E+00 -0.00000000000E+00 -0.24641403106E+04  0.24641403106E+04  0.00000000000E+00 0. -1.
         25    2    1    2    0    0 -0.61300187725E+02 -0.37879507437E+02 -0.64276647406E+03  0.65876113320E+03  0.12499968139E+03 0.  0.
          2    1    1    2  501    0  0.36139556335E+02  0.27444490397E+02 -0.18109935539E+04  0.18115620110E+04  0.00000000000E+00 0. -1.
          1    1    1    2  502    0  0.25160631390E+02  0.10435017040E+02  0.86281975789E+02  0.90479424725E+02  0.00000000000E+00 0. -1.
         22    1    3    3    0    0 -0.72266451305E+02 -0.34020450266E+02 -0.19340672121E+03  0.20925102348E+03  0.00000000000E+00 0.  1.
         22    1    3    3    0    0  0.10966263580E+02 -0.38590571713E+01 -0.44935975285E+03  0.44951010972E+03  0.00000000000E+00 0.  1.
</event>
<event>
 7    1  0.5452757E-006  0.5387649E+02  0.7818608E-02  0.1517428E+00
          2   -1    0    0  502    0  0.00000000000E+00  0.00000000000E+00  0.94728531386E+03  0.94728531386E+03  0.00000000000E+00 0. -1.
          1   -1    0    0  501    0 -0.00000000000E+00 -0.00000000000E+00 -0.33248632102E+02  0.33248632102E+02  0.00000000000E+00 0. -1.
         25    2    1    2    0    0 -0.32234857064E+02  0.10462651133E+01  0.19128511850E+03  0.23077152488E+03  0.12500127781E+03 0.  0.
          2    1    1    2  501    0 -0.19611684855E+02 -0.19852410228E+02  0.31868715873E+01  0.28087230644E+02  0.00000000000E+00 0. -1.
          1    1    1    2  502    0  0.51846541919E+02  0.18806145115E+02  0.71956469167E+03  0.72167519044E+03  0.00000000000E+00 0. -1.
         22    1    3    3    0    0 -0.17871025585E+02 -0.21049858098E+02 -0.87822448010E+01  0.28975815867E+02  0.00000000000E+00 0.  1.
         22    1    3    3    0    0 -0.14363831479E+02  0.22096123212E+02  0.20006736330E+03  0.20179570901E+03  0.00000000000E+00 0.  1.
</event>
<event>
 7    1  0.5452757E-006  0.5665685E+02  0.7818608E-02  0.1485881E+00
          2   -1    0    0  502    0  0.00000000000E+00  0.00000000000E+00  0.29824104951E+03  0.29824104951E+03  0.00000000000E+00 0. -1.
          1   -1    0    0  501    0 -0.00000000000E+00 -0.00000000000E+00 -0.77405349358E+03  0.77405349358E+03  0.00000000000E+00 0. -1.
         25    2    1    2    0    0 -0.14940159587E+02  0.87826430850E+02  0.41959787298E+02  0.15911501756E+03  0.12498109752E+03 0.  0.
          2    1    1    2  501    0  0.69235249496E+01 -0.55872544520E+02 -0.71298604574E+03  0.71520540955E+03  0.00000000000E+00 0. -1.
          1    1    1    2  502    0  0.80166346374E+01 -0.31953886329E+02  0.19521381437E+03  0.19797411599E+03  0.00000000000E+00 0. -1.
         22    1    3    3    0    0 -0.23410219675E+02  0.95215821873E+02 -0.16634366617E+02  0.99452467404E+02  0.00000000000E+00 0.  1.
         22    1    3    3    0    0  0.84700600877E+01 -0.73893910227E+01  0.58594153914E+02  0.59662550151E+02  0.00000000000E+00 0.  1.
</event>
<event>
 7    1  0.5452757E-006  0.4783242E+02  0.7818608E-02  0.1567106E+00
          2   -1    0    0  502    0  0.00000000000E+00  0.00000000000E+00  0.28160929915E+03  0.28160929915E+03  0.00000000000E+00 0. -1.
          1   -1    0    0  501    0 -0.00000000000E+00 -0.00000000000E+00 -0.22506409507E+03  0.22506409507E+03  0.00000000000E+00 0. -1.
         25    2    1    2    0    0  0.41890112383E+02 -0.56260726284E+02  0.11293189419E+03  0.18248044075E+03  0.12500179075E+03 0.  0.
          2    1    1    2  501    0 -0.28732987317E+02  0.37679136243E+02 -0.18633479897E+03  0.19226533535E+03  0.00000000000E+00 0. -1.
          1    1    1    2  502    0 -0.13157125067E+02  0.18581590041E+02  0.12994810886E+03  0.13192761813E+03  0.00000000000E+00 0. -1.
         22    1    3    3    0    0  0.74996459948E+02 -0.65700794460E+02  0.10917184725E+03  0.14784977386E+03  0.00000000000E+00 0.  1.
         22    1    3    3    0    0 -0.33106347564E+02  0.94400681758E+01  0.37600469407E+01  0.34630666889E+02  0.00000000000E+00 0.  1.
</event>
<event>
 7    1  0.5452757E-006  0.1079059E+03  0.7818608E-02  0.1426035E+00
          2   -1    0    0  502    0  0.00000000000E+00  0.00000000000E+00  0.45233396013E+03  0.45233396013E+03  0.00000000000E+00 0. -1.
          1   -1    0    0  501    0 -0.00000000000E+00 -0.00000000000E+00 -0.12942833289E+03  0.12942833289E+03  0.00000000000E+00 0. -1.
         25    2    1    2    0    0  0.10013159948E+03 -0.46227671007E+02  0.17766326838E+03  0.24363686846E+03  0.12502540526E+03 0.  0.
          2    1    1    2  501    0  0.58947414555E+01  0.26131512715E+02 -0.82159935957E+02  0.86416775050E+02  0.00000000000E+00 0. -1.
          1    1    1    2  502    0 -0.10602634094E+03  0.20096158292E+02  0.22740229481E+03  0.25170864951E+03  0.00000000000E+00 0. -1.
         22    1    3    3    0    0  0.19002973320E+02 -0.57788642204E+02  0.14158084932E+03  0.15409664843E+03  0.00000000000E+00 0. -1.
         22    1    3    3    0    0  0.81128626164E+02  0.11560971197E+02  0.36082419063E+02  0.89540220034E+02  0.00000000000E+00 0. -1.
</event>
<event>
 7    1  0.5452757E-006  0.7805755E+02  0.7818608E-02  0.1376081E+00
          2   -1    0    0  502    0  0.00000000000E+00  0.00000000000E+00  0.37863296050E+03  0.37863296050E+03  0.00000000000E+00 0. -1.
          1   -1    0    0  501    0 -0.00000000000E+00 -0.00000000000E+00 -0.70579822032E+03  0.70579822032E+03  0.00000000000E+00 0. -1.
         25    2    1    2    0    0 -0.14411462065E+02 -0.12922581102E+03 -0.10092975188E+03  0.20668235528E+03  0.12499512270E+03 0.  0.
          2    1    1    2  501    0  0.29338634253E+01  0.75466129418E+02 -0.54706021697E+03  0.55224869871E+03  0.00000000000E+00 0. -1.
          1    1    1    2  502    0  0.11477598639E+02  0.53759681602E+02  0.32082470903E+03  0.32550012682E+03  0.00000000000E+00 0. -1.
         22    1    3    3    0    0  0.53213752508E+02 -0.81829328967E+02 -0.59161251114E+02  0.11413937168E+03  0.00000000000E+00 0. -1.
         22    1    3    3    0    0 -0.67625214572E+02 -0.47396482052E+02 -0.41768500771E+02  0.92542983599E+02  0.00000000000E+00 0. -1.
</event>
<event>
 7    1  0.5452757E-006  0.3772000E+02  0.7818608E-02  0.1590221E+00
          2   -1    0    0  502    0  0.00000000000E+00  0.00000000000E+00  0.21863450174E+04  0.21863450174E+04  0.00000000000E+00 0. -1.
          1   -1    0    0  501    0 -0.00000000000E+00 -0.00000000000E+00 -0.97887834667E+02  0.97887834667E+02  0.00000000000E+00 0. -1.
         25    2    1    2    0    0 -0.35355016949E+01  0.24258327339E+02 -0.34590243447E+02  0.13198908851E+03  0.12499467319E+03 0.  0.
          2    1    1    2  501    0 -0.25021557599E+02  0.44398518196E+00 -0.35807823220E+01  0.25280377164E+02  0.00000000000E+00 0. -1.
          1    1    1    2  502    0  0.28557059293E+02 -0.24702312521E+02  0.21266282085E+04  0.21269633864E+04  0.00000000000E+00 0. -1.
         22    1    3    3    0    0  0.28911290563E+02  0.62780067999E+02 -0.42303994742E+02  0.81035965047E+02  0.00000000000E+00 0.  1.
         22    1    3    3    0    0 -0.32446792258E+02 -0.38521740660E+02  0.77137512951E+01  0.50953123460E+02  0.00000000000E+00 0.  1.
</event>
<event>
 7    1  0.5452757E-006  0.1244756E+03  0.7818608E-02  0.1267113E+00
          2   -1    0    0  502    0  0.00000000000E+00  0.00000000000E+00  0.12766485176E+04  0.12766485176E+04  0.00000000000E+00 0. -1.
          1   -1    0    0  501    0 -0.00000000000E+00 -0.00000000000E+00 -0.42350078949E+03  0.42350078949E+03  0.00000000000E+00 0. -1.
         25    2    1    2    0    0  0.24280994954E+02  0.58910112584E+02  0.17068867178E+03  0.22095288088E+03  0.12500233924E+03 0.  0.
          2    1    1    2  501    0  0.89646635983E+02  0.16706937331E+02 -0.38874655400E+03  0.39929879081E+03  0.00000000000E+00 0. -1.
          1    1    1    2  502    0 -0.11392763094E+03 -0.75617049916E+02  0.10712056104E+04  0.10798976354E+04  0.00000000000E+00 0. -1.
         22    1    3    3    0    0 -0.38488416497E+02  0.18565168653E+01  0.10899674540E+02  0.40045071661E+02  0.00000000000E+00 0. -1.
         22    1    3    3    0    0  0.62769411451E+02  0.57053595719E+02  0.15978899724E+03  0.18090780922E+03  0.00000000000E+00 0. -1.
</event>
<event>
 7    1  0.5452757E-006  0.8504215E+02  0.7818608E-02  0.1470423E+00
          2   -1    0    0  502    0  0.00000000000E+00  0.00000000000E+00  0.76593949980E+03  0.76593949980E+03  0.00000000000E+00 0. -1.
          1   -1    0    0  501    0 -0.00000000000E+00 -0.00000000000E+00 -0.64731480495E+02  0.64731480495E+02  0.00000000000E+00 0. -1.
         25    2    1    2    0    0  0.18256736216E+02  0.69146705761E+02  0.46077920087E+03  0.48276005780E+03  0.12500090446E+03 0.  0.
          2    1    1    2  501    0 -0.30403212682E+01  0.24297688640E+02 -0.42782156178E+02  0.49294361887E+02  0.00000000000E+00 0. -1.
          1    1    1    2  502    0 -0.15216414948E+02 -0.93444394402E+02  0.28321097461E+03  0.29861656061E+03  0.00000000000E+00 0. -1.
         22    1    3    3    0    0 -0.53545441032E+02  0.23607080959E+02  0.16899309180E+03  0.17883812122E+03  0.00000000000E+00 0.  1.
         22    1    3    3    0    0  0.71802177248E+02  0.45539624802E+02  0.29178610907E+03  0.30392193658E+03  0.00000000000E+00 0.  1.
</event>
<event>
 7    1  0.5452757E-006  0.6159791E+02  0.7818608E-02  0.1510316E+00
          2   -1    0    0  502    0  0.00000000000E+00  0.00000000000E+00  0.24233338978E+03  0.24233338978E+03  0.00000000000E+00 0. -1.
          1   -1    0    0  501    0 -0.00000000000E+00 -0.00000000000E+00 -0.32365690449E+03  0.32365690449E+03  0.00000000000E+00 0. -1.
         25    2    1    2    0    0  0.15725047658E+02 -0.40221994679E+02 -0.24288489979E+03  0.27655502691E+03  0.12499808952E+03 0.  0.
          2    1    1    2  501    0 -0.13617543220E+02 -0.21685543676E+02 -0.56881535861E+02  0.62379559230E+02  0.00000000000E+00 0. -1.
          1    1    1    2  502    0 -0.21075044388E+01  0.61907538355E+02  0.21844292094E+03  0.22705570812E+03  0.00000000000E+00 0. -1.
         22    1    3    3    0    0  0.68878136898E+02 -0.92664271520E+01 -0.10985667029E+03  0.12999443227E+03  0.00000000000E+00 0.  1.
         22    1    3    3    0    0 -0.53153089240E+02 -0.30955567527E+02 -0.13302822950E+03  0.14656059464E+03  0.00000000000E+00 0.  1.
</event>
<event>
 7    1  0.5452757E-006  0.6952366E+02  0.7818608E-02  0.1442610E+00
          2   -1    0    0  502    0  0.00000000000E+00  0.00000000000E+00  0.45626912537E+04  0.45626912537E+04  0.00000000000E+00 0. -1.
          1   -1    0    0  501    0 -0.00000000000E+00 -0.00000000000E+00 -0.45287544341E+03  0.45287544341E+03  0.00000000000E+00 0. -1.
         25    2    1    2    0    0 -0.20452144282E+02  0.89585269762E+02  0.64047210612E+02  0.16784134115E+03  0.12499943940E+03 0.  0.
          2    1    1    2  501    0 -0.18172487625E+02 -0.31880722015E+02 -0.39986709617E+03  0.40154739987E+03  0.00000000000E+00 0. -1.
          1    1    1    2  502    0  0.38624631907E+02 -0.57704547747E+02  0.44456356959E+04  0.44461779561E+04  0.00000000000E+00 0. -1.
         22    1    3    3    0    0 -0.99467244946E+01  0.98394026985E+02 -0.34600445489E+01  0.98956019437E+02  0.00000000000E+00 0. -1.
         22    1    3    3    0    0 -0.10505419788E+02 -0.88087572235E+01  0.67507255161E+02  0.68885321718E+02  0.00000000000E+00 0. -1.
</event>
<event>
 7    1  0.5452757E-006  0.1078724E+03  0.7818608E-02  0.1377679E+00
          2   -1    0    0  502    0  0.00000000000E+00  0.00000000000E+00  0.17394501648E+04  0.17394501648E+04  0.00000000000E+00 0. -1.
          1   -1    0    0  501    0 -0.00000000000E+00 -0.00000000000E+00 -0.61469511604E+02  0.61469511604E+02  0.00000000000E+00 0. -1.
         25    2    1    2    0    0  0.69044460612E+02  0.50774988689E+02  0.84700919141E+03  0.86046156923E+03  0.12499721905E+03 0.  0.
          2    1    1    2  501    0  0.18398439853E+02  0.34682468820E+02 -0.42854580366E+02  0.58119629136E+02  0.00000000000E+00 0. -1.
          1    1    1    2  502    0 -0.87442900465E+02 -0.85457457509E+02  0.87382604217E+03  0.88233847806E+03  0.00000000000E+00 0. -1.
         22    1    3    3    0    0  0.37618767973E+02 -0.30370004686E+02  0.51407410252E+03  0.51634261084E+03  0.00000000000E+00 0.  1.
         22    1    3    3    0    0  0.31425692639E+02  0.81144993375E+02  0.33293508889E+03  0.34411895839E+03  0.00000000000E+00 0.  1.
</event>
<event>
 7    1  0.5452757E-006  0.9388586E+02  0.7818608E-02  0.1295817E+00
          2   -1    0    0  502    0  0.00000000000E+00  0.00000000000E+00  0.27789946454E+03  0.27789946454E+03  0.00000000000E+00 0. -1.
          1   -1    0    0  501    0 -0.00000000000E+00 -0.00000000000E+00 -0.17424130305E+03  0.17424130305E+03  0.00000000000E+00 0. -1.
         25    2    1    2    0    0  0.42693251346E+02 -0.16696264724E+02  0.81063531787E+02  0.15586565820E+03  0.12498531215E+03 0.  0.
          2    1    1    2  501    0  0.84703304116E+02 -0.36063190541E+02 -0.81936437421E+02  0.12324278160E+03  0.00000000000E+00 0. -1.
          1    1    1    2  502    0 -0.12739655546E+03  0.52759455265E+02  0.10453106713E+03  0.17303232778E+03  0.00000000000E+00 0. -1.
         22    1    3    3    0    0  0.74238011741E+02  0.54819695598E+01  0.89481021020E+02  0.11639668166E+03  0.00000000000E+00 0. -1.
         22    1    3    3    0    0 -0.31544760394E+02 -0.22178234284E+02 -0.84174892338E+01  0.39468976542E+02  0.00000000000E+00 0. -1.
</event>
<event>
 7    1  0.5452757E-006  0.1328563E+03  0.7818608E-02  0.1316990E+00
          2   -1    0    0  502    0  0.00000000000E+00  0.00000000000E+00  0.12718112949E+03  0.12718112949E+03  0.00000000000E+00 0. -1.
          1   -1    0    0  501    0 -0.00000000000E+00 -0.00000000000E+00 -0.20330523649E+04  0.20330523649E+04  0.00000000000E+00 0. -1.
         25    2    1    2    0    0  0.13017597652E+03 -0.91780261561E+02 -0.55531760346E+03  0.59107583440E+03  0.12499439997E+03 0.  0.
          2    1    1    2  501    0 -0.77874550759E+02  0.10362723274E+03 -0.14502084286E+04  0.14559902250E+04  0.00000000000E+00 0. -1.
          1    1    1    2  502    0 -0.52301425763E+02 -0.11846971177E+02  0.99654796597E+02  0.11316743501E+03  0.00000000000E+00 0. -1.
         22    1    3    3    0    0  0.11452096517E+03 -0.34639269340E+02 -0.21873829408E+03  0.24932182364E+03  0.00000000000E+00 0.  1.
         22    1    3    3    0    0  0.15655011353E+02 -0.57140992221E+02 -0.33657930938E+03  0.34175401076E+03  0.00000000000E+00 0.  1.
</event>
<event>
 7    1  0.5452757E-006  0.5015650E+02  0.7818608E-02  0.1446110E+00
          2   -1    0    0  502    0  0.00000000000E+00  0.00000000000E+00  0.12232049721E+04  0.12232049721E+04  0.00000000000E+00 0. -1.
          1   -1    0    0  501    0 -0.00000000000E+00 -0.00000000000E+00 -0.33468793847E+02  0.33468793847E+02  0.00000000000E+00 0. -1.
         25    2    1    2    0    0 -0.75675637727E+01 -0.53071897356E+01  0.26936081057E+03  0.29709545958E+03  0.12500012618E+03 0.  0.
          2    1    1    2  501    0  0.54463535836E+02 -0.12481640199E+02  0.22391951548E+02  0.60195245427E+02  0.00000000000E+00 0. -1.
          1    1    1    2  502    0 -0.46895972063E+02  0.17788829934E+02  0.89798341613E+03  0.89938306094E+03  0.00000000000E+00 0. -1.
         22    1    3    3    0    0 -0.61082684285E+01 -0.29442114992E+02  0.27118574866E+03  0.27284768527E+03  0.00000000000E+00 0. -1.
         22    1    3    3    0    0 -0.14592953442E+01  0.24134925256E+02 -0.18249380868E+01  0.24247774311E+02  0.00000000000E+00 0. -1.
</event>
<event>
 7    1  0.7448255E-006  0.8576657E+02  0.7818608E-02  0.1343170E+00
          2   -1    0    0  502    0  0.00000000000E+00  0.00000000000E+00  0.81328403963E+03  0.81328403963E+03  0.00000000000E+00 0. -1.
          1   -1    0    0  501    0 -0.00000000000E+00 -0.00000000000E+00 -0.24676856568E+04  0.24676856568E+04  0.00000000000E+00 0. -1.
         25    2    1    2    0    0 -0.89362734131E+02 -0.54959636377E+01 -0.26109870924E+03  0.30300745080E+03  0.12500030162E+03 0.  0.
          2    1    1    2  501    0  0.58529976104E+02  0.63831383621E+02 -0.21833989523E+04  0.21851158296E+04  0.00000000000E+00 0. -1.
          1    1    1    2  502    0  0.30832758027E+02 -0.58335419983E+02  0.79009604436E+03  0.79284641609E+03  0.00000000000E+00 0. -1.
         22    1    3    3    0    0  0.15906500582E+02 -0.39364699819E+02 -0.86064843737E+02  0.95967461569E+02  0.00000000000E+00 0. -1.
         22    1    3    3    0    0 -0.10526923471E+03  0.33868736181E+02 -0.17503386550E+03  0.20703998923E+03  0.00000000000E+00 0. -1.
</event>
<event>
 7    1  0.5452757E-006  0.5048745E+02  0.7818608E-02  0.1486405E+00
          2   -1    0    0  502    0  0.00000000000E+00  0.00000000000E+00  0.71988002124E+03  0.71988002124E+03  0.00000000000E+00 0. -1.
          1   -1    0    0  501    0 -0.00000000000E+00 -0.00000000000E+00 -0.66777603205E+02  0.66777603205E+02  0.00000000000E+00 0. -1.
         25    2    1    2    0    0  0.22626118799E+02 -0.71761514480E+02  0.31589888614E+03  0.34796285810E+03  0.12499755254E+03 0.  0.
          2    1    1    2  501    0 -0.33741674623E+02  0.36644317347E+02 -0.37396530889E+02  0.62288097761E+02  0.00000000000E+00 0. -1.
          1    1    1    2  502    0  0.11115555824E+02  0.35117197134E+02  0.37460006278E+03  0.37640666858E+03  0.00000000000E+00 0. -1.
         22    1    3    3    0    0  0.25904284752E+00  0.35512457490E+02  0.93909573531E+02  0.10040024771E+03  0.00000000000E+00 0.  1.
         22    1    3    3    0    0  0.22367075951E+02 -0.10727397197E+03  0.22198931261E+03  0.24756261039E+03  0.00000000000E+00 0.  1.
</event>
<event>
 7    1  0.5452757E-006  0.7262600E+02  0.7818608E-02  0.1513295E+00
          2   -1    0    0  502    0  0.00000000000E+00  0.00000000000E+00  0.15172179944E+04  0.15172179944E+04  0.00000000000E+00 0. -1.
          1   -1    0    0  501    0 -0.00000000000E+00 -0.00000000000E+00 -0.26489450319E+02  0.26489450319E+02  0.00000000000E+00 0. -1.
         25    2    1    2    0    0 -0.88549623566E+01 -0.58859326388E+02  0.95520351078E+03  0.96518577337E+03  0.12500799755E+03 0.  0.
          2    1    1    2  501    0  0.18578064458E+01 -0.21204035140E+02 -0.12467001975E+02  0.24667563504E+02  0.00000000000E+00 0. -1.
          1    1    1    2  502    0  0.69971559108E+01  0.80063361527E+02  0.54799203531E+03  0.55385410788E+03  0.00000000000E+00 0. -1.
         22    1    3    3    0    0 -0.25616174250E+02 -0.91340164342E+02  0.80632526543E+03  0.81188647463E+03  0.00000000000E+00 0. -1.
         22    1    3    3    0    0  0.16761211893E+02  0.32480837954E+02  0.14887824534E+03  0.15329929874E+03  0.00000000000E+00 0. -1.
</event>
<event>
 7    1  0.5452757E-006  0.4670812E+02  0.7818608E-02  0.1473093E+00
          2   -1    0    0  502    0  0.00000000000E+00  0.00000000000E+00  0.32492074452E+03  0.32492074452E+03  0.00000000000E+00 0. -1.
          1   -1    0    0  501    0 -0.00000000000E+00 -0.00000000000E+00 -0.31539093047E+04  0.31539093047E+04  0.00000000000E+00 0. -1.
         25    2    1    2    0    0 -0.45182343426E+02  0.69674212444E+02 -0.41948881845E+03  0.44552378111E+03  0.12499852277E+03 0.  0.
          2    1    1    2  501    0  0.68470162964E+01 -0.43202565850E+02 -0.27194865447E+04  0.27198383058E+04  0.00000000000E+00 0. -1.
          1    1    1    2  502    0  0.38335327130E+02 -0.26471646594E+02  0.30998680293E+03  0.31346796227E+03  0.00000000000E+00 0. -1.
         22    1    3    3    0    0 -0.31753898843E+02  0.40334474462E+02 -0.40808512080E+03  0.41130116185E+03  0.00000000000E+00 0. -1.
         22    1    3    3    0    0 -0.13428444583E+02  0.29339737982E+02 -0.11403697644E+02  0.34222619256E+02  0.00000000000E+00 0. -1.
</event>
<event>
 7    1  0.5452757E-006  0.4052222E+02  0.7818608E-02  0.1507418E+00
          2   -1    0    0  502    0  0.00000000000E+00  0.00000000000E+00  0.20194828370E+02  0.20194828370E+02  0.00000000000E+00 0. -1.
          1   -1    0    0  501    0 -0.00000000000E+00 -0.00000000000E+00 -0.10445344528E+04  0.10445344528E+04  0.00000000000E+00 0. -1.
         25    2    1    2    0    0  0.17270613148E+00  0.45239645550E+02 -0.38750377587E+03  0.40967233807E+03  0.12500237163E+03 0.  0.
          2    1    1    2  501    0 -0.33711748447E+02 -0.22497981481E+02 -0.59652116083E+03  0.59789642620E+03  0.00000000000E+00 0. -1.
          1    1    1    2  502    0  0.33539042316E+02 -0.22741664068E+02 -0.40314687729E+02  0.57160516887E+02  0.00000000000E+00 0. -1.
         22    1    3    3    0    0  0.21450608534E+02 -0.34397922441E+02 -0.21112833193E+03  0.21498492556E+03  0.00000000000E+00 0.  1.
         22    1    3    3    0    0 -0.21277902402E+02  0.79637567990E+02 -0.17637544394E+03  0.19468741251E+03  0.00000000000E+00 0.  1.
</event>
<event>
 7    1  0.5452757E-006  0.1248997E+03  0.7818608E-02  0.1284188E+00
          2   -1    0    0  502    0  0.00000000000E+00  0.00000000000E+00  0.34457126262E+03  0.34457126262E+03  0.00000000000E+00 0. -1.
          1   -1    0    0  501    0 -0.00000000000E+00 -0.00000000000E+00 -0.91773938163E+03  0.91773938163E+03  0.00000000000E+00 0. -1.
         25    2    1    2    0    0 -0.84783753283E+02 -0.43160214429E+02 -0.69221303575E+02  0.17166145679E+03  0.12499991179E+03 0.  0.
          2    1    1    2  501    0 -0.44193810161E+02  0.63254772612E+02 -0.78078037336E+03  0.78458412585E+03  0.00000000000E+00 0. -1.
          1    1    1    2  502    0  0.12897756344E+03 -0.20094558184E+02  0.27683355793E+03  0.30606506161E+03  0.00000000000E+00 0. -1.
         22    1    3    3    0    0  0.27116845915E+02 -0.35844078784E+02 -0.19542532059E+02  0.49010528211E+02  0.00000000000E+00 0. -1.
         22    1    3    3    0    0 -0.11190059920E+03 -0.73161356444E+01 -0.49678771516E+02  0.12265092858E+03  0.00000000000E+00 0. -1.
</event>
<event>
 7    1  0.5452757E-006  0.4534137E+02  0.7818608E-02  0.1591883E+00
          2   -1    0    0  502    0  0.00000000000E+00  0.00000000000E+00  0.30800744341E+04  0.30800744341E+04  0.00000000000E+00 0. -1.
          1   -1    0    0  501    0 -0.00000000000E+00 -0.00000000000E+00 -0.73503386534E+01  0.73503386534E+01  0.00000000000E+00 0. -1.
         25    2    1    2    0    0 -0.12834336370E+02  0.36062731846E+02  0.24106889872E+04  0.24142315414E+04  0.12500920612E+03 0.  0.
          2    1    1    2  501    0  0.14891226775E+02  0.14247967891E+02  0.18510924001E+02  0.27702121421E+02  0.00000000000E+00 0. -1.
          1    1    1    2  502    0 -0.20568904044E+01 -0.50310699736E+02  0.64352418426E+03  0.64549110996E+03  0.00000000000E+00 0. -1.
         22    1    3    3    0    0 -0.61954110481E+02  0.39640583059E+02  0.10087881186E+04  0.10114658452E+04  0.00000000000E+00 0. -1.
         22    1    3    3    0    0  0.49119774111E+02 -0.35778512135E+01  0.14019008686E+04  0.14027656962E+04  0.00000000000E+00 0. -1.
</event>
<event>
 7    1  0.5452757E-006  0.8211343E+02  0.7818608E-02  0.1350090E+00
          2   -1    0    0  502    0  0.00000000000E+00  0.00000000000E+00  0.42576547253E+03  0.42576547253E+03  0.00000000000E+00 0. -1.
          1   -1    0    0  501    0 -0.00000000000E+00 -0.00000000000E+00 -0.33344046571E+03  0.33344046571E+03  0.00000000000E+00 0. -1.
         25    2    1    2    0    0  0.31086618474E+02 -0.83895945448E+01  0.16678359893E+03  0.21090130574E+03  0.12500331494E+03 0.  0.
          2    1    1    2  501    0 -0.73157006129E+02 -0.41089563205E+02 -0.30108374517E+03  0.31255674901E+03  0.00000000000E+00 0. -1.
          1    1    1    2  502    0  0.42070387655E+02  0.49479157749E+02  0.22662515306E+03  0.23574788348E+03  0.00000000000E+00 0. -1.
         22    1    3    3    0    0 -0.34261591567E+02 -0.35863421308E+02  0.10787373473E+03  0.11872987952E+03  0.00000000000E+00 0.  1.
         22    1    3    3    0    0  0.65348210041E+02  0.27473826763E+02  0.58909864201E+02  0.92171426227E+02  0.00000000000E+00 0.  1.
</event>
<event>
 7    1  0.5452757E-006  0.1109683E+03  0.7818608E-02  0.1395140E+00
          2   -1    0    0  502    0  0.00000000000E+00  0.00000000000E+00  0.12828022002E+04  0.12828022002E+04  0.00000000000E+00 0. -1.
          1   -1    0    0  501    0 -0.00000000000E+00 -0.00000000000E+00 -0.77660977741E+03  0.77660977741E+03  0.00000000000E+00 0. -1.
         25    2    1    2    0    0 -0.14038252478E+02  0.81802574577E+02  0.96283689431E+01  0.15035540686E+03  0.12500123657E+03 0.  0.
          2    1    1    2  501    0 -0.22867580889E+02  0.23991906525E+02 -0.70324569141E+03  0.70402630656E+03  0.00000000000E+00 0. -1.
          1    1    1    2  502    0  0.36905833367E+02 -0.10579448110E+03  0.11998097453E+04  0.12050302642E+04  0.00000000000E+00 0. -1.
         22    1    3    3    0    0 -0.36273035669E+02  0.10851583098E+03  0.14217507824E+02  0.11529768522E+03  0.00000000000E+00 0.  1.
         22    1    3    3    0    0  0.22234783191E+02 -0.26713256399E+02 -0.45891388806E+01  0.35057721641E+02  0.00000000000E+00 0.  1.
</event>
<event>
 7    1  0.5452757E-006  0.1051761E+03  0.7818608E-02  0.1278976E+00
          2   -1    0    0  502    0  0.00000000000E+00  0.00000000000E+00  0.24678502788E+03  0.24678502788E+03  0.00000000000E+00 0. -1.
          1   -1    0    0  501    0 -0.00000000000E+00 -0.00000000000E+00 -0.26332401884E+03  0.26332401884E+03  0.00000000000E+00 0. -1.
         25    2    1    2    0    0  0.21553644904E+02 -0.22045438785E+02 -0.17608587703E+03  0.21813360660E+03  0.12500189302E+03 0.  0.
          2    1    1    2  501    0  0.90993513620E+02  0.31468492421E+02 -0.26676010286E+00  0.96281652962E+02  0.00000000000E+00 0. -1.
          1    1    1    2  502    0 -0.11254715852E+03 -0.94230536360E+01  0.15981364617E+03  0.19569378716E+03  0.00000000000E+00 0. -1.
         22    1    3    3    0    0  0.56670202376E+02 -0.14703443517E+02 -0.26426803773E+02  0.64234562707E+02  0.00000000000E+00 0. -1.
         22    1    3    3    0    0 -0.35116557471E+02 -0.73419952682E+01 -0.14965907325E+03  0.15389904389E+03  0.00000000000E+00 0. -1.
</event>
<event>
 7    1  0.5452757E-006  0.1763739E+03  0.7818608E-02  0.1279340E+00
          2   -1    0    0  502    0  0.00000000000E+00  0.00000000000E+00  0.12924662940E+04  0.12924662940E+04  0.00000000000E+00 0. -1.
          1   -1    0    0  501    0 -0.00000000000E+00 -0.00000000000E+00 -0.46031646768E+03  0.46031646768E+03  0.00000000000E+00 0. -1.
         25    2    1    2    0    0 -0.17222812257E+03  0.14319729737E+03  0.74755560627E+03  0.79033797668E+03  0.12500696276E+03 0.  0.
          2    1    1    2  501    0  0.11627445536E+03 -0.13124583283E+03 -0.41973126232E+03  0.45488410631E+03  0.00000000000E+00 0. -1.
          1    1    1    2  502    0  0.55953667215E+02 -0.11951464538E+02  0.50432548235E+03  0.50756067866E+03  0.00000000000E+00 0. -1.
         22    1    3    3    0    0  0.11767332981E+02  0.36400969422E+02  0.18466264779E+03  0.18858365303E+03  0.00000000000E+00 0. -1.
         22    1    3    3    0    0 -0.18399545555E+03  0.10679632795E+03  0.56289295848E+03  0.60175432365E+03  0.00000000000E+00 0. -1.
</event>
<event>
 7    1  0.5452757E-006  0.3648027E+02  0.7818608E-02  0.1566773E+00
          2   -1    0    0  502    0  0.00000000000E+00  0.00000000000E+00  0.25442224824E+03  0.25442224824E+03  0.00000000000E+00 0. -1.
          1   -1    0    0  501    0 -0.00000000000E+00 -0.00000000000E+00 -0.11662673919E+03  0.11662673919E+03  0.00000000000E+00 0. -1.
         25    2    1    2    0    0 -0.81991151830E+01  0.64219713875E+02  0.31978412693E+02  0.14435477442E+03  0.12499713948E+03 0.  0.
          2    1    1    2  501    0  0.38848475525E+01 -0.34616689664E+02 -0.53912691989E+02  0.64187113982E+02  0.00000000000E+00 0. -1.
          1    1    1    2  502    0  0.43142676304E+01 -0.29603024211E+02  0.15972978835E+03  0.16250709902E+03  0.00000000000E+00 0. -1.
         22    1    3    3    0    0  0.40476799875E+02  0.76427102350E+02  0.32823381806E+01  0.86546213353E+02  0.00000000000E+00 0. -1.
         22    1    3    3    0    0 -0.48675915058E+02 -0.12207388475E+02  0.28696074512E+02  0.57808561066E+02  0.00000000000E+00 0. -1.
</event>
<event>
 7    1  0.5452757E-006  0.1821364E+03  0.7818608E-02  0.1210004E+00
          2   -1    0    0  502    0  0.00000000000E+00  0.00000000000E+00  0.23650605917E+04  0.23650605917E+04  0.00000000000E+00 0. -1.
          1   -1    0    0  501    0 -0.00000000000E+00 -0.00000000000E+00 -0.16342328074E+03  0.16342328074E+03  0.00000000000E+00 0. -1.
         25    2    1    2    0    0  0.25603173322E+03 -0.78110468800E+01  0.88993581949E+03  0.93446469152E+03  0.12500094404E+03 0.  0.
          2    1    1    2  501    0 -0.16794487306E+03 -0.60531268105E+02 -0.81584774307E+02  0.19627936775E+03  0.00000000000E+00 0. -1.
          1    1    1    2  502    0 -0.88086860161E+02  0.68342314985E+02  0.13932862658E+04  0.13977398132E+04  0.00000000000E+00 0. -1.
         22    1    3    3    0    0  0.20561708389E+03 -0.12617666896E+02  0.49297420228E+03  0.53428564909E+03  0.00000000000E+00 0. -1.
         22    1    3    3    0    0  0.50414649330E+02  0.48066200160E+01  0.39696161721E+03  0.40017904243E+03  0.00000000000E+00 0. -1.
</event>
<event>
 7    1  0.5452757E-006  0.1087884E+03  0.7818608E-02  0.1324147E+00
          2   -1    0    0  502    0  0.00000000000E+00  0.00000000000E+00  0.28825031084E+04  0.28825031084E+04  0.00000000000E+00 0. -1.
          1   -1    0    0  501    0 -0.00000000000E+00 -0.00000000000E+00 -0.12485822850E+04  0.12485822850E+04  0.00000000000E+00 0. -1.
         25    2    1    2    0    0  0.32219170654E+01 -0.10717039492E+03  0.78421974664E+03  0.80132477494E+03  0.12499963849E+03 0.  0.
          2    1    1    2  501    0 -0.62042825779E+02  0.89431362942E+02 -0.12371883134E+04  0.12419670703E+04  0.00000000000E+00 0. -1.
          1    1    1    2  502    0  0.58820908714E+02  0.17739031980E+02  0.20868893903E+04  0.20877935482E+04  0.00000000000E+00 0. -1.
         22    1    3    3    0    0  0.52227304074E+02 -0.94942936349E+02  0.42617544370E+03  0.43973555834E+03  0.00000000000E+00 0.  1.
         22    1    3    3    0    0 -0.49005387008E+02 -0.12227458573E+02  0.35804430293E+03  0.36158921660E+03  0.00000000000E+00 0.  1.
</event>
<event>
 7    1  0.5452757E-006  0.5297388E+02  0.7818608E-02  0.1457755E+00
          2   -1    0    0  502    0  0.00000000000E+00  0.00000000000E+00  0.71548860238E+03  0.71548860238E+03  0.00000000000E+00 0. -1.
          1   -1    0    0  501    0 -0.00000000000E+00 -0.00000000000E+00 -0.13042673548E+03  0.13042673548E+03  0.00000000000E+00 0. -1.
         25    2    1    2    0    0 -0.65846187330E+02 -0.17701953812E+02 -0.20826625066E+02  0.14390033573E+03  0.12499791502E+03 0.  0.
          2    1    1    2  501    0  0.17503829151E+02  0.39360603849E+02 -0.37098185270E+02  0.56849947411E+02  0.00000000000E+00 0. -1.
          1    1    1    2  502    0  0.48342358179E+02 -0.21658650037E+02  0.64298667724E+03  0.64516505471E+03  0.00000000000E+00 0. -1.
         22    1    3    3    0    0 -0.64695944612E+02  0.43411029848E+02  0.37968044294E+01  0.78003195355E+02  0.00000000000E+00 0. -1.
         22    1    3    3    0    0 -0.11502427182E+01 -0.61112983660E+02 -0.24623429495E+02  0.65897140380E+02  0.00000000000E+00 0. -1.
</event>
<event>
 7    1  0.5452757E-006  0.1636453E+03  0.7818608E-02  0.1205543E+00
          2   -1    0    0  502    0  0.00000000000E+00  0.00000000000E+00  0.34541057389E+04  0.34541057389E+04  0.00000000000E+00 0. -1.
          1   -1    0    0  501    0 -0.00000000000E+00 -0.00000000000E+00 -0.11940293856E+03  0.11940293856E+03  0.00000000000E+00 0. -1.
         25    2    1    2    0    0 -0.92134536569E+02  0.11214009578E+03  0.46675446258E+03  0.50452835655E+03  0.12499984129E+03 0.  0.
          2    1    1    2  501    0  0.17277785256E+03 -0.99682484061E+01 -0.23456185736E+02  0.17464748770E+03  0.00000000000E+00 0. -1.
          1    1    1    2  502    0 -0.80643315990E+02 -0.10217184737E+03  0.28914045235E+04  0.28943328332E+04  0.00000000000E+00 0. -1.
         22    1    3    3    0    0 -0.87387787884E+02  0.13844324408E+03  0.41818967507E+03  0.44909437943E+03  0.00000000000E+00 0.  1.
         22    1    3    3    0    0 -0.47467486852E+01 -0.26303148304E+02  0.48564787507E+02  0.55433977121E+02  0.00000000000E+00 0.  1.
</event>
<event>
 7    1  0.5452757E-006  0.1250086E+03  0.7818608E-02  0.1378783E+00
          2   -1    0    0  502    0  0.00000000000E+00  0.00000000000E+00  0.40394525070E+03  0.40394525070E+03  0.00000000000E+00 0. -1.
          1   -1    0    0  501    0 -0.00000000000E+00 -0.00000000000E+00 -0.25170412098E+04  0.25170412098E+04  0.00000000000E+00 0. -1.
         25    2    1    2    0    0 -0.29111693690E+02 -0.95676879883E+02 -0.87457021735E+02  0.18241573805E+03  0.12500085914E+03 0.  0.
          2    1    1    2  501    0  0.58783469261E+02  0.11138745377E+03 -0.23796452263E+04  0.23829758841E+04  0.00000000000E+00 0. -1.
          1    1    1    2  502    0 -0.29671775571E+02 -0.15710573888E+02  0.35400628897E+03  0.35559483831E+03  0.00000000000E+00 0. -1.
         22    1    3    3    0    0  0.20059057617E+02 -0.34456586675E+02  0.23654435536E+02  0.46358974086E+02  0.00000000000E+00 0. -1.
         22    1    3    3    0    0 -0.49170751308E+02 -0.61220293209E+02 -0.11111145727E+03  0.13605676397E+03  0.00000000000E+00 0. -1.
</event>
<event>
 7    1  0.5452757E-006  0.4352331E+02  0.7818608E-02  0.1504262E+00
          2   -1    0    0  502    0  0.00000000000E+00  0.00000000000E+00  0.24679300910E+04  0.24679300910E+04  0.00000000000E+00 0. -1.
          1   -1    0    0  501    0 -0.00000000000E+00 -0.00000000000E+00 -0.42312371518E+02  0.42312371518E+02  0.00000000000E+00 0. -1.
         25    2    1    2    0    0  0.31837291716E+02 -0.44994201337E+01  0.10646902862E+03  0.16731473613E+03  0.12499883577E+03 0.  0.
          2    1    1    2  501    0 -0.29817474563E+02  0.42209796651E+02  0.45175308034E+02  0.68640783640E+02  0.00000000000E+00 0. -1.
          1    1    1    2  502    0 -0.20198171531E+01 -0.37710376517E+02  0.22739733828E+04  0.22742869427E+04  0.00000000000E+00 0. -1.
         22    1    3    3    0    0  0.32646284788E+02 -0.27889377559E+02 -0.13558307469E+02  0.45026936299E+02  0.00000000000E+00 0. -1.
         22    1    3    3    0    0 -0.80899307169E+00  0.23389957426E+02  0.12002733609E+03  0.12228779983E+03  0.00000000000E+00 0. -1.
</event>
<event>
 7    1  0.5452757E-006  0.9512511E+02  0.7818608E-02  0.1311261E+00
          2   -1    0    0  502    0  0.00000000000E+00  0.00000000000E+00  0.43714498076E+04  0.43714498076E+04  0.00000000000E+00 0. -1.
          1   -1    0    0  501    0 -0.00000000000E+00 -0.00000000000E+00 -0.10027528487E+02  0.10027528487E+02  0.00000000000E+00 0. -1.
         25    2    1    2    0    0 -0.11463055465E+03  0.10928179786E+03  0.19656843867E+04  0.19760117785E+04  0.12499906149E+03 0.  0.
          2    1    1    2  501    0  0.69318752900E+02 -0.37615609423E+02  0.38780576559E+03  0.39574402762E+03  0.00000000000E+00 0. -1.
          1    1    1    2  502    0  0.45311801745E+02 -0.71666188433E+02  0.20079321269E+04  0.20097215300E+04  0.00000000000E+00 0. -1.
         22    1    3    3    0    0 -0.27784062918E+02 -0.22860105566E+02  0.62496399693E+03  0.62599883070E+03  0.00000000000E+00 0.  1.
         22    1    3    3    0    0 -0.86846491727E+02  0.13214190342E+03  0.13407203898E+04  0.13500129478E+04  0.00000000000E+00 0.  1.
</event>
<event>
 7    1  0.5452757E-006  0.8184062E+02  0.7818608E-02  0.1487721E+00
          2   -1    0    0  502    0  0.00000000000E+00  0.00000000000E+00  0.16323678137E+04  0.16323678137E+04  0.00000000000E+00 0. -1.
          1   -1    0    0  501    0 -0.00000000000E+00 -0.00000000000E+00 -0.34418012782E+02  0.34418012782E+02  0.00000000000E+00 0. -1.
         25    2    1    2    0    0  0.85118967686E+02 -0.29579152640E+02  0.42694153632E+03  0.45389628295E+03  0.12499038088E+03 0.  0.
          2    1    1    2  501    0 -0.67765832333E+02  0.43924700349E+02  0.57456594460E+02  0.99110279888E+02  0.00000000000E+00 0. -1.
          1    1    1    2  502    0 -0.17353135354E+02 -0.14345547710E+02  0.11135516702E+04  0.11137792637E+04  0.00000000000E+00 0. -1.
         22    1    3    3    0    0  0.35699321547E+02 -0.52316099037E+02  0.76768299770E+02  0.99522799533E+02  0.00000000000E+00 0.  1.
         22    1    3    3    0    0  0.49419646140E+02  0.22736946397E+02  0.35017323655E+03  0.35437348342E+03  0.00000000000E+00 0.  1.
</event>
<event>
 7    1  0.5452757E-006  0.1226712E+03  0.7818608E-02  0.1390734E+00
          2   -1    0    0  502    0  0.00000000000E+00  0.00000000000E+00  0.29720510524E+04  0.29720510524E+04  0.00000000000E+00 0. -1.
          1   -1    0    0  501    0 -0.00000000000E+00 -0.00000000000E+00 -0.89874170249E+02  0.89874170249E+02  0.00000000000E+00 0. -1.
         25    2    1    2    0    0  0.89624962036E+02 -0.10093912739E+03  0.12510187790E+03  0.22248028025E+03  0.12500261592E+03 0.  0.
          2    1    1    2  501    0 -0.30429176231E+02 -0.62173424383E+01 -0.33790718355E+02  0.45895563620E+02  0.00000000000E+00 0. -1.
          1    1    1    2  502    0 -0.59195785806E+02  0.10715646983E+03  0.27908657226E+04  0.27935493787E+04  0.00000000000E+00 0. -1.
         22    1    3    3    0    0  0.43425647100E+02  0.42620820716E+01  0.93709700033E+02  0.10337049893E+03  0.00000000000E+00 0. -1.
         22    1    3    3    0    0  0.46199314936E+02 -0.10520120947E+03  0.31392177872E+02  0.11910978132E+03  0.00000000000E+00 0. -1.
</event>
<event>
 7    1  0.5452757E-006  0.9720087E+02  0.7818608E-02  0.1379689E+00
          2   -1    0    0  502    0  0.00000000000E+00  0.00000000000E+00  0.11355354228E+04  0.11355354228E+04  0.00000000000E+00 0. -1.
          1   -1    0    0  501    0 -0.00000000000E+00 -0.00000000000E+00 -0.28667433037E+02  0.28667433037E+02  0.00000000000E+00 0. -1.
         25    2    1    2    0    0 -0.61263168385E+02  0.47496587696E+02  0.62199874372E+03  0.63915304818E+03  0.12500032063E+03 0.  0.
          2    1    1    2  501    0  0.99019355986E+02 -0.27209934514E+02  0.12115947644E+03  0.15882327325E+03  0.00000000000E+00 0. -1.
          1    1    1    2  502    0 -0.37756187601E+02 -0.20286653182E+02  0.36370976956E+03  0.36622653437E+03  0.00000000000E+00 0. -1.
         22    1    3    3    0    0 -0.15048971453E+02  0.85605766984E+02  0.34911281449E+03  0.35977017125E+03  0.00000000000E+00 0. -1.
         22    1    3    3    0    0 -0.46214196932E+02 -0.38109179289E+02  0.27288592924E+03  0.27938287693E+03  0.00000000000E+00 0. -1.
</event>
<event>
 7    1  0.5452757E-006  0.7326619E+02  0.7818608E-02  0.1375850E+00
          2   -1    0    0  502    0  0.00000000000E+00  0.00000000000E+00  0.14152986443E+04  0.14152986443E+04  0.00000000000E+00 0. -1.
          1   -1    0    0  501    0 -0.00000000000E+00 -0.00000000000E+00 -0.25969729447E+03  0.25969729447E+03  0.00000000000E+00 0. -1.
         25    2    1    2    0    0  0.71948864013E+02  0.93924059252E+02  0.50512394486E+03  0.53363992158E+03  0.12499199293E+03 0.  0.
          2    1    1    2  501    0 -0.12770068016E+02 -0.57271203975E+02 -0.24055529070E+03  0.24760838702E+03  0.00000000000E+00 0. -1.
          1    1    1    2  502    0 -0.59178795997E+02 -0.36652855277E+02  0.89103269564E+03  0.89374763015E+03  0.00000000000E+00 0. -1.
         22    1    3    3    0    0  0.26593098512E+02  0.11318189007E+03  0.41437175236E+03  0.43037342190E+03  0.00000000000E+00 0. -1.
         22    1    3    3    0    0  0.45355765501E+02 -0.19257830819E+02  0.90752192504E+02  0.10326649968E+03  0.00000000000E+00 0. -1.
</event>
<event>
 7    1  0.5452757E-006  0.6966580E+02  0.7818608E-02  0.1383038E+00
          2   -1    0    0  502    0  0.00000000000E+00  0.00000000000E+00  0.85343232870E+03  0.85343232870E+03  0.00000000000E+00 0. -1.
          1   -1    0    0  501    0 -0.00000000000E+00 -0.00000000000E+00 -0.96180038035E+03  0.96180038035E+03  0.00000000000E+00 0. -1.
         25    2    1    2    0    0  0.10492495666E+03  0.12766718788E+02  0.26610070859E+03  0.31242175000E+03  0.12500210847E+03 0.  0.
          2    1    1    2  501    0 -0.63597914305E+02  0.28204127290E+02 -0.93584453593E+03  0.93842696195E+03  0.00000000000E+00 0. -1.
          1    1    1    2  502    0 -0.41327042358E+02 -0.40970846078E+02  0.56137577568E+03  0.56438399710E+03  0.00000000000E+00 0. -1.
         22    1    3    3    0    0  0.81201705296E+01 -0.31471771748E+02  0.15575588687E+03  0.15911098605E+03  0.00000000000E+00 0.  1.
         22    1    3    3    0    0  0.96804786134E+02  0.44238490536E+02  0.11034482172E+03  0.15331076395E+03  0.00000000000E+00 0.  1.
</event>
<event>
 7    1  0.5452757E-006  0.1652096E+03  0.7818608E-02  0.1313777E+00
          2   -1    0    0  502    0  0.00000000000E+00  0.00000000000E+00  0.24576183888E+03  0.24576183888E+03  0.00000000000E+00 0. -1.
          1   -1    0    0  501    0 -0.00000000000E+00 -0.00000000000E+00 -0.79099977371E+03  0.79099977371E+03  0.00000000000E+00 0. -1.
         25    2    1    2    0    0  0.58873550964E+02 -0.15969142357E+03 -0.25641126882E+03  0.33217378410E+03  0.12500095321E+03 0.  0.
          2    1    1    2  501    0  0.36736046899E+02  0.24917333354E+02 -0.46263858328E+03  0.46476324013E+03  0.00000000000E+00 0. -1.
          1    1    1    2  502    0 -0.95609597863E+02  0.13477409021E+03  0.17381191726E+03  0.23982458835E+03  0.00000000000E+00 0. -1.
         22    1    3    3    0    0  0.21190149668E+02 -0.10237845220E+03 -0.23979947818E+03  0.26159923481E+03  0.00000000000E+00 0.  1.
         22    1    3    3    0    0  0.37683401296E+02 -0.57312971365E+02 -0.16611790643E+02  0.70574549296E+02  0.00000000000E+00 0.  1.
</event>
<event>
 7    1  0.5452757E-006  0.7316987E+02  0.7818608E-02  0.1442326E+00
          2   -1    0    0  502    0  0.00000000000E+00  0.00000000000E+00  0.68991255111E+03  0.68991255111E+03  0.00000000000E+00 0. -1.
          1   -1    0    0  501    0 -0.00000000000E+00 -0.00000000000E+00 -0.78415190541E+02  0.78415190541E+02  0.00000000000E+00 0. -1.
         25    2    1    2    0    0  0.86847518844E+02  0.53385558741E+02  0.11929922093E+03  0.20062430688E+03  0.12500119594E+03 0.  0.
          2    1    1    2  501    0 -0.60370633772E+02 -0.30584598823E+02 -0.63125445693E+01  0.67969694174E+02  0.00000000000E+00 0. -1.
          1    1    1    2  502    0 -0.26476885072E+02 -0.22800959918E+02  0.49851068421E+03  0.49973374060E+03  0.00000000000E+00 0. -1.
         22    1    3    3    0    0 -0.21697198330E+02  0.34377194250E+02  0.67649227548E+02  0.78923874004E+02  0.00000000000E+00 0.  1.
         22    1    3    3    0    0  0.10854471717E+03  0.19008364491E+02  0.51649993380E+02  0.12170043288E+03  0.00000000000E+00 0.  1.
</event>
<event>
 7    1  0.5452757E-006  0.1583123E+03  0.7818608E-02  0.1308528E+00
          2   -1    0    0  502    0  0.00000000000E+00  0.00000000000E+00  0.15441441788E+04  0.15441441788E+04  0.00000000000E+00 0. -1.
          1   -1    0    0  501    0 -0.00000000000E+00 -0.00000000000E+00 -0.49664198538E+03  0.49664198538E+03  0.00000000000E+00 0. -1.
         25    2    1    2    0    0 -0.90997347664E+02 -0.14586000081E+03 -0.61329905360E+02  0.22122538067E+03  0.12499461846E+03 0.  0.
          2    1    1    2  501    0  0.11654522210E+03  0.10454138299E+03 -0.33769273275E+03  0.37222046061E+03  0.00000000000E+00 0. -1.
          1    1    1    2  502    0 -0.25547874436E+02  0.41318617824E+02  0.14465248315E+04  0.14473403229E+04  0.00000000000E+00 0. -1.
         22    1    3    3    0    0 -0.48567387428E+02 -0.10024390905E+03  0.25584216468E+02  0.11428991450E+03  0.00000000000E+00 0.  1.
         22    1    3    3    0    0 -0.42429960236E+02 -0.45616091760E+02 -0.86914121828E+02  0.10693546618E+03  0.00000000000E+00 0.  1.
</event>
<event>
 7    1  0.5452757E-006  0.3023592E+03  0.7818608E-02  0.1159145E+00
          2   -1    0    0  502    0  0.00000000000E+00  0.00000000000E+00  0.12203652918E+04  0.12203652918E+04  0.00000000000E+00 0. -1.
          1   -1    0    0  501    0 -0.00000000000E+00 -0.00000000000E+00 -0.36319264476E+04  0.36319264476E+04  0.00000000000E+00 0. -1.
         25    2    1    2    0    0  0.21977381233E+03  0.41053832505E+02 -0.19754042519E+03  0.32347131735E+03  0.12500211125E+03 0.  0.
          2    1    1    2  501    0  0.52341385480E+02  0.10625402275E+03 -0.33496737671E+04  0.33517672777E+04  0.00000000000E+00 0. -1.
          1    1    1    2  502    0 -0.27211519781E+03 -0.14730785526E+03  0.11356530366E+04  0.11770531443E+04  0.00000000000E+00 0. -1.
         22    1    3    3    0    0  0.13028747380E+03  0.85542117362E+02 -0.12858281707E+03  0.20205400397E+03  0.00000000000E+00 0.  1.
         22    1    3    3    0    0  0.89486338525E+02 -0.44488284857E+02 -0.68957608121E+02  0.12141731339E+03  0.00000000000E+00 0.  1.
</event>
<event>
 7    1  0.5452757E-006  0.2288061E+03  0.7818608E-02  0.1138140E+00
          2   -1    0    0  502    0  0.00000000000E+00  0.00000000000E+00  0.12870059685E+04  0.12870059685E+04  0.00000000000E+00 0. -1.
          1   -1    0    0  501    0 -0.00000000000E+00 -0.00000000000E+00 -0.54538649006E+03  0.54538649006E+03  0.00000000000E+00 0. -1.
         25    2    1    2    0    0  0.31425367609E+03  0.27225478782E+02  0.27340864361E+03  0.43574717663E+03  0.12500686346E+03 0.  0.
          2    1    1    2  501    0 -0.18727864280E+03  0.12842566048E+03 -0.42460352778E+03  0.48151282031E+03  0.00000000000E+00 0. -1.
          1    1    1    2  502    0 -0.12697503328E+03 -0.15565113927E+03  0.89281436263E+03  0.91513246164E+03  0.00000000000E+00 0. -1.
         22    1    3    3    0    0 -0.60442136100E+01  0.60371568748E+01 -0.57867710059E+01  0.10318260511E+02  0.00000000000E+00 0.  1.
         22    1    3    3    0    0  0.32029788970E+03  0.21188321907E+02  0.27919541462E+03  0.42542891612E+03  0.00000000000E+00 0.  1.
</event>
<event>
 7    1  0.5452757E-006  0.1275673E+03  0.7818608E-02  0.1432119E+00
          2   -1    0    0  502    0  0.00000000000E+00  0.00000000000E+00  0.75064890563E+03  0.75064890563E+03  0.00000000000E+00 0. -1.
          1   -1    0    0  501    0 -0.00000000000E+00 -0.00000000000E+00 -0.82225660948E+03  0.82225660948E+03  0.00000000000E+00 0. -1.
         25    2    1    2    0    0  0.16031072229E+02  0.13763418325E+03 -0.13616969296E+03  0.23101966403E+03  0.12501094436E+03 0.  0.
          2    1    1    2  501    0 -0.18970400105E+02 -0.10405192514E+02 -0.63271778062E+03  0.63308761955E+03  0.00000000000E+00 0. -1.
          1    1    1    2  502    0  0.29393278757E+01 -0.12722899073E+03  0.69727976974E+03  0.70879823153E+03  0.00000000000E+00 0. -1.
         22    1    3    3    0    0  0.65257349612E+02  0.86040274577E+02 -0.49523783186E+02  0.11880259100E+03  0.00000000000E+00 0.  1.
         22    1    3    3    0    0 -0.49226277383E+02  0.51593908671E+02 -0.86645909779E+02  0.11221707303E+03  0.00000000000E+00 0.  1.
</event>
<event>
 7    1  0.5452757E-006  0.7522087E+02  0.7818608E-02  0.1474659E+00
          2   -1    0    0  502    0  0.00000000000E+00  0.00000000000E+00  0.14356992505E+04  0.14356992505E+04  0.00000000000E+00 0. -1.
          1   -1    0    0  501    0 -0.00000000000E+00 -0.00000000000E+00 -0.33520865270E+03  0.33520865270E+03  0.00000000000E+00 0. -1.
         25    2    1    2    0    0 -0.19786364895E+02 -0.54709383581E+02 -0.55030360203E+02  0.14844941833E+03  0.12499708945E+03 0.  0.
          2    1    1    2  501    0  0.17158002510E+02 -0.20665372285E+02 -0.23166843499E+03  0.23322032166E+03  0.00000000000E+00 0. -1.
          1    1    1    2  502    0  0.26283623854E+01  0.75374755866E+02  0.13871893929E+04  0.13892381632E+04  0.00000000000E+00 0. -1.
         22    1    3    3    0    0  0.17036029390E+02  0.33974311162E+01 -0.74866119665E+02  0.76855089026E+02  0.00000000000E+00 0.  1.
         22    1    3    3    0    0 -0.36822394286E+02 -0.58106814698E+02  0.19835759462E+02  0.71594329305E+02  0.00000000000E+00 0.  1.
</event>
<event>
 7    1  0.5452757E-006  0.2978410E+03  0.7818608E-02  0.1186852E+00
          2   -1    0    0  502    0  0.00000000000E+00  0.00000000000E+00  0.19354463509E+04  0.19354463509E+04  0.00000000000E+00 0. -1.
          1   -1    0    0  501    0 -0.00000000000E+00 -0.00000000000E+00 -0.86611699122E+03  0.86611699122E+03  0.00000000000E+00 0. -1.
         25    2    1    2    0    0  0.31832058991E+03 -0.10713110782E+03 -0.38661490079E+02  0.36045144448E+03  0.12500184315E+03 0.  0.
          2    1    1    2  501    0 -0.23094121182E+02  0.84633726037E+02 -0.65124862285E+03  0.65713086580E+03  0.00000000000E+00 0. -1.
          1    1    1    2  502    0 -0.29522646872E+03  0.22497381782E+02  0.17592394726E+04  0.17839810319E+04  0.00000000000E+00 0. -1.
         22    1    3    3    0    0  0.15154591055E+03 -0.11482673806E+03 -0.35792455775E+02  0.19347465640E+03  0.00000000000E+00 0.  1.
         22    1    3    3    0    0  0.16677467936E+03  0.76956302420E+01 -0.28690343044E+01  0.16697678808E+03  0.00000000000E+00 0.  1.
</event>
<event>
 7    1  0.5452757E-006  0.4981256E+02  0.7818608E-02  0.1454406E+00
          2   -1    0    0  502    0  0.00000000000E+00  0.00000000000E+00  0.25856390319E+03  0.25856390319E+03  0.00000000000E+00 0. -1.
          1   -1    0    0  501    0 -0.00000000000E+00 -0.00000000000E+00 -0.47585858060E+03  0.47585858060E+03  0.00000000000E+00 0. -1.
         25    2    1    2    0    0 -0.23554701680E+02  0.32211470168E+02 -0.13234329495E+03  0.18636577997E+03  0.12500021378E+03 0.  0.
          2    1    1    2  501    0 -0.26345181232E+02 -0.38856107469E+02 -0.31199100989E+03  0.31550317892E+03  0.00000000000E+00 0. -1.
          1    1    1    2  502    0  0.49899882912E+02  0.66446373008E+01  0.22703962743E+03  0.23255352490E+03  0.00000000000E+00 0. -1.
         22    1    3    3    0    0  0.35098509607E+01  0.43713737380E+02 -0.14707558995E+03  0.15347455505E+03  0.00000000000E+00 0. -1.
         22    1    3    3    0    0 -0.27064552641E+02 -0.11502267212E+02  0.14732294999E+02  0.32891224918E+02  0.00000000000E+00 0. -1.
</event>
<event>
 7    1  0.5452757E-006  0.6225475E+02  0.7818608E-02  0.1453661E+00
          2   -1    0    0  502    0  0.00000000000E+00  0.00000000000E+00  0.16545814486E+04  0.16545814486E+04  0.00000000000E+00 0. -1.
          1   -1    0    0  501    0 -0.00000000000E+00 -0.00000000000E+00 -0.18044583988E+02  0.18044583988E+02  0.00000000000E+00 0. -1.
         25    2    1    2    0    0 -0.46712044699E+02 -0.31753954367E+01  0.61981380954E+03  0.63402394534E+03  0.12500042606E+03 0.  0.
          2    1    1    2  501    0 -0.10023767059E+02  0.36414032409E+02  0.26357967480E+02  0.46056488273E+02  0.00000000000E+00 0. -1.
          1    1    1    2  502    0  0.56735811758E+02 -0.33238636972E+02  0.99036508763E+03  0.99254559901E+03  0.00000000000E+00 0. -1.
         22    1    3    3    0    0 -0.18999161278E+02 -0.63780416532E+02  0.33059788051E+03  0.33722969658E+03  0.00000000000E+00 0. -1.
         22    1    3    3    0    0 -0.27712883421E+02  0.60605021096E+02  0.28921592903E+03  0.29679424876E+03  0.00000000000E+00 0. -1.
</event>
<event>
 7    1  0.5452757E-006  0.2098739E+03  0.7818608E-02  0.1189512E+00
          2   -1    0    0  502    0  0.00000000000E+00  0.00000000000E+00  0.11225978744E+04  0.11225978744E+04  0.00000000000E+00 0. -1.
          1   -1    0    0  501    0 -0.00000000000E+00 -0.00000000000E+00 -0.16391338982E+04  0.16391338982E+04  0.00000000000E+00 0. -1.
         25    2    1    2    0    0 -0.14061966414E+03 -0.14971627768E+03  0.57761301963E+03  0.62565940637E+03  0.12499615428E+03 0.  0.
          2    1    1    2  501    0  0.93234251381E+02 -0.76942292988E+02 -0.15869669920E+04  0.15915643172E+04  0.00000000000E+00 0. -1.
          1    1    1    2  502    0  0.47385412762E+02  0.22665857067E+03  0.49281794860E+03  0.54450804903E+03  0.00000000000E+00 0. -1.
         22    1    3    3    0    0 -0.49196639644E+02 -0.76983864481E+02  0.41795602971E+03  0.42782480937E+03  0.00000000000E+00 0.  1.
         22    1    3    3    0    0 -0.91423024499E+02 -0.72732413203E+02  0.15965698992E+03  0.19783459700E+03  0.00000000000E+00 0.  1.
</event>
<event>
 7    1  0.1242705E-005  0.9722298E+02  0.7818608E-02  0.1289718E+00
          2   -1    0    0  502    0  0.00000000000E+00  0.00000000000E+00  0.11074048203E+04  0.11074048203E+04  0.00000000000E+00 0. -1.
          1   -1    0    0  501    0 -0.00000000000E+00 -0.00000000000E+00 -0.22366036985E+04  0.22366036985E+04  0.00000000000E+00 0. -1.
         25    2    1    2    0    0 -0.13439250873E+02 -0.78069248309E+02 -0.25789689533E+03  0.29733987657E+03  0.12499909034E+03 0.  0.
          2    1    1    2  501    0  0.94659081722E+02  0.24630988155E+02 -0.19555880169E+04  0.19580325633E+04  0.00000000000E+00 0. -1.
          1    1    1    2  502    0 -0.81219830849E+02  0.53438260154E+02  0.10842860340E+04  0.10886360788E+04  0.00000000000E+00 0. -1.
         22    1    3    3    0    0  0.50972810528E+02 -0.63165114080E+01 -0.97127723536E+02  0.10987229136E+03  0.00000000000E+00 0. -1.
         22    1    3    3    0    0 -0.64412061401E+02 -0.71752736901E+02 -0.16076917179E+03  0.18746758521E+03  0.00000000000E+00 0. -1.
</event>
<event>
 7    1  0.5452757E-006  0.6596583E+02  0.7818608E-02  0.1452056E+00
          2   -1    0    0  502    0  0.00000000000E+00  0.00000000000E+00  0.15936508601E+03  0.15936508601E+03  0.00000000000E+00 0. -1.
          1   -1    0    0  501    0 -0.00000000000E+00 -0.00000000000E+00 -0.99778278149E+03  0.99778278149E+03  0.00000000000E+00 0. -1.
         25    2    1    2    0    0  0.29613527765E+02  0.59770034434E+02 -0.34715515747E+03  0.37495525223E+03  0.12500127910E+03 0.  0.
          2    1    1    2  501    0  0.26398268332E+02 -0.24574047510E+02 -0.62866307219E+03  0.62969676093E+03  0.00000000000E+00 0. -1.
          1    1    1    2  502    0 -0.56011796097E+02 -0.35195986924E+02  0.13740053418E+03  0.15249585434E+03  0.00000000000E+00 0. -1.
         22    1    3    3    0    0 -0.38119726634E+02  0.39243489708E+02 -0.69655517881E+02  0.88572321943E+02  0.00000000000E+00 0. -1.
         22    1    3    3    0    0  0.67733254399E+02  0.20526544726E+02 -0.27749963959E+03  0.28638293029E+03  0.00000000000E+00 0. -1.
</event>
<event>
 7    1  0.5452757E-006  0.1927226E+03  0.7818608E-02  0.1364604E+00
          2   -1    0    0  502    0  0.00000000000E+00  0.00000000000E+00  0.62219741387E+03  0.62219741387E+03  0.00000000000E+00 0. -1.
          1   -1    0    0  501    0 -0.00000000000E+00 -0.00000000000E+00 -0.95859074045E+03  0.95859074045E+03  0.00000000000E+00 0. -1.
         25    2    1    2    0    0  0.71092673736E+02 -0.18228420959E+03 -0.48024436352E+03  0.53342409409E+03  0.12499965656E+03 0.  0.
          2    1    1    2  501    0 -0.24053667557E+02 -0.45637225063E+01 -0.43582119970E+03  0.43650833278E+03  0.00000000000E+00 0. -1.
          1    1    1    2  502    0 -0.47039006179E+02  0.18684793210E+03  0.57967223663E+03  0.61085572744E+03  0.00000000000E+00 0. -1.
         22    1    3    3    0    0 -0.31273599814E+02 -0.74435516044E+02 -0.20976919630E+03  0.22477054925E+03  0.00000000000E+00 0. -1.
         22    1    3    3    0    0  0.10236627355E+03 -0.10784869355E+03 -0.27047516722E+03  0.30865354484E+03  0.00000000000E+00 0. -1.
</event>
<event>
 7    1  0.5452757E-006  0.5747026E+02  0.7818608E-02  0.1515276E+00
          2   -1    0    0  502    0  0.00000000000E+00  0.00000000000E+00  0.30645005602E+03  0.30645005602E+03  0.00000000000E+00 0. -1.
          1   -1    0    0  501    0 -0.00000000000E+00 -0.00000000000E+00 -0.11373169848E+03  0.11373169848E+03  0.00000000000E+00 0. -1.
         25    2    1    2    0    0 -0.17738100168E+02  0.32179093840E+02  0.26755839449E+03  0.29759541062E+03  0.12500159873E+03 0.  0.
          2    1    1    2  501    0  0.96502521480E+01 -0.57458720400E+02 -0.76303103986E+02  0.96004143632E+02  0.00000000000E+00 0. -1.
          1    1    1    2  502    0  0.80878480201E+01  0.25279626560E+02  0.14630670389E+01  0.26582200243E+02  0.00000000000E+00 0. -1.
         22    1    3    3    0    0 -0.18146868508E+02 -0.38912021833E+02  0.17876297759E+03  0.18384682873E+03  0.00000000000E+00 0.  1.
         22    1    3    3    0    0  0.40876834017E+00  0.71091115673E+02  0.88795416900E+02  0.11374858189E+03  0.00000000000E+00 0.  1.
</event>
<event>
 7    1  0.5452757E-006  0.8458820E+02  0.7818608E-02  0.1359289E+00
          2   -1    0    0  502    0  0.00000000000E+00  0.00000000000E+00  0.37503266740E+03  0.37503266740E+03  0.00000000000E+00 0. -1.
          1   -1    0    0  501    0 -0.00000000000E+00 -0.00000000000E+00 -0.15387578857E+04  0.15387578857E+04  0.00000000000E+00 0. -1.
         25    2    1    2    0    0 -0.40210373175E+02  0.11708065479E+03 -0.15831371308E+03  0.23666883090E+03  0.12499659968E+03 0.  0.
          2    1    1    2  501    0 -0.16976724118E+02 -0.55794872375E+02 -0.13353900642E+04  0.13366629719E+04  0.00000000000E+00 0. -1.
          1    1    1    2  502    0  0.57187097293E+02 -0.61285782415E+02  0.32997855901E+03  0.34045875026E+03  0.00000000000E+00 0. -1.
         22    1    3    3    0    0 -0.14478973863E+02 -0.24180499727E+02 -0.91641629926E+01  0.29636449425E+02  0.00000000000E+00 0. -1.
         22    1    3    3    0    0 -0.25731399312E+02  0.14126115452E+03 -0.14914955009E+03  0.20703238147E+03  0.00000000000E+00 0. -1.
</event>
<event>
 7    1  0.5452757E-006  0.5730529E+02  0.7818608E-02  0.1530688E+00
          2   -1    0    0  502    0  0.00000000000E+00  0.00000000000E+00  0.11166866143E+04  0.11166866143E+04  0.00000000000E+00 0. -1.
          1   -1    0    0  501    0 -0.00000000000E+00 -0.00000000000E+00 -0.17007421252E+03  0.17007421252E+03  0.00000000000E+00 0. -1.
         25    2    1    2    0    0 -0.33818220142E+02  0.37811198152E+01 -0.85908986169E+02  0.15544501601E+03  0.12499932087E+03 0.  0.
          2    1    1    2  501    0 -0.23633809018E+02 -0.42996267825E+01 -0.45665990493E+02  0.51598705477E+02  0.00000000000E+00 0. -1.
          1    1    1    2  502    0  0.57452029160E+02  0.51850696737E+00  0.10781873784E+04  0.10797171053E+04  0.00000000000E+00 0. -1.
         22    1    3    3    0    0 -0.38306192214E+02  0.40689113307E+02  0.60927444181E+01  0.56214676359E+02  0.00000000000E+00 0.  1.
         22    1    3    3    0    0  0.44879720717E+01 -0.36907993491E+02 -0.92001730588E+02  0.99230339655E+02  0.00000000000E+00 0.  1.
</event>
<event>
 7    1  0.5452757E-006  0.5779566E+02  0.7818608E-02  0.1437672E+00
          2   -1    0    0  502    0  0.00000000000E+00  0.00000000000E+00  0.84608212526E+03  0.84608212526E+03  0.00000000000E+00 0. -1.
          1   -1    0    0  501    0 -0.00000000000E+00 -0.00000000000E+00 -0.43474171356E+03  0.43474171356E+03  0.00000000000E+00 0. -1.
         25    2    1    2    0    0  0.28680155703E+01 -0.14496654102E+02  0.88242208900E+02  0.15372120081E+03  0.12500056661E+03 0.  0.
          2    1    1    2  501    0 -0.11768812669E+02 -0.44263965281E+02 -0.39947367347E+03  0.40209080985E+03  0.00000000000E+00 0. -1.
          1    1    1    2  502    0  0.89007970986E+01  0.58760619382E+02  0.72257187628E+03  0.72501182815E+03  0.00000000000E+00 0. -1.
         22    1    3    3    0    0 -0.36201327911E+02  0.42863384401E+02  0.33664725809E+02  0.65430265387E+02  0.00000000000E+00 0. -1.
         22    1    3    3    0    0  0.39069343481E+02 -0.57360038502E+02  0.54577483092E+02  0.88290935422E+02  0.00000000000E+00 0. -1.
</event>
<event>
 7    1  0.5452757E-006  0.1184821E+03  0.7818608E-02  0.1246680E+00
          2   -1    0    0  502    0  0.00000000000E+00  0.00000000000E+00  0.29595197744E+04  0.29595197744E+04  0.00000000000E+00 0. -1.
          1   -1    0    0  501    0 -0.00000000000E+00 -0.00000000000E+00 -0.76394961965E+03  0.76394961965E+03  0.00000000000E+00 0. -1.
         25    2    1    2    0    0 -0.44850468518E+02 -0.25094315427E+02  0.26873705783E+03  0.30081263951E+03  0.12500939422E+03 0.  0.
          2    1    1    2  501    0 -0.27977155406E+02  0.11695660835E+03 -0.74178271346E+03  0.75146734024E+03  0.00000000000E+00 0. -1.
          1    1    1    2  502    0  0.72827623924E+02 -0.91862292927E+02  0.26686158104E+04  0.26711894143E+04  0.00000000000E+00 0. -1.
         22    1    3    3    0    0 -0.49882544340E+02 -0.71791213677E+02  0.15901374417E+03  0.18145968540E+03  0.00000000000E+00 0. -1.
         22    1    3    3    0    0  0.50320758223E+01  0.46696898250E+02  0.10972331366E+03  0.11935295411E+03  0.00000000000E+00 0. -1.
</event>
<event>
 7    1  0.5452757E-006  0.8126921E+02  0.7818608E-02  0.1401806E+00
          2   -1    0    0  502    0  0.00000000000E+00  0.00000000000E+00  0.60638092775E+03  0.60638092775E+03  0.00000000000E+00 0. -1.
          1   -1    0    0  501    0 -0.00000000000E+00 -0.00000000000E+00 -0.65480720026E+03  0.65480720026E+03  0.00000000000E+00 0. -1.
         25    2    1    2    0    0  0.32235665621E+02  0.23650750823E+02 -0.15318499881E+03  0.20171130235E+03  0.12499323776E+03 0.  0.
          2    1    1    2  501    0  0.40626474924E+02  0.13856776314E+02 -0.47349923085E+03  0.47544089257E+03  0.00000000000E+00 0. -1.
          1    1    1    2  502    0 -0.72862140545E+02 -0.37507527137E+02  0.57825795715E+03  0.58403593308E+03  0.00000000000E+00 0. -1.
         22    1    3    3    0    0  0.18900862060E+02 -0.44913641534E+02 -0.22807766710E+02  0.53802156135E+02  0.00000000000E+00 0. -1.
         22    1    3    3    0    0  0.13334803561E+02  0.68564392357E+02 -0.13037723210E+03  0.14790914622E+03  0.00000000000E+00 0. -1.
</event>
<event>
 7    1  0.5452757E-006  0.1738971E+03  0.7818608E-02  0.1180132E+00
          2   -1    0    0  502    0  0.00000000000E+00  0.00000000000E+00  0.15097974210E+04  0.15097974210E+04  0.00000000000E+00 0. -1.
          1   -1    0    0  501    0 -0.00000000000E+00 -0.00000000000E+00 -0.82176386559E+03  0.82176386559E+03  0.00000000000E+00 0. -1.
         25    2    1    2    0    0 -0.14326194196E+03 -0.24664971789E+03 -0.15985824194E+03  0.35005440825E+03  0.12499345531E+03 0.  0.
          2    1    1    2  501    0 -0.67970402270E+01  0.16182835939E+03 -0.54983285729E+03  0.57319350015E+03  0.00000000000E+00 0. -1.
          1    1    1    2  502    0  0.15005898219E+03  0.84821358500E+02  0.13977246547E+04  0.14083133782E+04  0.00000000000E+00 0. -1.
         22    1    3    3    0    0 -0.72983026908E+01 -0.40905670708E+02 -0.81182061658E+02  0.91197950927E+02  0.00000000000E+00 0. -1.
         22    1    3    3    0    0 -0.13596363927E+03 -0.20574404718E+03 -0.78676180281E+02  0.25885645733E+03  0.00000000000E+00 0. -1.
</event>
<event>
 7    1  0.5452757E-006  0.1085886E+03  0.7818608E-02  0.1406924E+00
          2   -1    0    0  502    0  0.00000000000E+00  0.00000000000E+00  0.46167727917E+03  0.46167727917E+03  0.00000000000E+00 0. -1.
          1   -1    0    0  501    0 -0.00000000000E+00 -0.00000000000E+00 -0.24018633803E+03  0.24018633803E+03  0.00000000000E+00 0. -1.
         25    2    1    2    0    0  0.25745074872E+02  0.99068521349E+02 -0.64491011007E+01  0.16169077031E+03  0.12499973399E+03 0.  0.
          2    1    1    2  501    0 -0.29050472581E+02  0.10404508403E+02 -0.14666992082E+03  0.14988078404E+03  0.00000000000E+00 0. -1.
          1    1    1    2  502    0  0.33053977089E+01 -0.10947302975E+03  0.37460996306E+03  0.39029206285E+03  0.00000000000E+00 0. -1.
         22    1    3    3    0    0  0.94953870773E+01  0.10712180882E+03  0.37702677435E+02  0.11395936199E+03  0.00000000000E+00 0. -1.
         22    1    3    3    0    0  0.16249687795E+02 -0.80532874685E+01 -0.44151778535E+02  0.47731408321E+02  0.00000000000E+00 0. -1.
</event>
<event>
 7    1  0.5452757E-006  0.6302020E+02  0.7818608E-02  0.1399747E+00
          2   -1    0    0  502    0  0.00000000000E+00  0.00000000000E+00  0.15026939666E+04  0.15026939666E+04  0.00000000000E+00 0. -1.
          1   -1    0    0  501    0 -0.00000000000E+00 -0.00000000000E+00 -0.59466195368E+02  0.59466195368E+02  0.00000000000E+00 0. -1.
         25    2    1    2    0    0  0.23040954105E+02 -0.91042985154E+02  0.49958296851E+03  0.52347675523E+03  0.12500024049E+03 0.  0.
          2    1    1    2  501    0  0.22631898285E+02  0.58186348660E+02 -0.25838876255E+02  0.67568495000E+02  0.00000000000E+00 0. -1.
          1    1    1    2  502    0 -0.45672852390E+02  0.32856636493E+02  0.96948367894E+03  0.97111491171E+03  0.00000000000E+00 0. -1.
         22    1    3    3    0    0  0.60029639586E+02 -0.60318426587E+02  0.16696567365E+03  0.18740172463E+03  0.00000000000E+00 0. -1.
         22    1    3    3    0    0 -0.36988685481E+02 -0.30724558567E+02  0.33261729486E+03  0.33607503060E+03  0.00000000000E+00 0. -1.
</event>
<event>
 7    1  0.5452757E-006  0.5626262E+02  0.7818608E-02  0.1503910E+00
          2   -1    0    0  502    0  0.00000000000E+00  0.00000000000E+00  0.99722913454E+02  0.99722913454E+02  0.00000000000E+00 0. -1.
          1   -1    0    0  501    0 -0.00000000000E+00 -0.00000000000E+00 -0.55521418858E+03  0.55521418858E+03  0.00000000000E+00 0. -1.
         25    2    1    2    0    0  0.51030078856E+02  0.35060192573E+02 -0.20387101661E+03  0.24702445243E+03  0.12499761052E+03 0.  0.
          2    1    1    2  501    0 -0.25885518810E+02 -0.50070101714E+02 -0.32450558647E+03  0.32936446502E+03  0.00000000000E+00 0. -1.
          1    1    1    2  502    0 -0.25144560047E+02  0.15009909141E+02  0.72885327944E+02  0.78548184587E+02  0.00000000000E+00 0. -1.
         22    1    3    3    0    0  0.15496736954E+02 -0.47138511892E+02 -0.80836257454E+02  0.94850876004E+02  0.00000000000E+00 0. -1.
         22    1    3    3    0    0  0.35533341902E+02  0.82198704466E+02 -0.12303475915E+03  0.15217357643E+03  0.00000000000E+00 0. -1.
</event>
<event>
 7    1  0.5452757E-006  0.8173300E+02  0.7818608E-02  0.1378898E+00
          2   -1    0    0  502    0  0.00000000000E+00  0.00000000000E+00  0.12138471247E+04  0.12138471247E+04  0.00000000000E+00 0. -1.
          1   -1    0    0  501    0 -0.00000000000E+00 -0.00000000000E+00 -0.25029350186E+04  0.25029350186E+04  0.00000000000E+00 0. -1.
         25    2    1    2    0    0  0.32490981842E+02  0.28068227398E+02  0.38652329330E+02  0.13770800800E+03  0.12500401439E+03 0.  0.
          2    1    1    2  501    0 -0.81207437185E+02 -0.11985286580E+02 -0.24521355004E+04  0.24535090803E+04  0.00000000000E+00 0. -1.
          1    1    1    2  502    0  0.48716455343E+02 -0.16082940818E+02  0.11243952771E+04  0.11255650550E+04  0.00000000000E+00 0. -1.
         22    1    3    3    0    0  0.31536288716E+01 -0.29869575465E+02  0.61841820237E+02  0.68749891954E+02  0.00000000000E+00 0.  1.
         22    1    3    3    0    0  0.29337352971E+02  0.57937802863E+02 -0.23189490907E+02  0.68958116044E+02  0.00000000000E+00 0.  1.
</event>
<event>
 7    1  0.5452757E-006  0.4993916E+02  0.7818608E-02  0.1568361E+00
          2   -1    0    0  502    0  0.00000000000E+00  0.00000000000E+00  0.55709061195E+03  0.55709061195E+03  0.00000000000E+00 0. -1.
          1   -1    0    0  501    0 -0.00000000000E+00 -0.00000000000E+00 -0.10038586296E+03  0.10038586296E+03  0.00000000000E+00 0. -1.
         25    2    1    2    0    0  0.30526713341E+01  0.28608917659E+02  0.33575420820E+03  0.35942119883E+03  0.12499968351E+03 0.  0.
          2    1    1    2  501    0 -0.68204861259E+01 -0.49914821070E+02 -0.80761424326E+02  0.95186217766E+02  0.00000000000E+00 0. -1.
          1    1    1    2  502    0  0.37678147918E+01  0.21305903411E+02  0.20171196512E+03  0.20286905831E+03  0.00000000000E+00 0. -1.
         22    1    3    3    0    0  0.10821384824E+02  0.68471705632E+02  0.10984144721E+03  0.12988695226E+03  0.00000000000E+00 0. -1.
         22    1    3    3    0    0 -0.77687134894E+01 -0.39862787973E+02  0.22591276098E+03  0.22953424657E+03  0.00000000000E+00 0. -1.
</event>
<event>
 7    1  0.5452757E-006  0.4580034E+02  0.7818608E-02  0.1494527E+00
          2   -1    0    0  502    0  0.00000000000E+00  0.00000000000E+00  0.61606679018E+03  0.61606679018E+03  0.00000000000E+00 0. -1.
          1   -1    0    0  501    0 -0.00000000000E+00 -0.00000000000E+00 -0.28325001483E+03  0.28325001483E+03  0.00000000000E+00 0. -1.
         25    2    1    2    0    0  0.71433233296E+02 -0.41018386726E+02  0.90293462275E+01  0.14997107590E+03  0.12499831857E+03 0.  0.
          2    1    1    2  501    0 -0.35767141191E+02  0.26865098537E+02 -0.20973140589E+03  0.21444879231E+03  0.00000000000E+00 0. -1.
          1    1    1    2  502    0 -0.35666092104E+02  0.14153288189E+02  0.53351883501E+03  0.53489693680E+03  0.00000000000E+00 0. -1.
         22    1    3    3    0    0  0.49973011993E+02 -0.25672723037E+02 -0.56287205540E+02  0.79527606171E+02  0.00000000000E+00 0.  1.
         22    1    3    3    0    0  0.21460221302E+02 -0.15345663689E+02  0.65316551768E+02  0.70443469727E+02  0.00000000000E+00 0.  1.
</event>
<event>
 7    1  0.5452757E-006  0.1318426E+03  0.7818608E-02  0.1245407E+00
          2   -1    0    0  502    0  0.00000000000E+00  0.00000000000E+00  0.10852156693E+04  0.10852156693E+04  0.00000000000E+00 0. -1.
          1   -1    0    0  501    0 -0.00000000000E+00 -0.00000000000E+00 -0.49983691667E+03  0.49983691667E+03  0.00000000000E+00 0. -1.
         25    2    1    2    0    0  0.10585905873E+03 -0.17701139703E+03 -0.12763929276E+03  0.27286592532E+03  0.12499939661E+03 0.  0.
          2    1    1    2  501    0  0.42757844216E+01  0.10662028305E+03 -0.28568713069E+03  0.30496443028E+03  0.00000000000E+00 0. -1.
          1    1    1    2  502    0 -0.11013484316E+03  0.70391113976E+02  0.99870517606E+03  0.10072222303E+04  0.00000000000E+00 0. -1.
         22    1    3    3    0    0  0.76680741414E+02 -0.30196991761E+02 -0.11086774100E+02  0.83154741147E+02  0.00000000000E+00 0.  1.
         22    1    3    3    0    0  0.29178317321E+02 -0.14681440527E+03 -0.11655251866E+03  0.18971118418E+03  0.00000000000E+00 0.  1.
</event>
<event>
 7    1  0.5452757E-006  0.1619253E+03  0.7818608E-02  0.1271121E+00
          2   -1    0    0  502    0  0.00000000000E+00  0.00000000000E+00  0.39922579348E+03  0.39922579348E+03  0.00000000000E+00 0. -1.
          1   -1    0    0  501    0 -0.00000000000E+00 -0.00000000000E+00 -0.13329390065E+04  0.13329390065E+04  0.00000000000E+00 0. -1.
         25    2    1    2    0    0  0.11265504964E+03  0.64688931476E+02 -0.56349335277E+03  0.59162700409E+03  0.12498774054E+03 0.  0.
          2    1    1    2  501    0 -0.14667566302E+02  0.65816700448E+02 -0.73648197053E+03  0.73956248449E+03  0.00000000000E+00 0. -1.
          1    1    1    2  502    0 -0.97987483335E+02 -0.13050563192E+03  0.36626211033E+03  0.40097531135E+03  0.00000000000E+00 0. -1.
         22    1    3    3    0    0  0.41557644914E+02  0.92646528391E+02 -0.36752121154E+03  0.38129025428E+03  0.00000000000E+00 0.  1.
         22    1    3    3    0    0  0.71097404723E+02 -0.27957596915E+02 -0.19597214123E+03  0.21033674981E+03  0.00000000000E+00 0.  1.
</event>
<event>
 7    1  0.5452757E-006  0.1069723E+03  0.7818608E-02  0.1331233E+00
          2   -1    0    0  502    0  0.00000000000E+00  0.00000000000E+00  0.54334552885E+03  0.54334552885E+03  0.00000000000E+00 0. -1.
          1   -1    0    0  501    0 -0.00000000000E+00 -0.00000000000E+00 -0.19724322370E+04  0.19724322370E+04  0.00000000000E+00 0. -1.
         25    2    1    2    0    0 -0.11721930835E+03  0.77430161889E+02 -0.23571743375E+03  0.30153462663E+03  0.12499850504E+03 0.  0.
          2    1    1    2  501    0  0.57677092339E+02  0.10864769067E+02 -0.16977389003E+04  0.16987530909E+04  0.00000000000E+00 0. -1.
          1    1    1    2  502    0  0.59542216013E+02 -0.88294930956E+02  0.50436962594E+03  0.51549004829E+03  0.00000000000E+00 0. -1.
         22    1    3    3    0    0 -0.12017199682E+03  0.22146870883E+02 -0.20381305756E+03  0.23763744474E+03  0.00000000000E+00 0. -1.
         22    1    3    3    0    0  0.29526884714E+01  0.55283291005E+02 -0.31904376193E+02  0.63897181893E+02  0.00000000000E+00 0. -1.
</event>
<event>
 7    1  0.5452757E-006  0.1412814E+03  0.7818608E-02  0.1408290E+00
          2   -1    0    0  502    0  0.00000000000E+00  0.00000000000E+00  0.16152004889E+04  0.16152004889E+04  0.00000000000E+00 0. -1.
          1   -1    0    0  501    0 -0.00000000000E+00 -0.00000000000E+00 -0.12098730865E+04  0.12098730865E+04  0.00000000000E+00 0. -1.
         25    2    1    2    0    0  0.33221644995E+02 -0.15335519618E+03  0.35818748799E+03  0.41054205601E+03  0.12500003724E+03 0.  0.
          2    1    1    2  501    0  0.10033598888E+02  0.21211353873E+02 -0.11796519501E+04  0.11798852987E+04  0.00000000000E+00 0. -1.
          1    1    1    2  502    0 -0.43255243883E+02  0.13214384230E+03  0.12267918645E+04  0.12346462206E+04  0.00000000000E+00 0. -1.
         22    1    3    3    0    0 -0.20119533675E+01 -0.13996199586E+03  0.17795275233E+03  0.22640801731E+03  0.00000000000E+00 0.  1.
         22    1    3    3    0    0  0.35233598362E+02 -0.13393200312E+02  0.18023473566E+03  0.18413403869E+03  0.00000000000E+00 0.  1.
</event>
<event>
 7    1  0.5452757E-006  0.8831456E+02  0.7818608E-02  0.1313441E+00
          2   -1    0    0  502    0  0.00000000000E+00  0.00000000000E+00  0.18532223526E+03  0.18532223526E+03  0.00000000000E+00 0. -1.
          1   -1    0    0  501    0 -0.00000000000E+00 -0.00000000000E+00 -0.97167133201E+03  0.97167133201E+03  0.00000000000E+00 0. -1.
         25    2    1    2    0    0 -0.69302552766E+02  0.58228055120E+02  0.70224671015E+02  0.16955771969E+03  0.12499986265E+03 0.  0.
          2    1    1    2  501    0  0.85849991753E+02  0.23402801052E+02 -0.89235766549E+03  0.89678320420E+03  0.00000000000E+00 0. -1.
          1    1    1    2  502    0 -0.16547438987E+02 -0.81630856171E+02  0.35783897719E+02  0.90652643383E+02  0.00000000000E+00 0. -1.
         22    1    3    3    0    0 -0.19639503334E+02  0.82873545896E+02  0.69830097853E+01  0.85454649530E+02  0.00000000000E+00 0. -1.
         22    1    3    3    0    0 -0.49663049432E+02 -0.24645490776E+02  0.63241661230E+02  0.84103070155E+02  0.00000000000E+00 0. -1.
</event>
<event>
 7    1  0.5452757E-006  0.8459448E+02  0.7818608E-02  0.1436477E+00
          2   -1    0    0  502    0  0.00000000000E+00  0.00000000000E+00  0.39212189765E+03  0.39212189765E+03  0.00000000000E+00 0. -1.
          1   -1    0    0  501    0 -0.00000000000E+00 -0.00000000000E+00 -0.15601019933E+04  0.15601019933E+04  0.00000000000E+00 0. -1.
         25    2    1    2    0    0  0.58577437669E+02 -0.97888521830E+02 -0.32623167211E+03  0.36751424846E+03  0.12500456003E+03 0.  0.
          2    1    1    2  501    0 -0.80645321319E+01  0.30526812017E+02 -0.12082492665E+04  0.12086617446E+04  0.00000000000E+00 0. -1.
          1    1    1    2  502    0 -0.50512905538E+02  0.67361709813E+02  0.36650084297E+03  0.37604789784E+03  0.00000000000E+00 0. -1.
         22    1    3    3    0    0 -0.18871610020E+02  0.19123920614E+02 -0.33960222394E+02  0.43303102770E+02  0.00000000000E+00 0. -1.
         22    1    3    3    0    0  0.77449047690E+02 -0.11701244244E+03 -0.29227144971E+03  0.32421114570E+03  0.00000000000E+00 0. -1.
</event>
<event>
 7    1  0.5452757E-006  0.1380006E+03  0.7818608E-02  0.1281141E+00
          2   -1    0    0  502    0  0.00000000000E+00  0.00000000000E+00  0.64908707832E+03  0.64908707832E+03  0.00000000000E+00 0. -1.
          1   -1    0    0  501    0 -0.00000000000E+00 -0.00000000000E+00 -0.43298001272E+03  0.43298001272E+03  0.00000000000E+00 0. -1.
         25    2    1    2    0    0 -0.88402739735E+02 -0.16040234420E+02  0.70288243374E+02  0.16922598270E+03  0.12499865020E+03 0.  0.
          2    1    1    2  501    0  0.11955226281E+03  0.80824345911E+02 -0.36734130167E+03  0.39467068595E+03  0.00000000000E+00 0. -1.
          1    1    1    2  502    0 -0.31149523071E+02 -0.64784111491E+02  0.51316012389E+03  0.51817042239E+03  0.00000000000E+00 0. -1.
         22    1    3    3    0    0 -0.27319279702E+02  0.37223485466E+02 -0.17838629142E+02  0.49498965679E+02  0.00000000000E+00 0.  1.
         22    1    3    3    0    0 -0.61083460033E+02 -0.53263719886E+02  0.88126872516E+02  0.11972701702E+03  0.00000000000E+00 0.  1.
</event>
<event>
 7    1  0.5452757E-006  0.1671863E+03  0.7818608E-02  0.1224287E+00
          2   -1    0    0  502    0  0.00000000000E+00  0.00000000000E+00  0.22066227097E+03  0.22066227097E+03  0.00000000000E+00 0. -1.
          1   -1    0    0  501    0 -0.00000000000E+00 -0.00000000000E+00 -0.67021706281E+03  0.67021706281E+03  0.00000000000E+00 0. -1.
         25    2    1    2    0    0  0.86188754607E+02 -0.31258087265E+02 -0.58205137775E+01  0.15513012000E+03  0.12500362519E+03 0.  0.
          2    1    1    2  501    0 -0.13582231150E+03  0.12318519249E+03 -0.55417660306E+03  0.58372424939E+03  0.00000000000E+00 0. -1.
          1    1    1    2  502    0  0.49633556892E+02 -0.91927105228E+02  0.11044232500E+03  0.15202496439E+03  0.00000000000E+00 0. -1.
         22    1    3    3    0    0  0.56324473112E+02  0.36332428338E+02 -0.35083285301E+02  0.75652683547E+02  0.00000000000E+00 0.  1.
         22    1    3    3    0    0  0.29864281495E+02 -0.67590515603E+02  0.29262771523E+02  0.79477436458E+02  0.00000000000E+00 0.  1.
</event>
<event>
 7    1  0.5452757E-006  0.1000203E+03  0.7818608E-02  0.1328140E+00
          2   -1    0    0  502    0  0.00000000000E+00  0.00000000000E+00  0.83192649018E+03  0.83192649018E+03  0.00000000000E+00 0. -1.
          1   -1    0    0  501    0 -0.00000000000E+00 -0.00000000000E+00 -0.16064945704E+03  0.16064945704E+03  0.00000000000E+00 0. -1.
         25    2    1    2    0    0 -0.91200930245E+02 -0.90704243816E+02  0.25452273661E+03  0.31137023338E+03  0.12499891705E+03 0.  0.
          2    1    1    2  501    0  0.26870830239E+02  0.95425474241E+02 -0.11140169626E+03  0.14912545249E+03  0.00000000000E+00 0. -1.
          1    1    1    2  502    0  0.64330100006E+02 -0.47212304248E+01  0.52815599279E+03  0.53208026134E+03  0.00000000000E+00 0. -1.
         22    1    3    3    0    0 -0.45679991573E+01 -0.91193342995E+02  0.11102758781E+03  0.14375053975E+03  0.00000000000E+00 0. -1.
         22    1    3    3    0    0 -0.86632931088E+02  0.48909917840E+00  0.14349514879E+03  0.16761969364E+03  0.00000000000E+00 0. -1.
</event>
<event>
 7    1  0.5452757E-006  0.7091391E+02  0.7818608E-02  0.1408080E+00
          2   -1    0    0  502    0  0.00000000000E+00  0.00000000000E+00  0.12313634838E+04  0.12313634838E+04  0.00000000000E+00 0. -1.
          1   -1    0    0  501    0 -0.00000000000E+00 -0.00000000000E+00 -0.30540238179E+03  0.30540238179E+03  0.00000000000E+00 0. -1.
         25    2    1    2    0    0  0.32060817572E+02  0.28308133652E+02  0.27579527493E+03  0.30580549036E+03  0.12499887122E+03 0.  0.
          2    1    1    2  501    0 -0.11769790778E+02 -0.70508831543E+02 -0.28540367996E+03  0.29421978832E+03  0.00000000000E+00 0. -1.
          1    1    1    2  502    0 -0.20291026794E+02  0.42200697892E+02  0.93556950707E+03  0.93674058695E+03  0.00000000000E+00 0. -1.
         22    1    3    3    0    0  0.44182211084E+02  0.34021287009E+02  0.28444277021E+03  0.28985721532E+03  0.00000000000E+00 0.  1.
         22    1    3    3    0    0 -0.12121393512E+02 -0.57131533578E+01 -0.86474952862E+01  0.15948275038E+02  0.00000000000E+00 0.  1.
</event>
<event>
 7    1  0.5452757E-006  0.7785924E+02  0.7818608E-02  0.1372356E+00
          2   -1    0    0  502    0  0.00000000000E+00  0.00000000000E+00  0.63094031416E+03  0.63094031416E+03  0.00000000000E+00 0. -1.
          1   -1    0    0  501    0 -0.00000000000E+00 -0.00000000000E+00 -0.73903329477E+02  0.73903329477E+02  0.00000000000E+00 0. -1.
         25    2    1    2    0    0  0.35462349972E+02  0.36899081657E+02  0.37627620415E+03  0.39978435245E+03  0.12499850465E+03 0.  0.
          2    1    1    2  501    0  0.63594977165E+00 -0.80786911238E+02 -0.30450139113E+02  0.86337364053E+02  0.00000000000E+00 0. -1.
          1    1    1    2  502    0 -0.36098299743E+02  0.43887829581E+02  0.21121091964E+03  0.21872192713E+03  0.00000000000E+00 0. -1.
         22    1    3    3    0    0 -0.47142341910E+02  0.16849039615E+02  0.14083617878E+03  0.14946946107E+03  0.00000000000E+00 0. -1.
         22    1    3    3    0    0  0.82604691882E+02  0.20050042042E+02  0.23544002536E+03  0.25031489139E+03  0.00000000000E+00 0. -1.
</event>
<event>
 7    1  0.5452757E-006  0.6296850E+02  0.7818608E-02  0.1426541E+00
          2   -1    0    0  502    0  0.00000000000E+00  0.00000000000E+00  0.41424439420E+04  0.41424439420E+04  0.00000000000E+00 0. -1.
          1   -1    0    0  501    0 -0.00000000000E+00 -0.00000000000E+00 -0.15943270032E+04  0.15943270032E+04  0.00000000000E+00 0. -1.
         25    2    1    2    0    0  0.19181256311E+02  0.77946764565E+00  0.37634292598E+03  0.39702200307E+03  0.12499577920E+03 0.  0.
          2    1    1    2  501    0  0.43681156448E+02 -0.13530157766E+02 -0.15833834813E+04  0.15840436729E+04  0.00000000000E+00 0. -1.
          1    1    1    2  502    0 -0.62862412759E+02  0.12750690120E+02  0.37551574942E+04  0.37557052692E+04  0.00000000000E+00 0. -1.
         22    1    3    3    0    0  0.62679305643E+02  0.21282195793E+02  0.12839338081E+03  0.14445237087E+03  0.00000000000E+00 0. -1.
         22    1    3    3    0    0 -0.43498049332E+02 -0.20502728148E+02  0.24794954518E+03  0.25256963220E+03  0.00000000000E+00 0. -1.
</event>
<event>
 7    1  0.5452757E-006  0.1435136E+03  0.7818608E-02  0.1331130E+00
          2   -1    0    0  502    0  0.00000000000E+00  0.00000000000E+00  0.11716829289E+04  0.11716829289E+04  0.00000000000E+00 0. -1.
          1   -1    0    0  501    0 -0.00000000000E+00 -0.00000000000E+00 -0.40934230577E+03  0.40934230577E+03  0.00000000000E+00 0. -1.
         25    2    1    2    0    0 -0.95475883349E+02  0.63168667348E+02 -0.30630484189E+02  0.17224886132E+03  0.12500207530E+03 0.  0.
          2    1    1    2  501    0 -0.25662249050E+01  0.43712016275E+02 -0.30153737417E+03  0.30470003922E+03  0.00000000000E+00 0. -1.
          1    1    1    2  502    0  0.98042108254E+02 -0.10688068362E+03  0.10945084815E+04  0.11040763342E+04  0.00000000000E+00 0. -1.
         22    1    3    3    0    0 -0.12322669362E+03  0.32831571694E+02 -0.15615531948E+02  0.12847791623E+03  0.00000000000E+00 0. -1.
         22    1    3    3    0    0  0.27750810273E+02  0.30337095654E+02 -0.15014952240E+02  0.43770945093E+02  0.00000000000E+00 0. -1.
</event>
<event>
 7    1  0.5452757E-006  0.5401991E+02  0.7818608E-02  0.1431669E+00
          2   -1    0    0  502    0  0.00000000000E+00  0.00000000000E+00  0.25672801467E+03  0.25672801467E+03  0.00000000000E+00 0. -1.
          1   -1    0    0  501    0 -0.00000000000E+00 -0.00000000000E+00 -0.67869299177E+03  0.67869299177E+03  0.00000000000E+00 0. -1.
         25    2    1    2    0    0  0.43864053179E+01  0.15102038817E+02 -0.16465679004E+03  0.20732830992E+03  0.12500342980E+03 0.  0.
          2    1    1    2  501    0  0.38931871288E+02 -0.42525358085E+02 -0.48819219520E+03  0.49158490227E+03  0.00000000000E+00 0. -1.
          1    1    1    2  502    0 -0.43318276606E+02  0.27423319268E+02  0.23088400814E+03  0.23650779425E+03  0.00000000000E+00 0. -1.
         22    1    3    3    0    0 -0.14127502194E+02  0.67942685923E+02 -0.80976678760E+02  0.10664435002E+03  0.00000000000E+00 0.  1.
         22    1    3    3    0    0  0.18513907512E+02 -0.52840647106E+02 -0.83680111277E+02  0.10068395990E+03  0.00000000000E+00 0.  1.
</event>
<event>
 7    1  0.5452757E-006  0.1189713E+03  0.7818608E-02  0.1284538E+00
          2   -1    0    0  502    0  0.00000000000E+00  0.00000000000E+00  0.51304434339E+03  0.51304434339E+03  0.00000000000E+00 0. -1.
          1   -1    0    0  501    0 -0.00000000000E+00 -0.00000000000E+00 -0.46383363360E+03  0.46383363360E+03  0.00000000000E+00 0. -1.
         25    2    1    2    0    0 -0.70202063972E+02  0.16558264120E+03 -0.93647212657E+02  0.23820706051E+03  0.12500744932E+03 0.  0.
          2    1    1    2  501    0 -0.91931643809E+01 -0.80215946704E+02 -0.28448013951E+03  0.29571618514E+03  0.00000000000E+00 0. -1.
          1    1    1    2  502    0  0.79395228353E+02 -0.85366694500E+02  0.42733806196E+03  0.44295473134E+03  0.00000000000E+00 0. -1.
         22    1    3    3    0    0 -0.55086896131E+02  0.13750042601E+03 -0.97412888305E+01  0.14844468999E+03  0.00000000000E+00 0.  1.
         22    1    3    3    0    0 -0.15115167841E+02  0.28082215198E+02 -0.83905923827E+02  0.89762370527E+02  0.00000000000E+00 0.  1.
</event>
<event>
 7    1  0.5452757E-006  0.1037486E+03  0.7818608E-02  0.1311577E+00
          2   -1    0    0  502    0  0.00000000000E+00  0.00000000000E+00  0.10637496813E+04  0.10637496813E+04  0.00000000000E+00 0. -1.
          1   -1    0    0  501    0 -0.00000000000E+00 -0.00000000000E+00 -0.11332601900E+03  0.11332601900E+03  0.00000000000E+00 0. -1.
         25    2    1    2    0    0 -0.66641768831E+02 -0.62735028285E+01  0.77408104484E+02  0.16154771920E+03  0.12500067499E+03 0.  0.
          2    1    1    2  501    0  0.10273879096E+03  0.68692516267E+02 -0.15085172840E+02  0.12450495331E+03  0.00000000000E+00 0. -1.
          1    1    1    2  502    0 -0.36097022128E+02 -0.62419013438E+02  0.88810073065E+03  0.89102302778E+03  0.00000000000E+00 0. -1.
         22    1    3    3    0    0 -0.36669726820E+02 -0.65039597727E+02  0.51357369276E+02  0.90622279360E+02  0.00000000000E+00 0.  1.
         22    1    3    3    0    0 -0.29972042011E+02  0.58766094899E+02  0.26050735209E+02  0.70925439843E+02  0.00000000000E+00 0.  1.
</event>
<event>
 7    1  0.5452757E-006  0.2628429E+03  0.7818608E-02  0.1321420E+00
          2   -1    0    0  502    0  0.00000000000E+00  0.00000000000E+00  0.88611287468E+03  0.88611287468E+03  0.00000000000E+00 0. -1.
          1   -1    0    0  501    0 -0.00000000000E+00 -0.00000000000E+00 -0.23701954452E+04  0.23701954452E+04  0.00000000000E+00 0. -1.
         25    2    1    2    0    0 -0.52631246882E+02 -0.23424123166E+03  0.11226096168E+03  0.29303037792E+03  0.12500110442E+03 0.  0.
          2    1    1    2  501    0  0.46532201659E+02  0.25957005308E+03 -0.22719329850E+04  0.22871863384E+04  0.00000000000E+00 0. -1.
          1    1    1    2  502    0  0.60990452236E+01 -0.25328821413E+02  0.67558945285E+03  0.67609160351E+03  0.00000000000E+00 0. -1.
         22    1    3    3    0    0  0.41379164237E+01 -0.51902478824E+02  0.85621152046E+02  0.10020963695E+03  0.00000000000E+00 0. -1.
         22    1    3    3    0    0 -0.56769163306E+02 -0.18233875284E+03  0.26639809631E+02  0.19282074097E+03  0.00000000000E+00 0. -1.
</event>
<event>
 7    1  0.5452757E-006  0.8523790E+02  0.7818608E-02  0.1397465E+00
          2   -1    0    0  502    0  0.00000000000E+00  0.00000000000E+00  0.39036095153E+03  0.39036095153E+03  0.00000000000E+00 0. -1.
          1   -1    0    0  501    0 -0.00000000000E+00 -0.00000000000E+00 -0.11964960253E+04  0.11964960253E+04  0.00000000000E+00 0. -1.
         25    2    1    2    0    0 -0.62637391857E+02 -0.70388582720E+02 -0.69542796322E+02  0.17128877547E+03  0.12500259456E+03 0.  0.
          2    1    1    2  501    0  0.79258536743E+02  0.31427782948E+02 -0.10730613669E+04  0.10764433651E+04  0.00000000000E+00 0. -1.
          1    1    1    2  502    0 -0.16621144886E+02  0.38960799773E+02  0.33646908946E+03  0.33912483622E+03  0.00000000000E+00 0. -1.
         22    1    3    3    0    0 -0.58795488118E+02  0.22952025376E+02 -0.28160289689E+02  0.69113723726E+02  0.00000000000E+00 0.  1.
         22    1    3    3    0    0 -0.38419037384E+01 -0.93340608096E+02 -0.41382506633E+02  0.10217505175E+03  0.00000000000E+00 0.  1.
</event>
<event>
 7    1  0.5452757E-006  0.8353721E+02  0.7818608E-02  0.1432045E+00
          2   -1    0    0  502    0  0.00000000000E+00  0.00000000000E+00  0.19893784958E+03  0.19893784958E+03  0.00000000000E+00 0. -1.
          1   -1    0    0  501    0 -0.00000000000E+00 -0.00000000000E+00 -0.66851993360E+03  0.66851993360E+03  0.00000000000E+00 0. -1.
         25    2    1    2    0    0  0.16554466755E+02  0.52242861184E+02 -0.42459717533E+02  0.14293263082E+03  0.12499416957E+03 0.  0.
          2    1    1    2  501    0  0.15208579389E+02  0.29353316889E+02 -0.56240650694E+03  0.56337731330E+03  0.00000000000E+00 0. -1.
          1    1    1    2  502    0 -0.31763046143E+02 -0.81596178074E+02  0.13528414045E+03  0.16114783906E+03  0.00000000000E+00 0. -1.
         22    1    3    3    0    0 -0.52652755553E+02  0.32280288494E+02 -0.55813553109E+01  0.62011944170E+02  0.00000000000E+00 0. -1.
         22    1    3    3    0    0  0.69207222308E+02  0.19962572690E+02 -0.36878362223E+02  0.80920686652E+02  0.00000000000E+00 0. -1.
</event>
<event>
 7    1  0.5452757E-006  0.4938651E+02  0.7818608E-02  0.1496460E+00
          2   -1    0    0  502    0  0.00000000000E+00  0.00000000000E+00  0.10290918968E+04  0.10290918968E+04  0.00000000000E+00 0. -1.
          1   -1    0    0  501    0 -0.00000000000E+00 -0.00000000000E+00 -0.48228969602E+03  0.48228969602E+03  0.00000000000E+00 0. -1.
         25    2    1    2    0    0  0.56683980457E+02 -0.28326337379E+02  0.34717127822E+03  0.37438373138E+03  0.12497930575E+03 0.  0.
          2    1    1    2  501    0 -0.49015288488E+02 -0.59391201156E+01 -0.46691974766E+03  0.46952297325E+03  0.00000000000E+00 0. -1.
          1    1    1    2  502    0 -0.76686919687E+01  0.34265457495E+02  0.66655067026E+03  0.66747488824E+03  0.00000000000E+00 0. -1.
         22    1    3    3    0    0  0.33109389158E+02  0.45146037773E+02  0.90992162398E+02  0.10683618299E+03  0.00000000000E+00 0. -1.
         22    1    3    3    0    0  0.23574591299E+02 -0.73472375152E+02  0.25617911582E+03  0.26754754839E+03  0.00000000000E+00 0. -1.
</event>
<event>
 7    1  0.5452757E-006  0.4786056E+02  0.7818608E-02  0.1544888E+00
          2   -1    0    0  502    0  0.00000000000E+00  0.00000000000E+00  0.79265273381E+03  0.79265273381E+03  0.00000000000E+00 0. -1.
          1   -1    0    0  501    0 -0.00000000000E+00 -0.00000000000E+00 -0.23223258162E+02  0.23223258162E+02  0.00000000000E+00 0. -1.
         25    2    1    2    0    0  0.25901176133E+02 -0.64683541264E+02  0.28064984761E+03  0.31503134463E+03  0.12500231878E+03 0.  0.
          2    1    1    2  501    0  0.16625591814E+00  0.26214996820E+02  0.30513011093E+02  0.40228069122E+02  0.00000000000E+00 0. -1.
          1    1    1    2  502    0 -0.26067432051E+02  0.38468544444E+02  0.45826661695E+03  0.46061657823E+03  0.00000000000E+00 0. -1.
         22    1    3    3    0    0 -0.19734260628E+02 -0.15916915658E+02  0.22952531952E+03  0.23092133194E+03  0.00000000000E+00 0. -1.
         22    1    3    3    0    0  0.45635436761E+02 -0.48766625606E+02  0.51124528089E+02  0.84110012684E+02  0.00000000000E+00 0. -1.
</event>
<event>
 7    1  0.5452757E-006  0.4606470E+02  0.7818608E-02  0.1557013E+00
          2   -1    0    0  502    0  0.00000000000E+00  0.00000000000E+00  0.16173501073E+03  0.16173501073E+03  0.00000000000E+00 0. -1.
          1   -1    0    0  501    0 -0.00000000000E+00 -0.00000000000E+00 -0.24946036805E+03  0.24946036805E+03  0.00000000000E+00 0. -1.
         25    2    1    2    0    0  0.30203341178E+01  0.57152607811E+02 -0.54324980409E+02  0.14781127326E+03  0.12498570322E+03 0.  0.
          2    1    1    2  501    0 -0.20404719010E+02 -0.14786820463E+02 -0.14268480443E+03  0.14489291229E+03  0.00000000000E+00 0. -1.
          1    1    1    2  502    0  0.17384384892E+02 -0.42365787348E+02  0.10928442752E+03  0.11849119323E+03  0.00000000000E+00 0. -1.
         22    1    3    3    0    0  0.36816134627E+02  0.81898939884E+02 -0.16344692340E+02  0.91268905388E+02  0.00000000000E+00 0.  1.
         22    1    3    3    0    0 -0.33795800509E+02 -0.24746332073E+02 -0.37980288069E+02  0.56542367875E+02  0.00000000000E+00 0.  1.
</event>
<event>
 7    1  0.5452757E-006  0.1167088E+03  0.7818608E-02  0.1276521E+00
          2   -1    0    0  502    0  0.00000000000E+00  0.00000000000E+00  0.21672371199E+04  0.21672371199E+04  0.00000000000E+00 0. -1.
          1   -1    0    0  501    0 -0.00000000000E+00 -0.00000000000E+00 -0.81326743636E+03  0.81326743636E+03  0.00000000000E+00 0. -1.
         25    2    1    2    0    0 -0.10960549278E+03 -0.42623205098E+02 -0.30641241652E+02  0.17433871448E+03  0.12500000006E+03 0.  0.
          2    1    1    2  501    0  0.10946482093E+03 -0.46201500081E+02 -0.70486190240E+03  0.71480586672E+03  0.00000000000E+00 0. -1.
          1    1    1    2  502    0  0.14067184514E+00  0.88824705179E+02  0.20894728276E+04  0.20913599751E+04  0.00000000000E+00 0. -1.
         22    1    3    3    0    0  0.33889132026E+01 -0.48789800537E+01 -0.52826021430E+02  0.53158985310E+02  0.00000000000E+00 0.  1.
         22    1    3    3    0    0 -0.11299440598E+03 -0.37744225044E+02  0.22184779778E+02  0.12117972917E+03  0.00000000000E+00 0.  1.
</event>
<event>
 7    1  0.5452757E-006  0.3049381E+02  0.7818608E-02  0.1617939E+00
          2   -1    0    0  502    0  0.00000000000E+00  0.00000000000E+00  0.48748586551E+03  0.48748586551E+03  0.00000000000E+00 0. -1.
          1   -1    0    0  501    0 -0.00000000000E+00 -0.00000000000E+00 -0.10039146143E+04  0.10039146143E+04  0.00000000000E+00 0. -1.
         25    2    1    2    0    0  0.17270217976E+02  0.48863548236E+02  0.93064137464E+02  0.16423130581E+03  0.12500032540E+03 0.  0.
          2    1    1    2  501    0  0.25398042046E+01 -0.26100337824E+02 -0.96751864820E+03  0.96787396538E+03  0.00000000000E+00 0. -1.
          1    1    1    2  502    0 -0.19810022181E+02 -0.22763210412E+02  0.35802576194E+03  0.35929520863E+03  0.00000000000E+00 0. -1.
         22    1    3    3    0    0 -0.11885650031E+02 -0.26349944123E+02 -0.12400061510E+02  0.31453930715E+02  0.00000000000E+00 0. -1.
         22    1    3    3    0    0  0.29155868007E+02  0.75213492359E+02  0.10546419897E+03  0.13277737510E+03  0.00000000000E+00 0. -1.
</event>
<event>
 7    1  0.5452757E-006  0.4574529E+02  0.7818608E-02  0.1476772E+00
          2   -1    0    0  502    0  0.00000000000E+00  0.00000000000E+00  0.41671600727E+03  0.41671600727E+03  0.00000000000E+00 0. -1.
          1   -1    0    0  501    0 -0.00000000000E+00 -0.00000000000E+00 -0.30603295932E+03  0.30603295932E+03  0.00000000000E+00 0. -1.
         25    2    1    2    0    0 -0.61050484814E+00 -0.23609005598E+01 -0.61556306908E+02  0.13935557866E+03  0.12499940726E+03 0.  0.
          2    1    1    2  501    0  0.46355600169E+02  0.22276685576E+01 -0.20154548997E+03  0.20681970095E+03  0.00000000000E+00 0. -1.
          1    1    1    2  502    0 -0.45745095321E+02  0.13323200220E+00  0.37378484483E+03  0.37657368698E+03  0.00000000000E+00 0. -1.
         22    1    3    3    0    0  0.24963947922E+02 -0.50354742073E+02  0.13265608856E+01  0.56218844785E+02  0.00000000000E+00 0. -1.
         22    1    3    3    0    0 -0.25574452770E+02  0.47993841514E+02 -0.62882867794E+02  0.83136733877E+02  0.00000000000E+00 0. -1.
</event>
<event>
 7    1  0.5452757E-006  0.9243663E+02  0.7818608E-02  0.1411388E+00
          2   -1    0    0  502    0  0.00000000000E+00  0.00000000000E+00  0.14036807351E+03  0.14036807351E+03  0.00000000000E+00 0. -1.
          1   -1    0    0  501    0 -0.00000000000E+00 -0.00000000000E+00 -0.20617252757E+03  0.20617252757E+03  0.00000000000E+00 0. -1.
         25    2    1    2    0    0 -0.75859450804E+02  0.92779938570E+02 -0.44073886953E+02  0.17868901132E+03  0.12499792790E+03 0.  0.
          2    1    1    2  501    0  0.16099657350E+02 -0.31085319009E+02 -0.63371490376E+02  0.72397802571E+02  0.00000000000E+00 0. -1.
          1    1    1    2  502    0  0.59759793454E+02 -0.61694619560E+02  0.41640923277E+02  0.95453787184E+02  0.00000000000E+00 0. -1.
         22    1    3    3    0    0 -0.65855758935E+01  0.89826888097E+02 -0.59121032494E+02  0.10773827601E+03  0.00000000000E+00 0.  1.
         22    1    3    3    0    0 -0.69273874911E+02  0.29530504722E+01  0.15047145541E+02  0.70950735311E+02  0.00000000000E+00 0.  1.
</event>
<event>
 7    1  0.5452757E-006  0.9340299E+02  0.7818608E-02  0.1358366E+00
          2   -1    0    0  502    0  0.00000000000E+00  0.00000000000E+00  0.11455657214E+03  0.11455657214E+03  0.00000000000E+00 0. -1.
          1   -1    0    0  501    0 -0.00000000000E+00 -0.00000000000E+00 -0.28556456080E+03  0.28556456080E+03  0.00000000000E+00 0. -1.
         25    2    1    2    0    0 -0.70796189595E+02 -0.83712648183E+02 -0.80770238845E+02  0.18484451175E+03  0.12499501636E+03 0.  0.
          2    1    1    2  501    0  0.85660610341E+02  0.32601518769E+02 -0.12253105511E+03  0.15301783771E+03  0.00000000000E+00 0. -1.
          1    1    1    2  502    0 -0.14864420746E+02  0.51111129413E+02  0.32293305298E+02  0.62258783485E+02  0.00000000000E+00 0. -1.
         22    1    3    3    0    0 -0.33871593137E+02 -0.15583255749E+02 -0.98525571011E+02  0.10534424913E+03  0.00000000000E+00 0.  1.
         22    1    3    3    0    0 -0.36924596458E+02 -0.68129392434E+02  0.17755332166E+02  0.79500262624E+02  0.00000000000E+00 0.  1.
</event>
<event>
 7    1  0.5452757E-006  0.5987601E+02  0.7818608E-02  0.1410895E+00
          2   -1    0    0  502    0  0.00000000000E+00  0.00000000000E+00  0.38983246389E+03  0.38983246389E+03  0.00000000000E+00 0. -1.
          1   -1    0    0  501    0 -0.00000000000E+00 -0.00000000000E+00 -0.26573496445E+03  0.26573496445E+03  0.00000000000E+00 0. -1.
         25    2    1    2    0    0 -0.93455657179E+02 -0.60602760046E+02  0.39474795910E+02  0.17201478645E+03  0.12499669141E+03 0.  0.
          2    1    1    2  501    0  0.42560444924E+02  0.33643315720E+02 -0.19276238784E+03  0.20025134788E+03  0.00000000000E+00 0. -1.
          1    1    1    2  502    0  0.50895212255E+02  0.26959444326E+02  0.27738509137E+03  0.28330129400E+03  0.00000000000E+00 0. -1.
         22    1    3    3    0    0 -0.28394467962E+01 -0.59325770290E+02 -0.21076207181E+02  0.63022345147E+02  0.00000000000E+00 0. -1.
         22    1    3    3    0    0 -0.90616210383E+02 -0.12769897559E+01  0.60551003091E+02  0.10899244131E+03  0.00000000000E+00 0. -1.
</event>
<event>
 7    1  0.5452757E-006  0.2015872E+03  0.7818608E-02  0.1244964E+00
          2   -1    0    0  502    0  0.00000000000E+00  0.00000000000E+00  0.18955225919E+04  0.18955225919E+04  0.00000000000E+00 0. -1.
          1   -1    0    0  501    0 -0.00000000000E+00 -0.00000000000E+00 -0.72856416947E+03  0.72856416947E+03  0.00000000000E+00 0. -1.
         25    2    1    2    0    0  0.19459682634E+03 -0.14181937296E+03  0.32781235100E+03  0.42551900002E+03  0.12499929015E+03 0.  0.
          2    1    1    2  501    0 -0.18691718879E+03  0.72140727361E+02 -0.66411180094E+03  0.69367629638E+03  0.00000000000E+00 0. -1.
          1    1    1    2  502    0 -0.76796375478E+01  0.69678645598E+02  0.15032578724E+04  0.15048914650E+04  0.00000000000E+00 0. -1.
         22    1    3    3    0    0  0.74559097251E+02  0.99401259349E+01  0.11952934805E+03  0.14122722872E+03  0.00000000000E+00 0.  1.
         22    1    3    3    0    0  0.12003772909E+03 -0.15175949889E+03  0.20828300295E+03  0.28429177130E+03  0.00000000000E+00 0.  1.
</event>
<event>
 7    1  0.5452757E-006  0.5885618E+02  0.7818608E-02  0.1500315E+00
          2   -1    0    0  502    0  0.00000000000E+00  0.00000000000E+00  0.12205515064E+04  0.12205515064E+04  0.00000000000E+00 0. -1.
          1   -1    0    0  501    0 -0.00000000000E+00 -0.00000000000E+00 -0.17915598715E+03  0.17915598715E+03  0.00000000000E+00 0. -1.
         25    2    1    2    0    0  0.45447180974E+02  0.38592034870E+02  0.14284175793E+03  0.19895721643E+03  0.12500165898E+03 0.  0.
          2    1    1    2  501    0 -0.23635786835E+02  0.16265130929E+02 -0.14889755642E+03  0.15163669481E+03  0.00000000000E+00 0. -1.
          1    1    1    2  502    0 -0.21811394139E+02 -0.54857165799E+02  0.10474513177E+04  0.10491135823E+04  0.00000000000E+00 0. -1.
         22    1    3    3    0    0 -0.32022449821E+02  0.63181809757E+01 -0.73940873690E+00  0.32648176499E+02  0.00000000000E+00 0.  1.
         22    1    3    3    0    0  0.77469630796E+02  0.32273853894E+02  0.14358116667E+03  0.16630903993E+03  0.00000000000E+00 0.  1.
</event>
<event>
 7    1  0.5452757E-006  0.7492062E+02  0.7818608E-02  0.1440698E+00
          2   -1    0    0  502    0  0.00000000000E+00  0.00000000000E+00  0.26680737369E+04  0.26680737369E+04  0.00000000000E+00 0. -1.
          1   -1    0    0  501    0 -0.00000000000E+00 -0.00000000000E+00 -0.12238740773E+03  0.12238740773E+03  0.00000000000E+00 0. -1.
         25    2    1    2    0    0  0.51547026961E+02 -0.96168822925E+02  0.17854036105E+04  0.17930968221E+04  0.12499849025E+03 0.  0.
          2    1    1    2  501    0 -0.33131933593E+02  0.66945429011E+02 -0.10639565687E+03  0.12999788956E+03  0.00000000000E+00 0. -1.
          1    1    1    2  502    0 -0.18415093368E+02  0.29223393915E+02  0.86667837550E+03  0.86736643293E+03  0.00000000000E+00 0. -1.
         22    1    3    3    0    0  0.88633816536E+02 -0.71704106262E+02  0.10084222141E+04  0.10148461924E+04  0.00000000000E+00 0. -1.
         22    1    3    3    0    0 -0.37086789575E+02 -0.24464716664E+02  0.77698139642E+03  0.77825062975E+03  0.00000000000E+00 0. -1.
</event>
<event>
 7    1  0.5452757E-006  0.6939020E+02  0.7818608E-02  0.1421436E+00
          2   -1    0    0  502    0  0.00000000000E+00  0.00000000000E+00  0.11330868905E+04  0.11330868905E+04  0.00000000000E+00 0. -1.
          1   -1    0    0  501    0 -0.00000000000E+00 -0.00000000000E+00 -0.97788288053E+03  0.97788288053E+03  0.00000000000E+00 0. -1.
         25    2    1    2    0    0 -0.57817478528E+01 -0.56776109525E+02  0.16034186257E+03  0.21116537413E+03  0.12499738845E+03 0.  0.
          2    1    1    2  501    0 -0.42794829568E+02  0.55142071502E+01 -0.95066490485E+03  0.95164361251E+03  0.00000000000E+00 0. -1.
          1    1    1    2  502    0  0.48576577420E+02  0.51261902375E+02  0.94552705224E+03  0.94816078438E+03  0.00000000000E+00 0. -1.
         22    1    3    3    0    0 -0.55351368702E+02 -0.64954909040E+02  0.83775540650E+02  0.11958785656E+03  0.00000000000E+00 0. -1.
         22    1    3    3    0    0  0.49569620849E+02  0.81787995150E+01  0.76566321917E+02  0.91577517571E+02  0.00000000000E+00 0. -1.
</event>
<event>
 7    1  0.5452757E-006  0.6235524E+02  0.7818608E-02  0.1419986E+00
          2   -1    0    0  502    0  0.00000000000E+00  0.00000000000E+00  0.65621430204E+03  0.65621430204E+03  0.00000000000E+00 0. -1.
          1   -1    0    0  501    0 -0.00000000000E+00 -0.00000000000E+00 -0.81152757350E+02  0.81152757350E+02  0.00000000000E+00 0. -1.
         25    2    1    2    0    0  0.26127841029E+02  0.98207701199E+02  0.41553891206E+03  0.44567449406E+03  0.12500300223E+03 0.  0.
          2    1    1    2  501    0 -0.18059792968E+02 -0.45071045683E+02 -0.53351594405E+02  0.72138394123E+02  0.00000000000E+00 0. -1.
          1    1    1    2  502    0 -0.80680480604E+01 -0.53136655516E+02  0.21287422704E+03  0.21955417121E+03  0.00000000000E+00 0. -1.
         22    1    3    3    0    0 -0.43865572378E+01 -0.15364936612E+02  0.19575339708E+03  0.19640446947E+03  0.00000000000E+00 0.  1.
         22    1    3    3    0    0  0.30514398267E+02  0.11357263781E+03  0.21978551498E+03  0.24927002459E+03  0.00000000000E+00 0.  1.
</event>
<event>
 7    1  0.5452757E-006  0.5072930E+02  0.7818608E-02  0.1523849E+00
          2   -1    0    0  502    0  0.00000000000E+00  0.00000000000E+00  0.78554715292E+03  0.78554715292E+03  0.00000000000E+00 0. -1.
          1   -1    0    0  501    0 -0.00000000000E+00 -0.00000000000E+00 -0.86740505802E+02  0.86740505802E+02  0.00000000000E+00 0. -1.
         25    2    1    2    0    0  0.36914311374E+02  0.13269479244E+02  0.87516370620E+02  0.15755120811E+03  0.12499809034E+03 0.  0.
          2    1    1    2  501    0 -0.61661331086E+01  0.27715010504E+02 -0.46754324775E+02  0.54700181809E+02  0.00000000000E+00 0. -1.
          1    1    1    2  502    0 -0.30748178265E+02 -0.40984489748E+02  0.65804460127E+03  0.66003626880E+03  0.00000000000E+00 0. -1.
         22    1    3    3    0    0  0.80052479582E+01  0.30542250485E+02  0.11170938709E+03  0.11608574514E+03  0.00000000000E+00 0. -1.
         22    1    3    3    0    0  0.28909063416E+02 -0.17272771241E+02 -0.24193016472E+02  0.41465462978E+02  0.00000000000E+00 0. -1.
</event>
<event>
 7    1  0.5452757E-006  0.6651447E+02  0.7818608E-02  0.1510347E+00
          2   -1    0    0  502    0  0.00000000000E+00  0.00000000000E+00  0.79493022641E+03  0.79493022641E+03  0.00000000000E+00 0. -1.
          1   -1    0    0  501    0 -0.00000000000E+00 -0.00000000000E+00 -0.20363906385E+03  0.20363906385E+03  0.00000000000E+00 0. -1.
         25    2    1    2    0    0 -0.30524481143E+02  0.32017285332E+02  0.10664882940E+03  0.17017246930E+03  0.12501138343E+03 0.  0.
          2    1    1    2  501    0 -0.13399175997E+02  0.19559551946E+02 -0.16930137609E+03  0.17095341452E+03  0.00000000000E+00 0. -1.
          1    1    1    2  502    0  0.43923657140E+02 -0.51576837278E+02  0.65394370925E+03  0.65744340644E+03  0.00000000000E+00 0. -1.
         22    1    3    3    0    0 -0.73658956537E+02  0.45959792584E+02  0.63268754095E+02  0.10742848625E+03  0.00000000000E+00 0. -1.
         22    1    3    3    0    0  0.43134475394E+02 -0.13942507252E+02  0.43380075306E+02  0.62743983055E+02  0.00000000000E+00 0. -1.
</event>
<event>
 7    1  0.5452757E-006  0.1554444E+03  0.7818608E-02  0.1200355E+00
          2   -1    0    0  502    0  0.00000000000E+00  0.00000000000E+00  0.65844781897E+03  0.65844781897E+03  0.00000000000E+00 0. -1.
          1   -1    0    0  501    0 -0.00000000000E+00 -0.00000000000E+00 -0.22617809347E+03  0.22617809347E+03  0.00000000000E+00 0. -1.
         25    2    1    2    0    0  0.13947418830E+03  0.15799826736E+03  0.84852331180E+01  0.24517907874E+03  0.12499711909E+03 0.  0.
          2    1    1    2  501    0  0.14915522798E+02 -0.14416222069E+03 -0.40077202251E+02  0.15037087762E+03  0.00000000000E+00 0. -1.
          1    1    1    2  502    0 -0.15438971109E+03 -0.13836046665E+02  0.46386169463E+03  0.48907595609E+03  0.00000000000E+00 0. -1.
         22    1    3    3    0    0  0.11165223158E+03  0.17819945689E+03  0.26512930476E+01  0.21030524627E+03  0.00000000000E+00 0. -1.
         22    1    3    3    0    0  0.27821956715E+02 -0.20201189538E+02  0.58339400704E+01  0.34873832467E+02  0.00000000000E+00 0. -1.
</event>
<event>
 7    1  0.5452757E-006  0.1094687E+03  0.7818608E-02  0.1356196E+00
          2   -1    0    0  502    0  0.00000000000E+00  0.00000000000E+00  0.64232470327E+03  0.64232470327E+03  0.00000000000E+00 0. -1.
          1   -1    0    0  501    0 -0.00000000000E+00 -0.00000000000E+00 -0.45912941681E+02  0.45912941681E+02  0.00000000000E+00 0. -1.
         25    2    1    2    0    0  0.33110189661E+01  0.86119229803E+02  0.29356226681E+03  0.33049265290E+03  0.12497641594E+03 0.  0.
          2    1    1    2  501    0 -0.38791655028E+02 -0.11579645428E+03  0.12812671246E+03  0.17700301062E+03  0.00000000000E+00 0. -1.
          1    1    1    2  502    0  0.35480636062E+02  0.29677224478E+02  0.17472278232E+03  0.18074198143E+03  0.00000000000E+00 0. -1.
         22    1    3    3    0    0 -0.37192489527E+02 -0.15503456537E+02  0.56399778685E+02  0.69315030676E+02  0.00000000000E+00 0.  1.
         22    1    3    3    0    0  0.40503508493E+02  0.10162268634E+03  0.23716248812E+03  0.26117762223E+03  0.00000000000E+00 0.  1.
</event>
<event>
 7    1  0.5452757E-006  0.3712183E+02  0.7818608E-02  0.1561507E+00
          2   -1    0    0  502    0  0.00000000000E+00  0.00000000000E+00  0.26325847568E+04  0.26325847568E+04  0.00000000000E+00 0. -1.
          1   -1    0    0  501    0 -0.00000000000E+00 -0.00000000000E+00 -0.32867278267E+02  0.32867278267E+02  0.00000000000E+00 0. -1.
         25    2    1    2    0    0  0.64219194405E+01 -0.54892631853E+02  0.17176310320E+04  0.17230599956E+04  0.12499977766E+03 0.  0.
          2    1    1    2  501    0  0.15373956785E+02  0.33713606263E+02 -0.18415444884E+02  0.41377462521E+02  0.00000000000E+00 0. -1.
          1    1    1    2  502    0 -0.21795876225E+02  0.21179025591E+02  0.90050189142E+03  0.90101457690E+03  0.00000000000E+00 0. -1.
         22    1    3    3    0    0  0.46282294875E+02 -0.76596238397E+02  0.12639974618E+04  0.12671616385E+04  0.00000000000E+00 0. -1.
         22    1    3    3    0    0 -0.39860375435E+02  0.21703606544E+02  0.45363357017E+03  0.45589835715E+03  0.00000000000E+00 0. -1.
</event>
<event>
 7    1  0.5452757E-006  0.2152836E+03  0.7818608E-02  0.1161492E+00
          2   -1    0    0  502    0  0.00000000000E+00  0.00000000000E+00  0.21565330824E+04  0.21565330824E+04  0.00000000000E+00 0. -1.
          1   -1    0    0  501    0 -0.00000000000E+00 -0.00000000000E+00 -0.11128806402E+04  0.11128806402E+04  0.00000000000E+00 0. -1.
         25    2    1    2    0    0 -0.23975419120E+03 -0.11405224199E+03 -0.20756990817E+03  0.35944226965E+03  0.12499396920E+03 0.  0.
          2    1    1    2  501    0  0.14194647044E+03 -0.77810483856E+02 -0.81582839258E+03  0.83173267221E+03  0.00000000000E+00 0. -1.
          1    1    1    2  502    0  0.97807720762E+02  0.19186272585E+03  0.20670507430E+04  0.20782387807E+04  0.00000000000E+00 0. -1.
         22    1    3    3    0    0 -0.13871844458E+03 -0.11835078541E+03 -0.17618614214E+03  0.25355723605E+03  0.00000000000E+00 0.  1.
         22    1    3    3    0    0 -0.10103574662E+03  0.42985434144E+01 -0.31383766032E+02  0.10588503360E+03  0.00000000000E+00 0.  1.
</event>
<event>
 7    1  0.5452757E-006  0.9255292E+02  0.7818608E-02  0.1308182E+00
          2   -1    0    0  502    0  0.00000000000E+00  0.00000000000E+00  0.30153929833E+04  0.30153929833E+04  0.00000000000E+00 0. -1.
          1   -1    0    0  501    0 -0.00000000000E+00 -0.00000000000E+00 -0.88111909477E+02  0.88111909477E+02  0.00000000000E+00 0. -1.
         25    2    1    2    0    0  0.45437837630E+01  0.86086876633E-01  0.21868377535E+03  0.25194844038E+03  0.12503907240E+03 0.  0.
          2    1    1    2  501    0 -0.35328861185E+02 -0.87369081734E+02 -0.39295144533E+02  0.10210579445E+03  0.00000000000E+00 0. -1.
          1    1    1    2  502    0  0.30785077422E+02  0.87282994857E+02  0.27478924430E+04  0.27494506580E+04  0.00000000000E+00 0. -1.
         22    1    3    3    0    0  0.64181157179E+02  0.90224416491E+01  0.11202772187E+03  0.12942502021E+03  0.00000000000E+00 0.  1.
         22    1    3    3    0    0 -0.59637373416E+02 -0.89363547724E+01  0.10665605348E+03  0.12252342016E+03  0.00000000000E+00 0.  1.
</event>
<event>
 7    1  0.5452757E-006  0.7978860E+02  0.7818608E-02  0.1405176E+00
          2   -1    0    0  502    0  0.00000000000E+00  0.00000000000E+00  0.31313826324E+03  0.31313826324E+03  0.00000000000E+00 0. -1.
          1   -1    0    0  501    0 -0.00000000000E+00 -0.00000000000E+00 -0.42495427868E+03  0.42495427868E+03  0.00000000000E+00 0. -1.
         25    2    1    2    0    0 -0.98654181689E+01  0.54359350352E+02 -0.18002586943E+02  0.13785339232E+03  0.12500879645E+03 0.  0.
          2    1    1    2  501    0 -0.41316772592E+02  0.10277736180E+02 -0.33894770615E+03  0.34161126308E+03  0.00000000000E+00 0. -1.
          1    1    1    2  502    0  0.51182190761E+02 -0.64637086532E+02  0.24513427766E+03  0.25862788652E+03  0.00000000000E+00 0. -1.
         22    1    3    3    0    0 -0.37265728157E+02  0.51120356620E+02  0.39145410175E+02  0.74393470774E+02  0.00000000000E+00 0. -1.
         22    1    3    3    0    0  0.27400309988E+02  0.32389937314E+01 -0.57147997117E+02  0.63459921544E+02  0.00000000000E+00 0. -1.
</event>
<event>
 7    1  0.5452757E-006  0.1400767E+03  0.7818608E-02  0.1373095E+00
          2   -1    0    0  502    0  0.00000000000E+00  0.00000000000E+00  0.65251608972E+03  0.65251608972E+03  0.00000000000E+00 0. -1.
          1   -1    0    0  501    0 -0.00000000000E+00 -0.00000000000E+00 -0.27542111003E+03  0.27542111003E+03  0.00000000000E+00 0. -1.
         25    2    1    2    0    0 -0.15803822950E+03  0.52107791828E+02  0.49261033707E+02  0.21387650964E+03  0.12500083192E+03 0.  0.
          2    1    1    2  501    0  0.12972545346E+03 -0.38543889199E+02 -0.16884748378E+03  0.21638807141E+03  0.00000000000E+00 0. -1.
          1    1    1    2  502    0  0.28312776043E+02 -0.13563902629E+02  0.49668142976E+03  0.49767261870E+03  0.00000000000E+00 0. -1.
         22    1    3    3    0    0  0.16832987952E+02  0.25957113501E+02  0.28326510754E+01  0.31066785106E+02  0.00000000000E+00 0. -1.
         22    1    3    3    0    0 -0.17487121746E+03  0.26150678327E+02  0.46428382632E+02  0.18280972454E+03  0.00000000000E+00 0. -1.
</event>
<event>
 7    1  0.5452757E-006  0.6553029E+02  0.7818608E-02  0.1383115E+00
          2   -1    0    0  502    0  0.00000000000E+00  0.00000000000E+00  0.18145528948E+03  0.18145528948E+03  0.00000000000E+00 0. -1.
          1   -1    0    0  501    0 -0.00000000000E+00 -0.00000000000E+00 -0.74964113125E+03  0.74964113125E+03  0.00000000000E+00 0. -1.
         25    2    1    2    0    0 -0.91458520286E+02 -0.86862493874E+02 -0.37798185876E+03  0.41761874695E+03  0.12500151391E+03 0.  0.
          2    1    1    2  501    0  0.47364433508E+02  0.39740099359E+02 -0.34251924695E+03  0.34805473649E+03  0.00000000000E+00 0. -1.
          1    1    1    2  502    0  0.44094086778E+02  0.47122394515E+02  0.15231526394E+03  0.16542293729E+03  0.00000000000E+00 0. -1.
         22    1    3    3    0    0 -0.71550696027E+00  0.28158210475E+02 -0.93170295844E+02  0.97334992654E+02  0.00000000000E+00 0. -1.
         22    1    3    3    0    0 -0.90743013326E+02 -0.11502070435E+03 -0.28481156291E+03  0.32028375429E+03  0.00000000000E+00 0. -1.
</event>
<event>
 7    1  0.5452757E-006  0.1447621E+03  0.7818608E-02  0.1300851E+00
          2   -1    0    0  502    0  0.00000000000E+00  0.00000000000E+00  0.66820557937E+03  0.66820557937E+03  0.00000000000E+00 0. -1.
          1   -1    0    0  501    0 -0.00000000000E+00 -0.00000000000E+00 -0.10303179952E+03  0.10303179952E+03  0.00000000000E+00 0. -1.
         25    2    1    2    0    0  0.47079306276E+02 -0.85468629657E+02  0.37827335537E+03  0.41016711549E+03  0.12499993404E+03 0.  0.
          2    1    1    2  501    0 -0.86727870294E+02  0.12640933452E+03 -0.12380701057E+02  0.15379962646E+03  0.00000000000E+00 0. -1.
          1    1    1    2  502    0  0.39648564018E+02 -0.40940704863E+02  0.19928112553E+03  0.20727063694E+03  0.00000000000E+00 0. -1.
         22    1    3    3    0    0 -0.87428292858E+00 -0.82447873399E+02  0.10917229422E+03  0.13681010936E+03  0.00000000000E+00 0. -1.
         22    1    3    3    0    0  0.47953589204E+02 -0.30207562579E+01  0.26910106115E+03  0.27335700613E+03  0.00000000000E+00 0. -1.
</event>
<event>
 7    1  0.5452757E-006  0.1285934E+03  0.7818608E-02  0.1292442E+00
          2   -1    0    0  502    0  0.00000000000E+00  0.00000000000E+00  0.14242827192E+04  0.14242827192E+04  0.00000000000E+00 0. -1.
          1   -1    0    0  501    0 -0.00000000000E+00 -0.00000000000E+00 -0.24746551988E+03  0.24746551988E+03  0.00000000000E+00 0. -1.
         25    2    1    2    0    0  0.13918851356E+03 -0.29664992105E+01  0.17727342594E+02  0.18793965053E+03  0.12499924456E+03 0.  0.
          2    1    1    2  501    0 -0.11396411281E+03 -0.61641653682E+02 -0.13543305962E+03  0.18742898953E+03  0.00000000000E+00 0. -1.
          1    1    1    2  502    0 -0.25224400749E+02  0.64608152893E+02  0.12945229163E+04  0.12963795990E+04  0.00000000000E+00 0. -1.
         22    1    3    3    0    0  0.45685924744E+02 -0.58679917629E+02 -0.11474851250E+02  0.75247648892E+02  0.00000000000E+00 0.  1.
         22    1    3    3    0    0  0.93502588816E+02  0.55713418418E+02  0.29202193844E+02  0.11269200163E+03  0.00000000000E+00 0.  1.
</event>
<event>
 7    1  0.5452757E-006  0.1615416E+03  0.7818608E-02  0.1301108E+00
          2   -1    0    0  502    0  0.00000000000E+00  0.00000000000E+00  0.12626314572E+04  0.12626314572E+04  0.00000000000E+00 0. -1.
          1   -1    0    0  501    0 -0.00000000000E+00 -0.00000000000E+00 -0.10601185865E+04  0.10601185865E+04  0.00000000000E+00 0. -1.
         25    2    1    2    0    0  0.99189138400E+02 -0.65760134129E+02 -0.34787521862E+02  0.17606205692E+03  0.12499918317E+03 0.  0.
          2    1    1    2  501    0 -0.14981747584E+03  0.71490196066E+02 -0.94692589863E+03  0.96136610181E+03  0.00000000000E+00 0. -1.
          1    1    1    2  502    0  0.50628337442E+02 -0.57300619374E+01  0.11842262912E+04  0.11853218849E+04  0.00000000000E+00 0. -1.
         22    1    3    3    0    0 -0.11556946487E+01 -0.48338154198E+02 -0.53931018554E+02  0.72432503364E+02  0.00000000000E+00 0.  1.
         22    1    3    3    0    0  0.10034483305E+03 -0.17421979931E+02  0.19143496692E+02  0.10362955355E+03  0.00000000000E+00 0.  1.
</event>
<event>
 7    1  0.5452757E-006  0.9198534E+02  0.7818608E-02  0.1429375E+00
          2   -1    0    0  502    0  0.00000000000E+00  0.00000000000E+00  0.43117794510E+03  0.43117794510E+03  0.00000000000E+00 0. -1.
          1   -1    0    0  501    0 -0.00000000000E+00 -0.00000000000E+00 -0.39516863003E+03  0.39516863003E+03  0.00000000000E+00 0. -1.
         25    2    1    2    0    0 -0.88918212196E+02 -0.82540773687E+02  0.15954796437E+03  0.23622126568E+03  0.12500202255E+03 0.  0.
          2    1    1    2  501    0  0.69744619826E+02  0.58646020370E+02 -0.34996588074E+03  0.36163487855E+03  0.00000000000E+00 0. -1.
          1    1    1    2  502    0  0.19173592370E+02  0.23894753317E+02  0.22642723144E+03  0.22849043091E+03  0.00000000000E+00 0. -1.
         22    1    3    3    0    0 -0.10673737396E+03 -0.66046889428E+02  0.16869967058E+03  0.21027276918E+03  0.00000000000E+00 0.  1.
         22    1    3    3    0    0  0.17819161765E+02 -0.16493884259E+02 -0.91517062128E+01  0.25948496499E+02  0.00000000000E+00 0.  1.
</event>
<event>
 7    1  0.9713892E-006  0.9047112E+02  0.7818608E-02  0.1311615E+00
          2   -1    0    0  502    0  0.00000000000E+00  0.00000000000E+00  0.93081963337E+03  0.93081963337E+03  0.00000000000E+00 0. -1.
          1   -1    0    0  501    0 -0.00000000000E+00 -0.00000000000E+00 -0.19647271750E+04  0.19647271750E+04  0.00000000000E+00 0. -1.
         25    2    1    2    0    0 -0.10689086187E+03 -0.22813705604E+02 -0.28544046217E+03  0.33022302478E+03  0.12499946855E+03 0.  0.
          2    1    1    2  501    0  0.46096868650E+02  0.78818705775E+02 -0.16537531187E+04  0.16562719244E+04  0.00000000000E+00 0. -1.
          1    1    1    2  502    0  0.60793993216E+02 -0.56005000170E+02  0.90528603933E+03  0.90905185917E+03  0.00000000000E+00 0. -1.
         22    1    3    3    0    0 -0.56046035569E+01  0.25215937858E+02 -0.15967679074E+03  0.16175268964E+03  0.00000000000E+00 0. -1.
         22    1    3    3    0    0 -0.10128625831E+03 -0.48029643462E+02 -0.12576367143E+03  0.16847033515E+03  0.00000000000E+00 0. -1.
</event>
<event>
 7    1  0.5452757E-006  0.3971259E+02  0.7818608E-02  0.1576208E+00
          2   -1    0    0  502    0  0.00000000000E+00  0.00000000000E+00  0.25158974276E+04  0.25158974276E+04  0.00000000000E+00 0. -1.
          1   -1    0    0  501    0 -0.00000000000E+00 -0.00000000000E+00 -0.61087401976E+02  0.61087401976E+02  0.00000000000E+00 0. -1.
         25    2    1    2    0    0  0.26738378549E+02 -0.28973350521E+02  0.20630308798E+04  0.20671902597E+04  0.12499905060E+03 0.  0.
          2    1    1    2  501    0  0.15038687863E+02  0.21097345201E+02 -0.55105486382E+02  0.60892320835E+02  0.00000000000E+00 0. -1.
          1    1    1    2  502    0 -0.41777066413E+02  0.78760053199E+01  0.44688463220E+03  0.44890224909E+03  0.00000000000E+00 0. -1.
         22    1    3    3    0    0 -0.28006873503E+02 -0.34863966046E+02  0.30144783890E+03  0.30474691248E+03  0.00000000000E+00 0.  1.
         22    1    3    3    0    0  0.54745252053E+02  0.58906155248E+01  0.17615830409E+04  0.17624433472E+04  0.00000000000E+00 0.  1.
</event>
<event>
 7    1  0.5452757E-006  0.1376050E+03  0.7818608E-02  0.1220816E+00
          2   -1    0    0  502    0  0.00000000000E+00  0.00000000000E+00  0.11137031445E+04  0.11137031445E+04  0.00000000000E+00 0. -1.
          1   -1    0    0  501    0 -0.00000000000E+00 -0.00000000000E+00 -0.20542168180E+03  0.20542168180E+03  0.00000000000E+00 0. -1.
         25    2    1    2    0    0  0.10364202272E+03  0.11221942142E+03  0.61949987094E+03  0.65018524419E+03  0.12500357700E+03 0.  0.
          2    1    1    2  501    0 -0.13448684916E+03  0.29127680829E+02 -0.15199307600E+03  0.20502933824E+03  0.00000000000E+00 0. -1.
          1    1    1    2  502    0  0.30844826439E+02 -0.14134710225E+03  0.44077466774E+03  0.46391024385E+03  0.00000000000E+00 0. -1.
         22    1    3    3    0    0  0.59178447241E+02  0.61884500716E+02  0.53709817809E+03  0.54388071574E+03  0.00000000000E+00 0.  1.
         22    1    3    3    0    0  0.44463575477E+02  0.50334920702E+02  0.82401692850E+02  0.10630452846E+03  0.00000000000E+00 0.  1.
</event>
<event>
 7    1  0.5452757E-006  0.9684100E+02  0.7818608E-02  0.1314772E+00
          2   -1    0    0  502    0  0.00000000000E+00  0.00000000000E+00  0.50093360475E+02  0.50093360475E+02  0.00000000000E+00 0. -1.
          1   -1    0    0  501    0 -0.00000000000E+00 -0.00000000000E+00 -0.10164638348E+04  0.10164638348E+04  0.00000000000E+00 0. -1.
         25    2    1    2    0    0  0.13664284353E+02 -0.33036656174E+02 -0.44812231831E+03  0.46660169444E+03  0.12500158305E+03 0.  0.
          2    1    1    2  501    0  0.63422550116E+02  0.91652347247E+02 -0.48488287198E+03  0.49752786068E+03  0.00000000000E+00 0. -1.
          1    1    1    2  502    0 -0.77086834469E+02 -0.58615691073E+02 -0.33365284031E+02  0.10242764015E+03  0.00000000000E+00 0. -1.
         22    1    3    3    0    0  0.38373298311E+02 -0.73100246517E+02 -0.30225986234E+03  0.31333238015E+03  0.00000000000E+00 0. -1.
         22    1    3    3    0    0 -0.24709013958E+02  0.40063590344E+02 -0.14586245597E+03  0.15326931429E+03  0.00000000000E+00 0. -1.
</event>
<event>
 7    1  0.5452757E-006  0.1060886E+03  0.7818608E-02  0.1268480E+00
          2   -1    0    0  502    0  0.00000000000E+00  0.00000000000E+00  0.17599501750E+03  0.17599501750E+03  0.00000000000E+00 0. -1.
          1   -1    0    0  501    0 -0.00000000000E+00 -0.00000000000E+00 -0.26839324768E+03  0.26839324768E+03  0.00000000000E+00 0. -1.
         25    2    1    2    0    0  0.38937171622E+02  0.72730524059E+02  0.11002683622E+02  0.15017271041E+03  0.12499980577E+03 0.  0.
          2    1    1    2  501    0  0.62022195410E+02 -0.10531893664E+03 -0.13636499211E+03  0.18312357088E+03  0.00000000000E+00 0. -1.
          1    1    1    2  502    0 -0.10095936703E+03  0.32588412585E+02  0.32964078299E+02  0.11109198389E+03  0.00000000000E+00 0. -1.
         22    1    3    3    0    0  0.60168675484E+02 -0.69035813275E+01  0.26847831404E+02  0.66247528224E+02  0.00000000000E+00 0.  1.
         22    1    3    3    0    0 -0.21231503862E+02  0.79634105387E+02 -0.15845147782E+02  0.83925182188E+02  0.00000000000E+00 0.  1.
</event>
<event>
 7    1  0.5452757E-006  0.1103537E+03  0.7818608E-02  0.1323474E+00
          2   -1    0    0  502    0  0.00000000000E+00  0.00000000000E+00  0.38366968782E+03  0.38366968782E+03  0.00000000000E+00 0. -1.
          1   -1    0    0  501    0 -0.00000000000E+00 -0.00000000000E+00 -0.30081465016E+03  0.30081465016E+03  0.00000000000E+00 0. -1.
         25    2    1    2    0    0  0.63024427172E+02  0.31803309741E+02  0.11239049256E+03  0.18231920733E+03  0.12500056644E+03 0.  0.
          2    1    1    2  501    0  0.53234017236E+02  0.29638842196E+02 -0.24350913281E+03  0.25101597423E+03  0.00000000000E+00 0. -1.
          1    1    1    2  502    0 -0.11625844441E+03 -0.61442151938E+02  0.21397367791E+03  0.25114915642E+03  0.00000000000E+00 0. -1.
         22    1    3    3    0    0  0.81472152218E+02  0.41133249783E+01  0.12282676703E+03  0.14744845109E+03  0.00000000000E+00 0. -1.
         22    1    3    3    0    0 -0.18447725046E+02  0.27689984763E+02 -0.10436274471E+02  0.34870756235E+02  0.00000000000E+00 0. -1.
</event>
<event>
 7    1  0.5452757E-006  0.3654365E+02  0.7818608E-02  0.1607882E+00
          2   -1    0    0  502    0  0.00000000000E+00  0.00000000000E+00  0.20047838740E+03  0.20047838740E+03  0.00000000000E+00 0. -1.
          1   -1    0    0  501    0 -0.00000000000E+00 -0.00000000000E+00 -0.44531302553E+03  0.44531302553E+03  0.00000000000E+00 0. -1.
         25    2    1    2    0    0  0.45050804787E+02 -0.14396738012E+02  0.77344097947E+02  0.15441801919E+03  0.12500389629E+03 0.  0.
          2    1    1    2  501    0 -0.20140428667E+02 -0.11563973061E+02 -0.40260079461E+03  0.40327008587E+03  0.00000000000E+00 0. -1.
          1    1    1    2  502    0 -0.24910376120E+02  0.25960711073E+02  0.80422058531E+02  0.88103307862E+02  0.00000000000E+00 0. -1.
         22    1    3    3    0    0  0.68461565136E+02  0.20572024840E+01  0.97689146339E+02  0.11930795152E+03  0.00000000000E+00 0.  1.
         22    1    3    3    0    0 -0.23410760349E+02 -0.16453940496E+02 -0.20345048392E+02  0.35110067674E+02  0.00000000000E+00 0.  1.
</event>
<event>
 7    1  0.5452757E-006  0.6535556E+02  0.7818608E-02  0.1422281E+00
          2   -1    0    0  502    0  0.00000000000E+00  0.00000000000E+00  0.32335874172E+03  0.32335874172E+03  0.00000000000E+00 0. -1.
          1   -1    0    0  501    0 -0.00000000000E+00 -0.00000000000E+00 -0.15308556760E+03  0.15308556760E+03  0.00000000000E+00 0. -1.
         25    2    1    2    0    0  0.61796300230E+01  0.22723130078E+02  0.86065194087E+02  0.15358063863E+03  0.12500106584E+03 0.  0.
          2    1    1    2  501    0 -0.24092722862E+02 -0.64566483113E+02 -0.10647062169E+03  0.12682777030E+03  0.00000000000E+00 0. -1.
          1    1    1    2  502    0  0.17913092839E+02  0.41843353034E+02  0.19067860172E+03  0.19603590039E+03  0.00000000000E+00 0. -1.
         22    1    3    3    0    0  0.15220570365E+02  0.49372648409E+02 -0.10738320756E+02  0.52769647581E+02  0.00000000000E+00 0. -1.
         22    1    3    3    0    0 -0.90409403424E+01 -0.26649518331E+02  0.96803514843E+02  0.10081099105E+03  0.00000000000E+00 0. -1.
</event>
<event>
 7    1  0.5452757E-006  0.2156573E+03  0.7818608E-02  0.1230567E+00
          2   -1    0    0  502    0  0.00000000000E+00  0.00000000000E+00  0.21607816042E+04  0.21607816042E+04  0.00000000000E+00 0. -1.
          1   -1    0    0  501    0 -0.00000000000E+00 -0.00000000000E+00 -0.13306851593E+03  0.13306851593E+03  0.00000000000E+00 0. -1.
         25    2    1    2    0    0  0.18065702364E+03 -0.19356922403E+03  0.34451658133E+03  0.45213251224E+03  0.12500451643E+03 0.  0.
          2    1    1    2  501    0 -0.62518235973E+01  0.75625662398E+02 -0.53154572830E+02  0.92648446961E+02  0.00000000000E+00 0. -1.
          1    1    1    2  502    0 -0.17440520004E+03  0.11794356163E+03  0.17363510798E+04  0.17490691609E+04  0.00000000000E+00 0. -1.
         22    1    3    3    0    0  0.85541741008E+02 -0.10092586699E+02  0.10142590809E+03  0.13306564017E+03  0.00000000000E+00 0. -1.
         22    1    3    3    0    0  0.95115282632E+02 -0.18347663733E+03  0.24309067324E+03  0.31906687207E+03  0.00000000000E+00 0. -1.
</event>
<event>
 7    1  0.5452757E-006  0.2813635E+02  0.7818608E-02  0.1648512E+00
          2   -1    0    0  502    0  0.00000000000E+00  0.00000000000E+00  0.82001727848E+03  0.82001727848E+03  0.00000000000E+00 0. -1.
          1   -1    0    0  501    0 -0.00000000000E+00 -0.00000000000E+00 -0.14585843494E+04  0.14585843494E+04  0.00000000000E+00 0. -1.
         25    2    1    2    0    0  0.41392665462E+02 -0.26689905023E+02  0.64220786597E+02  0.14891425254E+03  0.12500176557E+03 0.  0.
          2    1    1    2  501    0 -0.18144581255E+02  0.21471641724E+02 -0.14158991294E+04  0.14161781674E+04  0.00000000000E+00 0. -1.
          1    1    1    2  502    0 -0.23248084207E+02  0.52182632991E+01  0.71311127189E+03  0.71350920792E+03  0.00000000000E+00 0. -1.
         22    1    3    3    0    0  0.78094314176E+02  0.11630406642E+02  0.24620678759E+02  0.82705296613E+02  0.00000000000E+00 0.  1.
         22    1    3    3    0    0 -0.36701648713E+02 -0.38320311665E+02  0.39600107838E+02  0.66208955929E+02  0.00000000000E+00 0.  1.
</event>
<event>
 7    1  0.5452757E-006  0.4238049E+02  0.7818608E-02  0.1544028E+00
          2   -1    0    0  502    0  0.00000000000E+00  0.00000000000E+00  0.27390861746E+04  0.27390861746E+04  0.00000000000E+00 0. -1.
          1   -1    0    0  501    0 -0.00000000000E+00 -0.00000000000E+00 -0.46565728895E+02  0.46565728895E+02  0.00000000000E+00 0. -1.
         25    2    1    2    0    0 -0.57520702536E+02  0.41591147971E+02  0.69895266657E+03  0.71358078412E+03  0.12499700216E+03 0.  0.
          2    1    1    2  501    0  0.21944222449E+02 -0.20118132013E+02 -0.33363013081E+02  0.44714413519E+02  0.00000000000E+00 0. -1.
          1    1    1    2  502    0  0.35576480088E+02 -0.21473015959E+02  0.20269307922E+04  0.20273567058E+04  0.00000000000E+00 0. -1.
         22    1    3    3    0    0 -0.15495824934E+02  0.72096995212E+02  0.22465272692E+03  0.23644649505E+03  0.00000000000E+00 0. -1.
         22    1    3    3    0    0 -0.42024877603E+02 -0.30505847241E+02  0.47429993965E+03  0.47713428907E+03  0.00000000000E+00 0. -1.
</event>
<event>
 7    1  0.5452757E-006  0.9536727E+02  0.7818608E-02  0.1323657E+00
          2   -1    0    0  502    0  0.00000000000E+00  0.00000000000E+00  0.25598771079E+03  0.25598771079E+03  0.00000000000E+00 0. -1.
          1   -1    0    0  501    0 -0.00000000000E+00 -0.00000000000E+00 -0.92214431428E+03  0.92214431428E+03  0.00000000000E+00 0. -1.
         25    2    1    2    0    0  0.13054824235E+03 -0.26668031833E+02 -0.33610293610E+02  0.18576254556E+03  0.12499617591E+03 0.  0.
          2    1    1    2  501    0 -0.70396970891E+02  0.63225695412E+02 -0.80268616189E+03  0.80824395857E+03  0.00000000000E+00 0. -1.
          1    1    1    2  502    0 -0.60151271461E+02 -0.36557663579E+02  0.17013985201E+03  0.18412552095E+03  0.00000000000E+00 0. -1.
         22    1    3    3    0    0  0.11772911648E+03  0.32517243826E+02 -0.22086751319E+02  0.12411825247E+03  0.00000000000E+00 0.  1.
         22    1    3    3    0    0  0.12819125875E+02 -0.59185275659E+02 -0.11523542291E+02  0.61644293085E+02  0.00000000000E+00 0.  1.
</event>
<event>
 7    1  0.5452757E-006  0.1666636E+03  0.7818608E-02  0.1324258E+00
          2   -1    0    0  502    0  0.00000000000E+00  0.00000000000E+00  0.26595563448E+03  0.26595563448E+03  0.00000000000E+00 0. -1.
          1   -1    0    0  501    0 -0.00000000000E+00 -0.00000000000E+00 -0.15029723506E+04  0.15029723506E+04  0.00000000000E+00 0. -1.
         25    2    1    2    0    0 -0.15371877270E+03  0.72731655456E+02 -0.35146214816E+03  0.40996344685E+03  0.12500012551E+03 0.  0.
          2    1    1    2  501    0 -0.95583425800E+01 -0.38906205099E+02 -0.10924815377E+04  0.10932158821E+04  0.00000000000E+00 0. -1.
          1    1    1    2  502    0  0.16327711528E+03 -0.33825450356E+02  0.20692696969E+03  0.26574865616E+03  0.00000000000E+00 0. -1.
         22    1    3    3    0    0 -0.40328983949E+01  0.56019124638E+02 -0.13539004543E+03  0.14657718443E+03  0.00000000000E+00 0.  1.
         22    1    3    3    0    0 -0.14968587430E+03  0.16712530817E+02 -0.21607210274E+03  0.26338626242E+03  0.00000000000E+00 0.  1.
</event>
<event>
 7    1  0.5452757E-006  0.5229424E+02  0.7818608E-02  0.1440373E+00
          2   -1    0    0  502    0  0.00000000000E+00  0.00000000000E+00  0.20668195461E+04  0.20668195461E+04  0.00000000000E+00 0. -1.
          1   -1    0    0  501    0 -0.00000000000E+00 -0.00000000000E+00 -0.53796805992E+02  0.53796805992E+02  0.00000000000E+00 0. -1.
         25    2    1    2    0    0 -0.39202821145E+02  0.22403316535E+02  0.70253486295E+03  0.71499629627E+03  0.12500280094E+03 0.  0.
          2    1    1    2  501    0  0.37619074156E+02  0.32337309241E+02 -0.33921161979E+02  0.60096102530E+02  0.00000000000E+00 0. -1.
          1    1    1    2  502    0  0.15837469897E+01 -0.54740625777E+02  0.13444090391E+04  0.13455239533E+04  0.00000000000E+00 0. -1.
         22    1    3    3    0    0  0.45528150018E+02  0.12274448558E+02  0.27787176372E+03  0.28184426836E+03  0.00000000000E+00 0.  1.
         22    1    3    3    0    0 -0.84730971163E+02  0.10128867977E+02  0.42466309922E+03  0.43315202791E+03  0.00000000000E+00 0.  1.
</event>
<event>
 7    1  0.5452757E-006  0.3273517E+02  0.7818608E-02  0.1632750E+00
          2   -1    0    0  502    0  0.00000000000E+00  0.00000000000E+00  0.18216588902E+04  0.18216588902E+04  0.00000000000E+00 0. -1.
          1   -1    0    0  501    0 -0.00000000000E+00 -0.00000000000E+00 -0.73753272579E+03  0.73753272579E+03  0.00000000000E+00 0. -1.
         25    2    1    2    0    0  0.30029354645E+02  0.46613378346E+01  0.70164369938E+02  0.14653203513E+03  0.12500043320E+03 0.  0.
          2    1    1    2  501    0 -0.23924376754E+01 -0.22281031043E+02 -0.69901257278E+03  0.69937167872E+03  0.00000000000E+00 0. -1.
          1    1    1    2  502    0 -0.27636916970E+02  0.17619693209E+02  0.17129743673E+04  0.17132879022E+04  0.00000000000E+00 0. -1.
         22    1    3    3    0    0 -0.33889576570E+02 -0.38608750344E+02  0.30595947819E+02  0.59793402865E+02  0.00000000000E+00 0. -1.
         22    1    3    3    0    0  0.63918931215E+02  0.43270088179E+02  0.39568422119E+02  0.86738632268E+02  0.00000000000E+00 0. -1.
</event>
<event>
 7    1  0.5452757E-006  0.6764351E+02  0.7818608E-02  0.1511876E+00
          2   -1    0    0  502    0  0.00000000000E+00  0.00000000000E+00  0.36888838964E+04  0.36888838964E+04  0.00000000000E+00 0. -1.
          1   -1    0    0  501    0 -0.00000000000E+00 -0.00000000000E+00 -0.14853540351E+03  0.14853540351E+03  0.00000000000E+00 0. -1.
         25    2    1    2    0    0  0.79730528967E+02  0.34561784922E+02  0.68277396325E+03  0.69954094513E+03  0.12500309916E+03 0.  0.
          2    1    1    2  501    0 -0.23057415114E+02  0.85297769517E+00 -0.13882717641E+03  0.14073150632E+03  0.00000000000E+00 0. -1.
          1    1    1    2  502    0 -0.56673113853E+02 -0.35414762617E+02  0.29964017060E+04  0.29971468484E+04  0.00000000000E+00 0. -1.
         22    1    3    3    0    0  0.59557572976E+02 -0.40398903748E+02  0.39380356472E+03  0.40032539704E+03  0.00000000000E+00 0. -1.
         22    1    3    3    0    0  0.20172955991E+02  0.74960688670E+02  0.28897039852E+03  0.29921554810E+03  0.00000000000E+00 0. -1.
</event>
<event>
 7    1  0.5452757E-006  0.1606471E+03  0.7818608E-02  0.1249633E+00
          2   -1    0    0  502    0  0.00000000000E+00  0.00000000000E+00  0.44865981343E+03  0.44865981343E+03  0.00000000000E+00 0. -1.
          1   -1    0    0  501    0 -0.00000000000E+00 -0.00000000000E+00 -0.78322365650E+03  0.78322365650E+03  0.00000000000E+00 0. -1.
         25    2    1    2    0    0  0.20164962997E+03 -0.12302577631E+03  0.59570661083E+02  0.27380903021E+03  0.12499922584E+03 0.  0.
          2    1    1    2  501    0 -0.14367646801E+03  0.62321847957E+02 -0.66049115233E+03  0.67880446559E+03  0.00000000000E+00 0. -1.
          1    1    1    2  502    0 -0.57973161960E+02  0.60703928352E+02  0.26635664818E+03  0.27926997414E+03  0.00000000000E+00 0. -1.
         22    1    3    3    0    0  0.19441351997E+03 -0.72537768049E+02  0.74807749975E+02  0.22057775046E+03  0.00000000000E+00 0.  1.
         22    1    3    3    0    0  0.72361099939E+01 -0.50488008260E+02 -0.15237088892E+02  0.53231279750E+02  0.00000000000E+00 0.  1.
</event>
<event>
 7    1  0.5452757E-006  0.5367452E+02  0.7818608E-02  0.1465647E+00
          2   -1    0    0  502    0  0.00000000000E+00  0.00000000000E+00  0.33264997570E+02  0.33264997570E+02  0.00000000000E+00 0. -1.
          1   -1    0    0  501    0 -0.00000000000E+00 -0.00000000000E+00 -0.16535020841E+04  0.16535020841E+04  0.00000000000E+00 0. -1.
         25    2    1    2    0    0  0.67077687712E+02 -0.64002767515E+02 -0.93768808657E+03  0.95051380765E+03  0.12498712091E+03 0.  0.
          2    1    1    2  501    0 -0.28305067371E+02  0.28477785807E+02 -0.68248665974E+03  0.68366673302E+03  0.00000000000E+00 0. -1.
          1    1    1    2  502    0 -0.38772620341E+02  0.35524981708E+02 -0.62340274684E-01  0.52586541052E+02  0.00000000000E+00 0. -1.
         22    1    3    3    0    0  0.21482797121E+02 -0.77095663354E+02 -0.81585743790E+03  0.81977351192E+03  0.00000000000E+00 0.  1.
         22    1    3    3    0    0  0.45594890591E+02  0.13092895839E+02 -0.12183064867E+03  0.13074029572E+03  0.00000000000E+00 0.  1.
</event>
<event>
 7    1  0.5452757E-006  0.2867254E+03  0.7818608E-02  0.1268454E+00
          2   -1    0    0  502    0  0.00000000000E+00  0.00000000000E+00  0.33282662150E+03  0.33282662150E+03  0.00000000000E+00 0. -1.
          1   -1    0    0  501    0 -0.00000000000E+00 -0.00000000000E+00 -0.11710653249E+04  0.11710653249E+04  0.00000000000E+00 0. -1.
         25    2    1    2    0    0 -0.24507609161E+03 -0.14787228388E+03 -0.69076423349E+03  0.75809672405E+03  0.12500765468E+03 0.  0.
          2    1    1    2  501    0  0.21785413149E+02 -0.32440244543E+02 -0.37655491979E+03  0.37857704805E+03  0.00000000000E+00 0. -1.
          1    1    1    2  502    0  0.22329067846E+03  0.18031252842E+03  0.22908044990E+03  0.36721817428E+03  0.00000000000E+00 0. -1.
         22    1    3    3    0    0 -0.73296758600E+02 -0.11154989601E+03 -0.35364840064E+03  0.37799865793E+03  0.00000000000E+00 0. -1.
         22    1    3    3    0    0 -0.17177933301E+03 -0.36322387867E+02 -0.33711583284E+03  0.38009806612E+03  0.00000000000E+00 0. -1.
</event>
<event>
 7    1  0.5452757E-006  0.3646412E+02  0.7818608E-02  0.1560214E+00
          2   -1    0    0  502    0  0.00000000000E+00  0.00000000000E+00  0.14010890583E+03  0.14010890583E+03  0.00000000000E+00 0. -1.
          1   -1    0    0  501    0 -0.00000000000E+00 -0.00000000000E+00 -0.77605632663E+03  0.77605632663E+03  0.00000000000E+00 0. -1.
         25    2    1    2    0    0  0.79956080937E+01 -0.16192730100E+02  0.14205108390E+00  0.12629931553E+03  0.12500145066E+03 0.  0.
          2    1    1    2  501    0 -0.25465801433E+02 -0.18014521058E+02 -0.70781561952E+03  0.70850263319E+03  0.00000000000E+00 0. -1.
          1    1    1    2  502    0  0.17470193339E+02  0.34207251158E+02  0.71726147627E+02  0.81363283737E+02  0.00000000000E+00 0. -1.
         22    1    3    3    0    0 -0.49798952612E+02 -0.10904724097E+02 -0.31770113471E+02  0.60068201229E+02  0.00000000000E+00 0.  1.
         22    1    3    3    0    0  0.57794560706E+02 -0.52880060030E+01  0.31912164555E+02  0.66231114299E+02  0.00000000000E+00 0.  1.
</event>
<event>
 7    1  0.5452757E-006  0.1623072E+03  0.7818608E-02  0.1268658E+00
          2   -1    0    0  502    0  0.00000000000E+00  0.00000000000E+00  0.20292635128E+04  0.20292635128E+04  0.00000000000E+00 0. -1.
          1   -1    0    0  501    0 -0.00000000000E+00 -0.00000000000E+00 -0.21872135234E+03  0.21872135234E+03  0.00000000000E+00 0. -1.
         25    2    1    2    0    0  0.22611128485E+02 -0.10444014559E+03  0.39218829379E+03  0.42527287842E+03  0.12500542465E+03 0.  0.
          2    1    1    2  501    0  0.58505206466E+01  0.16718049992E+03 -0.16669982118E+03  0.23616176347E+03  0.00000000000E+00 0. -1.
          1    1    1    2  502    0 -0.28461649132E+02 -0.62740354332E+02  0.15850536878E+04  0.15865502232E+04  0.00000000000E+00 0. -1.
         22    1    3    3    0    0 -0.27466465003E+02 -0.81143935474E+01  0.14131410987E+02  0.31936606878E+02  0.00000000000E+00 0.  1.
         22    1    3    3    0    0  0.50077593488E+02 -0.96325752038E+02  0.37805688280E+03  0.39333627154E+03  0.00000000000E+00 0.  1.
</event>
<event>
 7    1  0.5452757E-006  0.1138381E+03  0.7818608E-02  0.1424128E+00
          2   -1    0    0  502    0  0.00000000000E+00  0.00000000000E+00  0.57074860918E+02  0.57074860918E+02  0.00000000000E+00 0. -1.
          1   -1    0    0  501    0 -0.00000000000E+00 -0.00000000000E+00 -0.82798457554E+03  0.82798457554E+03  0.00000000000E+00 0. -1.
         25    2    1    2    0    0 -0.93160296571E+02 -0.63578043055E+02 -0.16642804362E+03  0.23673505255E+03  0.12499673191E+03 0.  0.
          2    1    1    2  501    0 -0.14696739281E+02  0.21161575089E+02 -0.47035919893E+03  0.47106430816E+03  0.00000000000E+00 0. -1.
          1    1    1    2  502    0  0.10785703585E+03  0.42416467967E+02 -0.13412247207E+03  0.17726007574E+03  0.00000000000E+00 0. -1.
         22    1    3    3    0    0 -0.45599974963E+02  0.34481166633E+02 -0.76114418640E+02  0.95193031751E+02  0.00000000000E+00 0. -1.
         22    1    3    3    0    0 -0.47560321609E+02 -0.98059209688E+02 -0.90313624981E+02  0.14154202080E+03  0.00000000000E+00 0. -1.
</event>
<event>
 7    1  0.5452757E-006  0.1397493E+03  0.7818608E-02  0.1222752E+00
          2   -1    0    0  502    0  0.00000000000E+00  0.00000000000E+00  0.12659206088E+04  0.12659206088E+04  0.00000000000E+00 0. -1.
          1   -1    0    0  501    0 -0.00000000000E+00 -0.00000000000E+00 -0.22197132638E+03  0.22197132638E+03  0.00000000000E+00 0. -1.
         25    2    1    2    0    0 -0.79308861511E+01 -0.72687464120E+02 -0.37527566243E+02  0.14959926619E+03  0.12500102328E+03 0.  0.
          2    1    1    2  501    0  0.12659659982E+03 -0.10100020306E+02 -0.91435110688E+02  0.15648990051E+03  0.00000000000E+00 0. -1.
          1    1    1    2  502    0 -0.11866571367E+03  0.82787484426E+02  0.11729119594E+04  0.11818027685E+04  0.00000000000E+00 0. -1.
         22    1    3    3    0    0 -0.56564032764E+02 -0.70791402387E+02 -0.43924969018E+01  0.90720485468E+02  0.00000000000E+00 0. -1.
         22    1    3    3    0    0  0.48633146613E+02 -0.18960617328E+01 -0.33135069341E+02  0.58878780726E+02  0.00000000000E+00 0. -1.
</event>
<event>
 7    1  0.5452757E-006  0.8055493E+02  0.7818608E-02  0.1441270E+00
          2   -1    0    0  502    0  0.00000000000E+00  0.00000000000E+00  0.25855428216E+03  0.25855428216E+03  0.00000000000E+00 0. -1.
          1   -1    0    0  501    0 -0.00000000000E+00 -0.00000000000E+00 -0.14596166366E+03  0.14596166366E+03  0.00000000000E+00 0. -1.
         25    2    1    2    0    0 -0.31067768266E+02  0.10480308019E+03 -0.16969982960E+02  0.16691674691E+03  0.12499731290E+03 0.  0.
          2    1    1    2  501    0  0.40450042305E+01 -0.31732055279E+02 -0.39868039334E+02  0.51115026673E+02  0.00000000000E+00 0. -1.
          1    1    1    2  502    0  0.27022764036E+02 -0.73071024915E+02  0.16943064079E+03  0.18648417224E+03  0.00000000000E+00 0. -1.
         22    1    3    3    0    0 -0.32763165111E+02  0.10905755380E+03  0.31564724172E+02  0.11816643704E+03  0.00000000000E+00 0. -1.
         22    1    3    3    0    0  0.16953968452E+01 -0.42544736088E+01 -0.48534707132E+02  0.48750309871E+02  0.00000000000E+00 0. -1.
</event>
<event>
 7    1  0.5452757E-006  0.1502463E+03  0.7818608E-02  0.1246627E+00
          2   -1    0    0  502    0  0.00000000000E+00  0.00000000000E+00  0.27363398428E+04  0.27363398428E+04  0.00000000000E+00 0. -1.
          1   -1    0    0  501    0 -0.00000000000E+00 -0.00000000000E+00 -0.12814800772E+04  0.12814800772E+04  0.00000000000E+00 0. -1.
         25    2    1    2    0    0 -0.44520641249E+02 -0.10699563190E+03 -0.34200040716E+03  0.38212532729E+03  0.12500133806E+03 0.  0.
          2    1    1    2  501    0 -0.26059728224E+02  0.16677470021E+03 -0.91087335529E+03  0.92638176766E+03  0.00000000000E+00 0. -1.
          1    1    1    2  502    0  0.70580369473E+02 -0.59779068311E+02  0.27077335280E+04  0.27093128251E+04  0.00000000000E+00 0. -1.
         22    1    3    3    0    0 -0.79088671568E+02 -0.76375088167E+02 -0.30070606388E+03  0.32017543459E+03  0.00000000000E+00 0.  1.
         22    1    3    3    0    0  0.34568030318E+02 -0.30620543732E+02 -0.41294343283E+02  0.61949892702E+02  0.00000000000E+00 0.  1.
</event>
<event>
 7    1  0.5452757E-006  0.1207508E+03  0.7818608E-02  0.1263930E+00
          2   -1    0    0  502    0  0.00000000000E+00  0.00000000000E+00  0.14225096078E+04  0.14225096078E+04  0.00000000000E+00 0. -1.
          1   -1    0    0  501    0 -0.00000000000E+00 -0.00000000000E+00 -0.88585565827E+03  0.88585565827E+03  0.00000000000E+00 0. -1.
         25    2    1    2    0    0  0.38152673671E+02  0.38290959907E+02  0.75011865835E+02  0.15547905866E+03  0.12500053419E+03 0.  0.
          2    1    1    2  501    0  0.74215162664E+01 -0.12387624402E+03 -0.83925504775E+03  0.84838047945E+03  0.00000000000E+00 0. -1.
          1    1    1    2  502    0 -0.45574189938E+02  0.85585284109E+02  0.13008971314E+04  0.13045057279E+04  0.00000000000E+00 0. -1.
         22    1    3    3    0    0  0.65724972127E+02 -0.21174891949E+02  0.50294360662E+02  0.85426405312E+02  0.00000000000E+00 0.  1.
         22    1    3    3    0    0 -0.27572298455E+02  0.59465851856E+02  0.24717505173E+02  0.70052653348E+02  0.00000000000E+00 0.  1.
</event>
<event>
 7    1  0.5452757E-006  0.2424656E+03  0.7818608E-02  0.1320476E+00
          2   -1    0    0  502    0  0.00000000000E+00  0.00000000000E+00  0.25406167512E+04  0.25406167512E+04  0.00000000000E+00 0. -1.
          1   -1    0    0  501    0 -0.00000000000E+00 -0.00000000000E+00 -0.18897191697E+04  0.18897191697E+04  0.00000000000E+00 0. -1.
         25    2    1    2    0    0 -0.18336218588E+03  0.13557612936E+03 -0.25606305668E+02  0.26131150304E+03  0.12500176265E+03 0.  0.
          2    1    1    2  501    0 -0.25912246600E+02 -0.11820538052E+02 -0.17400438698E+04  0.17402769430E+04  0.00000000000E+00 0. -1.
          1    1    1    2  502    0  0.20927443248E+03 -0.12375559131E+03  0.24165477570E+04  0.24287474748E+04  0.00000000000E+00 0. -1.
         22    1    3    3    0    0 -0.34617900351E+01  0.59623009089E+02  0.15615846513E+02  0.61731206576E+02  0.00000000000E+00 0.  1.
         22    1    3    3    0    0 -0.17990039585E+03  0.75953120269E+02 -0.41222152181E+02  0.19958029646E+03  0.00000000000E+00 0.  1.
</event>
<event>
 7    1  0.5452757E-006  0.7770521E+02  0.7818608E-02  0.1345485E+00
          2   -1    0    0  502    0  0.00000000000E+00  0.00000000000E+00  0.36055508927E+03  0.36055508927E+03  0.00000000000E+00 0. -1.
          1   -1    0    0  501    0 -0.00000000000E+00 -0.00000000000E+00 -0.14153309044E+04  0.14153309044E+04  0.00000000000E+00 0. -1.
         25    2    1    2    0    0  0.29136453022E+02 -0.85629381576E+02 -0.35131418682E+03  0.38370024522E+03  0.12499158548E+03 0.  0.
          2    1    1    2  501    0  0.43260203525E+02  0.56791020908E+02 -0.10421780056E+04  0.10446203428E+04  0.00000000000E+00 0. -1.
          1    1    1    2  502    0 -0.72396656548E+02  0.28838360668E+02  0.33871637731E+03  0.34756540562E+03  0.00000000000E+00 0. -1.
         22    1    3    3    0    0 -0.46791654640E+02 -0.28200820276E+02 -0.86654047679E+02  0.10243861180E+03  0.00000000000E+00 0. -1.
         22    1    3    3    0    0  0.75928107662E+02 -0.57428561300E+02 -0.26466013914E+03  0.28126163342E+03  0.00000000000E+00 0. -1.
</event>
<event>
 7    1  0.5452757E-006  0.1001342E+03  0.7818608E-02  0.1298976E+00
          2   -1    0    0  502    0  0.00000000000E+00  0.00000000000E+00  0.81504306500E+03  0.81504306500E+03  0.00000000000E+00 0. -1.
          1   -1    0    0  501    0 -0.00000000000E+00 -0.00000000000E+00 -0.69478451488E+03  0.69478451488E+03  0.00000000000E+00 0. -1.
         25    2    1    2    0    0  0.19852376638E+02  0.17991123508E+03  0.19035003157E+01  0.21997846847E+03  0.12499893564E+03 0.  0.
          2    1    1    2  501    0 -0.11585500677E+02 -0.96490425562E+02 -0.57918908509E+03  0.58728580975E+03  0.00000000000E+00 0. -1.
          1    1    1    2  502    0 -0.82668759612E+01 -0.83420809522E+02  0.69754413489E+03  0.70256330165E+03  0.00000000000E+00 0. -1.
         22    1    3    3    0    0  0.10669083670E+02  0.96326099133E+02 -0.61398022249E+02  0.11472690991E+03  0.00000000000E+00 0.  1.
         22    1    3    3    0    0  0.91832929679E+01  0.83585135952E+02  0.63301522564E+02  0.10525155857E+03  0.00000000000E+00 0.  1.
</event>
<event>
 7    1  0.5452757E-006  0.5764896E+02  0.7818608E-02  0.1412712E+00
          2   -1    0    0  502    0  0.00000000000E+00  0.00000000000E+00  0.94596294631E+03  0.94596294631E+03  0.00000000000E+00 0. -1.
          1   -1    0    0  501    0 -0.00000000000E+00 -0.00000000000E+00 -0.14838573866E+04  0.14838573866E+04  0.00000000000E+00 0. -1.
         25    2    1    2    0    0 -0.49949323556E+01 -0.87652633709E+00 -0.33660331711E+02  0.12955221568E+03  0.12500016404E+03 0.  0.
          2    1    1    2  501    0  0.41523338963E+02 -0.40982671746E+02 -0.14007840604E+04  0.14019984846E+04  0.00000000000E+00 0. -1.
          1    1    1    2  502    0 -0.36528406608E+02  0.41859198083E+02  0.89654995176E+03  0.89826963266E+03  0.00000000000E+00 0. -1.
         22    1    3    3    0    0 -0.59616788585E+02  0.45807805989E+01 -0.43292227820E+02  0.73819794241E+02  0.00000000000E+00 0. -1.
         22    1    3    3    0    0  0.54621856229E+02 -0.54573069360E+01  0.96318961092E+01  0.55732421440E+02  0.00000000000E+00 0. -1.
</event>
<event>
 7    1  0.5452757E-006  0.7179289E+02  0.7818608E-02  0.1426654E+00
          2   -1    0    0  502    0  0.00000000000E+00  0.00000000000E+00  0.13394904583E+04  0.13394904583E+04  0.00000000000E+00 0. -1.
          1   -1    0    0  501    0 -0.00000000000E+00 -0.00000000000E+00 -0.29803483865E+03  0.29803483865E+03  0.00000000000E+00 0. -1.
         25    2    1    2    0    0 -0.64390984871E+02  0.11071012690E+02  0.86287682705E+02  0.16535666643E+03  0.12501398598E+03 0.  0.
          2    1    1    2  501    0  0.52955686100E+02 -0.49478292328E+02 -0.25308193744E+03  0.26325438868E+03  0.00000000000E+00 0. -1.
          1    1    1    2  502    0  0.11435298771E+02  0.38407279638E+02  0.12082498744E+04  0.12089142418E+04  0.00000000000E+00 0. -1.
         22    1    3    3    0    0 -0.32844456348E+02  0.29609382890E+01 -0.30007130207E+02  0.44586470275E+02  0.00000000000E+00 0. -1.
         22    1    3    3    0    0 -0.31546528523E+02  0.81100744013E+01  0.11629481291E+03  0.12077019615E+03  0.00000000000E+00 0. -1.
</event>
<event>
 7    1  0.5452757E-006  0.9767007E+02  0.7818608E-02  0.1356643E+00
          2   -1    0    0  502    0  0.00000000000E+00  0.00000000000E+00  0.86223828455E+03  0.86223828455E+03  0.00000000000E+00 0. -1.
          1   -1    0    0  501    0 -0.00000000000E+00 -0.00000000000E+00 -0.10749038671E+03  0.10749038671E+03  0.00000000000E+00 0. -1.
         25    2    1    2    0    0  0.22361953745E+02  0.13481674435E+03  0.27320109895E+03  0.33005613772E+03  0.12499040781E+03 0.  0.
          2    1    1    2  501    0  0.91741133141E+01 -0.93913976449E+02 -0.49200920957E+02  0.10641771446E+03  0.00000000000E+00 0. -1.
          1    1    1    2  502    0 -0.31536067059E+02 -0.40902767903E+02  0.53074771985E+03  0.53325481908E+03  0.00000000000E+00 0. -1.
         22    1    3    3    0    0  0.39674035714E+02 -0.55844508973E+01  0.35941909777E+02  0.53824121730E+02  0.00000000000E+00 0. -1.
         22    1    3    3    0    0 -0.17312081969E+02  0.14040119525E+03  0.23725918917E+03  0.27623201599E+03  0.00000000000E+00 0. -1.
</event>
<event>
 7    1  0.5452757E-006  0.7024220E+02  0.7818608E-02  0.1470872E+00
          2   -1    0    0  502    0  0.00000000000E+00  0.00000000000E+00  0.10106583514E+04  0.10106583514E+04  0.00000000000E+00 0. -1.
          1   -1    0    0  501    0 -0.00000000000E+00 -0.00000000000E+00 -0.14590974428E+03  0.14590974428E+03  0.00000000000E+00 0. -1.
         25    2    1    2    0    0  0.72870888291E+02 -0.24709840079E+02  0.65219814808E+02  0.16062269439E+03  0.12500113260E+03 0.  0.
          2    1    1    2  501    0 -0.52648316114E+02  0.46258384465E+02 -0.85426960948E+02  0.11049637541E+03  0.00000000000E+00 0. -1.
          1    1    1    2  502    0 -0.20222572177E+02 -0.21548544386E+02  0.88495575323E+03  0.88544902584E+03  0.00000000000E+00 0. -1.
         22    1    3    3    0    0 -0.13470989966E+02 -0.50746267946E+02  0.62563092937E+01  0.52875255905E+02  0.00000000000E+00 0. -1.
         22    1    3    3    0    0  0.86341878257E+02  0.26036427866E+02  0.58963505515E+02  0.10774743848E+03  0.00000000000E+00 0. -1.
</event>
<event>
 7    1  0.5452757E-006  0.1100444E+03  0.7818608E-02  0.1318992E+00
          2   -1    0    0  502    0  0.00000000000E+00  0.00000000000E+00  0.24923848326E+04  0.24923848326E+04  0.00000000000E+00 0. -1.
          1   -1    0    0  501    0 -0.00000000000E+00 -0.00000000000E+00 -0.35480737836E+02  0.35480737836E+02  0.00000000000E+00 0. -1.
         25    2    1    2    0    0 -0.11468669939E+03 -0.10429156374E+03  0.14402479925E+04  0.14539492844E+04  0.12499788962E+03 0.  0.
          2    1    1    2  501    0  0.33055037708E+02  0.54325084718E+02  0.12002571600E+02  0.64714079400E+02  0.00000000000E+00 0. -1.
          1    1    1    2  502    0  0.81631661678E+02  0.49966479022E+02  0.10046535306E+04  0.10092022066E+04  0.00000000000E+00 0. -1.
         22    1    3    3    0    0 -0.83935253167E+01  0.28111267819E+02  0.20828118734E+03  0.21033722363E+03  0.00000000000E+00 0. -1.
         22    1    3    3    0    0 -0.10629317407E+03 -0.13240283156E+03  0.12319668052E+04  0.12436120608E+04  0.00000000000E+00 0. -1.
</event>
<event>
 7    1  0.5452757E-006  0.2065045E+03  0.7818608E-02  0.1177291E+00
          2   -1    0    0  502    0  0.00000000000E+00  0.00000000000E+00  0.44295971338E+03  0.44295971338E+03  0.00000000000E+00 0. -1.
          1   -1    0    0  501    0 -0.00000000000E+00 -0.00000000000E+00 -0.12640004167E+04  0.12640004167E+04  0.00000000000E+00 0. -1.
         25    2    1    2    0    0  0.20602021020E+03  0.23960505866E+03 -0.12093839691E+03  0.36070204439E+03  0.12499983135E+03 0.  0.
          2    1    1    2  501    0 -0.12625857835E+03 -0.62385786235E+02 -0.98850527900E+03  0.99848680589E+03  0.00000000000E+00 0. -1.
          1    1    1    2  502    0 -0.79761631850E+02 -0.17721927242E+03  0.28840297261E+03  0.34777127978E+03  0.00000000000E+00 0. -1.
         22    1    3    3    0    0  0.13947977283E+03  0.19583004754E+03 -0.14079372226E+03  0.27861602031E+03  0.00000000000E+00 0. -1.
         22    1    3    3    0    0  0.66540437377E+02  0.43775011118E+02  0.19855325352E+02  0.82086024082E+02  0.00000000000E+00 0. -1.
</event>
<event>
 7    1  0.5452757E-006  0.4322199E+02  0.7818608E-02  0.1489131E+00
          2   -1    0    0  502    0  0.00000000000E+00  0.00000000000E+00  0.10115387926E+04  0.10115387926E+04  0.00000000000E+00 0. -1.
          1   -1    0    0  501    0 -0.00000000000E+00 -0.00000000000E+00 -0.12781672490E+04  0.12781672490E+04  0.00000000000E+00 0. -1.
         25    2    1    2    0    0  0.44994919716E+02  0.15981150534E+02 -0.54681034848E+02  0.14454637990E+03  0.12499480148E+03 0.  0.
          2    1    1    2  501    0 -0.11584785929E+02 -0.41784705787E+02 -0.11776934589E+04  0.11784914306E+04  0.00000000000E+00 0. -1.
          1    1    1    2  502    0 -0.33410133787E+02  0.25803555252E+02  0.96574603727E+03  0.96666823110E+03  0.00000000000E+00 0. -1.
         22    1    3    3    0    0 -0.19002547011E+02 -0.42191234857E+02 -0.27791062401E+02  0.53977219649E+02  0.00000000000E+00 0. -1.
         22    1    3    3    0    0  0.63997466727E+02  0.58172385392E+02 -0.26889972447E+02  0.90569160247E+02  0.00000000000E+00 0. -1.
</event>
<event>
 7    1  0.5452757E-006  0.2038680E+03  0.7818608E-02  0.1314412E+00
          2   -1    0    0  502    0  0.00000000000E+00  0.00000000000E+00  0.31497103970E+03  0.31497103970E+03  0.00000000000E+00 0. -1.
          1   -1    0    0  501    0 -0.00000000000E+00 -0.00000000000E+00 -0.44168596651E+03  0.44168596651E+03  0.00000000000E+00 0. -1.
         25    2    1    2    0    0  0.70644015156E+02  0.21153824965E+03  0.73447867984E+02  0.26600482001E+03  0.12499986807E+03 0.  0.
          2    1    1    2  501    0 -0.37863794833E+02 -0.19723023249E+03 -0.31321819042E+03  0.37207400659E+03  0.00000000000E+00 0. -1.
          1    1    1    2  502    0 -0.32780220323E+02 -0.14308017155E+02  0.11305539563E+03  0.11857817961E+03  0.00000000000E+00 0. -1.
         22    1    3    3    0    0 -0.24522894954E+02  0.11592485125E+03  0.52039464454E+02  0.12941425492E+03  0.00000000000E+00 0.  1.
         22    1    3    3    0    0  0.95166910109E+02  0.95613398394E+02  0.21408403530E+02  0.13659056510E+03  0.00000000000E+00 0.  1.
</event>
<event>
 7    1  0.5452757E-006  0.6384127E+02  0.7818608E-02  0.1460903E+00
          2   -1    0    0  502    0  0.00000000000E+00  0.00000000000E+00  0.56094794939E+03  0.56094794939E+03  0.00000000000E+00 0. -1.
          1   -1    0    0  501    0 -0.00000000000E+00 -0.00000000000E+00 -0.45610423077E+03  0.45610423077E+03  0.00000000000E+00 0. -1.
         25    2    1    2    0    0 -0.49320207094E+02 -0.66641002164E+02 -0.19540724075E+03  0.24633943224E+03  0.12500248055E+03 0.  0.
          2    1    1    2  501    0  0.15068900897E+02  0.59761112564E+02 -0.23060992005E+03  0.23870357680E+03  0.00000000000E+00 0. -1.
          1    1    1    2  502    0  0.34251306197E+02  0.68798895997E+01  0.53086087942E+03  0.53200917112E+03  0.00000000000E+00 0. -1.
         22    1    3    3    0    0  0.16064171956E+01  0.32216060366E+02 -0.79102326580E+02  0.85426185635E+02  0.00000000000E+00 0.  1.
         22    1    3    3    0    0 -0.50926624290E+02 -0.98857062530E+02 -0.11630491417E+03  0.16091324660E+03  0.00000000000E+00 0.  1.
</event>
<event>
 7    1  0.5452757E-006  0.1117721E+03  0.7818608E-02  0.1290249E+00
          2   -1    0    0  502    0  0.00000000000E+00  0.00000000000E+00  0.22911600535E+04  0.22911600535E+04  0.00000000000E+00 0. -1.
          1   -1    0    0  501    0 -0.00000000000E+00 -0.00000000000E+00 -0.69598926443E+03  0.69598926443E+03  0.00000000000E+00 0. -1.
         25    2    1    2    0    0 -0.76321534170E+02 -0.17412564670E+03  0.27549731176E+03  0.35730748696E+03  0.12500061614E+03 0.  0.
          2    1    1    2  501    0  0.28412470991E+02  0.76331602492E+02 -0.65104345228E+03  0.65611840303E+03  0.00000000000E+00 0. -1.
          1    1    1    2  502    0  0.47909063179E+02  0.97794044213E+02  0.19707169296E+04  0.19737234279E+04  0.00000000000E+00 0. -1.
         22    1    3    3    0    0 -0.39677436653E+02 -0.11970198959E+03  0.75860067781E+02  0.14716526484E+03  0.00000000000E+00 0. -1.
         22    1    3    3    0    0 -0.36644097518E+02 -0.54423657117E+02  0.19963724398E+03  0.21014222213E+03  0.00000000000E+00 0. -1.
</event>
<event>
 7    1  0.5452757E-006  0.8195289E+02  0.7818608E-02  0.1395217E+00
          2   -1    0    0  502    0  0.00000000000E+00  0.00000000000E+00  0.43007387037E+03  0.43007387037E+03  0.00000000000E+00 0. -1.
          1   -1    0    0  501    0 -0.00000000000E+00 -0.00000000000E+00 -0.74137069772E+03  0.74137069772E+03  0.00000000000E+00 0. -1.
         25    2    1    2    0    0 -0.32888143953E+02  0.68836918211E+02 -0.12620987081E+03  0.19332600200E+03  0.12500344091E+03 0.  0.
          2    1    1    2  501    0 -0.37065629799E+02 -0.25254221973E+02 -0.57643928690E+03  0.57818153561E+03  0.00000000000E+00 0. -1.
          1    1    1    2  502    0  0.69953773752E+02 -0.43582696238E+02  0.39135233035E+03  0.39993703047E+03  0.00000000000E+00 0. -1.
         22    1    3    3    0    0  0.21164574784E+02 -0.27932286391E+02 -0.37776950745E+02  0.51529116589E+02  0.00000000000E+00 0. -1.
         22    1    3    3    0    0 -0.54052718737E+02  0.96769204602E+02 -0.88432920063E+02  0.14179688541E+03  0.00000000000E+00 0. -1.
</event>
<event>
 7    1  0.5452757E-006  0.1735212E+03  0.7818608E-02  0.1312025E+00
          2   -1    0    0  502    0  0.00000000000E+00  0.00000000000E+00  0.12374743210E+04  0.12374743210E+04  0.00000000000E+00 0. -1.
          1   -1    0    0  501    0 -0.00000000000E+00 -0.00000000000E+00 -0.13905905062E+03  0.13905905062E+03  0.00000000000E+00 0. -1.
         25    2    1    2    0    0  0.14336513678E+03  0.40992985265E+02  0.11710492638E+03  0.22709627881E+03  0.12500067513E+03 0.  0.
          2    1    1    2  501    0 -0.17589341636E+03 -0.69020473766E+02  0.23205039869E+02  0.19037014891E+03  0.00000000000E+00 0. -1.
          1    1    1    2  502    0  0.32528279586E+02  0.28027488501E+02  0.95810530411E+03  0.95906694388E+03  0.00000000000E+00 0. -1.
         22    1    3    3    0    0  0.52727793088E+01 -0.30804495226E+02  0.46887009538E+02  0.56348121452E+02  0.00000000000E+00 0.  1.
         22    1    3    3    0    0  0.13809235747E+03  0.71797480491E+02  0.70217916841E+02  0.17074815736E+03  0.00000000000E+00 0.  1.
</event>
<event>
 7    1  0.5452757E-006  0.1293985E+03  0.7818608E-02  0.1358807E+00
          2   -1    0    0  502    0  0.00000000000E+00  0.00000000000E+00  0.73986719303E+03  0.73986719303E+03  0.00000000000E+00 0. -1.
          1   -1    0    0  501    0 -0.00000000000E+00 -0.00000000000E+00 -0.14072426804E+04  0.14072426804E+04  0.00000000000E+00 0. -1.
         25    2    1    2    0    0 -0.11408247210E+03  0.35366623406E+02 -0.18410570529E+03  0.25255792259E+03  0.12499994021E+03 0.  0.
          2    1    1    2  501    0 -0.15727242302E+02 -0.34899278822E+02 -0.11826285450E+04  0.11832478951E+04  0.00000000000E+00 0. -1.
          1    1    1    2  502    0  0.12980971440E+03 -0.46734458475E+00  0.69935876295E+03  0.71130405571E+03  0.00000000000E+00 0. -1.
         22    1    3    3    0    0 -0.33725509201E+02 -0.45129132449E+02 -0.40597630906E+02  0.69442178837E+02  0.00000000000E+00 0. -1.
         22    1    3    3    0    0 -0.80356962898E+02  0.80495755856E+02 -0.14350807439E+03  0.18311574376E+03  0.00000000000E+00 0. -1.
</event>
<event>
 7    1  0.5452757E-006  0.1087871E+03  0.7818608E-02  0.1389692E+00
          2   -1    0    0  502    0  0.00000000000E+00  0.00000000000E+00  0.74874255357E+02  0.74874255357E+02  0.00000000000E+00 0. -1.
          1   -1    0    0  501    0 -0.00000000000E+00 -0.00000000000E+00 -0.13142207583E+04  0.13142207583E+04  0.00000000000E+00 0. -1.
         25    2    1    2    0    0 -0.10674062782E+03  0.30898117425E+02 -0.48306370404E+03  0.51119811291E+03  0.12499885278E+03 0.  0.
          2    1    1    2  501    0  0.10927138505E+03  0.43272748924E+01 -0.80794773153E+03  0.81531496845E+03  0.00000000000E+00 0. -1.
          1    1    1    2  502    0 -0.25307572359E+01 -0.35225392317E+02  0.51664932582E+02  0.62581932335E+02  0.00000000000E+00 0. -1.
         22    1    3    3    0    0 -0.11690007873E+03 -0.16029980238E+02 -0.37007864640E+03  0.38843376938E+03  0.00000000000E+00 0.  1.
         22    1    3    3    0    0  0.10159450912E+02  0.46928097663E+02 -0.11298505764E+03  0.12276434353E+03  0.00000000000E+00 0.  1.
</event>
<event>
 7    1  0.5452757E-006  0.1295921E+03  0.7818608E-02  0.1302999E+00
          2   -1    0    0  502    0  0.00000000000E+00  0.00000000000E+00  0.51237303847E+03  0.51237303847E+03  0.00000000000E+00 0. -1.
          1   -1    0    0  501    0 -0.00000000000E+00 -0.00000000000E+00 -0.30055611952E+03  0.30055611952E+03  0.00000000000E+00 0. -1.
         25    2    1    2    0    0  0.26537059696E+02 -0.67350134190E+02  0.18545980064E+03  0.23507087663E+03  0.12499089278E+03 0.  0.
          2    1    1    2  501    0 -0.60742613704E+02  0.11956295179E+03 -0.25583036044E+03  0.28884968043E+03  0.00000000000E+00 0. -1.
          1    1    1    2  502    0  0.34205554007E+02 -0.52212817597E+02  0.28218747876E+03  0.28900860093E+03  0.00000000000E+00 0. -1.
         22    1    3    3    0    0  0.41779288993E+02  0.25854679667E+02  0.76011263599E+02  0.90507931384E+02  0.00000000000E+00 0.  1.
         22    1    3    3    0    0 -0.15242229297E+02 -0.93204813857E+02  0.10944853704E+03  0.14456294525E+03  0.00000000000E+00 0.  1.
</event>
<event>
 7    1  0.5452757E-006  0.6178802E+02  0.7818608E-02  0.1455561E+00
          2   -1    0    0  502    0  0.00000000000E+00  0.00000000000E+00  0.19990356406E+04  0.19990356406E+04  0.00000000000E+00 0. -1.
          1   -1    0    0  501    0 -0.00000000000E+00 -0.00000000000E+00 -0.94939378428E+03  0.94939378428E+03  0.00000000000E+00 0. -1.
         25    2    1    2    0    0  0.66019585245E+01  0.29730246566E+02  0.62373391185E+03  0.63686411418E+03  0.12499773485E+03 0.  0.
          2    1    1    2  501    0 -0.11256013877E+02  0.35800377430E+02 -0.94166640974E+03  0.94241391761E+03  0.00000000000E+00 0. -1.
          1    1    1    2  502    0  0.46540553528E+01 -0.65530623997E+02  0.13675743542E+04  0.13691513931E+04  0.00000000000E+00 0. -1.
         22    1    3    3    0    0 -0.16712582647E+02  0.72893894159E+02  0.45642480223E+03  0.46251100561E+03  0.00000000000E+00 0. -1.
         22    1    3    3    0    0  0.23314541171E+02 -0.43163647592E+02  0.16730910962E+03  0.17435310856E+03  0.00000000000E+00 0. -1.
</event>
<event>
 7    1  0.5452757E-006  0.5716042E+02  0.7818608E-02  0.1544466E+00
          2   -1    0    0  502    0  0.00000000000E+00  0.00000000000E+00  0.18273341235E+03  0.18273341235E+03  0.00000000000E+00 0. -1.
          1   -1    0    0  501    0 -0.00000000000E+00 -0.00000000000E+00 -0.61603232777E+03  0.61603232777E+03  0.00000000000E+00 0. -1.
         25    2    1    2    0    0 -0.35411470826E+02  0.25840342775E+01 -0.34146286139E+03  0.36535272470E+03  0.12500031296E+03 0.  0.
          2    1    1    2  501    0 -0.21709561080E+02  0.36263749324E+01 -0.25730880814E+03  0.25824848186E+03  0.00000000000E+00 0. -1.
          1    1    1    2  502    0  0.57121031906E+02 -0.62104092098E+01  0.16547275410E+03  0.17516453357E+03  0.00000000000E+00 0. -1.
         22    1    3    3    0    0  0.39637760770E+01  0.59886890778E+02 -0.17255985720E+03  0.18269935831E+03  0.00000000000E+00 0. -1.
         22    1    3    3    0    0 -0.39375246903E+02 -0.57302856501E+02 -0.16890300418E+03  0.18265336639E+03  0.00000000000E+00 0. -1.
</event>
<event>
 7    1  0.8063722E-006  0.8925756E+02  0.7818608E-02  0.1376486E+00
          2   -1    0    0  502    0  0.00000000000E+00  0.00000000000E+00  0.56767159927E+03  0.56767159927E+03  0.00000000000E+00 0. -1.
          1   -1    0    0  501    0 -0.00000000000E+00 -0.00000000000E+00 -0.27067303965E+04  0.27067303965E+04  0.00000000000E+00 0. -1.
         25    2    1    2    0    0  0.29337615267E+02  0.68116365116E+02 -0.10110466106E+04  0.10214404258E+04  0.12499903861E+03 0.  0.
          2    1    1    2  501    0 -0.43491789572E+02  0.20105971323E+02 -0.16865961092E+04  0.16872765694E+04  0.00000000000E+00 0. -1.
          1    1    1    2  502    0  0.14154174305E+02 -0.88222336439E+02  0.55858392264E+03  0.56568500062E+03  0.00000000000E+00 0. -1.
         22    1    3    3    0    0 -0.41101152089E+02  0.56467145879E+02 -0.37970815581E+03  0.38607787668E+03  0.00000000000E+00 0.  1.
         22    1    3    3    0    0  0.70438767356E+02  0.11649219237E+02 -0.63133845482E+03  0.63536254909E+03  0.00000000000E+00 0.  1.
</event>
<event>
 7    1  0.5452757E-006  0.1218609E+03  0.7818608E-02  0.1315140E+00
          2   -1    0    0  502    0  0.00000000000E+00  0.00000000000E+00  0.46095020985E+03  0.46095020985E+03  0.00000000000E+00 0. -1.
          1   -1    0    0  501    0 -0.00000000000E+00 -0.00000000000E+00 -0.16107290235E+03  0.16107290235E+03  0.00000000000E+00 0. -1.
         25    2    1    2    0    0  0.56514161895E+02 -0.16041252116E+03  0.41903029996E+02  0.21518766108E+03  0.12499535240E+03 0.  0.
          2    1    1    2  501    0  0.10733011664E+01  0.59435731888E+02 -0.49984922887E+02  0.77667565409E+02  0.00000000000E+00 0. -1.
          1    1    1    2  502    0 -0.57587463061E+02  0.10097678927E+03  0.30795920039E+03  0.32916788571E+03  0.00000000000E+00 0. -1.
         22    1    3    3    0    0 -0.13033583322E+02  0.32063339187E+01  0.34755940247E+02  0.37257620078E+02  0.00000000000E+00 0. -1.
         22    1    3    3    0    0  0.69547745216E+02 -0.16361885507E+03  0.71470897491E+01  0.17793004101E+03  0.00000000000E+00 0. -1.
</event>
<event>
 7    1  0.5452757E-006  0.6954424E+02  0.7818608E-02  0.1489509E+00
          2   -1    0    0  502    0  0.00000000000E+00  0.00000000000E+00  0.12724659713E+03  0.12724659713E+03  0.00000000000E+00 0. -1.
          1   -1    0    0  501    0 -0.00000000000E+00 -0.00000000000E+00 -0.97127120860E+03  0.97127120860E+03  0.00000000000E+00 0. -1.
         25    2    1    2    0    0  0.38673240638E+02  0.57231575505E+02 -0.37716209619E+03  0.40329551566E+03  0.12499981347E+03 0.  0.
          2    1    1    2  501    0 -0.58057615886E+02 -0.39654040788E+02 -0.57738220484E+03  0.58164709247E+03  0.00000000000E+00 0. -1.
          1    1    1    2  502    0  0.19384375248E+02 -0.17577534717E+02  0.11051968956E+03  0.11357519761E+03  0.00000000000E+00 0. -1.
         22    1    3    3    0    0  0.79361509598E+02  0.63036730796E+02 -0.25488977836E+03  0.27430034223E+03  0.00000000000E+00 0. -1.
         22    1    3    3    0    0 -0.40688268960E+02 -0.58051552912E+01 -0.12227231783E+03  0.12899517343E+03  0.00000000000E+00 0. -1.
</event>
<event>
 7    1  0.5452757E-006  0.8799796E+02  0.7818608E-02  0.1493035E+00
          2   -1    0    0  502    0  0.00000000000E+00  0.00000000000E+00  0.12569923261E+03  0.12569923261E+03  0.00000000000E+00 0. -1.
          1   -1    0    0  501    0 -0.00000000000E+00 -0.00000000000E+00 -0.99433549739E+03  0.99433549739E+03  0.00000000000E+00 0. -1.
         25    2    1    2    0    0 -0.19893700480E+02  0.66815611264E+02  0.13060138464E+02  0.14372151178E+03  0.12500088201E+03 0.  0.
          2    1    1    2  501    0  0.17191913203E+02 -0.86812919002E+02 -0.92463965936E+03  0.92886519175E+03  0.00000000000E+00 0. -1.
          1    1    1    2  502    0  0.27017872772E+01  0.19997307739E+02  0.42943256116E+02  0.47448026483E+02  0.00000000000E+00 0. -1.
         22    1    3    3    0    0  0.46643801986E+02 -0.20416150462E+01  0.10903008912E+02  0.47944635352E+02  0.00000000000E+00 0. -1.
         22    1    3    3    0    0 -0.66537502466E+02  0.68857226310E+02  0.21571295520E+01  0.95776876423E+02  0.00000000000E+00 0. -1.
</event>
<event>
 7    1  0.5452757E-006  0.1062576E+03  0.7818608E-02  0.1329256E+00
          2   -1    0    0  502    0  0.00000000000E+00  0.00000000000E+00  0.70521403378E+03  0.70521403378E+03  0.00000000000E+00 0. -1.
          1   -1    0    0  501    0 -0.00000000000E+00 -0.00000000000E+00 -0.66138463300E+03  0.66138463300E+03  0.00000000000E+00 0. -1.
         25    2    1    2    0    0  0.16505621237E+03 -0.14904382672E+02  0.41654796070E+03  0.46540668712E+03  0.12500194792E+03 0.  0.
          2    1    1    2  501    0 -0.10540468458E+03  0.73943121427E+01 -0.62907115889E+03  0.63788348962E+03  0.00000000000E+00 0. -1.
          1    1    1    2  502    0 -0.59651527796E+02  0.75100705293E+01  0.25635259897E+03  0.26330849003E+03  0.00000000000E+00 0. -1.
         22    1    3    3    0    0  0.63468189256E+02 -0.57367316287E+02  0.10786075584E+03  0.13767048586E+03  0.00000000000E+00 0. -1.
         22    1    3    3    0    0  0.10158802312E+03  0.42462933615E+02  0.30868720486E+03  0.32773620126E+03  0.00000000000E+00 0. -1.
</event>
<event>
 7    1  0.5452757E-006  0.5892023E+02  0.7818608E-02  0.1466039E+00
          2   -1    0    0  502    0  0.00000000000E+00  0.00000000000E+00  0.15430547979E+04  0.15430547979E+04  0.00000000000E+00 0. -1.
          1   -1    0    0  501    0 -0.00000000000E+00 -0.00000000000E+00 -0.95243384354E+02  0.95243384354E+02  0.00000000000E+00 0. -1.
         25    2    1    2    0    0 -0.79243411318E+02  0.10065933664E+02  0.10694926942E+03  0.18287663862E+03  0.12499950986E+03 0.  0.
          2    1    1    2  501    0  0.54868556113E+02  0.17067323547E+02 -0.42567513707E+02  0.71511154418E+02  0.00000000000E+00 0. -1.
          1    1    1    2  502    0  0.24374855205E+02 -0.27133257211E+02  0.13834296579E+04  0.13839103893E+04  0.00000000000E+00 0. -1.
         22    1    3    3    0    0  0.32578394939E+02  0.40240420350E+01  0.88437042824E+01  0.33996409172E+02  0.00000000000E+00 0. -1.
         22    1    3    3    0    0 -0.11182180626E+03  0.60418916294E+01  0.98105565139E+02  0.14888022945E+03  0.00000000000E+00 0. -1.
</event>
<event>
 7    1  0.5452757E-006  0.6941105E+02  0.7818608E-02  0.1368879E+00
          2   -1    0    0  502    0  0.00000000000E+00  0.00000000000E+00  0.21583183686E+04  0.21583183686E+04  0.00000000000E+00 0. -1.
          1   -1    0    0  501    0 -0.00000000000E+00 -0.00000000000E+00 -0.30579276656E+03  0.30579276656E+03  0.00000000000E+00 0. -1.
         25    2    1    2    0    0 -0.44886901005E+01  0.10966568272E+01  0.34466079737E+03  0.36667478217E+03  0.12505190778E+03 0.  0.
          2    1    1    2  501    0  0.65146294147E+02 -0.26083264502E+02 -0.29000280601E+03  0.29837225712E+03  0.00000000000E+00 0. -1.
          1    1    1    2  502    0 -0.60657604046E+02  0.24986607675E+02  0.17978676107E+04  0.17990640959E+04  0.00000000000E+00 0. -1.
         22    1    3    3    0    0 -0.26002794428E+02 -0.47891814558E+02  0.26611170809E+03  0.27163433583E+03  0.00000000000E+00 0. -1.
         22    1    3    3    0    0  0.21514104327E+02  0.48988471385E+02  0.78549089286E+02  0.95040446344E+02  0.00000000000E+00 0. -1.
</event>
<event>
 7    1  0.5452757E-006  0.8232440E+02  0.7818608E-02  0.1438036E+00
          2   -1    0    0  502    0  0.00000000000E+00  0.00000000000E+00  0.48478659979E+03  0.48478659979E+03  0.00000000000E+00 0. -1.
          1   -1    0    0  501    0 -0.00000000000E+00 -0.00000000000E+00 -0.16440534943E+03  0.16440534943E+03  0.00000000000E+00 0. -1.
         25    2    1    2    0    0  0.33823412501E+02 -0.87728689259E+02 -0.14362993585E+02  0.15706309105E+03  0.12498869083E+03 0.  0.
          2    1    1    2  501    0  0.19521952794E+02  0.25440444465E+02 -0.71144734165E+02  0.78037786071E+02  0.00000000000E+00 0. -1.
          1    1    1    2  502    0 -0.53345365295E+02  0.62288244794E+02  0.40588897811E+03  0.41409107209E+03  0.00000000000E+00 0. -1.
         22    1    3    3    0    0  0.36052940192E+01 -0.92016437843E+02  0.35424094234E+02  0.98665543280E+02  0.00000000000E+00 0. -1.
         22    1    3    3    0    0  0.30218118482E+02  0.42877485844E+01 -0.49787087819E+02  0.58397547774E+02  0.00000000000E+00 0. -1.
</event>
<event>
 7    1  0.5452757E-006  0.1799611E+03  0.7818608E-02  0.1234207E+00
          2   -1    0    0  502    0  0.00000000000E+00  0.00000000000E+00  0.23791701810E+03  0.23791701810E+03  0.00000000000E+00 0. -1.
          1   -1    0    0  501    0 -0.00000000000E+00 -0.00000000000E+00 -0.31054409771E+04  0.31054409771E+04  0.00000000000E+00 0. -1.
         25    2    1    2    0    0 -0.13654652258E+03 -0.18550671332E+03 -0.10911381881E+04  0.11221697978E+04  0.12499926497E+03 0.  0.
          2    1    1    2  501    0  0.86484374853E+02  0.13902255032E+02 -0.19617314504E+04  0.19636861010E+04  0.00000000000E+00 0. -1.
          1    1    1    2  502    0  0.50062147724E+02  0.17160445829E+03  0.18534567945E+03  0.25750209636E+03  0.00000000000E+00 0. -1.
         22    1    3    3    0    0 -0.35166091886E+02 -0.80793262423E+01 -0.39537871036E+03  0.39702173005E+03  0.00000000000E+00 0.  1.
         22    1    3    3    0    0 -0.10138043069E+03 -0.17742738708E+03 -0.69575947770E+03  0.72514806779E+03  0.00000000000E+00 0.  1.
</event>
<event>
 7    1  0.5452757E-006  0.9095195E+02  0.7818608E-02  0.1318880E+00
          2   -1    0    0  502    0  0.00000000000E+00  0.00000000000E+00  0.10253357001E+03  0.10253357001E+03  0.00000000000E+00 0. -1.
          1   -1    0    0  501    0 -0.00000000000E+00 -0.00000000000E+00 -0.23072194903E+04  0.23072194903E+04  0.00000000000E+00 0. -1.
         25    2    1    2    0    0 -0.41396576898E+02 -0.86442894241E+01 -0.92522217238E+03  0.93458498317E+03  0.12499848869E+03 0.  0.
          2    1    1    2  501    0  0.10792275576E+03  0.47451143756E+02 -0.13592037284E+04  0.13643070430E+04  0.00000000000E+00 0. -1.
          1    1    1    2  502    0 -0.66526178860E+02 -0.38806854332E+02  0.79739980462E+02  0.11086103419E+03  0.00000000000E+00 0. -1.
         22    1    3    3    0    0 -0.63622650294E+02 -0.27222546171E+01 -0.89146324096E+03  0.89373483891E+03  0.00000000000E+00 0. -1.
         22    1    3    3    0    0  0.22226073396E+02 -0.59220348070E+01 -0.33758931418E+02  0.40850144251E+02  0.00000000000E+00 0. -1.
</event>
<event>
 7    1  0.5452757E-006  0.5898615E+02  0.7818608E-02  0.1462264E+00
          2   -1    0    0  502    0  0.00000000000E+00  0.00000000000E+00  0.11414729249E+02  0.11414729249E+02  0.00000000000E+00 0. -1.
          1   -1    0    0  501    0 -0.00000000000E+00 -0.00000000000E+00 -0.18572524728E+04  0.18572524728E+04  0.00000000000E+00 0. -1.
         25    2    1    2    0    0 -0.36163298454E+02  0.70033491830E+02 -0.10794615623E+04  0.10895297795E+04  0.12500160717E+03 0.  0.
          2    1    1    2  501    0 -0.10012882361E+02 -0.36076257324E+02 -0.63122329555E+03  0.63233266798E+03  0.00000000000E+00 0. -1.
          1    1    1    2  502    0  0.46176180815E+02 -0.33957234506E+02 -0.13515288570E+03  0.14680475456E+03  0.00000000000E+00 0. -1.
         22    1    3    3    0    0 -0.78487741882E+02  0.35148017392E+02 -0.48700616597E+03  0.49454091281E+03  0.00000000000E+00 0. -1.
         22    1    3    3    0    0  0.42324443428E+02  0.34885474438E+02 -0.59245539629E+03  0.59498886665E+03  0.00000000000E+00 0. -1.
</event>
<event>
 7    1  0.5452757E-006  0.6623741E+02  0.7818608E-02  0.1386799E+00
          2   -1    0    0  502    0  0.00000000000E+00  0.00000000000E+00  0.47925496891E+02  0.47925496891E+02  0.00000000000E+00 0. -1.
          1   -1    0    0  501    0 -0.00000000000E+00 -0.00000000000E+00 -0.71976058054E+03  0.71976058054E+03  0.00000000000E+00 0. -1.
         25    2    1    2    0    0 -0.80622451890E+02 -0.24195426696E+02 -0.55100724152E+03  0.57124526376E+03  0.12500709075E+03 0.  0.
          2    1    1    2  501    0  0.55005172339E+02 -0.29363697232E+02 -0.12205359333E+03  0.13705792697E+03  0.00000000000E+00 0. -1.
          1    1    1    2  502    0  0.25617279551E+02  0.53559123928E+02  0.12257512021E+01  0.59382886706E+02  0.00000000000E+00 0. -1.
         22    1    3    3    0    0 -0.10731099739E+03 -0.40224324817E+02 -0.48363861021E+03  0.49703113761E+03  0.00000000000E+00 0. -1.
         22    1    3    3    0    0  0.26688545495E+02  0.16028898121E+02 -0.67368631306E+02  0.74214126146E+02  0.00000000000E+00 0. -1.
</event>
<event>
 7    1  0.5452757E-006  0.1060595E+03  0.7818608E-02  0.1290631E+00
          2   -1    0    0  502    0  0.00000000000E+00  0.00000000000E+00  0.35288026939E+03  0.35288026939E+03  0.00000000000E+00 0. -1.
          1   -1    0    0  501    0 -0.00000000000E+00 -0.00000000000E+00 -0.77134083098E+03  0.77134083098E+03  0.00000000000E+00 0. -1.
         25    2    1    2    0    0 -0.71038926761E+01  0.28143842914E+02 -0.13031287420E+03  0.18289052163E+03  0.12499982613E+03 0.  0.
          2    1    1    2  501    0 -0.63217831287E+02  0.57607831490E+02 -0.60221532969E+03  0.60825854680E+03  0.00000000000E+00 0. -1.
          1    1    1    2  502    0  0.70321723964E+02 -0.85751674404E+02  0.31406764230E+03  0.33307203195E+03  0.00000000000E+00 0. -1.
         22    1    3    3    0    0 -0.65794515227E+02  0.18225680069E+02 -0.77869809255E+02  0.10356061433E+03  0.00000000000E+00 0.  1.
         22    1    3    3    0    0  0.58690622551E+02  0.99181628456E+01 -0.52443064947E+02  0.79329907291E+02  0.00000000000E+00 0.  1.
</event>
<event>
 7    1  0.5452757E-006  0.3392398E+03  0.7818608E-02  0.1115350E+00
          2   -1    0    0  502    0  0.00000000000E+00  0.00000000000E+00  0.50711117060E+03  0.50711117060E+03  0.00000000000E+00 0. -1.
          1   -1    0    0  501    0 -0.00000000000E+00 -0.00000000000E+00 -0.16811563740E+04  0.16811563740E+04  0.00000000000E+00 0. -1.
         25    2    1    2    0    0 -0.15383472923E+03  0.14245876721E+03 -0.22144993657E+03  0.32958321841E+03  0.12500159669E+03 0.  0.
          2    1    1    2  501    0 -0.60560392267E+02  0.16901229749E+03 -0.13195889628E+04  0.13317461276E+04  0.00000000000E+00 0. -1.
          1    1    1    2  502    0  0.21439512150E+03 -0.31147106471E+03  0.36699369592E+03  0.52693819858E+03  0.00000000000E+00 0. -1.
         22    1    3    3    0    0 -0.40613575545E+01 -0.17415139445E+02  0.28025222298E+00  0.17884637217E+02  0.00000000000E+00 0. -1.
         22    1    3    3    0    0 -0.14977337168E+03  0.15987390666E+03 -0.22173018879E+03  0.31169858119E+03  0.00000000000E+00 0. -1.
</event>
<event>
 7    1  0.5452757E-006  0.2338679E+03  0.7818608E-02  0.1326055E+00
          2   -1    0    0  502    0  0.00000000000E+00  0.00000000000E+00  0.49144723669E+03  0.49144723669E+03  0.00000000000E+00 0. -1.
          1   -1    0    0  501    0 -0.00000000000E+00 -0.00000000000E+00 -0.12290648849E+04  0.12290648849E+04  0.00000000000E+00 0. -1.
         25    2    1    2    0    0  0.15853017415E+03  0.18508413994E+03  0.36772890352E+03  0.45853095724E+03  0.12505253814E+03 0.  0.
          2    1    1    2  501    0 -0.13158456122E+03 -0.19305402979E+03 -0.11691494851E+04  0.11922645988E+04  0.00000000000E+00 0. -1.
          1    1    1    2  502    0 -0.26945612932E+02  0.79698898518E+01  0.63802933361E+02  0.69716565506E+02  0.00000000000E+00 0. -1.
         22    1    3    3    0    0  0.50010001896E+02 -0.55008215878E+01  0.40415063652E+02  0.64533996450E+02  0.00000000000E+00 0. -1.
         22    1    3    3    0    0  0.10852017225E+03  0.19058496153E+03  0.32731383987E+03  0.39399696079E+03  0.00000000000E+00 0. -1.
</event>
<event>
 7    1  0.5452757E-006  0.5755844E+02  0.7818608E-02  0.1434640E+00
          2   -1    0    0  502    0  0.00000000000E+00  0.00000000000E+00  0.13502658864E+04  0.13502658864E+04  0.00000000000E+00 0. -1.
          1   -1    0    0  501    0 -0.00000000000E+00 -0.00000000000E+00 -0.39062714640E+03  0.39062714640E+03  0.00000000000E+00 0. -1.
         25    2    1    2    0    0 -0.11752618518E+02  0.75478984795E+02  0.11887678691E+03  0.18865732352E+03  0.12499877625E+03 0.  0.
          2    1    1    2  501    0 -0.30157432445E+02 -0.36114621763E+02 -0.35348643951E+03  0.35660398141E+03  0.00000000000E+00 0. -1.
          1    1    1    2  502    0  0.41910050963E+02 -0.39364363032E+02  0.11942483927E+04  0.11956317279E+04  0.00000000000E+00 0. -1.
         22    1    3    3    0    0  0.14094880039E+02  0.36386005720E+02  0.13387882720E+03  0.13944944399E+03  0.00000000000E+00 0. -1.
         22    1    3    3    0    0 -0.25847498557E+02  0.39092979076E+02 -0.15002040297E+02  0.49207879529E+02  0.00000000000E+00 0. -1.
</event>
<event>
 7    1  0.5452757E-006  0.1164748E+03  0.7818608E-02  0.1429816E+00
          2   -1    0    0  502    0  0.00000000000E+00  0.00000000000E+00  0.12417634804E+04  0.12417634804E+04  0.00000000000E+00 0. -1.
          1   -1    0    0  501    0 -0.00000000000E+00 -0.00000000000E+00 -0.28156240366E+03  0.28156240366E+03  0.00000000000E+00 0. -1.
         25    2    1    2    0    0  0.10231646962E+03  0.16981462348E+01  0.45970831173E+03  0.48726864246E+03  0.12500981721E+03 0.  0.
          2    1    1    2  501    0 -0.11473806141E+03 -0.22366668519E+02 -0.25482299777E+03  0.28035664927E+03  0.00000000000E+00 0. -1.
          1    1    1    2  502    0  0.12421591784E+02  0.20668522284E+02  0.75531576278E+03  0.75570059234E+03  0.00000000000E+00 0. -1.
         22    1    3    3    0    0  0.28245907061E+02  0.55976035103E+02  0.26010495870E+03  0.26755511079E+03  0.00000000000E+00 0.  1.
         22    1    3    3    0    0  0.74070562563E+02 -0.54277888869E+02  0.19960335303E+03  0.21971353167E+03  0.00000000000E+00 0.  1.
</event>
<event>
 7    1  0.5452757E-006  0.7213725E+02  0.7818608E-02  0.1419675E+00
          2   -1    0    0  502    0  0.00000000000E+00  0.00000000000E+00  0.50463254438E+03  0.50463254438E+03  0.00000000000E+00 0. -1.
          1   -1    0    0  501    0 -0.00000000000E+00 -0.00000000000E+00 -0.24281118853E+03  0.24281118853E+03  0.00000000000E+00 0. -1.
         25    2    1    2    0    0  0.48082231843E+02  0.49884349687E+02  0.29596052753E+03  0.32866103976E+03  0.12500038336E+03 0.  0.
          2    1    1    2  501    0 -0.11943095213E+02 -0.71423020453E+02 -0.21823772788E+03  0.22993823354E+03  0.00000000000E+00 0. -1.
          1    1    1    2  502    0 -0.36139136630E+02  0.21538670766E+02  0.18409855619E+03  0.18884445961E+03  0.00000000000E+00 0. -1.
         22    1    3    3    0    0  0.18243994938E+01  0.36003431207E+02  0.83240189522E+01  0.36998172708E+02  0.00000000000E+00 0.  1.
         22    1    3    3    0    0  0.46257832349E+02  0.13880918479E+02  0.28763650858E+03  0.29166286705E+03  0.00000000000E+00 0.  1.
</event>
<event>
 7    1  0.5452757E-006  0.2816364E+03  0.7818608E-02  0.1213694E+00
          2   -1    0    0  502    0  0.00000000000E+00  0.00000000000E+00  0.12528503685E+04  0.12528503685E+04  0.00000000000E+00 0. -1.
          1   -1    0    0  501    0 -0.00000000000E+00 -0.00000000000E+00 -0.22267999155E+03  0.22267999155E+03  0.00000000000E+00 0. -1.
         25    2    1    2    0    0 -0.21385873366E+03 -0.23067745728E+03  0.42707385427E+03  0.54494440945E+03  0.12499874049E+03 0.  0.
          2    1    1    2  501    0  0.14460167920E+03  0.23372764389E+03 -0.45251226199E+02  0.27854251133E+03  0.00000000000E+00 0. -1.
          1    1    1    2  502    0  0.69257054462E+02 -0.30501866036E+01  0.64834774888E+03  0.65204343928E+03  0.00000000000E+00 0. -1.
         22    1    3    3    0    0 -0.17025660455E+03 -0.92867770488E+02  0.24323499654E+03  0.31108680096E+03  0.00000000000E+00 0.  1.
         22    1    3    3    0    0 -0.43602129115E+02 -0.13780968680E+03  0.18383885773E+03  0.23385760849E+03  0.00000000000E+00 0.  1.
</event>
<event>
 7    1  0.5452757E-006  0.1923869E+03  0.7818608E-02  0.1194745E+00
          2   -1    0    0  502    0  0.00000000000E+00  0.00000000000E+00  0.21149558981E+04  0.21149558981E+04  0.00000000000E+00 0. -1.
          1   -1    0    0  501    0 -0.00000000000E+00 -0.00000000000E+00 -0.50517287468E+03  0.50517287468E+03  0.00000000000E+00 0. -1.
         25    2    1    2    0    0  0.14228771512E+03  0.47227939281E+02  0.44672607566E+02  0.20024199196E+03  0.12499976542E+03 0.  0.
          2    1    1    2  501    0  0.41964883896E+02 -0.11720319616E+03 -0.41332128874E+03  0.43166205345E+03  0.00000000000E+00 0. -1.
          1    1    1    2  502    0 -0.18425259901E+03  0.69975256875E+02  0.19784317046E+04  0.19882247274E+04  0.00000000000E+00 0. -1.
         22    1    3    3    0    0  0.13594203584E+03  0.65617513202E+01  0.68832931974E+02  0.15251644572E+03  0.00000000000E+00 0. -1.
         22    1    3    3    0    0  0.63456792716E+01  0.40666187960E+02 -0.24160324408E+02  0.47725546243E+02  0.00000000000E+00 0. -1.
</event>
<event>
 7    1  0.5452757E-006  0.7881037E+02  0.7818608E-02  0.1449954E+00
          2   -1    0    0  502    0  0.00000000000E+00  0.00000000000E+00  0.22475836923E+04  0.22475836923E+04  0.00000000000E+00 0. -1.
          1   -1    0    0  501    0 -0.00000000000E+00 -0.00000000000E+00 -0.24623770433E+04  0.24623770433E+04  0.00000000000E+00 0. -1.
         25    2    1    2    0    0 -0.10220590287E+03  0.12071624576E+02  0.16028271588E+03  0.22783127207E+03  0.12499907527E+03 0.  0.
          2    1    1    2  501    0  0.74556900999E+02 -0.25318300600E+02 -0.24278500682E+04  0.24291265306E+04  0.00000000000E+00 0. -1.
          1    1    1    2  502    0  0.27649001872E+02  0.13246676024E+02  0.20527740014E+04  0.20530029329E+04  0.00000000000E+00 0. -1.
         22    1    3    3    0    0 -0.11275569354E+03  0.20725870217E+02  0.17407100359E+03  0.20843253684E+03  0.00000000000E+00 0. -1.
         22    1    3    3    0    0  0.10549790668E+02 -0.86542456408E+01 -0.13788287704E+02  0.19398735231E+02  0.00000000000E+00 0. -1.
</event>
<event>
 7    1  0.5452757E-006  0.5531601E+02  0.7818608E-02  0.1446356E+00
          2   -1    0    0  502    0  0.00000000000E+00  0.00000000000E+00  0.47840833828E+02  0.47840833828E+02  0.00000000000E+00 0. -1.
          1   -1    0    0  501    0 -0.00000000000E+00 -0.00000000000E+00 -0.24148209685E+04  0.24148209685E+04  0.00000000000E+00 0. -1.
         25    2    1    2    0    0  0.47012393417E+02 -0.59564612176E+01 -0.85473682603E+02  0.15867002316E+03  0.12499912506E+03 0.  0.
          2    1    1    2  501    0 -0.40169241501E+02 -0.38374988162E+02 -0.22462532096E+04  0.22469400725E+04  0.00000000000E+00 0. -1.
          1    1    1    2  502    0 -0.68431519159E+01  0.44331449380E+02 -0.35253242476E+02  0.57051706700E+02  0.00000000000E+00 0. -1.
         22    1    3    3    0    0  0.46938628686E+02  0.55191410556E+02 -0.43611455811E+02  0.84565275025E+02  0.00000000000E+00 0. -1.
         22    1    3    3    0    0  0.73764730518E-01 -0.61147871773E+02 -0.41862226792E+02  0.74104748132E+02  0.00000000000E+00 0. -1.
</event>
<event>
 7    1  0.5452757E-006  0.1662357E+03  0.7818608E-02  0.1214472E+00
          2   -1    0    0  502    0  0.00000000000E+00  0.00000000000E+00  0.27363328385E+04  0.27363328385E+04  0.00000000000E+00 0. -1.
          1   -1    0    0  501    0 -0.00000000000E+00 -0.00000000000E+00 -0.32343197155E+02  0.32343197155E+02  0.00000000000E+00 0. -1.
         25    2    1    2    0    0  0.83868425871E+02 -0.56222929195E+02  0.78844518135E+03  0.80465352383E+03  0.12500623500E+03 0.  0.
          2    1    1    2  501    0 -0.13263026332E+03  0.16200909183E+03  0.47896876760E+03  0.52273206609E+03  0.00000000000E+00 0. -1.
          1    1    1    2  502    0  0.48761837445E+02 -0.10578616263E+03  0.14365756924E+04  0.14412904457E+04  0.00000000000E+00 0. -1.
         22    1    3    3    0    0 -0.22236094723E+02 -0.27096749112E+02  0.75161519160E+02  0.82933296591E+02  0.00000000000E+00 0. -1.
         22    1    3    3    0    0  0.10610452059E+03 -0.29126180083E+02  0.71328366219E+03  0.72172022724E+03  0.00000000000E+00 0. -1.
</event>
<event>
 7    1  0.5452757E-006  0.1357829E+03  0.7818608E-02  0.1425676E+00
          2   -1    0    0  502    0  0.00000000000E+00  0.00000000000E+00  0.13641094775E+04  0.13641094775E+04  0.00000000000E+00 0. -1.
          1   -1    0    0  501    0 -0.00000000000E+00 -0.00000000000E+00 -0.12112411892E+03  0.12112411892E+03  0.00000000000E+00 0. -1.
         25    2    1    2    0    0 -0.62702112686E+02 -0.11364759947E+03  0.11725808564E+04  0.11863467923E+04  0.12500205984E+03 0.  0.
          2    1    1    2  501    0  0.46698875581E+02  0.12777486078E+03 -0.72666296455E+02  0.15423226209E+03  0.00000000000E+00 0. -1.
          1    1    1    2  502    0  0.16003237105E+02 -0.14127261318E+02  0.14307079858E+03  0.14465454198E+03  0.00000000000E+00 0. -1.
         22    1    3    3    0    0 -0.33282476621E+02 -0.60341703102E+02  0.19403802297E+03  0.20591162848E+03  0.00000000000E+00 0. -1.
         22    1    3    3    0    0 -0.29419636065E+02 -0.53305896364E+02  0.97854283345E+03  0.98043516383E+03  0.00000000000E+00 0. -1.
</event>
<event>
 7    1  0.5452757E-006  0.7020420E+02  0.7818608E-02  0.1385472E+00
          2   -1    0    0  502    0  0.00000000000E+00  0.00000000000E+00  0.22138557824E+03  0.22138557824E+03  0.00000000000E+00 0. -1.
          1   -1    0    0  501    0 -0.00000000000E+00 -0.00000000000E+00 -0.67024678371E+03  0.67024678371E+03  0.00000000000E+00 0. -1.
         25    2    1    2    0    0 -0.15482247658E+02  0.34659817302E+02 -0.23275256243E+03  0.26690799802E+03  0.12500048465E+03 0.  0.
          2    1    1    2  501    0  0.72074886172E+02 -0.32911063761E+02 -0.41265105305E+03  0.42018902761E+03  0.00000000000E+00 0. -1.
          1    1    1    2  502    0 -0.56592638514E+02 -0.17487535410E+01  0.19654241001E+03  0.20453533632E+03  0.00000000000E+00 0. -1.
         22    1    3    3    0    0 -0.62787823851E+02  0.43375237814E+01 -0.17655888410E+03  0.18744109606E+03  0.00000000000E+00 0. -1.
         22    1    3    3    0    0  0.47305576193E+02  0.30322293521E+02 -0.56193678322E+02  0.79466901957E+02  0.00000000000E+00 0. -1.
</event>
<event>
 7    1  0.5452757E-006  0.9823423E+02  0.7818608E-02  0.1381312E+00
          2   -1    0    0  502    0  0.00000000000E+00  0.00000000000E+00  0.19629446541E+03  0.19629446541E+03  0.00000000000E+00 0. -1.
          1   -1    0    0  501    0 -0.00000000000E+00 -0.00000000000E+00 -0.18403820128E+04  0.18403820128E+04  0.00000000000E+00 0. -1.
         25    2    1    2    0    0  0.12834490183E+03 -0.12203811586E+00 -0.82328545989E+02  0.19716848158E+03  0.12499996771E+03 0.  0.
          2    1    1    2  501    0 -0.94478950633E+02 -0.24470076183E+02 -0.16960451294E+04  0.16988508286E+04  0.00000000000E+00 0. -1.
          1    1    1    2  502    0 -0.33865951194E+02  0.24592114299E+02  0.13428612803E+03  0.14065716803E+03  0.00000000000E+00 0. -1.
         22    1    3    3    0    0  0.38138890618E+02 -0.17023940139E+01  0.33194631203E+02  0.50590084638E+02  0.00000000000E+00 0. -1.
         22    1    3    3    0    0  0.90206011208E+02  0.15803558980E+01 -0.11552317719E+03  0.14657839695E+03  0.00000000000E+00 0. -1.
</event>
<event>
 7    1  0.5452757E-006  0.1364118E+03  0.7818608E-02  0.1259601E+00
          2   -1    0    0  502    0  0.00000000000E+00  0.00000000000E+00  0.33822812569E+04  0.33822812569E+04  0.00000000000E+00 0. -1.
          1   -1    0    0  501    0 -0.00000000000E+00 -0.00000000000E+00 -0.57217852880E+02  0.57217852880E+02  0.00000000000E+00 0. -1.
         25    2    1    2    0    0  0.50846805913E+02  0.36013204248E+02  0.23877490421E+03  0.27662413110E+03  0.12500042590E+03 0.  0.
          2    1    1    2  501    0  0.24083897515E+02  0.86251070185E+02  0.18130028875E+02  0.91367276279E+02  0.00000000000E+00 0. -1.
          1    1    1    2  502    0 -0.74930703428E+02 -0.12226427443E+03  0.30681584709E+04  0.30715077024E+04  0.00000000000E+00 0. -1.
         22    1    3    3    0    0  0.45484844698E+02 -0.21022523008E+02  0.20297995997E+03  0.20907338836E+03  0.00000000000E+00 0. -1.
         22    1    3    3    0    0  0.53619612146E+01  0.57035727256E+02  0.35794944235E+02  0.67550742738E+02  0.00000000000E+00 0. -1.
</event>
<event>
 7    1  0.5452757E-006  0.1097748E+03  0.7818608E-02  0.1315060E+00
          2   -1    0    0  502    0  0.00000000000E+00  0.00000000000E+00  0.11656840320E+04  0.11656840320E+04  0.00000000000E+00 0. -1.
          1   -1    0    0  501    0 -0.00000000000E+00 -0.00000000000E+00 -0.22256094684E+04  0.22256094684E+04  0.00000000000E+00 0. -1.
         25    2    1    2    0    0  0.58343269748E+02 -0.75383081780E+02  0.64567189266E+02  0.16994357061E+03  0.12500139646E+03 0.  0.
          2    1    1    2  501    0 -0.21966825094E+01  0.11014693245E+03 -0.21704829277E+04  0.21732770904E+04  0.00000000000E+00 0. -1.
          1    1    1    2  502    0 -0.56146587239E+02 -0.34763850673E+02  0.10459903021E+04  0.10480728394E+04  0.00000000000E+00 0. -1.
         22    1    3    3    0    0 -0.12305753839E+02 -0.61137044105E+01 -0.30049863490E+02  0.33042446261E+02  0.00000000000E+00 0. -1.
         22    1    3    3    0    0  0.70649023587E+02 -0.69269377369E+02  0.94617052756E+02  0.13690112435E+03  0.00000000000E+00 0. -1.
</event>
<event>
 7    1  0.5452757E-006  0.1458891E+03  0.7818608E-02  0.1223395E+00
          2   -1    0    0  502    0  0.00000000000E+00  0.00000000000E+00  0.31582314400E+03  0.31582314400E+03  0.00000000000E+00 0. -1.
          1   -1    0    0  501    0 -0.00000000000E+00 -0.00000000000E+00 -0.44244201184E+03  0.44244201184E+03  0.00000000000E+00 0. -1.
         25    2    1    2    0    0 -0.96186949434E+02 -0.25812601298E+02  0.59761376485E+02  0.17062809667E+03  0.12499722247E+03 0.  0.
          2    1    1    2  501    0 -0.10542936273E+02  0.14550767550E+03 -0.33725207050E+03  0.36745420965E+03  0.00000000000E+00 0. -1.
          1    1    1    2  502    0  0.10672988571E+03 -0.11969507420E+03  0.15087182617E+03  0.22018284952E+03  0.00000000000E+00 0. -1.
         22    1    3    3    0    0 -0.10644264147E+03 -0.45604289496E+02  0.10156858677E+02  0.11624521032E+03  0.00000000000E+00 0.  1.
         22    1    3    3    0    0  0.10255692034E+02  0.19791688198E+02  0.49604517808E+02  0.54382886351E+02  0.00000000000E+00 0.  1.
</event>
<event>
 7    1  0.5452757E-006  0.6177238E+02  0.7818608E-02  0.1476400E+00
          2   -1    0    0  502    0  0.00000000000E+00  0.00000000000E+00  0.12573824867E+04  0.12573824867E+04  0.00000000000E+00 0. -1.
          1   -1    0    0  501    0 -0.00000000000E+00 -0.00000000000E+00 -0.67954102180E+03  0.67954102180E+03  0.00000000000E+00 0. -1.
         25    2    1    2    0    0 -0.41644304019E+02 -0.81557831825E+02  0.28000138077E+03  0.32001650420E+03  0.12499544687E+03 0.  0.
          2    1    1    2  501    0  0.36500673769E+02  0.49664584373E+02 -0.65781994353E+03  0.66070110355E+03  0.00000000000E+00 0. -1.
          1    1    1    2  502    0  0.51436302501E+01  0.31893247453E+02  0.95566002762E+03  0.95620590071E+03  0.00000000000E+00 0. -1.
         22    1    3    3    0    0 -0.59680653712E+02 -0.68468434300E+02  0.28328569317E+03  0.29749032064E+03  0.00000000000E+00 0. -1.
         22    1    3    3    0    0  0.18036349693E+02 -0.13089397525E+02 -0.32843123946E+01  0.22526183559E+02  0.00000000000E+00 0. -1.
</event>
<event>
 7    1  0.5452757E-006  0.7834171E+02  0.7818608E-02  0.1464995E+00
          2   -1    0    0  502    0  0.00000000000E+00  0.00000000000E+00  0.59599405282E+03  0.59599405282E+03  0.00000000000E+00 0. -1.
          1   -1    0    0  501    0 -0.00000000000E+00 -0.00000000000E+00 -0.81961530660E+03  0.81961530660E+03  0.00000000000E+00 0. -1.
         25    2    1    2    0    0 -0.76468427600E+02 -0.27869797743E+02  0.97747692529E+02  0.17833446533E+03  0.12499769632E+03 0.  0.
          2    1    1    2  501    0 -0.19888985360E+01  0.27567265187E+02 -0.77571358301E+03  0.77620581852E+03  0.00000000000E+00 0. -1.
          1    1    1    2  502    0  0.78457326136E+02  0.30253255594E+00  0.45434463670E+03  0.46106907557E+03  0.00000000000E+00 0. -1.
         22    1    3    3    0    0 -0.40061422269E+01  0.45536759135E+02  0.35308359464E+02  0.57760937112E+02  0.00000000000E+00 0.  1.
         22    1    3    3    0    0 -0.72462285374E+02 -0.73406556878E+02  0.62439333065E+02  0.12057352822E+03  0.00000000000E+00 0.  1.
</event>
<event>
 7    1  0.5452757E-006  0.5541439E+02  0.7818608E-02  0.1456020E+00
          2   -1    0    0  502    0  0.00000000000E+00  0.00000000000E+00  0.13692540313E+04  0.13692540313E+04  0.00000000000E+00 0. -1.
          1   -1    0    0  501    0 -0.00000000000E+00 -0.00000000000E+00 -0.22621366608E+04  0.22621366608E+04  0.00000000000E+00 0. -1.
         25    2    1    2    0    0 -0.26798499369E+02  0.50678411487E+02  0.29689480950E+03  0.32719680408E+03  0.12499903893E+03 0.  0.
          2    1    1    2  501    0 -0.14816526204E+02 -0.53412476665E+02 -0.22462323376E+04  0.22469161392E+04  0.00000000000E+00 0. -1.
          1    1    1    2  502    0  0.41615025573E+02  0.27340651784E+01  0.10564548985E+04  0.10572777488E+04  0.00000000000E+00 0. -1.
         22    1    3    3    0    0  0.33991645006E+02 -0.23699016751E+02  0.86876804394E+02  0.96253075104E+02  0.00000000000E+00 0. -1.
         22    1    3    3    0    0 -0.60790144375E+02  0.74377428238E+02  0.21001800511E+03  0.23094372898E+03  0.00000000000E+00 0. -1.
</event>
<event>
 7    1  0.5452757E-006  0.9748860E+02  0.7818608E-02  0.1322510E+00
          2   -1    0    0  502    0  0.00000000000E+00  0.00000000000E+00  0.14640738462E+04  0.14640738462E+04  0.00000000000E+00 0. -1.
          1   -1    0    0  501    0 -0.00000000000E+00 -0.00000000000E+00 -0.10360617946E+04  0.10360617946E+04  0.00000000000E+00 0. -1.
         25    2    1    2    0    0  0.20238468013E+02  0.13289863587E+03  0.12441160621E+04  0.12575856786E+04  0.12500128035E+03 0.  0.
          2    1    1    2  501    0  0.35196810063E+02 -0.90875083499E+02 -0.10212713367E+04  0.10259104441E+04  0.00000000000E+00 0. -1.
          1    1    1    2  502    0 -0.55435278076E+02 -0.42023552375E+02  0.20516732626E+03  0.21663951803E+03  0.00000000000E+00 0. -1.
         22    1    3    3    0    0  0.66359957161E+01  0.34700540671E+02  0.62309977290E+02  0.71628885457E+02  0.00000000000E+00 0. -1.
         22    1    3    3    0    0  0.13602472297E+02  0.98198095204E+02  0.11818060848E+04  0.11859567931E+04  0.00000000000E+00 0. -1.
</event>
<event>
 7    1  0.5452757E-006  0.3190150E+02  0.7818608E-02  0.1626090E+00
          2   -1    0    0  502    0  0.00000000000E+00  0.00000000000E+00  0.20515957140E+04  0.20515957140E+04  0.00000000000E+00 0. -1.
          1   -1    0    0  501    0 -0.00000000000E+00 -0.00000000000E+00 -0.67877489813E+02  0.67877489813E+02  0.00000000000E+00 0. -1.
         25    2    1    2    0    0  0.46153227177E+02  0.89404343496E+01  0.22946460161E+03  0.26550107968E+03  0.12500707250E+03 0.  0.
          2    1    1    2  501    0 -0.15660913890E+02 -0.18053280439E+02 -0.46846592083E+02  0.52590762956E+02  0.00000000000E+00 0. -1.
          1    1    1    2  502    0 -0.30492313287E+02  0.91128460891E+01  0.18011002146E+04  0.18013813612E+04  0.00000000000E+00 0. -1.
         22    1    3    3    0    0  0.83574486186E+02  0.32120904529E+02  0.15340053077E+03  0.17761804551E+03  0.00000000000E+00 0. -1.
         22    1    3    3    0    0 -0.37421259009E+02 -0.23180470179E+02  0.76064070833E+02  0.87883034172E+02  0.00000000000E+00 0. -1.
</event>
<event>
 7    1  0.5452757E-006  0.8419177E+02  0.7818608E-02  0.1360606E+00
          2   -1    0    0  502    0  0.00000000000E+00  0.00000000000E+00  0.81501327675E+02  0.81501327675E+02  0.00000000000E+00 0. -1.
          1   -1    0    0  501    0 -0.00000000000E+00 -0.00000000000E+00 -0.14683058399E+04  0.14683058399E+04  0.00000000000E+00 0. -1.
         25    2    1    2    0    0 -0.89000527805E+02 -0.89373315138E+02 -0.43727717312E+03  0.47195912914E+03  0.12500164012E+03 0.  0.
          2    1    1    2  501    0  0.56237177927E+02  0.13985547657E+02 -0.98615575244E+03  0.98785696525E+03  0.00000000000E+00 0. -1.
          1    1    1    2  502    0  0.32763349878E+02  0.75387767481E+02  0.36628413373E+02  0.89991073152E+02  0.00000000000E+00 0. -1.
         22    1    3    3    0    0 -0.93288375554E+02 -0.58567492787E+02 -0.42411604163E+03  0.43818636332E+03  0.00000000000E+00 0. -1.
         22    1    3    3    0    0  0.42878477499E+01 -0.30805822350E+02 -0.13161131487E+02  0.33772765819E+02  0.00000000000E+00 0. -1.
</event>
<event>
 7    1  0.5452757E-006  0.1281402E+03  0.7818608E-02  0.1296337E+00
          2   -1    0    0  502    0  0.00000000000E+00  0.00000000000E+00  0.41730320283E+03  0.41730320283E+03  0.00000000000E+00 0. -1.
          1   -1    0    0  501    0 -0.00000000000E+00 -0.00000000000E+00 -0.14112118956E+04  0.14112118956E+04  0.00000000000E+00 0. -1.
         25    2    1    2    0    0 -0.12959562856E+02  0.85358621749E+02 -0.33630520287E+01  0.15197166847E+03  0.12502013167E+03 0.  0.
          2    1    1    2  501    0 -0.42456870263E+02 -0.12324086541E+03 -0.13270361450E+04  0.13334225987E+04  0.00000000000E+00 0. -1.
          1    1    1    2  502    0  0.55416433119E+02  0.37882243658E+02  0.33649050419E+03  0.34312083127E+03  0.00000000000E+00 0. -1.
         22    1    3    3    0    0 -0.35917389573E+02  0.21655149402E+02 -0.53309416735E+02  0.67829921730E+02  0.00000000000E+00 0. -1.
         22    1    3    3    0    0  0.22957826717E+02  0.63703472348E+02  0.49946364706E+02  0.84141746738E+02  0.00000000000E+00 0. -1.
</event>
<event>
 7    1  0.5452757E-006  0.2266773E+03  0.7818608E-02  0.1247681E+00
          2   -1    0    0  502    0  0.00000000000E+00  0.00000000000E+00  0.13619711160E+04  0.13619711160E+04  0.00000000000E+00 0. -1.
          1   -1    0    0  501    0 -0.00000000000E+00 -0.00000000000E+00 -0.10955193742E+03  0.10955193742E+03  0.00000000000E+00 0. -1.
         25    2    1    2    0    0  0.20994876764E+03 -0.58727171451E+02  0.48076572432E+03  0.54248206408E+03  0.12499496979E+03 0.  0.
          2    1    1    2  501    0 -0.19900468232E+03  0.11839398356E+03  0.96002141450E+02  0.25067191724E+03  0.00000000000E+00 0. -1.
          1    1    1    2  502    0 -0.10944085318E+02 -0.59666812107E+02  0.67565131286E+03  0.67836907214E+03  0.00000000000E+00 0. -1.
         22    1    3    3    0    0  0.12282562058E+03 -0.96163322818E+02  0.28250847380E+03  0.32271435589E+03  0.00000000000E+00 0.  1.
         22    1    3    3    0    0  0.87123147057E+02  0.37436151368E+02  0.19825725052E+03  0.21976770819E+03  0.00000000000E+00 0.  1.
</event>
<event>
 7    1  0.5452757E-006  0.2342948E+03  0.7818608E-02  0.1254495E+00
          2   -1    0    0  502    0  0.00000000000E+00  0.00000000000E+00  0.37107674132E+03  0.37107674132E+03  0.00000000000E+00 0. -1.
          1   -1    0    0  501    0 -0.00000000000E+00 -0.00000000000E+00 -0.27865283611E+03  0.27865283611E+03  0.00000000000E+00 0. -1.
         25    2    1    2    0    0 -0.49039283737E+02  0.22868485330E+03  0.10006545042E+03  0.28344225126E+03  0.12499920781E+03 0.  0.
          2    1    1    2  501    0  0.54102726111E+02  0.89291292640E+01 -0.97775422928E+02  0.11210204124E+03  0.00000000000E+00 0. -1.
          1    1    1    2  502    0 -0.50634423740E+01 -0.23761398257E+03  0.90133877715E+02  0.25418528492E+03  0.00000000000E+00 0. -1.
         22    1    3    3    0    0 -0.15834367979E+02  0.23038384223E+03  0.78925473695E+02  0.24404235774E+03  0.00000000000E+00 0. -1.
         22    1    3    3    0    0 -0.33204915758E+02 -0.16989889313E+01  0.21139976729E+02  0.39399893528E+02  0.00000000000E+00 0. -1.
</event>
<event>
 7    1  0.5452757E-006  0.6196455E+02  0.7818608E-02  0.1452467E+00
          2   -1    0    0  502    0  0.00000000000E+00  0.00000000000E+00  0.42683925457E+02  0.42683925457E+02  0.00000000000E+00 0. -1.
          1   -1    0    0  501    0 -0.00000000000E+00 -0.00000000000E+00 -0.12144416810E+04  0.12144416810E+04  0.00000000000E+00 0. -1.
         25    2    1    2    0    0  0.83803079612E+02  0.24188810882E+02 -0.88621054813E+03  0.89922316676E+03  0.12500045314E+03 0.  0.
          2    1    1    2  501    0 -0.22767184301E+02 -0.30772678492E+02 -0.29351228698E+03  0.29599791389E+03  0.00000000000E+00 0. -1.
          1    1    1    2  502    0 -0.61035895311E+02  0.65838676102E+01  0.79650795237E+01  0.61904525852E+02  0.00000000000E+00 0. -1.
         22    1    3    3    0    0  0.59263420093E+02 -0.47816073056E+02 -0.46661281954E+03  0.47278541978E+03  0.00000000000E+00 0. -1.
         22    1    3    3    0    0  0.24539659519E+02  0.72004883938E+02 -0.41959772860E+03  0.42643774697E+03  0.00000000000E+00 0. -1.
</event>
<event>
 7    1  0.5452757E-006  0.3737780E+02  0.7818608E-02  0.1534376E+00
          2   -1    0    0  502    0  0.00000000000E+00  0.00000000000E+00  0.65726796017E+03  0.65726796017E+03  0.00000000000E+00 0. -1.
          1   -1    0    0  501    0 -0.00000000000E+00 -0.00000000000E+00 -0.13174965280E+04  0.13174965280E+04  0.00000000000E+00 0. -1.
         25    2    1    2    0    0 -0.21735099951E+01  0.22462984880E+01 -0.82292043355E+02  0.14969520519E+03  0.12500761599E+03 0.  0.
          2    1    1    2  501    0 -0.34678336120E+02 -0.94626542441E+01 -0.12006683258E+04  0.12012062926E+04  0.00000000000E+00 0. -1.
          1    1    1    2  502    0  0.36851846115E+02  0.72163557561E+01  0.62273180134E+03  0.62386299037E+03  0.00000000000E+00 0. -1.
         22    1    3    3    0    0 -0.68266615822E+01  0.52313399013E+02 -0.84215259743E+02  0.99375575462E+02  0.00000000000E+00 0. -1.
         22    1    3    3    0    0  0.46531515871E+01 -0.50067100525E+02  0.19232163881E+01  0.50319629728E+02  0.00000000000E+00 0. -1.
</event>
<event>
 7    1  0.5452757E-006  0.6138229E+02  0.7818608E-02  0.1519542E+00
          2   -1    0    0  502    0  0.00000000000E+00  0.00000000000E+00  0.90435839157E+03  0.90435839157E+03  0.00000000000E+00 0. -1.
          1   -1    0    0  501    0 -0.00000000000E+00 -0.00000000000E+00 -0.12772665474E+03  0.12772665474E+03  0.00000000000E+00 0. -1.
         25    2    1    2    0    0 -0.35831130677E+02 -0.17777107787E+02  0.29952145131E+03  0.32701512814E+03  0.12500359496E+03 0.  0.
          2    1    1    2  501    0 -0.22465700021E+02 -0.88580154069E+01 -0.11093958615E+03  0.11353749992E+03  0.00000000000E+00 0. -1.
          1    1    1    2  502    0  0.58296830698E+02  0.26635123194E+02  0.58804987166E+03  0.59153241823E+03  0.00000000000E+00 0. -1.
         22    1    3    3    0    0 -0.78338541181E+02 -0.34422666597E+02  0.19856911794E+03  0.21622104802E+03  0.00000000000E+00 0.  1.
         22    1    3    3    0    0  0.42507410504E+02  0.16645558810E+02  0.10095233337E+03  0.11079408012E+03  0.00000000000E+00 0.  1.
</event>
<event>
 7    1  0.5452757E-006  0.9709923E+02  0.7818608E-02  0.1330912E+00
          2   -1    0    0  502    0  0.00000000000E+00  0.00000000000E+00  0.87142227989E+03  0.87142227989E+03  0.00000000000E+00 0. -1.
          1   -1    0    0  501    0 -0.00000000000E+00 -0.00000000000E+00 -0.41879453243E+03  0.41879453243E+03  0.00000000000E+00 0. -1.
         25    2    1    2    0    0 -0.10050120534E+03  0.39689958557E+02  0.21566649804E+03  0.27168551379E+03  0.12500077976E+03 0.  0.
          2    1    1    2  501    0  0.94115421723E+02  0.24837026546E+02 -0.38300658653E+03  0.39518177567E+03  0.00000000000E+00 0. -1.
          1    1    1    2  502    0  0.63857836213E+01 -0.64526985103E+02  0.61996783595E+03  0.62334952286E+03  0.00000000000E+00 0. -1.
         22    1    3    3    0    0 -0.10908376369E+03  0.72072942775E+02  0.18289682414E+03  0.22482220723E+03  0.00000000000E+00 0. -1.
         22    1    3    3    0    0  0.85825583470E+01 -0.32382984217E+02  0.32769673900E+02  0.46863306564E+02  0.00000000000E+00 0. -1.
</event>
<event>
 7    1  0.5452757E-006  0.4263791E+02  0.7818608E-02  0.1574035E+00
          2   -1    0    0  502    0  0.00000000000E+00  0.00000000000E+00  0.38123475182E+03  0.38123475182E+03  0.00000000000E+00 0. -1.
          1   -1    0    0  501    0 -0.00000000000E+00 -0.00000000000E+00 -0.35939635861E+03  0.35939635861E+03  0.00000000000E+00 0. -1.
         25    2    1    2    0    0 -0.24526611033E+02  0.15326550116E+02  0.17938732274E+03  0.22054785035E+03  0.12500033978E+03 0.  0.
          2    1    1    2  501    0  0.17853031372E+02 -0.38857684787E+02 -0.33663218316E+03  0.33933740898E+03  0.00000000000E+00 0. -1.
          1    1    1    2  502    0  0.66735796605E+01  0.23531134670E+02  0.17908325362E+03  0.18074585110E+03  0.00000000000E+00 0. -1.
         22    1    3    3    0    0  0.24853828236E+02 -0.32414933508E+02  0.12913803701E+03  0.13544398582E+03  0.00000000000E+00 0. -1.
         22    1    3    3    0    0 -0.49380439269E+02  0.47741483625E+02  0.50249285733E+02  0.85103864529E+02  0.00000000000E+00 0. -1.
</event>
<event>
 7    1  0.5452757E-006  0.1364716E+03  0.7818608E-02  0.1292450E+00
          2   -1    0    0  502    0  0.00000000000E+00  0.00000000000E+00  0.75134861894E+03  0.75134861894E+03  0.00000000000E+00 0. -1.
          1   -1    0    0  501    0 -0.00000000000E+00 -0.00000000000E+00 -0.18874578038E+04  0.18874578038E+04  0.00000000000E+00 0. -1.
         25    2    1    2    0    0 -0.84814942618E+02 -0.17187926526E+02  0.20958026510E+03  0.25892440346E+03  0.12501583851E+03 0.  0.
          2    1    1    2  501    0  0.13479343177E+03 -0.24915115241E+02 -0.18581863663E+04  0.18632355203E+04  0.00000000000E+00 0. -1.
          1    1    1    2  502    0 -0.49978489150E+02  0.42103041767E+02  0.51249691641E+03  0.51664649890E+03  0.00000000000E+00 0. -1.
         22    1    3    3    0    0 -0.11075655060E+03 -0.31793929454E+02  0.19317663657E+03  0.22493350210E+03  0.00000000000E+00 0. -1.
         22    1    3    3    0    0  0.25941607981E+02  0.14606002928E+02  0.16403628528E+02  0.33990901357E+02  0.00000000000E+00 0. -1.
</event>
<event>
 7    1  0.5452757E-006  0.8586956E+02  0.7818608E-02  0.1441819E+00
          2   -1    0    0  502    0  0.00000000000E+00  0.00000000000E+00  0.67617460821E+03  0.67617460821E+03  0.00000000000E+00 0. -1.
          1   -1    0    0  501    0 -0.00000000000E+00 -0.00000000000E+00 -0.64861767404E+02  0.64861767404E+02  0.00000000000E+00 0. -1.
         25    2    1    2    0    0  0.43163898893E+02 -0.48599459577E+02  0.22540644878E+03  0.26581437129E+03  0.12499673273E+03 0.  0.
          2    1    1    2  501    0  0.29047015193E+02 -0.70331450928E+01 -0.34154497699E+02  0.45384181546E+02  0.00000000000E+00 0. -1.
          1    1    1    2  502    0 -0.72210914086E+02  0.55632604670E+02  0.42006088972E+03  0.42983782277E+03  0.00000000000E+00 0. -1.
         22    1    3    3    0    0  0.43362182204E+01 -0.68336719348E+02  0.20787486993E+03  0.21886222047E+03  0.00000000000E+00 0. -1.
         22    1    3    3    0    0  0.38827680673E+02  0.19737259771E+02  0.17531578850E+02  0.46952150821E+02  0.00000000000E+00 0. -1.
</event>
<event>
 7    1  0.5452757E-006  0.2178229E+03  0.7818608E-02  0.1218240E+00
          2   -1    0    0  502    0  0.00000000000E+00  0.00000000000E+00  0.58944354893E+03  0.58944354893E+03  0.00000000000E+00 0. -1.
          1   -1    0    0  501    0 -0.00000000000E+00 -0.00000000000E+00 -0.59696236018E+03  0.59696236018E+03  0.00000000000E+00 0. -1.
         25    2    1    2    0    0 -0.15145844881E+03  0.16674225784E+03 -0.15973771675E+03  0.30312322738E+03  0.12499964222E+03 0.  0.
          2    1    1    2  501    0  0.76257644616E+02  0.38507645026E+02 -0.33688817333E+03  0.34755101556E+03  0.00000000000E+00 0. -1.
          1    1    1    2  502    0  0.75200804194E+02 -0.20524990286E+03  0.48910707883E+03  0.53573166617E+03  0.00000000000E+00 0. -1.
         22    1    3    3    0    0 -0.36236746325E+02 -0.59110261336E+01  0.63796027282E+01  0.37265820066E+02  0.00000000000E+00 0.  1.
         22    1    3    3    0    0 -0.11522170248E+03  0.17265328397E+03 -0.16611731948E+03  0.26585740731E+03  0.00000000000E+00 0.  1.
</event>
<event>
 7    1  0.5452757E-006  0.1843382E+03  0.7818608E-02  0.1241758E+00
          2   -1    0    0  502    0  0.00000000000E+00  0.00000000000E+00  0.16304604824E+04  0.16304604824E+04  0.00000000000E+00 0. -1.
          1   -1    0    0  501    0 -0.00000000000E+00 -0.00000000000E+00 -0.60999378701E+02  0.60999378701E+02  0.00000000000E+00 0. -1.
         25    2    1    2    0    0 -0.15109969225E+03  0.16016698141E+03  0.95232958960E+03  0.98541431482E+03  0.12500058282E+03 0.  0.
          2    1    1    2  501    0  0.87930301466E+01 -0.78692757295E+02  0.13233920083E+02  0.80280782698E+02  0.00000000000E+00 0. -1.
          1    1    1    2  502    0  0.14230666210E+03 -0.81474224111E+02  0.60389759398E+03  0.62576476354E+03  0.00000000000E+00 0. -1.
         22    1    3    3    0    0 -0.39112190360E+02  0.85311964889E+02  0.61608275666E+03  0.62319006559E+03  0.00000000000E+00 0.  1.
         22    1    3    3    0    0 -0.11198750189E+03  0.74855016518E+02  0.33624683294E+03  0.36222424924E+03  0.00000000000E+00 0.  1.
</event>
<event>
 7    1  0.5452757E-006  0.1333157E+03  0.7818608E-02  0.1259956E+00
          2   -1    0    0  502    0  0.00000000000E+00  0.00000000000E+00  0.47359819992E+03  0.47359819992E+03  0.00000000000E+00 0. -1.
          1   -1    0    0  501    0 -0.00000000000E+00 -0.00000000000E+00 -0.13541095813E+03  0.13541095813E+03  0.00000000000E+00 0. -1.
         25    2    1    2    0    0  0.11282847336E+03  0.11706127626E+03  0.16689191269E+03  0.26441259494E+03  0.12501001176E+03 0.  0.
          2    1    1    2  501    0 -0.12845704861E+03 -0.27097649491E+02 -0.19835691348E+02  0.13277405845E+03  0.00000000000E+00 0. -1.
          1    1    1    2  502    0  0.15628575248E+02 -0.89963626772E+02  0.19113102044E+03  0.21182250466E+03  0.00000000000E+00 0. -1.
         22    1    3    3    0    0  0.44409789765E+02  0.49416646499E+02 -0.58365132673E+01  0.66695571557E+02  0.00000000000E+00 0.  1.
         22    1    3    3    0    0  0.68418683595E+02  0.67644629765E+02  0.17272842596E+03  0.19771702338E+03  0.00000000000E+00 0.  1.
</event>
<event>
 7    1  0.5452757E-006  0.1407388E+03  0.7818608E-02  0.1427548E+00
          2   -1    0    0  502    0  0.00000000000E+00  0.00000000000E+00  0.16388128486E+04  0.16388128486E+04  0.00000000000E+00 0. -1.
          1   -1    0    0  501    0 -0.00000000000E+00 -0.00000000000E+00 -0.27601247612E+03  0.27601247612E+03  0.00000000000E+00 0. -1.
         25    2    1    2    0    0  0.42443180876E+02 -0.15387106753E+03 -0.21061086769E+03  0.29233565570E+03  0.12500187591E+03 0.  0.
          2    1    1    2  501    0  0.10828787947E+01  0.20274455168E+02 -0.16634681190E+02  0.26247643268E+02  0.00000000000E+00 0. -1.
          1    1    1    2  502    0 -0.43526059671E+02  0.13359661237E+03  0.15900459213E+04  0.15962420257E+04  0.00000000000E+00 0. -1.
         22    1    3    3    0    0  0.44727211486E+02  0.11257328698E+01 -0.27904201942E+02  0.52729832238E+02  0.00000000000E+00 0. -1.
         22    1    3    3    0    0 -0.22840306097E+01 -0.15499680040E+03 -0.18270666575E+03  0.23960582347E+03  0.00000000000E+00 0. -1.
</event>
<event>
 7    1  0.5452757E-006  0.5160502E+02  0.7818608E-02  0.1445699E+00
          2   -1    0    0  502    0  0.00000000000E+00  0.00000000000E+00  0.23691823545E+03  0.23691823545E+03  0.00000000000E+00 0. -1.
          1   -1    0    0  501    0 -0.00000000000E+00 -0.00000000000E+00 -0.74934929336E+03  0.74934929336E+03  0.00000000000E+00 0. -1.
         25    2    1    2    0    0 -0.37552562092E+02 -0.90705697072E+02 -0.11066793258E+03  0.19367551143E+03  0.12500037610E+03 0.  0.
          2    1    1    2  501    0  0.24043513717E+02  0.44315921628E+02 -0.59310497921E+03  0.59524407416E+03  0.00000000000E+00 0. -1.
          1    1    1    2  502    0  0.13509048374E+02  0.46389775444E+02  0.19134185387E+03  0.19734794323E+03  0.00000000000E+00 0. -1.
         22    1    3    3    0    0 -0.28735264483E+02 -0.83284416436E+02 -0.59258817863E+01  0.88301333631E+02  0.00000000000E+00 0. -1.
         22    1    3    3    0    0 -0.88172976083E+01 -0.74212806357E+01 -0.10474205079E+03  0.10537417780E+03  0.00000000000E+00 0. -1.
</event>
<event>
 7    1  0.6731235E-006  0.7448792E+02  0.7818608E-02  0.1363392E+00
          2   -1    0    0  502    0  0.00000000000E+00  0.00000000000E+00  0.12227154193E+04  0.12227154193E+04  0.00000000000E+00 0. -1.
          1   -1    0    0  501    0 -0.00000000000E+00 -0.00000000000E+00 -0.10771504996E+04  0.10771504996E+04  0.00000000000E+00 0. -1.
         25    2    1    2    0    0 -0.58676734656E+02 -0.38802106149E+01 -0.37614386043E+02  0.14317097930E+03  0.12500028820E+03 0.  0.
          2    1    1    2  501    0  0.38994841382E+02  0.64766386632E+02 -0.98443250890E+03  0.98733107268E+03  0.00000000000E+00 0. -1.
          1    1    1    2  502    0  0.19681893273E+02 -0.60886176017E+02  0.11676118147E+04  0.11693638669E+04  0.00000000000E+00 0. -1.
         22    1    3    3    0    0 -0.55922292510E+02 -0.22655221726E+02  0.33881901843E+02  0.69199314618E+02  0.00000000000E+00 0.  1.
         22    1    3    3    0    0 -0.27544421453E+01  0.18775011111E+02 -0.71496287886E+02  0.73971664678E+02  0.00000000000E+00 0.  1.
</event>
<event>
 7    1  0.5452757E-006  0.6203847E+02  0.7818608E-02  0.1434333E+00
          2   -1    0    0  502    0  0.00000000000E+00  0.00000000000E+00  0.14988438484E+04  0.14988438484E+04  0.00000000000E+00 0. -1.
          1   -1    0    0  501    0 -0.00000000000E+00 -0.00000000000E+00 -0.34556944261E+03  0.34556944261E+03  0.00000000000E+00 0. -1.
         25    2    1    2    0    0 -0.86130078444E+02 -0.10020446675E+02  0.11765158511E+03  0.19231933639E+03  0.12500412756E+03 0.  0.
          2    1    1    2  501    0  0.35579025993E+02 -0.25465777124E+02 -0.30596881961E+03  0.30908136707E+03  0.00000000000E+00 0. -1.
          1    1    1    2  502    0  0.50551052452E+02  0.35486223799E+02  0.13415916403E+04  0.13430125875E+04  0.00000000000E+00 0. -1.
         22    1    3    3    0    0 -0.34417251000E+02 -0.52590742373E+02  0.73590804766E+01  0.63281035194E+02  0.00000000000E+00 0.  1.
         22    1    3    3    0    0 -0.51712827444E+02  0.42570295698E+02  0.11029250463E+03  0.12903830120E+03  0.00000000000E+00 0.  1.
</event>
<event>
 7    1  0.5452757E-006  0.4449603E+02  0.7818608E-02  0.1599437E+00
          2   -1    0    0  502    0  0.00000000000E+00  0.00000000000E+00  0.13110175003E+04  0.13110175003E+04  0.00000000000E+00 0. -1.
          1   -1    0    0  501    0 -0.00000000000E+00 -0.00000000000E+00 -0.78177972129E+02  0.78177972129E+02  0.00000000000E+00 0. -1.
         25    2    1    2    0    0 -0.35936477552E+02 -0.34435225645E+02  0.11104471497E+03  0.17445085496E+03  0.12499982755E+03 0.  0.
          2    1    1    2  501    0 -0.58506645278E+01  0.19190819902E+02 -0.43865526085E+02  0.48235901802E+02  0.00000000000E+00 0. -1.
          1    1    1    2  502    0  0.41787142080E+02  0.15244405743E+02  0.11656603393E+04  0.11665087157E+04  0.00000000000E+00 0. -1.
         22    1    3    3    0    0 -0.35659912299E+02 -0.36831803623E+02 -0.10958136681E+02  0.52424153430E+02  0.00000000000E+00 0.  1.
         22    1    3    3    0    0 -0.27656525352E+00  0.23965779784E+01  0.12200285165E+03  0.12202670153E+03  0.00000000000E+00 0.  1.
</event>
<event>
 7    1  0.5452757E-006  0.5189382E+02  0.7818608E-02  0.1443329E+00
          2   -1    0    0  502    0  0.00000000000E+00  0.00000000000E+00  0.17247482715E+04  0.17247482715E+04  0.00000000000E+00 0. -1.
          1   -1    0    0  501    0 -0.00000000000E+00 -0.00000000000E+00 -0.52175526828E+03  0.52175526828E+03  0.00000000000E+00 0. -1.
         25    2    1    2    0    0 -0.10417878904E+02  0.95364939907E+02  0.26979314759E+03  0.31242853075E+03  0.12498096006E+03 0.  0.
          2    1    1    2  501    0  0.18995275911E+02 -0.45060641101E+02 -0.49878741014E+03  0.50117877289E+03  0.00000000000E+00 0. -1.
          1    1    1    2  502    0 -0.85773970074E+01 -0.50304298806E+02  0.14319872658E+04  0.14328962361E+04  0.00000000000E+00 0. -1.
         22    1    3    3    0    0 -0.23189709119E+02  0.11965305640E+03  0.25142045722E+03  0.27940447889E+03  0.00000000000E+00 0. -1.
         22    1    3    3    0    0  0.12771830215E+02 -0.24288116493E+02  0.18372690367E+02  0.33024051858E+02  0.00000000000E+00 0. -1.
</event>
<event>
 7    1  0.5452757E-006  0.1066514E+03  0.7818608E-02  0.1352210E+00
          2   -1    0    0  502    0  0.00000000000E+00  0.00000000000E+00  0.17189282835E+04  0.17189282835E+04  0.00000000000E+00 0. -1.
          1   -1    0    0  501    0 -0.00000000000E+00 -0.00000000000E+00 -0.31787563655E+03  0.31787563655E+03  0.00000000000E+00 0. -1.
         25    2    1    2    0    0 -0.13233231123E+03 -0.27582382648E+02  0.11081591211E+03  0.21489036729E+03  0.12500030061E+03 0.  0.
          2    1    1    2  501    0  0.41309669846E+02 -0.26556460346E+02 -0.26175022202E+03  0.26631731663E+03  0.00000000000E+00 0. -1.
          1    1    1    2  502    0  0.91022641384E+02  0.54138842994E+02  0.15519869569E+04  0.15555962361E+04  0.00000000000E+00 0. -1.
         22    1    3    3    0    0 -0.17953829980E+02 -0.54559827570E+02  0.65929202673E+01  0.57815061992E+02  0.00000000000E+00 0. -1.
         22    1    3    3    0    0 -0.11437848125E+03  0.26977444923E+02  0.10422299184E+03  0.15707530530E+03  0.00000000000E+00 0. -1.
</event>
<event>
 7    1  0.5452757E-006  0.1446512E+03  0.7818608E-02  0.1366566E+00
          2   -1    0    0  502    0  0.00000000000E+00  0.00000000000E+00  0.82166082223E+03  0.82166082223E+03  0.00000000000E+00 0. -1.
          1   -1    0    0  501    0 -0.00000000000E+00 -0.00000000000E+00 -0.39343944643E+03  0.39343944643E+03  0.00000000000E+00 0. -1.
         25    2    1    2    0    0  0.14170314078E+03 -0.37272391397E+02  0.38795993347E+03  0.43313637857E+03  0.12500080476E+03 0.  0.
          2    1    1    2  501    0  0.30699537030E+01  0.31942687690E+02 -0.35734717684E+03  0.35878512331E+03  0.00000000000E+00 0. -1.
          1    1    1    2  502    0 -0.14477309449E+03  0.53297037069E+01  0.39760861917E+03  0.42317876679E+03  0.00000000000E+00 0. -1.
         22    1    3    3    0    0  0.12550414565E+03 -0.40666849822E+02  0.17311771866E+03  0.21765759294E+03  0.00000000000E+00 0.  1.
         22    1    3    3    0    0  0.16198995134E+02  0.33944584251E+01  0.21484221481E+03  0.21547878563E+03  0.00000000000E+00 0.  1.
</event>
<event>
 7    1  0.5452757E-006  0.1113063E+03  0.7818608E-02  0.1279991E+00
          2   -1    0    0  502    0  0.00000000000E+00  0.00000000000E+00  0.23250732489E+04  0.23250732489E+04  0.00000000000E+00 0. -1.
          1   -1    0    0  501    0 -0.00000000000E+00 -0.00000000000E+00 -0.12338412904E+03  0.12338412904E+03  0.00000000000E+00 0. -1.
         25    2    1    2    0    0  0.27922199500E+02 -0.17944897427E+02  0.52868858777E+03  0.54427854834E+03  0.12500338705E+03 0.  0.
          2    1    1    2  501    0 -0.11586341915E+03 -0.16748679668E+01 -0.85102022367E+02  0.14376888151E+03  0.00000000000E+00 0. -1.
          1    1    1    2  502    0  0.87941219655E+02  0.19619765394E+02  0.17581025545E+04  0.17604099481E+04  0.00000000000E+00 0. -1.
         22    1    3    3    0    0 -0.18352046588E+02 -0.60794174822E+02  0.20925104683E+03  0.21867494119E+03  0.00000000000E+00 0. -1.
         22    1    3    3    0    0  0.46274246087E+02  0.42849277394E+02  0.31943754095E+03  0.32560360715E+03  0.00000000000E+00 0. -1.
</event>
<event>
 7    1  0.5452757E-006  0.7482242E+02  0.7818608E-02  0.1407540E+00
          2   -1    0    0  502    0  0.00000000000E+00  0.00000000000E+00  0.43327525445E+03  0.43327525445E+03  0.00000000000E+00 0. -1.
          1   -1    0    0  501    0 -0.00000000000E+00 -0.00000000000E+00 -0.67912753260E+03  0.67912753260E+03  0.00000000000E+00 0. -1.
         25    2    1    2    0    0 -0.28010228926E+02 -0.40841759750E+02  0.48211233247E+02  0.14283509362E+03  0.12499967478E+03 0.  0.
          2    1    1    2  501    0 -0.43468275262E+02  0.98364845775E+01 -0.62652016268E+03  0.62810330490E+03  0.00000000000E+00 0. -1.
          1    1    1    2  502    0  0.71478504188E+02  0.31005275172E+02  0.33245665128E+03  0.34146438853E+03  0.00000000000E+00 0. -1.
         22    1    3    3    0    0  0.39658720861E+02 -0.82869686815E+01 -0.16461511147E+02  0.43731788661E+02  0.00000000000E+00 0. -1.
         22    1    3    3    0    0 -0.67668949787E+02 -0.32554791068E+02  0.64672744394E+02  0.99103304961E+02  0.00000000000E+00 0. -1.
</event>
<event>
 7    1  0.5452757E-006  0.1545191E+03  0.7818608E-02  0.1414980E+00
          2   -1    0    0  502    0  0.00000000000E+00  0.00000000000E+00  0.28089079330E+04  0.28089079330E+04  0.00000000000E+00 0. -1.
          1   -1    0    0  501    0 -0.00000000000E+00 -0.00000000000E+00 -0.27700346430E+02  0.27700346430E+02  0.00000000000E+00 0. -1.
         25    2    1    2    0    0  0.13897080890E+03 -0.27673655363E+01  0.64035310555E+03  0.66708173179E+03  0.12500157228E+03 0.  0.
          2    1    1    2  501    0  0.18879922619E+02  0.76361604892E+01 -0.23595051076E+01  0.20501943553E+02  0.00000000000E+00 0. -1.
          1    1    1    2  502    0 -0.15785073152E+03 -0.48687949529E+01  0.21432139861E+04  0.21490246041E+04  0.00000000000E+00 0. -1.
         22    1    3    3    0    0  0.47768511305E+02 -0.61737001918E+02  0.28570339261E+03  0.29617514518E+03  0.00000000000E+00 0.  1.
         22    1    3    3    0    0  0.91202297598E+02  0.58969636382E+02  0.35464971294E+03  0.37090658661E+03  0.00000000000E+00 0.  1.
</event>
<event>
 7    1  0.5452757E-006  0.4995097E+03  0.7818608E-02  0.1136832E+00
          2   -1    0    0  502    0  0.00000000000E+00  0.00000000000E+00  0.89697576488E+03  0.89697576488E+03  0.00000000000E+00 0. -1.
          1   -1    0    0  501    0 -0.00000000000E+00 -0.00000000000E+00 -0.94079399953E+03  0.94079399953E+03  0.00000000000E+00 0. -1.
         25    2    1    2    0    0 -0.14053123107E+03 -0.53863284754E+03 -0.39816276875E+03  0.69572473398E+03  0.12499977478E+03 0.  0.
          2    1    1    2  501    0 -0.43436155597E+02  0.82777881142E+02 -0.30535011049E+03  0.31933926660E+03  0.00000000000E+00 0. -1.
          1    1    1    2  502    0  0.18396738667E+03  0.45585496639E+03  0.65969464459E+03  0.82270576383E+03  0.00000000000E+00 0. -1.
         22    1    3    3    0    0 -0.39312930631E+01  0.36779856181E+01  0.41528398466E+01  0.67991706956E+01  0.00000000000E+00 0. -1.
         22    1    3    3    0    0 -0.13659993800E+03 -0.54231083315E+03 -0.40231560860E+03  0.68892556328E+03  0.00000000000E+00 0. -1.
</event>
<event>
 7    1  0.5452757E-006  0.2507231E+03  0.7818608E-02  0.1165959E+00
          2   -1    0    0  502    0  0.00000000000E+00  0.00000000000E+00  0.13974519411E+04  0.13974519411E+04  0.00000000000E+00 0. -1.
          1   -1    0    0  501    0 -0.00000000000E+00 -0.00000000000E+00 -0.64505385638E+03  0.64505385638E+03  0.00000000000E+00 0. -1.
         25    2    1    2    0    0 -0.18431731058E+03 -0.67682076500E+02  0.41146053651E+02  0.23637447820E+03  0.12500464693E+03 0.  0.
          2    1    1    2  501    0  0.26592570683E+03 -0.36063079816E+02 -0.51078262088E+03  0.57698865940E+03  0.00000000000E+00 0. -1.
          1    1    1    2  502    0 -0.81608396253E+02  0.10374515632E+03  0.12220346520E+04  0.12291426599E+04  0.00000000000E+00 0. -1.
         22    1    3    3    0    0 -0.71295388891E+02 -0.28634311384E+02  0.79732365722E+02  0.11072581636E+03  0.00000000000E+00 0. -1.
         22    1    3    3    0    0 -0.11302192169E+03 -0.39047765117E+02 -0.38586312070E+02  0.12564866184E+03  0.00000000000E+00 0. -1.
</event>
<event>
 7    1  0.5452757E-006  0.5643230E+02  0.7818608E-02  0.1430701E+00
          2   -1    0    0  502    0  0.00000000000E+00  0.00000000000E+00  0.12265251724E+04  0.12265251724E+04  0.00000000000E+00 0. -1.
          1   -1    0    0  501    0 -0.00000000000E+00 -0.00000000000E+00 -0.26343686527E+04  0.26343686527E+04  0.00000000000E+00 0. -1.
         25    2    1    2    0    0  0.54936184672E+02  0.31550101237E+02  0.27248752404E+03  0.30641120166E+03  0.12499992188E+03 0.  0.
          2    1    1    2  501    0 -0.11550543007E+02 -0.55252925681E+02 -0.26164501234E+04  0.26170589503E+04  0.00000000000E+00 0. -1.
          1    1    1    2  502    0 -0.43385641665E+02  0.23702824443E+02  0.93611911907E+03  0.93742367310E+03  0.00000000000E+00 0. -1.
         22    1    3    3    0    0  0.70840530805E+02 -0.53306604679E+01  0.25100188921E+03  0.26086154399E+03  0.00000000000E+00 0. -1.
         22    1    3    3    0    0 -0.15904346133E+02  0.36880761705E+02  0.21485634831E+02  0.45549657671E+02  0.00000000000E+00 0. -1.
</event>
<event>
 7    1  0.5452757E-006  0.1074001E+03  0.7818608E-02  0.1406369E+00
          2   -1    0    0  502    0  0.00000000000E+00  0.00000000000E+00  0.28611496396E+03  0.28611496396E+03  0.00000000000E+00 0. -1.
          1   -1    0    0  501    0 -0.00000000000E+00 -0.00000000000E+00 -0.85621879719E+02  0.85621879719E+02  0.00000000000E+00 0. -1.
         25    2    1    2    0    0  0.90976875235E+02 -0.23888329319E+02  0.12887220667E+03  0.20268277031E+03  0.12499926250E+03 0.  0.
          2    1    1    2  501    0  0.21476114577E+02 -0.22818014286E+02  0.13290615812E+02  0.34037122997E+02  0.00000000000E+00 0. -1.
          1    1    1    2  502    0 -0.11245298981E+03  0.46706343605E+02  0.58330261763E+02  0.13501695037E+03  0.00000000000E+00 0. -1.
         22    1    3    3    0    0 -0.95297807234E+01  0.23459144040E+01 -0.19344101251E+02  0.21691341319E+02  0.00000000000E+00 0.  1.
         22    1    3    3    0    0  0.10050665596E+03 -0.26234243723E+02  0.14821630792E+03  0.18099142899E+03  0.00000000000E+00 0.  1.
</event>
<event>
 7    1  0.5452757E-006  0.1133869E+03  0.7818608E-02  0.1304579E+00
          2   -1    0    0  502    0  0.00000000000E+00  0.00000000000E+00  0.11170841788E+03  0.11170841788E+03  0.00000000000E+00 0. -1.
          1   -1    0    0  501    0 -0.00000000000E+00 -0.00000000000E+00 -0.14090418638E+04  0.14090418638E+04  0.00000000000E+00 0. -1.
         25    2    1    2    0    0  0.10369772628E+02 -0.13563533320E+03 -0.45857566311E+02  0.19034860872E+03  0.12500080263E+03 0.  0.
          2    1    1    2  501    0 -0.65700621204E+02  0.92245530960E+02 -0.12549034218E+04  0.12600033364E+04  0.00000000000E+00 0. -1.
          1    1    1    2  502    0  0.55330848576E+02  0.43389802245E+02  0.34275422274E+01  0.70398336548E+02  0.00000000000E+00 0. -1.
         22    1    3    3    0    0 -0.26374070468E+02 -0.14401754643E+03 -0.29967735791E+02  0.14944801926E+03  0.00000000000E+00 0.  1.
         22    1    3    3    0    0  0.36743843096E+02  0.83822132291E+01 -0.15889830520E+02  0.40900589458E+02  0.00000000000E+00 0.  1.
</event>
<event>
 7    1  0.5452757E-006  0.7646452E+02  0.7818608E-02  0.1454879E+00
          2   -1    0    0  502    0  0.00000000000E+00  0.00000000000E+00  0.32125851804E+04  0.32125851804E+04  0.00000000000E+00 0. -1.
          1   -1    0    0  501    0 -0.00000000000E+00 -0.00000000000E+00 -0.22112083872E+03  0.22112083872E+03  0.00000000000E+00 0. -1.
         25    2    1    2    0    0  0.33213451898E+02 -0.96130277082E+02  0.15357180572E+04  0.15441498049E+04  0.12499802027E+03 0.  0.
          2    1    1    2  501    0 -0.48387685881E+01  0.30090180091E+02 -0.21505789896E+03  0.21720665856E+03  0.00000000000E+00 0. -1.
          1    1    1    2  502    0 -0.28374683310E+02  0.66040096992E+02  0.16708041834E+04  0.16723495556E+04  0.00000000000E+00 0. -1.
         22    1    3    3    0    0 -0.43480528089E+02 -0.62700290442E+02  0.63973454524E+03  0.64426871033E+03  0.00000000000E+00 0. -1.
         22    1    3    3    0    0  0.76693979987E+02 -0.33429986641E+02  0.89598351201E+03  0.89988109457E+03  0.00000000000E+00 0. -1.
</event>
<event>
 7    1  0.5452757E-006  0.8181578E+02  0.7818608E-02  0.1392451E+00
          2   -1    0    0  502    0  0.00000000000E+00  0.00000000000E+00  0.20546227080E+04  0.20546227080E+04  0.00000000000E+00 0. -1.
          1   -1    0    0  501    0 -0.00000000000E+00 -0.00000000000E+00 -0.40748147768E+02  0.40748147768E+02  0.00000000000E+00 0. -1.
         25    2    1    2    0    0  0.74953908817E+02  0.31906145353E+02  0.78094556979E+03  0.79507101703E+03  0.12500339430E+03 0.  0.
          2    1    1    2  501    0 -0.81503671279E+02  0.13554951863E+02  0.18074016939E+02  0.84576919076E+02  0.00000000000E+00 0. -1.
          1    1    1    2  502    0  0.65497624627E+01 -0.45461097217E+02  0.12148549735E+04  0.12157229196E+04  0.00000000000E+00 0. -1.
         22    1    3    3    0    0 -0.16657023330E+02  0.36281688639E+02  0.44639075635E+03  0.44817242743E+03  0.00000000000E+00 0. -1.
         22    1    3    3    0    0  0.91610932147E+02 -0.43755432855E+01  0.33455481344E+03  0.34689858960E+03  0.00000000000E+00 0. -1.
</event>
<event>
 7    1  0.5452757E-006  0.7322125E+02  0.7818608E-02  0.1379967E+00
          2   -1    0    0  502    0  0.00000000000E+00  0.00000000000E+00  0.34377307983E+03  0.34377307983E+03  0.00000000000E+00 0. -1.
          1   -1    0    0  501    0 -0.00000000000E+00 -0.00000000000E+00 -0.15051614972E+04  0.15051614972E+04  0.00000000000E+00 0. -1.
         25    2    1    2    0    0 -0.24399469137E+02  0.11436463388E+03 -0.16385060366E+01  0.17117823948E+03  0.12499880556E+03 0.  0.
          2    1    1    2  501    0  0.41121445991E+02 -0.60114325048E+02 -0.14146943275E+04  0.14165679460E+04  0.00000000000E+00 0. -1.
          1    1    1    2  502    0 -0.16721976854E+02 -0.54250308829E+02  0.25494441619E+03  0.26118839152E+03  0.00000000000E+00 0. -1.
         22    1    3    3    0    0  0.47160981263E+02  0.75794003417E+02 -0.80600310963E+01  0.89631764508E+02  0.00000000000E+00 0. -1.
         22    1    3    3    0    0 -0.71560450400E+02  0.38570630460E+02  0.64215250597E+01  0.81546474968E+02  0.00000000000E+00 0. -1.
</event>
<event>
 7    1  0.5452757E-006  0.4435976E+02  0.7818608E-02  0.1498347E+00
          2   -1    0    0  502    0  0.00000000000E+00  0.00000000000E+00  0.53478807310E+03  0.53478807310E+03  0.00000000000E+00 0. -1.
          1   -1    0    0  501    0 -0.00000000000E+00 -0.00000000000E+00 -0.98476738532E+02  0.98476738532E+02  0.00000000000E+00 0. -1.
         25    2    1    2    0    0  0.69145617058E+02  0.39872153928E+02  0.22283213050E+03  0.26767531802E+03  0.12500004991E+03 0.  0.
          2    1    1    2  501    0 -0.31987787564E+02 -0.29468968179E+02 -0.68413466880E+02  0.81068126223E+02  0.00000000000E+00 0. -1.
          1    1    1    2  502    0 -0.37157829494E+02 -0.10403185748E+02  0.28189267094E+03  0.28452136738E+03  0.00000000000E+00 0. -1.
         22    1    3    3    0    0 -0.22700713338E+02  0.50969227993E+02  0.83833387573E+02  0.10070363181E+03  0.00000000000E+00 0.  1.
         22    1    3    3    0    0  0.91846330395E+02 -0.11097074066E+02  0.13899874293E+03  0.16697168621E+03  0.00000000000E+00 0.  1.
</event>
<event>
 7    1  0.5452757E-006  0.1119126E+03  0.7818608E-02  0.1317441E+00
          2   -1    0    0  502    0  0.00000000000E+00  0.00000000000E+00  0.26228482696E+04  0.26228482696E+04  0.00000000000E+00 0. -1.
          1   -1    0    0  501    0 -0.00000000000E+00 -0.00000000000E+00 -0.23306018573E+03  0.23306018573E+03  0.00000000000E+00 0. -1.
         25    2    1    2    0    0  0.30829217997E+02  0.11109129482E+03  0.10329000837E+03  0.19895894054E+03  0.12499647085E+03 0.  0.
          2    1    1    2  501    0 -0.63302270081E+02 -0.36015311859E+01 -0.17848390186E+03  0.18941132925E+03  0.00000000000E+00 0. -1.
          1    1    1    2  502    0  0.32473052084E+02 -0.10748976363E+03  0.24649819774E+04  0.24675381855E+04  0.00000000000E+00 0. -1.
         22    1    3    3    0    0 -0.20398364087E+02  0.71563675160E+02 -0.30543618309E+01  0.74476721102E+02  0.00000000000E+00 0. -1.
         22    1    3    3    0    0  0.51227582084E+02  0.39527619660E+02  0.10634437020E+03  0.12448221944E+03  0.00000000000E+00 0. -1.
</event>
<event>
 7    1  0.5452757E-006  0.9638587E+02  0.7818608E-02  0.1342353E+00
          2   -1    0    0  502    0  0.00000000000E+00  0.00000000000E+00  0.15640383301E+04  0.15640383301E+04  0.00000000000E+00 0. -1.
          1   -1    0    0  501    0 -0.00000000000E+00 -0.00000000000E+00 -0.17948418442E+04  0.17948418442E+04  0.00000000000E+00 0. -1.
         25    2    1    2    0    0  0.33528495389E+00 -0.14850913230E+03 -0.14910296658E+04  0.15036094845E+04  0.12496776642E+03 0.  0.
          2    1    1    2  501    0  0.22135435394E+02  0.54828493277E+02 -0.29307742858E+03  0.29898247494E+03  0.00000000000E+00 0. -1.
          1    1    1    2  502    0 -0.22470720347E+02  0.93680639021E+02  0.15533035803E+04  0.15562882150E+04  0.00000000000E+00 0. -1.
         22    1    3    3    0    0 -0.34556364763E+02 -0.15443203668E+03 -0.11766758910E+04  0.11872697877E+04  0.00000000000E+00 0. -1.
         22    1    3    3    0    0  0.34891649717E+02  0.59229043863E+01 -0.31435377483E+03  0.31633969679E+03  0.00000000000E+00 0. -1.
</event>
<event>
 7    1  0.5452757E-006  0.1586711E+03  0.7818608E-02  0.1275741E+00
          2   -1    0    0  502    0  0.00000000000E+00  0.00000000000E+00  0.60782049421E+02  0.60782049421E+02  0.00000000000E+00 0. -1.
          1   -1    0    0  501    0 -0.00000000000E+00 -0.00000000000E+00 -0.15194909955E+04  0.15194909955E+04  0.00000000000E+00 0. -1.
         25    2    1    2    0    0 -0.12832912249E+03  0.44519791372E+02 -0.34965578656E+03  0.39539355849E+03  0.12500608592E+03 0.  0.
          2    1    1    2  501    0  0.16697541098E+03  0.87648008587E+01 -0.11064410925E+04  0.11190037983E+04  0.00000000000E+00 0. -1.
          1    1    1    2  502    0 -0.38646288486E+02 -0.53284592231E+02 -0.26120670213E+01  0.65875688058E+02  0.00000000000E+00 0. -1.
         22    1    3    3    0    0 -0.27451820045E+02  0.10874252622E+02 -0.24298270360E+03  0.24477019026E+03  0.00000000000E+00 0.  1.
         22    1    3    3    0    0 -0.10087730245E+03  0.33645538751E+02 -0.10667308296E+03  0.15062336823E+03  0.00000000000E+00 0.  1.
</event>
<event>
 7    1  0.5452757E-006  0.5478793E+02  0.7818608E-02  0.1492786E+00
          2   -1    0    0  502    0  0.00000000000E+00  0.00000000000E+00  0.72115992820E+03  0.72115992820E+03  0.00000000000E+00 0. -1.
          1   -1    0    0  501    0 -0.00000000000E+00 -0.00000000000E+00 -0.62767403411E+02  0.62767403411E+02  0.00000000000E+00 0. -1.
         25    2    1    2    0    0 -0.10247122728E+02 -0.27692834322E+02  0.13553586989E+03  0.18672633667E+03  0.12499942472E+03 0.  0.
          2    1    1    2  501    0  0.37733695051E+02  0.44971724269E+02 -0.13192810513E+02  0.60169244429E+02  0.00000000000E+00 0. -1.
          1    1    1    2  502    0 -0.27486572323E+02 -0.17278889947E+02  0.53604946541E+03  0.53703175051E+03  0.00000000000E+00 0. -1.
         22    1    3    3    0    0  0.16777778156E+02  0.33051850312E+02  0.14877450748E+01  0.37096253642E+02  0.00000000000E+00 0. -1.
         22    1    3    3    0    0 -0.27024900885E+02 -0.60744684633E+02  0.13404812482E+03  0.14963008303E+03  0.00000000000E+00 0. -1.
</event>
<event>
 7    1  0.5452757E-006  0.4496816E+02  0.7818608E-02  0.1481167E+00
          2   -1    0    0  502    0  0.00000000000E+00  0.00000000000E+00  0.16120506200E+04  0.16120506200E+04  0.00000000000E+00 0. -1.
          1   -1    0    0  501    0 -0.00000000000E+00 -0.00000000000E+00 -0.30929004178E+03  0.30929004178E+03  0.00000000000E+00 0. -1.
         25    2    1    2    0    0  0.98767437788E+01 -0.28575480676E+02 -0.87980797189E+02  0.15582449020E+03  0.12500617148E+03 0.  0.
          2    1    1    2  501    0  0.32574217249E+02  0.34806641168E+02 -0.18405854197E+03  0.19013187205E+03  0.00000000000E+00 0. -1.
          1    1    1    2  502    0 -0.42450961028E+02 -0.62311604918E+01  0.15747999174E+04  0.15753842995E+04  0.00000000000E+00 0. -1.
         22    1    3    3    0    0  0.56988509427E+00 -0.18640106882E+02 -0.11978561767E+03  0.12122859627E+03  0.00000000000E+00 0. -1.
         22    1    3    3    0    0  0.93068586845E+01 -0.99353737945E+01  0.31804820477E+02  0.34595893927E+02  0.00000000000E+00 0. -1.
</event>
<event>
 7    1  0.5452757E-006  0.6974043E+02  0.7818608E-02  0.1382500E+00
          2   -1    0    0  502    0  0.00000000000E+00  0.00000000000E+00  0.64362746665E+02  0.64362746665E+02  0.00000000000E+00 0. -1.
          1   -1    0    0  501    0 -0.00000000000E+00 -0.00000000000E+00 -0.60370532132E+03  0.60370532132E+03  0.00000000000E+00 0. -1.
         25    2    1    2    0    0  0.26937808705E+02 -0.73033694589E+02 -0.53868983867E+02  0.15680141193E+03  0.12500099710E+03 0.  0.
          2    1    1    2  501    0  0.39391597167E+02  0.43095282507E+02 -0.37137116517E+03  0.37593276476E+03  0.00000000000E+00 0. -1.
          1    1    1    2  502    0 -0.66329405872E+02  0.29938412083E+02 -0.11410242561E+03  0.13533389129E+03  0.00000000000E+00 0. -1.
         22    1    3    3    0    0 -0.27312152187E+02 -0.87040322710E+02 -0.32821145022E+02  0.96949466192E+02  0.00000000000E+00 0.  1.
         22    1    3    3    0    0  0.54249960892E+02  0.14006628120E+02 -0.21047838845E+02  0.59851945734E+02  0.00000000000E+00 0.  1.
</event>
<event>
 7    1  0.5452757E-006  0.1374697E+03  0.7818608E-02  0.1412993E+00
          2   -1    0    0  502    0  0.00000000000E+00  0.00000000000E+00  0.38681463196E+02  0.38681463196E+02  0.00000000000E+00 0. -1.
          1   -1    0    0  501    0 -0.00000000000E+00 -0.00000000000E+00 -0.78422064461E+03  0.78422064461E+03  0.00000000000E+00 0. -1.
         25    2    1    2    0    0  0.56492931626E+01  0.12591287539E+03 -0.37135743918E+03  0.41160198938E+03  0.12499553323E+03 0.  0.
          2    1    1    2  501    0  0.10998927164E+02  0.20480693991E+02 -0.57491679125E+02  0.62013937093E+02  0.00000000000E+00 0. -1.
          1    1    1    2  502    0 -0.16648220326E+02 -0.14639356938E+03 -0.31669006311E+03  0.34928618133E+03  0.00000000000E+00 0. -1.
         22    1    3    3    0    0 -0.68033987828E+01 -0.44377013648E+00  0.86097481894E+01  0.10982300798E+02  0.00000000000E+00 0.  1.
         22    1    3    3    0    0  0.12452691945E+02  0.12635664553E+03 -0.37996718737E+03  0.40061968858E+03  0.00000000000E+00 0.  1.
</event>
<event>
 7    1  0.5452757E-006  0.6666616E+02  0.7818608E-02  0.1474555E+00
          2   -1    0    0  502    0  0.00000000000E+00  0.00000000000E+00  0.17947662247E+03  0.17947662247E+03  0.00000000000E+00 0. -1.
          1   -1    0    0  501    0 -0.00000000000E+00 -0.00000000000E+00 -0.79613520911E+03  0.79613520911E+03  0.00000000000E+00 0. -1.
         25    2    1    2    0    0 -0.48188225771E+02 -0.78609207775E+02 -0.23304152642E+03  0.28006163447E+03  0.12499861365E+03 0.  0.
          2    1    1    2  501    0  0.42348265396E+02  0.48847556804E+02 -0.53614878692E+03  0.54003238894E+03  0.00000000000E+00 0. -1.
          1    1    1    2  502    0  0.58399603752E+01  0.29761650970E+02  0.15253172671E+03  0.15551780817E+03  0.00000000000E+00 0. -1.
         22    1    3    3    0    0 -0.48755602254E+02 -0.11183302733E+03 -0.17898125476E+03  0.21660568854E+03  0.00000000000E+00 0. -1.
         22    1    3    3    0    0  0.56737648308E+00  0.33223819553E+02 -0.54060271659E+02  0.63455945928E+02  0.00000000000E+00 0. -1.
</event>
<event>
 7    1  0.5452757E-006  0.5086543E+02  0.7818608E-02  0.1482054E+00
          2   -1    0    0  502    0  0.00000000000E+00  0.00000000000E+00  0.22505853223E+04  0.22505853223E+04  0.00000000000E+00 0. -1.
          1   -1    0    0  501    0 -0.00000000000E+00 -0.00000000000E+00 -0.11238450485E+03  0.11238450485E+03  0.00000000000E+00 0. -1.
         25    2    1    2    0    0 -0.64454761375E+02  0.54937057160E+02  0.49549337771E+02  0.15890913854E+03  0.12499792369E+03 0.  0.
          2    1    1    2  501    0  0.35173742674E+02 -0.13554704243E+02 -0.51216198553E+02  0.63592618872E+02  0.00000000000E+00 0. -1.
          1    1    1    2  502    0  0.29281018701E+02 -0.41382352917E+02  0.21398676782E+04  0.21404680697E+04  0.00000000000E+00 0. -1.
         22    1    3    3    0    0 -0.74380096693E+02  0.48531285568E+02  0.84150021164E+02  0.12234749905E+03  0.00000000000E+00 0. -1.
         22    1    3    3    0    0  0.99253353184E+01  0.64057715921E+01 -0.34600683393E+02  0.36561639489E+02  0.00000000000E+00 0. -1.
</event>
<event>
 7    1  0.5452757E-006  0.4109657E+02  0.7818608E-02  0.1588681E+00
          2   -1    0    0  502    0  0.00000000000E+00  0.00000000000E+00  0.21744485602E+02  0.21744485602E+02  0.00000000000E+00 0. -1.
          1   -1    0    0  501    0 -0.00000000000E+00 -0.00000000000E+00 -0.17616311725E+04  0.17616311725E+04  0.00000000000E+00 0. -1.
         25    2    1    2    0    0  0.35072062088E+02 -0.37605019327E+01 -0.14305304231E+04  0.14364145555E+04  0.12500117180E+03 0.  0.
          2    1    1    2  501    0 -0.35557315431E+01 -0.22911875204E+02 -0.30450801931E+03  0.30538947440E+03  0.00000000000E+00 0. -1.
          1    1    1    2  502    0 -0.31516330544E+02  0.26672377137E+02 -0.48482444524E+01  0.41571628154E+02  0.00000000000E+00 0. -1.
         22    1    3    3    0    0  0.11051366164E+02 -0.43034043252E+02 -0.12243952448E+04  0.12252011170E+04  0.00000000000E+00 0.  1.
         22    1    3    3    0    0  0.24020695924E+02  0.39273541319E+02 -0.20613517829E+03  0.21121343852E+03  0.00000000000E+00 0.  1.
</event>
<event>
 7    1  0.5452757E-006  0.7714368E+02  0.7818608E-02  0.1418445E+00
          2   -1    0    0  502    0  0.00000000000E+00  0.00000000000E+00  0.18758028344E+04  0.18758028344E+04  0.00000000000E+00 0. -1.
          1   -1    0    0  501    0 -0.00000000000E+00 -0.00000000000E+00 -0.89750304902E+03  0.89750304902E+03  0.00000000000E+00 0. -1.
         25    2    1    2    0    0  0.42082788530E+02  0.94359869925E+02  0.42612451739E+03  0.45594156381E+03  0.12500343655E+03 0.  0.
          2    1    1    2  501    0 -0.64636363366E+01 -0.76794142586E+02 -0.88063655736E+03  0.88400218614E+03  0.00000000000E+00 0. -1.
          1    1    1    2  502    0 -0.35619152193E+02 -0.17565727339E+02  0.14328118254E+04  0.14333621335E+04  0.00000000000E+00 0. -1.
         22    1    3    3    0    0 -0.69837329823E+01  0.35878514972E+02  0.33534344190E+03  0.33732960793E+03  0.00000000000E+00 0.  1.
         22    1    3    3    0    0  0.49066521512E+02  0.58481354953E+02  0.90781075486E+02  0.11861195588E+03  0.00000000000E+00 0.  1.
</event>
<event>
 7    1  0.5452757E-006  0.1596220E+03  0.7818608E-02  0.1235752E+00
          2   -1    0    0  502    0  0.00000000000E+00  0.00000000000E+00  0.12695487075E+04  0.12695487075E+04  0.00000000000E+00 0. -1.
          1   -1    0    0  501    0 -0.00000000000E+00 -0.00000000000E+00 -0.14323480777E+04  0.14323480777E+04  0.00000000000E+00 0. -1.
         25    2    1    2    0    0 -0.22944436748E+03 -0.52678384481E+02 -0.16932895153E+03  0.31578046888E+03  0.12500112296E+03 0.  0.
          2    1    1    2  501    0  0.71755341428E+02  0.65576230045E+02 -0.11825593395E+04  0.11865477919E+04  0.00000000000E+00 0. -1.
          1    1    1    2  502    0  0.15768902605E+03 -0.12897845563E+02  0.11890889208E+04  0.11995685245E+04  0.00000000000E+00 0. -1.
         22    1    3    3    0    0 -0.14695352819E+03 -0.81396964678E+02 -0.66027681104E+02  0.18050058166E+03  0.00000000000E+00 0.  1.
         22    1    3    3    0    0 -0.82490839283E+02  0.28718580197E+02 -0.10330127043E+03  0.13527988722E+03  0.00000000000E+00 0.  1.
</event>
<event>
 7    1  0.5452757E-006  0.1405554E+03  0.7818608E-02  0.1222688E+00
          2   -1    0    0  502    0  0.00000000000E+00  0.00000000000E+00  0.40566374512E+04  0.40566374512E+04  0.00000000000E+00 0. -1.
          1   -1    0    0  501    0 -0.00000000000E+00 -0.00000000000E+00 -0.25409693457E+02  0.25409693457E+02  0.00000000000E+00 0. -1.
         25    2    1    2    0    0  0.51047423974E+02  0.15757682564E+03  0.23531355170E+04  0.23622674754E+04  0.12499827307E+03 0.  0.
          2    1    1    2  501    0  0.80080545266E+02 -0.97738420068E+02  0.21332582410E+03  0.24793870153E+03  0.00000000000E+00 0. -1.
          1    1    1    2  502    0 -0.13112796924E+03 -0.59838405574E+02  0.14647664166E+04  0.14718409678E+04  0.00000000000E+00 0. -1.
         22    1    3    3    0    0  0.89568119302E+02  0.76719987398E+02  0.13241017463E+04  0.13293433864E+04  0.00000000000E+00 0. -1.
         22    1    3    3    0    0 -0.38520695328E+02  0.80856838244E+02  0.10290337707E+04  0.10329240890E+04  0.00000000000E+00 0. -1.
</event>
<event>
 7    1  0.5452757E-006  0.3843545E+02  0.7818608E-02  0.1560207E+00
          2   -1    0    0  502    0  0.00000000000E+00  0.00000000000E+00  0.12260239416E+04  0.12260239416E+04  0.00000000000E+00 0. -1.
          1   -1    0    0  501    0 -0.00000000000E+00 -0.00000000000E+00 -0.94712953468E+02  0.94712953468E+02  0.00000000000E+00 0. -1.
         25    2    1    2    0    0 -0.27296304253E+01  0.67200679066E+02  0.56264062586E+03  0.58026928682E+03  0.12499835684E+03 0.  0.
          2    1    1    2  501    0 -0.27760157485E+01 -0.38122397369E+02 -0.81293002438E+02  0.89830817039E+02  0.00000000000E+00 0. -1.
          1    1    1    2  502    0  0.55056461739E+01 -0.29078281697E+02  0.64996336467E+03  0.65063679117E+03  0.00000000000E+00 0. -1.
         22    1    3    3    0    0 -0.68282269728E+01 -0.28635832184E+02  0.44715479069E+02  0.53536059220E+02  0.00000000000E+00 0. -1.
         22    1    3    3    0    0  0.40985965475E+01  0.95836511251E+02  0.51792514679E+03  0.52673322760E+03  0.00000000000E+00 0. -1.
</event>
<event>
 7    1  0.5452757E-006  0.3666661E+02  0.7818608E-02  0.1543386E+00
          2   -1    0    0  502    0  0.00000000000E+00  0.00000000000E+00  0.12951429406E+04  0.12951429406E+04  0.00000000000E+00 0. -1.
          1   -1    0    0  501    0 -0.00000000000E+00 -0.00000000000E+00 -0.62991233338E+03  0.62991233338E+03  0.00000000000E+00 0. -1.
         25    2    1    2    0    0 -0.29446784926E+01  0.50774284267E+01 -0.76274925667E+02  0.14654876684E+03  0.12499690143E+03 0.  0.
          2    1    1    2  501    0  0.37286335363E+02 -0.12598405458E+01 -0.51759206776E+03  0.51893487704E+03  0.00000000000E+00 0. -1.
          1    1    1    2  502    0 -0.34341656870E+02 -0.38175878809E+01  0.12590976006E+04  0.12595716301E+04  0.00000000000E+00 0. -1.
         22    1    3    3    0    0 -0.13157239615E+02  0.57971066252E+02 -0.86213697045E+01  0.60067341312E+02  0.00000000000E+00 0. -1.
         22    1    3    3    0    0  0.10212561123E+02 -0.52893637826E+02 -0.67653555963E+02  0.86481425529E+02  0.00000000000E+00 0. -1.
</event>
<event>
 7    1  0.5452757E-006  0.1159440E+03  0.7818608E-02  0.1370814E+00
          2   -1    0    0  502    0  0.00000000000E+00  0.00000000000E+00  0.35579409429E+04  0.35579409429E+04  0.00000000000E+00 0. -1.
          1   -1    0    0  501    0 -0.00000000000E+00 -0.00000000000E+00 -0.12567607892E+03  0.12567607892E+03  0.00000000000E+00 0. -1.
         25    2    1    2    0    0  0.32619502159E+01  0.12946309508E+03  0.11590719329E+04  0.11729637093E+04  0.12499913762E+03 0.  0.
          2    1    1    2  501    0  0.30973652755E+02 -0.11152730358E+03 -0.90324205338E+02  0.14682019166E+03  0.00000000000E+00 0. -1.
          1    1    1    2  502    0 -0.34235602971E+02 -0.17935791506E+02  0.23635171364E+04  0.23638331209E+04  0.00000000000E+00 0. -1.
         22    1    3    3    0    0  0.56179003499E+02  0.22277555332E+02  0.39708318276E+03  0.40165585261E+03  0.00000000000E+00 0.  1.
         22    1    3    3    0    0 -0.52917053283E+02  0.10718553975E+03  0.76198875016E+03  0.77130785672E+03  0.00000000000E+00 0.  1.
</event>
<event>
 7    1  0.5452757E-006  0.3617182E+02  0.7818608E-02  0.1627158E+00
          2   -1    0    0  502    0  0.00000000000E+00  0.00000000000E+00  0.60706584947E+03  0.60706584947E+03  0.00000000000E+00 0. -1.
          1   -1    0    0  501    0 -0.00000000000E+00 -0.00000000000E+00 -0.84519331586E+03  0.84519331586E+03  0.00000000000E+00 0. -1.
         25    2    1    2    0    0 -0.52908443532E+02  0.11176103499E+02  0.52250929549E+02  0.14587125331E+03  0.12499621681E+03 0.  0.
          2    1    1    2  501    0  0.20489097787E+02  0.43580718567E+01 -0.79760949024E+03  0.79788451222E+03  0.00000000000E+00 0. -1.
          1    1    1    2  502    0  0.32419345744E+02 -0.15534175356E+02  0.50723109430E+03  0.50850339980E+03  0.00000000000E+00 0. -1.
         22    1    3    3    0    0  0.17382200663E+02  0.32359902544E+02  0.61746191558E+02  0.71846338560E+02  0.00000000000E+00 0.  1.
         22    1    3    3    0    0 -0.70290644195E+02 -0.21183799044E+02 -0.94952620088E+01  0.74024914751E+02  0.00000000000E+00 0.  1.
</event>
<event>
 7    1  0.5452757E-006  0.2417993E+03  0.7818608E-02  0.1169000E+00
          2   -1    0    0  502    0  0.00000000000E+00  0.00000000000E+00  0.42494947257E+03  0.42494947257E+03  0.00000000000E+00 0. -1.
          1   -1    0    0  501    0 -0.00000000000E+00 -0.00000000000E+00 -0.15944594084E+04  0.15944594084E+04  0.00000000000E+00 0. -1.
         25    2    1    2    0    0  0.48608481742E+02 -0.12422994358E+03 -0.36938599132E+02  0.18650866782E+03  0.12500063875E+03 0.  0.
          2    1    1    2  501    0 -0.14578001001E+03  0.21381973264E+03 -0.14584539165E+04  0.14812354694E+04  0.00000000000E+00 0. -1.
          1    1    1    2  502    0  0.97171528266E+02 -0.89589789060E+02  0.32588257976E+03  0.35166474376E+03  0.00000000000E+00 0. -1.
         22    1    3    3    0    0  0.24058404748E+01 -0.13394633621E+03 -0.38102547042E+02  0.13928105809E+03  0.00000000000E+00 0.  1.
         22    1    3    3    0    0  0.46202641267E+02  0.97163926320E+01  0.11639479093E+01  0.47227609727E+02  0.00000000000E+00 0.  1.
</event>
<event>
 7    1  0.5452757E-006  0.1320860E+03  0.7818608E-02  0.1275503E+00
          2   -1    0    0  502    0  0.00000000000E+00  0.00000000000E+00  0.48416575530E+03  0.48416575530E+03  0.00000000000E+00 0. -1.
          1   -1    0    0  501    0 -0.00000000000E+00 -0.00000000000E+00 -0.41089659379E+03  0.41089659379E+03  0.00000000000E+00 0. -1.
         25    2    1    2    0    0 -0.37891024757E+02  0.29362638378E+02  0.25043241215E+03  0.28397015251E+03  0.12499904068E+03 0.  0.
          2    1    1    2  501    0 -0.11474565067E+03 -0.65422868928E+02 -0.35214933005E+03  0.37610619083E+03  0.00000000000E+00 0. -1.
          1    1    1    2  502    0  0.15263667542E+03  0.36060230550E+02  0.17498607941E+03  0.23498600575E+03  0.00000000000E+00 0. -1.
         22    1    3    3    0    0  0.53987599079E+01 -0.43913166248E+02  0.53435105891E+02  0.69374514918E+02  0.00000000000E+00 0.  1.
         22    1    3    3    0    0 -0.43289784665E+02  0.73275804626E+02  0.19699730626E+03  0.21459563759E+03  0.00000000000E+00 0.  1.
</event>
<event>
 7    1  0.5452757E-006  0.9627636E+02  0.7818608E-02  0.1415764E+00
          2   -1    0    0  502    0  0.00000000000E+00  0.00000000000E+00  0.69626978002E+03  0.69626978002E+03  0.00000000000E+00 0. -1.
          1   -1    0    0  501    0 -0.00000000000E+00 -0.00000000000E+00 -0.86662943576E+03  0.86662943576E+03  0.00000000000E+00 0. -1.
         25    2    1    2    0    0 -0.82903966195E+02 -0.94879039367E+02  0.17509355573E+03  0.24931259931E+03  0.12499567671E+03 0.  0.
          2    1    1    2  501    0  0.70730999249E+02  0.64757562448E+02 -0.82619821856E+03  0.83174510068E+03  0.00000000000E+00 0. -1.
          1    1    1    2  502    0  0.12172966945E+02  0.30121476919E+02  0.48074500709E+03  0.48184151579E+03  0.00000000000E+00 0. -1.
         22    1    3    3    0    0  0.17279859273E+02 -0.54687610577E+02  0.10780712241E+03  0.12211348791E+03  0.00000000000E+00 0.  1.
         22    1    3    3    0    0 -0.10018382547E+03 -0.40191428790E+02  0.67286433319E+02  0.12719911141E+03  0.00000000000E+00 0.  1.
</event>
<event>
 7    1  0.5452757E-006  0.1274785E+03  0.7818608E-02  0.1320320E+00
          2   -1    0    0  502    0  0.00000000000E+00  0.00000000000E+00  0.27543082009E+04  0.27543082009E+04  0.00000000000E+00 0. -1.
          1   -1    0    0  501    0 -0.00000000000E+00 -0.00000000000E+00 -0.47419042300E+03  0.47419042300E+03  0.00000000000E+00 0. -1.
         25    2    1    2    0    0  0.34332632713E+02  0.86501539268E+02 -0.41990518890E+02  0.16138345080E+03  0.12498067271E+03 0.  0.
          2    1    1    2  501    0 -0.34827020442E+02  0.41590823048E+02 -0.36899695897E+03  0.37296309958E+03  0.00000000000E+00 0. -1.
          1    1    1    2  502    0  0.49438772889E+00 -0.12809236232E+03  0.26911052558E+04  0.26941520736E+04  0.00000000000E+00 0. -1.
         22    1    3    3    0    0  0.31036720165E+02  0.11854070098E+03 -0.25352507916E+02  0.12513163248E+03  0.00000000000E+00 0. -1.
         22    1    3    3    0    0  0.32959125481E+01 -0.32039161716E+02 -0.16638010974E+02  0.36251818329E+02  0.00000000000E+00 0. -1.
</event>
<event>
 7    1  0.5452757E-006  0.3746377E+02  0.7818608E-02  0.1613475E+00
          2   -1    0    0  502    0  0.00000000000E+00  0.00000000000E+00  0.10455561126E+04  0.10455561126E+04  0.00000000000E+00 0. -1.
          1   -1    0    0  501    0 -0.00000000000E+00 -0.00000000000E+00 -0.55045302111E+02  0.55045302111E+02  0.00000000000E+00 0. -1.
         25    2    1    2    0    0  0.44077711896E+01  0.15319822148E+02  0.74939540700E+03  0.75991532123E+03  0.12499477591E+03 0.  0.
          2    1    1    2  501    0 -0.14544169551E+02 -0.34748775023E+02 -0.42175452651E+02  0.56548908388E+02  0.00000000000E+00 0. -1.
          1    1    1    2  502    0  0.10136398362E+02  0.19428952875E+02  0.28329085617E+03  0.28413718513E+03  0.00000000000E+00 0. -1.
         22    1    3    3    0    0  0.27710175980E+02 -0.39073540076E+02  0.14671721578E+03  0.15433903198E+03  0.00000000000E+00 0. -1.
         22    1    3    3    0    0 -0.23302404790E+02  0.54393362224E+02  0.60267819123E+03  0.60557628925E+03  0.00000000000E+00 0. -1.
</event>
<event>
 7    1  0.5452757E-006  0.1067256E+03  0.7818608E-02  0.1311619E+00
          2   -1    0    0  502    0  0.00000000000E+00  0.00000000000E+00  0.23028539563E+03  0.23028539563E+03  0.00000000000E+00 0. -1.
          1   -1    0    0  501    0 -0.00000000000E+00 -0.00000000000E+00 -0.15382465514E+04  0.15382465514E+04  0.00000000000E+00 0. -1.
         25    2    1    2    0    0  0.11885509218E+03 -0.30443554067E+02  0.24490840422E+02  0.17687695324E+03  0.12502924619E+03 0.  0.
          2    1    1    2  501    0 -0.10018531356E+03 -0.37090878278E+02 -0.14504730133E+04  0.14544018676E+04  0.00000000000E+00 0. -1.
          1    1    1    2  502    0 -0.18669778616E+02  0.67534432345E+02  0.11802101704E+03  0.13725312619E+03  0.00000000000E+00 0. -1.
         22    1    3    3    0    0 -0.22403172316E+02 -0.24421614064E+02  0.10671465884E+02  0.34816627456E+02  0.00000000000E+00 0. -1.
         22    1    3    3    0    0  0.14125826450E+03 -0.60219400028E+01  0.13819374538E+02  0.14206032579E+03  0.00000000000E+00 0. -1.
</event>
<event>
 7    1  0.5452757E-006  0.4348354E+02  0.7818608E-02  0.1547959E+00
          2   -1    0    0  502    0  0.00000000000E+00  0.00000000000E+00  0.22997056326E+03  0.22997056326E+03  0.00000000000E+00 0. -1.
          1   -1    0    0  501    0 -0.00000000000E+00 -0.00000000000E+00 -0.30136523173E+04  0.30136523173E+04  0.00000000000E+00 0. -1.
         25    2    1    2    0    0  0.29382388886E+02  0.61027996327E+02  0.72487794382E+02  0.15958193985E+03  0.12499669628E+03 0.  0.
          2    1    1    2  501    0 -0.77929890665E+01 -0.42749109473E+02 -0.29681879024E+04  0.29685059611E+04  0.00000000000E+00 0. -1.
          1    1    1    2  502    0 -0.21589399819E+02 -0.18278886854E+02  0.11201835397E+03  0.11553497962E+03  0.00000000000E+00 0. -1.
         22    1    3    3    0    0  0.18520933960E+02  0.17536691916E+02 -0.34892243545E+02  0.43220703578E+02  0.00000000000E+00 0. -1.
         22    1    3    3    0    0  0.10861454926E+02  0.43491304411E+02  0.10738003793E+03  0.11636123628E+03  0.00000000000E+00 0. -1.
</event>
<event>
 7    1  0.5452757E-006  0.1790231E+03  0.7818608E-02  0.1363518E+00
          2   -1    0    0  502    0  0.00000000000E+00  0.00000000000E+00  0.13263282686E+04  0.13263282686E+04  0.00000000000E+00 0. -1.
          1   -1    0    0  501    0 -0.00000000000E+00 -0.00000000000E+00 -0.11995272934E+04  0.11995272934E+04  0.00000000000E+00 0. -1.
         25    2    1    2    0    0 -0.18662270535E+03  0.38930150210E+02  0.12070746826E+03  0.25795087826E+03  0.12499908782E+03 0.  0.
          2    1    1    2  501    0  0.17811824221E+03 -0.13730238127E+02 -0.11236930038E+04  0.11378051654E+04  0.00000000000E+00 0. -1.
          1    1    1    2  502    0  0.85044631369E+01 -0.25199912082E+02  0.11297865107E+04  0.11300995183E+04  0.00000000000E+00 0. -1.
         22    1    3    3    0    0 -0.11349299576E+02 -0.33241084237E+02  0.36119971908E+02  0.50382821008E+02  0.00000000000E+00 0.  1.
         22    1    3    3    0    0 -0.17527340577E+03  0.72171234447E+02  0.84587496352E+02  0.20756805725E+03  0.00000000000E+00 0.  1.
</event>
<event>
 7    1  0.5452757E-006  0.9692735E+02  0.7818608E-02  0.1314558E+00
          2   -1    0    0  502    0  0.00000000000E+00  0.00000000000E+00  0.92919553873E+03  0.92919553873E+03  0.00000000000E+00 0. -1.
          1   -1    0    0  501    0 -0.00000000000E+00 -0.00000000000E+00 -0.58874975074E+03  0.58874975074E+03  0.00000000000E+00 0. -1.
         25    2    1    2    0    0 -0.47159913995E+02  0.81472030925E+02  0.15071605933E+03  0.21725962304E+03  0.12499865581E+03 0.  0.
          2    1    1    2  501    0 -0.26940139589E+02 -0.93865455099E+02 -0.54926660184E+03  0.55788017950E+03  0.00000000000E+00 0. -1.
          1    1    1    2  502    0  0.74100053584E+02  0.12393424175E+02  0.73899633051E+03  0.74280548692E+03  0.00000000000E+00 0. -1.
         22    1    3    3    0    0 -0.73348375923E+02  0.31792315571E+02  0.13830221934E+03  0.15974429396E+03  0.00000000000E+00 0.  1.
         22    1    3    3    0    0  0.26188461928E+02  0.49679715354E+02  0.12413839987E+02  0.57515329079E+02  0.00000000000E+00 0.  1.
</event>
<event>
 7    1  0.5452757E-006  0.1174581E+03  0.7818608E-02  0.1331684E+00
          2   -1    0    0  502    0  0.00000000000E+00  0.00000000000E+00  0.12323141999E+04  0.12323141999E+04  0.00000000000E+00 0. -1.
          1   -1    0    0  501    0 -0.00000000000E+00 -0.00000000000E+00 -0.72164821745E+03  0.72164821745E+03  0.00000000000E+00 0. -1.
         25    2    1    2    0    0 -0.61924148880E+02  0.42236608661E+02 -0.94288747250E+02  0.17359172087E+03  0.12500074548E+03 0.  0.
          2    1    1    2  501    0  0.11472424459E+03 -0.49073045810E+02 -0.58048064081E+03  0.59374033927E+03  0.00000000000E+00 0. -1.
          1    1    1    2  502    0 -0.52800095713E+02  0.68364371490E+01  0.11854353705E+04  0.11866303572E+04  0.00000000000E+00 0. -1.
         22    1    3    3    0    0 -0.17753081426E+02  0.83280375720E+02 -0.49645227368E+02  0.98566939085E+02  0.00000000000E+00 0. -1.
         22    1    3    3    0    0 -0.44171067454E+02 -0.41043767059E+02 -0.44643519882E+02  0.75024781785E+02  0.00000000000E+00 0. -1.
</event>
<event>
 7    1  0.5452757E-006  0.2778025E+03  0.7818608E-02  0.1309180E+00
          2   -1    0    0  502    0  0.00000000000E+00  0.00000000000E+00  0.20536570055E+03  0.20536570055E+03  0.00000000000E+00 0. -1.
          1   -1    0    0  501    0 -0.00000000000E+00 -0.00000000000E+00 -0.60305053462E+03  0.60305053462E+03  0.00000000000E+00 0. -1.
         25    2    1    2    0    0  0.39306556888E+02 -0.29254292400E+03 -0.90447443022E+02  0.33306682939E+03  0.12500562025E+03 0.  0.
          2    1    1    2  501    0 -0.48688748823E+02  0.26667122016E+03 -0.33852168614E+03  0.43368313999E+03  0.00000000000E+00 0. -1.
          1    1    1    2  502    0  0.93821919353E+01  0.25871703839E+02  0.31284295097E+02  0.41666265789E+02  0.00000000000E+00 0. -1.
         22    1    3    3    0    0  0.36301125074E+02 -0.29114425742E+03 -0.56290840075E+02  0.29874974307E+03  0.00000000000E+00 0.  1.
         22    1    3    3    0    0  0.30054318141E+01 -0.13986665833E+01 -0.34156602947E+02  0.34317086320E+02  0.00000000000E+00 0.  1.
</event>
<event>
 7    1  0.5452757E-006  0.3726900E+02  0.7818608E-02  0.1594983E+00
          2   -1    0    0  502    0  0.00000000000E+00  0.00000000000E+00  0.54481365870E+03  0.54481365870E+03  0.00000000000E+00 0. -1.
          1   -1    0    0  501    0 -0.00000000000E+00 -0.00000000000E+00 -0.19871938351E+04  0.19871938351E+04  0.00000000000E+00 0. -1.
         25    2    1    2    0    0 -0.79789703407E+01 -0.48557664369E+02  0.42600222001E+03  0.44668086565E+03  0.12499757415E+03 0.  0.
          2    1    1    2  501    0 -0.12602246100E+02  0.35071211589E+02 -0.19752810371E+04  0.19756325524E+04  0.00000000000E+00 0. -1.
          1    1    1    2  502    0  0.20581216441E+02  0.13486452780E+02  0.10689864069E+03  0.10969407577E+03  0.00000000000E+00 0. -1.
         22    1    3    3    0    0  0.17958838411E+01 -0.13642186767E+02  0.40407293294E+03  0.40430714759E+03  0.00000000000E+00 0. -1.
         22    1    3    3    0    0 -0.97748541818E+01 -0.34915477602E+02  0.21929287072E+02  0.42373718056E+02  0.00000000000E+00 0. -1.
</event>
<event>
 7    1  0.5452757E-006  0.6991255E+02  0.7818608E-02  0.1364035E+00
          2   -1    0    0  502    0  0.00000000000E+00  0.00000000000E+00  0.39684943698E+03  0.39684943698E+03  0.00000000000E+00 0. -1.
          1   -1    0    0  501    0 -0.00000000000E+00 -0.00000000000E+00 -0.18834813913E+03  0.18834813913E+03  0.00000000000E+00 0. -1.
         25    2    1    2    0    0 -0.15098428611E+02  0.25368792641E+02  0.89753220246E+02  0.15669099583E+03  0.12499955777E+03 0.  0.
          2    1    1    2  501    0  0.69545355120E+02  0.18486613041E+02 -0.14165326003E+03  0.15888347100E+03  0.00000000000E+00 0. -1.
          1    1    1    2  502    0 -0.54446926510E+02 -0.43855405683E+02  0.26040133764E+03  0.26962310928E+03  0.00000000000E+00 0. -1.
         22    1    3    3    0    0  0.10456080111E+02 -0.46305006860E+02  0.56096622928E+02  0.73486831307E+02  0.00000000000E+00 0. -1.
         22    1    3    3    0    0 -0.25554508721E+02  0.71673799502E+02  0.33656597318E+02  0.83204164523E+02  0.00000000000E+00 0. -1.
</event>
<event>
 7    1  0.5452757E-006  0.6253991E+02  0.7818608E-02  0.1424804E+00
          2   -1    0    0  502    0  0.00000000000E+00  0.00000000000E+00  0.67892793016E+03  0.67892793016E+03  0.00000000000E+00 0. -1.
          1   -1    0    0  501    0 -0.00000000000E+00 -0.00000000000E+00 -0.29820697080E+03  0.29820697080E+03  0.00000000000E+00 0. -1.
         25    2    1    2    0    0 -0.54916721331E+02 -0.78161041157E+02 -0.15836626421E+03  0.22322784607E+03  0.12500321189E+03 0.  0.
          2    1    1    2  501    0  0.11247762120E+01  0.46642575369E+02 -0.10075572471E+03  0.11103382827E+03  0.00000000000E+00 0. -1.
          1    1    1    2  502    0  0.53791945119E+02  0.31518465788E+02  0.63984294828E+03  0.64287322662E+03  0.00000000000E+00 0. -1.
         22    1    3    3    0    0  0.55012620146E+00  0.24308096272E+02  0.26680629568E+01  0.24460268665E+02  0.00000000000E+00 0. -1.
         22    1    3    3    0    0 -0.55466847532E+02 -0.10246913743E+03 -0.16103432717E+03  0.19876757740E+03  0.00000000000E+00 0. -1.
</event>
<event>
 7    1  0.5452757E-006  0.4162453E+02  0.7818608E-02  0.1518370E+00
          2   -1    0    0  502    0  0.00000000000E+00  0.00000000000E+00  0.89682001502E+03  0.89682001502E+03  0.00000000000E+00 0. -1.
          1   -1    0    0  501    0 -0.00000000000E+00 -0.00000000000E+00 -0.14131648703E+04  0.14131648703E+04  0.00000000000E+00 0. -1.
         25    2    1    2    0    0  0.74706890390E+02 -0.17496282762E+02  0.10814912920E+03  0.18225661865E+03  0.12503600087E+03 0.  0.
          2    1    1    2  501    0 -0.38940453824E+02  0.14492876135E+02 -0.13753687154E+04  0.13759961867E+04  0.00000000000E+00 0. -1.
          1    1    1    2  502    0 -0.35766436567E+02  0.30034066268E+01  0.75087473097E+03  0.75173207996E+03  0.00000000000E+00 0. -1.
         22    1    3    3    0    0  0.10487908874E+03 -0.53488195676E+00  0.10346914663E+03  0.14732879439E+03  0.00000000000E+00 0.  1.
         22    1    3    3    0    0 -0.30172198349E+02 -0.16961400805E+02  0.46799825748E+01  0.34927824258E+02  0.00000000000E+00 0.  1.
</event>
<event>
 7    1  0.5452757E-006  0.4444525E+02  0.7818608E-02  0.1513511E+00
          2   -1    0    0  502    0  0.00000000000E+00  0.00000000000E+00  0.33559391489E+02  0.33559391489E+02  0.00000000000E+00 0. -1.
          1   -1    0    0  501    0 -0.00000000000E+00 -0.00000000000E+00 -0.59525059685E+03  0.59525059685E+03  0.00000000000E+00 0. -1.
         25    2    1    2    0    0 -0.14152692783E+02  0.59285736830E+01 -0.10601775811E+03  0.16462147673E+03  0.12500007547E+03 0.  0.
          2    1    1    2  501    0  0.44988182699E+02  0.10052224185E+02 -0.34831480794E+03  0.35135194496E+03  0.00000000000E+00 0. -1.
          1    1    1    2  502    0 -0.30835489916E+02 -0.15980797868E+02 -0.10735863931E+03  0.11283656665E+03  0.00000000000E+00 0. -1.
         22    1    3    3    0    0 -0.41453704711E+02 -0.32175736993E+02 -0.43351522822E+01  0.52654356236E+02  0.00000000000E+00 0. -1.
         22    1    3    3    0    0  0.27301011928E+02  0.38104310676E+02 -0.10168260583E+03  0.11196712050E+03  0.00000000000E+00 0. -1.
</event>
<event>
 7    1  0.5452757E-006  0.3021712E+02  0.7818608E-02  0.1629923E+00
          2   -1    0    0  502    0  0.00000000000E+00  0.00000000000E+00  0.52170654819E+03  0.52170654819E+03  0.00000000000E+00 0. -1.
          1   -1    0    0  501    0 -0.00000000000E+00 -0.00000000000E+00 -0.13018393538E+04  0.13018393538E+04  0.00000000000E+00 0. -1.
         25    2    1    2    0    0  0.55171364302E+01  0.24437023713E+02 -0.22603454396E+03  0.25950782017E+03  0.12500034697E+03 0.  0.
          2    1    1    2  501    0  0.19145960410E+02 -0.23623533945E+02 -0.10585482435E+04  0.10589849021E+04  0.00000000000E+00 0. -1.
          1    1    1    2  502    0 -0.24663096840E+02 -0.81348976841E+00  0.50444998185E+03  0.50505317968E+03  0.00000000000E+00 0. -1.
         22    1    3    3    0    0  0.53955371796E+02 -0.78081783788E+01 -0.49524037226E+02  0.73653106237E+02  0.00000000000E+00 0.  1.
         22    1    3    3    0    0 -0.48438235366E+02  0.32245202092E+02 -0.17651050673E+03  0.18585471393E+03  0.00000000000E+00 0.  1.
</event>
<event>
 7    1  0.5452757E-006  0.8411968E+02  0.7818608E-02  0.1357823E+00
          2   -1    0    0  502    0  0.00000000000E+00  0.00000000000E+00  0.29224137911E+03  0.29224137911E+03  0.00000000000E+00 0. -1.
          1   -1    0    0  501    0 -0.00000000000E+00 -0.00000000000E+00 -0.20882296046E+04  0.20882296046E+04  0.00000000000E+00 0. -1.
         25    2    1    2    0    0 -0.20631634302E+02 -0.54865138410E+02 -0.90883639850E+01  0.13837893651E+03  0.12502113406E+03 0.  0.
          2    1    1    2  501    0  0.52350489507E+02 -0.28012443725E+02 -0.20053898949E+04  0.20062686513E+04  0.00000000000E+00 0. -1.
          1    1    1    2  502    0 -0.31718855205E+02  0.82877582135E+02  0.21849003334E+03  0.23582339593E+03  0.00000000000E+00 0. -1.
         22    1    3    3    0    0 -0.18506949907E+02  0.39456687033E+02 -0.59038096158E+01  0.43979453322E+02  0.00000000000E+00 0.  1.
         22    1    3    3    0    0 -0.21246843953E+01 -0.94321825444E+02 -0.31845543692E+01  0.94399483183E+02  0.00000000000E+00 0.  1.
</event>
<event>
 7    1  0.5452757E-006  0.5773763E+02  0.7818608E-02  0.1444951E+00
          2   -1    0    0  502    0  0.00000000000E+00  0.00000000000E+00  0.21672648525E+04  0.21672648525E+04  0.00000000000E+00 0. -1.
          1   -1    0    0  501    0 -0.00000000000E+00 -0.00000000000E+00 -0.10734323384E+02  0.10734323384E+02  0.00000000000E+00 0. -1.
         25    2    1    2    0    0  0.49267467973E+02 -0.76701362919E+02  0.76251904346E+03  0.77805571126E+03  0.12500006282E+03 0.  0.
          2    1    1    2  501    0 -0.22818775378E+02  0.42260061563E+02  0.22236068712E+03  0.22748820737E+03  0.00000000000E+00 0. -1.
          1    1    1    2  502    0 -0.26448692595E+02  0.34441301356E+02  0.11716507985E+04  0.11724552572E+04  0.00000000000E+00 0. -1.
         22    1    3    3    0    0  0.53652265759E+01 -0.34723055408E+02  0.41045514712E+02  0.54029718776E+02  0.00000000000E+00 0. -1.
         22    1    3    3    0    0  0.43902241398E+02 -0.41978307511E+02  0.72147352875E+03  0.72402599248E+03  0.00000000000E+00 0. -1.
</event>
<event>
 7    1  0.5452757E-006  0.8698436E+02  0.7818608E-02  0.1345452E+00
          2   -1    0    0  502    0  0.00000000000E+00  0.00000000000E+00  0.57757556417E+02  0.57757556417E+02  0.00000000000E+00 0. -1.
          1   -1    0    0  501    0 -0.00000000000E+00 -0.00000000000E+00 -0.77980069416E+03  0.77980069416E+03  0.00000000000E+00 0. -1.
         25    2    1    2    0    0  0.12258565104E+02 -0.10004425068E+03 -0.31326555398E+03  0.35202141481E+03  0.12499857866E+03 0.  0.
          2    1    1    2  501    0 -0.58523003525E+02  0.25390451840E+02 -0.39069335080E+03  0.39586729006E+03  0.00000000000E+00 0. -1.
          1    1    1    2  502    0  0.46264438421E+02  0.74653798839E+02 -0.18084232969E+02  0.89669545697E+02  0.00000000000E+00 0. -1.
         22    1    3    3    0    0 -0.37826956755E+02  0.84558550159E+01 -0.10472047661E+03  0.11166359462E+03  0.00000000000E+00 0. -1.
         22    1    3    3    0    0  0.50085521859E+02 -0.10850010570E+03 -0.20854507737E+03  0.24035782020E+03  0.00000000000E+00 0. -1.
</event>
<event>
 7    1  0.5452757E-006  0.4969478E+02  0.7818608E-02  0.1507501E+00
          2   -1    0    0  502    0  0.00000000000E+00  0.00000000000E+00  0.58398506352E+03  0.58398506352E+03  0.00000000000E+00 0. -1.
          1   -1    0    0  501    0 -0.00000000000E+00 -0.00000000000E+00 -0.68283862411E+02  0.68283862411E+02  0.00000000000E+00 0. -1.
         25    2    1    2    0    0  0.78888287994E+02 -0.14221172971E+02  0.30020470949E+03  0.33492200056E+03  0.12499710041E+03 0.  0.
          2    1    1    2  501    0 -0.46537145626E+02  0.13933605304E+02 -0.38073933002E+02  0.61720949879E+02  0.00000000000E+00 0. -1.
          1    1    1    2  502    0 -0.32351142368E+02  0.28756766698E+00  0.25357042461E+03  0.25562597549E+03  0.00000000000E+00 0. -1.
         22    1    3    3    0    0  0.78953652578E+02 -0.28082236253E+02  0.85317937171E+02  0.11958863513E+03  0.00000000000E+00 0. -1.
         22    1    3    3    0    0 -0.65364583949E-01  0.13861063282E+02  0.21488677232E+03  0.21533336543E+03  0.00000000000E+00 0. -1.
</event>
<event>
 7    1  0.5452757E-006  0.7741088E+02  0.7818608E-02  0.1422359E+00
          2   -1    0    0  502    0  0.00000000000E+00  0.00000000000E+00  0.19028073509E+03  0.19028073509E+03  0.00000000000E+00 0. -1.
          1   -1    0    0  501    0 -0.00000000000E+00 -0.00000000000E+00 -0.14624210620E+04  0.14624210620E+04  0.00000000000E+00 0. -1.
         25    2    1    2    0    0  0.80637490576E+01  0.76318221675E+02 -0.53280637449E+03  0.55262807745E+03  0.12500265709E+03 0.  0.
          2    1    1    2  501    0  0.30188820872E+02 -0.72898751406E+02 -0.91594399861E+03  0.91933617435E+03  0.00000000000E+00 0. -1.
          1    1    1    2  502    0 -0.38252569929E+02 -0.34194702687E+01  0.17661004616E+03  0.18073754532E+03  0.00000000000E+00 0. -1.
         22    1    3    3    0    0  0.18695757464E+02  0.89000214398E+02 -0.52745148178E+03  0.53523418720E+03  0.00000000000E+00 0.  1.
         22    1    3    3    0    0 -0.10632008407E+02 -0.12681992724E+02 -0.53548927085E+01  0.17393890253E+02  0.00000000000E+00 0.  1.
</event>
<event>
 7    1  0.5452757E-006  0.7673408E+02  0.7818608E-02  0.1412445E+00
          2   -1    0    0  502    0  0.00000000000E+00  0.00000000000E+00  0.54177964857E+03  0.54177964857E+03  0.00000000000E+00 0. -1.
          1   -1    0    0  501    0 -0.00000000000E+00 -0.00000000000E+00 -0.98248151185E+03  0.98248151185E+03  0.00000000000E+00 0. -1.
         25    2    1    2    0    0  0.33020296640E+02  0.66078155965E+02 -0.69337698683E+03  0.70841694015E+03  0.12500501009E+03 0.  0.
          2    1    1    2  501    0 -0.69929573333E+02 -0.46404175394E+02 -0.27448434019E+03  0.28702812707E+03  0.00000000000E+00 0. -1.
          1    1    1    2  502    0  0.36909276693E+02 -0.19673980570E+02  0.52715946374E+03  0.52881609320E+03  0.00000000000E+00 0. -1.
         22    1    3    3    0    0  0.68558065498E+02  0.32143918158E+02 -0.22350987822E+03  0.23598751128E+03  0.00000000000E+00 0. -1.
         22    1    3    3    0    0 -0.35537768858E+02  0.33934237807E+02 -0.46986710861E+03  0.47242942887E+03  0.00000000000E+00 0. -1.
</event>
<event>
 7    1  0.5452757E-006  0.1568974E+03  0.7818608E-02  0.1359051E+00
          2   -1    0    0  502    0  0.00000000000E+00  0.00000000000E+00  0.14082062671E+04  0.14082062671E+04  0.00000000000E+00 0. -1.
          1   -1    0    0  501    0 -0.00000000000E+00 -0.00000000000E+00 -0.98072573045E+03  0.98072573045E+03  0.00000000000E+00 0. -1.
         25    2    1    2    0    0 -0.10790000805E+03  0.11033374015E+03  0.10277670005E+03  0.22361558174E+03  0.12499972949E+03 0.  0.
          2    1    1    2  501    0  0.22638507243E+02  0.21910926279E+02 -0.91506262535E+03  0.91560482688E+03  0.00000000000E+00 0. -1.
          1    1    1    2  502    0  0.85261500804E+02 -0.13224466643E+03  0.12397664620E+04  0.12497115890E+04  0.00000000000E+00 0. -1.
         22    1    3    3    0    0 -0.13327511746E+03  0.79215937348E+02  0.63791452381E+02  0.16765074131E+03  0.00000000000E+00 0.  1.
         22    1    3    3    0    0  0.25375109412E+02  0.31117802806E+02  0.38985247666E+02  0.55964840433E+02  0.00000000000E+00 0.  1.
</event>
<event>
 7    1  0.5452757E-006  0.5704154E+02  0.7818608E-02  0.1449538E+00
          2   -1    0    0  502    0  0.00000000000E+00  0.00000000000E+00  0.25358234110E+04  0.25358234110E+04  0.00000000000E+00 0. -1.
          1   -1    0    0  501    0 -0.00000000000E+00 -0.00000000000E+00 -0.59334901180E+03  0.59334901180E+03  0.00000000000E+00 0. -1.
         25    2    1    2    0    0 -0.67624276810E+02 -0.28666130436E+02  0.10365836927E+04  0.10466727786E+04  0.12499345493E+03 0.  0.
          2    1    1    2  501    0  0.12343825406E+02  0.40656066525E+02 -0.58700098533E+03  0.58853669601E+03  0.00000000000E+00 0. -1.
          1    1    1    2  502    0  0.55280451404E+02 -0.11989936089E+02  0.14928916918E+04  0.14939629481E+04  0.00000000000E+00 0. -1.
         22    1    3    3    0    0 -0.32079401419E+02  0.49528139225E+02  0.40592769246E+03  0.41019436378E+03  0.00000000000E+00 0. -1.
         22    1    3    3    0    0 -0.35544875391E+02 -0.78194269662E+02  0.63065600019E+03  0.63647841484E+03  0.00000000000E+00 0. -1.
</event>
<event>
 7    1  0.5452757E-006  0.7010167E+02  0.7818608E-02  0.1371012E+00
          2   -1    0    0  502    0  0.00000000000E+00  0.00000000000E+00  0.34239416354E+02  0.34239416354E+02  0.00000000000E+00 0. -1.
          1   -1    0    0  501    0 -0.00000000000E+00 -0.00000000000E+00 -0.63555547602E+03  0.63555547602E+03  0.00000000000E+00 0. -1.
         25    2    1    2    0    0 -0.41402422762E+02 -0.70808824878E+02 -0.28331915979E+03  0.32034639518E+03  0.12499606518E+03 0.  0.
          2    1    1    2  501    0  0.63808762724E+02  0.11516611683E+01 -0.20606674127E+03  0.21572293893E+03  0.00000000000E+00 0. -1.
          1    1    1    2  502    0 -0.22406339962E+02  0.69657163710E+02 -0.11193015860E+03  0.13372555826E+03  0.00000000000E+00 0. -1.
         22    1    3    3    0    0 -0.82949542282E+02 -0.68160812031E+02 -0.19181879876E+03  0.21982032303E+03  0.00000000000E+00 0.  1.
         22    1    3    3    0    0  0.41547119521E+02 -0.26480128471E+01 -0.91500361038E+02  0.10052607215E+03  0.00000000000E+00 0.  1.
</event>
<event>
 7    1  0.5452757E-006  0.1298619E+03  0.7818608E-02  0.1330087E+00
          2   -1    0    0  502    0  0.00000000000E+00  0.00000000000E+00  0.13412052088E+04  0.13412052088E+04  0.00000000000E+00 0. -1.
          1   -1    0    0  501    0 -0.00000000000E+00 -0.00000000000E+00 -0.94805754830E+03  0.94805754830E+03  0.00000000000E+00 0. -1.
         25    2    1    2    0    0 -0.48242838340E+02  0.12203302645E+03  0.13071298216E+03  0.22345248387E+03  0.12500279135E+03 0.  0.
          2    1    1    2  501    0  0.71521761974E-01 -0.13006249571E+03 -0.89648070581E+03  0.90586638849E+03  0.00000000000E+00 0. -1.
          1    1    1    2  502    0  0.48171316578E+02  0.80294692663E+01  0.11589153841E+04  0.11599438847E+04  0.00000000000E+00 0. -1.
         22    1    3    3    0    0 -0.81388522873E+02  0.11064403794E+03  0.12888858429E+03  0.18835727209E+03  0.00000000000E+00 0. -1.
         22    1    3    3    0    0  0.33145684532E+02  0.11388988507E+02  0.18243978682E+01  0.35095211780E+02  0.00000000000E+00 0. -1.
</event>
<event>
 7    1  0.5452757E-006  0.4811539E+02  0.7818608E-02  0.1510782E+00
          2   -1    0    0  502    0  0.00000000000E+00  0.00000000000E+00  0.62267032908E+02  0.62267032908E+02  0.00000000000E+00 0. -1.
          1   -1    0    0  501    0 -0.00000000000E+00 -0.00000000000E+00 -0.27722010072E+03  0.27722010072E+03  0.00000000000E+00 0. -1.
         25    2    1    2    0    0  0.67076654237E+02  0.26717321624E+02 -0.87801726374E+02  0.16895881303E+03  0.12499937811E+03 0.  0.
          2    1    1    2  501    0 -0.34614196082E+02 -0.30469302535E+02 -0.12979453894E+03  0.13774303361E+03  0.00000000000E+00 0. -1.
          1    1    1    2  502    0 -0.32462458155E+02  0.37519809115E+01  0.26431975083E+01  0.32785286994E+02  0.00000000000E+00 0. -1.
         22    1    3    3    0    0 -0.22229514002E+02  0.47030344198E+02 -0.23674870579E+02  0.57153338180E+02  0.00000000000E+00 0. -1.
         22    1    3    3    0    0  0.89306168239E+02 -0.20313022574E+02 -0.64126855795E+02  0.11180547485E+03  0.00000000000E+00 0. -1.
</event>
<event>
 7    1  0.5452757E-006  0.6067980E+02  0.7818608E-02  0.1491552E+00
          2   -1    0    0  502    0  0.00000000000E+00  0.00000000000E+00  0.37182377490E+03  0.37182377490E+03  0.00000000000E+00 0. -1.
          1   -1    0    0  501    0 -0.00000000000E+00 -0.00000000000E+00 -0.11618554025E+03  0.11618554025E+03  0.00000000000E+00 0. -1.
         25    2    1    2    0    0  0.38709124186E+01  0.46980688055E+02  0.79098607771E+02  0.15525444602E+03  0.12500073698E+03 0.  0.
          2    1    1    2  501    0 -0.32724863378E+02 -0.53432854333E+02 -0.64491316590E+02  0.89917275987E+02  0.00000000000E+00 0. -1.
          1    1    1    2  502    0  0.28853950960E+02  0.64521662778E+01  0.24103094347E+03  0.24283759314E+03  0.00000000000E+00 0. -1.
         22    1    3    3    0    0 -0.32702891008E+02 -0.95797961067E+01  0.80995797885E+02  0.87872469230E+02  0.00000000000E+00 0. -1.
         22    1    3    3    0    0  0.36573803426E+02  0.56560484162E+02 -0.18971901134E+01  0.67381976789E+02  0.00000000000E+00 0. -1.
</event>
<event>
 7    1  0.5452757E-006  0.1984260E+03  0.7818608E-02  0.1238130E+00
          2   -1    0    0  502    0  0.00000000000E+00  0.00000000000E+00  0.88505094705E+03  0.88505094705E+03  0.00000000000E+00 0. -1.
          1   -1    0    0  501    0 -0.00000000000E+00 -0.00000000000E+00 -0.68050610520E+03  0.68050610520E+03  0.00000000000E+00 0. -1.
         25    2    1    2    0    0 -0.13871601101E+03  0.10163600779E+03  0.98711253108E+02  0.23439520781E+03  0.12500076867E+03 0.  0.
          2    1    1    2  501    0  0.10749042961E+03 -0.17127729760E+03 -0.59384692023E+03  0.62733106874E+03  0.00000000000E+00 0. -1.
          1    1    1    2  502    0  0.31225581398E+02  0.69641289817E+02  0.69968050898E+03  0.70383077570E+03  0.00000000000E+00 0. -1.
         22    1    3    3    0    0 -0.97017956012E+02  0.67071370557E+01  0.86211649578E+02  0.12996121729E+03  0.00000000000E+00 0.  1.
         22    1    3    3    0    0 -0.41698054995E+02  0.94928870730E+02  0.12499603530E+02  0.10443399052E+03  0.00000000000E+00 0.  1.
</event>
<event>
 7    1  0.5452757E-006  0.8982685E+02  0.7818608E-02  0.1334832E+00
          2   -1    0    0  502    0  0.00000000000E+00  0.00000000000E+00  0.63887946950E+03  0.63887946950E+03  0.00000000000E+00 0. -1.
          1   -1    0    0  501    0 -0.00000000000E+00 -0.00000000000E+00 -0.71885511934E+03  0.71885511934E+03  0.00000000000E+00 0. -1.
         25    2    1    2    0    0 -0.15536831095E+02 -0.16707664928E+02  0.27194663720E+03  0.30016895603E+03  0.12500355793E+03 0.  0.
          2    1    1    2  501    0  0.58606842322E+02  0.68974536512E+02 -0.69854703407E+03  0.70438640494E+03  0.00000000000E+00 0. -1.
          1    1    1    2  502    0 -0.43070011227E+02 -0.52266871584E+02  0.34662474704E+03  0.35317922786E+03  0.00000000000E+00 0. -1.
         22    1    3    3    0    0  0.40872679795E+02  0.16975014907E+02  0.19025785409E+03  0.19533760040E+03  0.00000000000E+00 0. -1.
         22    1    3    3    0    0 -0.56409510890E+02 -0.33682679835E+02  0.81688783106E+02  0.10483135564E+03  0.00000000000E+00 0. -1.
</event>
<event>
 7    1  0.5452757E-006  0.8793843E+02  0.7818608E-02  0.1331312E+00
          2   -1    0    0  502    0  0.00000000000E+00  0.00000000000E+00  0.29962495314E+03  0.29962495314E+03  0.00000000000E+00 0. -1.
          1   -1    0    0  501    0 -0.00000000000E+00 -0.00000000000E+00 -0.10335447090E+04  0.10335447090E+04  0.00000000000E+00 0. -1.
         25    2    1    2    0    0 -0.72297807756E+01  0.22918993326E+02 -0.98435247840E+02  0.16091563575E+03  0.12500717510E+03 0.  0.
          2    1    1    2  501    0 -0.56895257882E+02  0.43048471365E+02 -0.89452301447E+03  0.89736373042E+03  0.00000000000E+00 0. -1.
          1    1    1    2  502    0  0.64125038658E+02 -0.65967464691E+02  0.25903850646E+03  0.27489029595E+03  0.00000000000E+00 0. -1.
         22    1    3    3    0    0  0.19704982749E+02 -0.47722945397E+02 -0.37477006526E+02  0.63798839179E+02  0.00000000000E+00 0.  1.
         22    1    3    3    0    0 -0.26934763525E+02  0.70641938723E+02 -0.60958241314E+02  0.97116796574E+02  0.00000000000E+00 0.  1.
</event>
<event>
 7    1  0.5452757E-006  0.1383727E+03  0.7818608E-02  0.1221144E+00
          2   -1    0    0  502    0  0.00000000000E+00  0.00000000000E+00  0.86609533933E+03  0.86609533933E+03  0.00000000000E+00 0. -1.
          1   -1    0    0  501    0 -0.00000000000E+00 -0.00000000000E+00 -0.31671889613E+03  0.31671889613E+03  0.00000000000E+00 0. -1.
         25    2    1    2    0    0  0.17518716663E+02  0.75790648925E+02  0.13789840105E+03  0.20172341996E+03  0.12500096500E+03 0.  0.
          2    1    1    2  501    0  0.12083612051E+03 -0.73568345006E+02 -0.25973493431E+03  0.29576325923E+03  0.00000000000E+00 0. -1.
          1    1    1    2  502    0 -0.13835483718E+03 -0.22223039186E+01  0.67121297647E+03  0.68532755627E+03  0.00000000000E+00 0. -1.
         22    1    3    3    0    0 -0.27589125804E+02 -0.24692624186E+02  0.32223427447E+02  0.49083956933E+02  0.00000000000E+00 0. -1.
         22    1    3    3    0    0  0.45107842467E+02  0.10048327311E+03  0.10567497360E+03  0.15263946303E+03  0.00000000000E+00 0. -1.
</event>
<event>
 7    1  0.5452757E-006  0.2252412E+03  0.7818608E-02  0.1300625E+00
          2   -1    0    0  502    0  0.00000000000E+00  0.00000000000E+00  0.24259564051E+04  0.24259564051E+04  0.00000000000E+00 0. -1.
          1   -1    0    0  501    0 -0.00000000000E+00 -0.00000000000E+00 -0.20951772820E+04  0.20951772820E+04  0.00000000000E+00 0. -1.
         25    2    1    2    0    0 -0.39699504286E+02 -0.24931819807E+03 -0.13118930327E+04  0.13417981582E+04  0.12499341364E+03 0.  0.
          2    1    1    2  501    0 -0.18346593673E+02  0.31791066185E+02 -0.76263348916E+03  0.76351627892E+03  0.00000000000E+00 0. -1.
          1    1    1    2  502    0  0.58046097959E+02  0.21752713188E+03  0.24053056450E+04  0.24158192500E+04  0.00000000000E+00 0. -1.
         22    1    3    3    0    0 -0.49015021128E+02 -0.74936254282E+02 -0.69226659882E+03  0.69803363697E+03  0.00000000000E+00 0. -1.
         22    1    3    3    0    0  0.93155168421E+01 -0.17438194379E+03 -0.61962643392E+03  0.64376452122E+03  0.00000000000E+00 0. -1.
</event>
<event>
 7    1  0.5452757E-006  0.1482797E+03  0.7818608E-02  0.1269676E+00
          2   -1    0    0  502    0  0.00000000000E+00  0.00000000000E+00  0.13444611024E+04  0.13444611024E+04  0.00000000000E+00 0. -1.
          1   -1    0    0  501    0 -0.00000000000E+00 -0.00000000000E+00 -0.27442422829E+03  0.27442422829E+03  0.00000000000E+00 0. -1.
         25    2    1    2    0    0 -0.25000162583E+01 -0.76687417730E+02 -0.76042041900E+02  0.16520976953E+03  0.12499866277E+03 0.  0.
          2    1    1    2  501    0  0.96241258115E+01 -0.74049468639E+02 -0.14005555685E+03  0.15871832474E+03  0.00000000000E+00 0. -1.
          1    1    1    2  502    0 -0.71241095533E+01  0.15073688637E+03  0.12861344729E+04  0.12949572364E+04  0.00000000000E+00 0. -1.
         22    1    3    3    0    0 -0.60569601406E+02 -0.31191030601E+02 -0.57487071469E+02  0.89142135887E+02  0.00000000000E+00 0. -1.
         22    1    3    3    0    0  0.58069585148E+02 -0.45496387130E+02 -0.18554970430E+02  0.76067633648E+02  0.00000000000E+00 0. -1.
</event>
<event>
 7    1  0.5452757E-006  0.8460714E+02  0.7818608E-02  0.1471057E+00
          2   -1    0    0  502    0  0.00000000000E+00  0.00000000000E+00  0.32322119265E+04  0.32322119265E+04  0.00000000000E+00 0. -1.
          1   -1    0    0  501    0 -0.00000000000E+00 -0.00000000000E+00 -0.90983947983E+03  0.90983947983E+03  0.00000000000E+00 0. -1.
         25    2    1    2    0    0  0.29844012465E+02 -0.10344533311E+03  0.38357768118E+03  0.41755081679E+03  0.12500098033E+03 0.  0.
          2    1    1    2  501    0 -0.11262318264E+02  0.21759934269E+02 -0.89206507918E+03  0.89240150159E+03  0.00000000000E+00 0. -1.
          1    1    1    2  502    0 -0.18581694200E+02  0.81685398841E+02  0.28308598447E+04  0.28320990880E+04  0.00000000000E+00 0. -1.
         22    1    3    3    0    0  0.25987251436E+02  0.13633247377E+02  0.18246117606E+03  0.18480606981E+03  0.00000000000E+00 0. -1.
         22    1    3    3    0    0  0.38567610288E+01 -0.11707858049E+03  0.20111650512E+03  0.23274474698E+03  0.00000000000E+00 0. -1.
</event>
<event>
 7    1  0.5452757E-006  0.6185786E+02  0.7818608E-02  0.1471549E+00
          2   -1    0    0  502    0  0.00000000000E+00  0.00000000000E+00  0.46215689200E+03  0.46215689200E+03  0.00000000000E+00 0. -1.
          1   -1    0    0  501    0 -0.00000000000E+00 -0.00000000000E+00 -0.18899035687E+03  0.18899035687E+03  0.00000000000E+00 0. -1.
         25    2    1    2    0    0 -0.23276021587E+02  0.89825502965E+02  0.29382623037E+02  0.15842316149E+03  0.12499666154E+03 0.  0.
          2    1    1    2  501    0  0.16989800535E+02 -0.57027496011E+02 -0.11654186343E+03  0.13085409644E+03  0.00000000000E+00 0. -1.
          1    1    1    2  502    0  0.62862210517E+01 -0.32798006953E+02  0.36032577552E+03  0.36186999094E+03  0.00000000000E+00 0. -1.
         22    1    3    3    0    0  0.35665170557E+02  0.49770195575E+02 -0.27615604067E+02  0.67169177057E+02  0.00000000000E+00 0. -1.
         22    1    3    3    0    0 -0.58941192144E+02  0.40055307389E+02  0.56998227104E+02  0.91253984430E+02  0.00000000000E+00 0. -1.
</event>
<event>
 7    1  0.9071813E-006  0.1474604E+03  0.7818608E-02  0.1253461E+00
          2   -1    0    0  502    0  0.00000000000E+00  0.00000000000E+00  0.75097248157E+03  0.75097248157E+03  0.00000000000E+00 0. -1.
          1   -1    0    0  501    0 -0.00000000000E+00 -0.00000000000E+00 -0.17427503611E+04  0.17427503611E+04  0.00000000000E+00 0. -1.
         25    2    1    2    0    0  0.56154086846E+02 -0.28287351852E+02 -0.17551089935E+03  0.22446337490E+03  0.12500510044E+03 0.  0.
          2    1    1    2  501    0  0.75124633024E+02 -0.45873207320E+02 -0.15336645240E+04  0.15361884435E+04  0.00000000000E+00 0. -1.
          1    1    1    2  502    0 -0.13127871987E+03  0.74160559173E+02  0.71739754382E+03  0.73307102432E+03  0.00000000000E+00 0. -1.
         22    1    3    3    0    0 -0.37976650954E+02  0.30985324405E+01 -0.30765299059E+02  0.48972753110E+02  0.00000000000E+00 0. -1.
         22    1    3    3    0    0  0.94130737800E+02 -0.31385884293E+02 -0.14474560029E+03  0.17549062179E+03  0.00000000000E+00 0. -1.
</event>
<event>
 7    1  0.5452757E-006  0.7992758E+02  0.7818608E-02  0.1359040E+00
          2   -1    0    0  502    0  0.00000000000E+00  0.00000000000E+00  0.18002498745E+04  0.18002498745E+04  0.00000000000E+00 0. -1.
          1   -1    0    0  501    0 -0.00000000000E+00 -0.00000000000E+00 -0.50540015490E+02  0.50540015490E+02  0.00000000000E+00 0. -1.
         25    2    1    2    0    0 -0.52897055232E+02 -0.11465452903E+02  0.40483325869E+03  0.42713640388E+03  0.12500394040E+03 0.  0.
          2    1    1    2  501    0 -0.17142589511E+02  0.59427657719E+02 -0.12936770740E+02  0.63189199348E+02  0.00000000000E+00 0. -1.
          1    1    1    2  502    0  0.70039644743E+02 -0.47962204816E+02  0.13578133710E+04  0.13604642867E+04  0.00000000000E+00 0. -1.
         22    1    3    3    0    0 -0.79147366371E+02 -0.46561320911E+02  0.25527181012E+03  0.27128575203E+03  0.00000000000E+00 0.  1.
         22    1    3    3    0    0  0.26250311139E+02  0.35095868008E+02  0.14956144856E+03  0.15585065185E+03  0.00000000000E+00 0.  1.
</event>
<event>
 7    1  0.5452757E-006  0.5574122E+02  0.7818608E-02  0.1533997E+00
          2   -1    0    0  502    0  0.00000000000E+00  0.00000000000E+00  0.11330110687E+04  0.11330110687E+04  0.00000000000E+00 0. -1.
          1   -1    0    0  501    0 -0.00000000000E+00 -0.00000000000E+00 -0.99738878047E+02  0.99738878047E+02  0.00000000000E+00 0. -1.
         25    2    1    2    0    0 -0.55328070107E+02 -0.32153333314E+02  0.54530932647E+03  0.56310080301E+03  0.12500088252E+03 0.  0.
          2    1    1    2  501    0  0.81030634126E+00  0.24150469416E+02 -0.87897514327E+02  0.91158514656E+02  0.00000000000E+00 0. -1.
          1    1    1    2  502    0  0.54517763766E+02  0.80028638985E+01  0.57586037855E+03  0.57849062912E+03  0.00000000000E+00 0. -1.
         22    1    3    3    0    0 -0.50807895442E+01 -0.56717176230E+02  0.44173366339E+03  0.44538891081E+03  0.00000000000E+00 0.  1.
         22    1    3    3    0    0 -0.50247280563E+02  0.24563842915E+02  0.10357566308E+03  0.11771189220E+03  0.00000000000E+00 0.  1.
</event>
<event>
 7    1  0.5452757E-006  0.1696227E+03  0.7818608E-02  0.1297333E+00
          2   -1    0    0  502    0  0.00000000000E+00  0.00000000000E+00  0.12613855111E+04  0.12613855111E+04  0.00000000000E+00 0. -1.
          1   -1    0    0  501    0 -0.00000000000E+00 -0.00000000000E+00 -0.12617149930E+04  0.12617149930E+04  0.00000000000E+00 0. -1.
         25    2    1    2    0    0  0.20409470424E+03  0.38791169806E+02  0.11191561244E+03  0.26703824601E+03  0.12499966949E+03 0.  0.
          2    1    1    2  501    0 -0.15795593775E+03 -0.58684106787E+02 -0.11775640186E+04  0.11895591286E+04  0.00000000000E+00 0. -1.
          1    1    1    2  502    0 -0.46138766481E+02  0.19892936981E+02  0.10653189243E+04  0.10665031294E+04  0.00000000000E+00 0. -1.
         22    1    3    3    0    0  0.11434616476E+03 -0.40959061690E+02  0.67975435499E+02  0.13918818183E+03  0.00000000000E+00 0. -1.
         22    1    3    3    0    0  0.89748539477E+02  0.79750231496E+02  0.43940176936E+02  0.12785006418E+03  0.00000000000E+00 0. -1.
</event>
<event>
 7    1  0.5452757E-006  0.9103902E+02  0.7818608E-02  0.1375963E+00
          2   -1    0    0  502    0  0.00000000000E+00  0.00000000000E+00  0.17791263093E+04  0.17791263093E+04  0.00000000000E+00 0. -1.
          1   -1    0    0  501    0 -0.00000000000E+00 -0.00000000000E+00 -0.50958831830E+03  0.50958831830E+03  0.00000000000E+00 0. -1.
         25    2    1    2    0    0  0.69719163012E+02  0.11818245604E+02  0.22032061270E+03  0.26299523828E+03  0.12499956144E+03 0.  0.
          2    1    1    2  501    0 -0.70035302225E+02 -0.58995773135E+02 -0.48359125419E+03  0.49218486968E+03  0.00000000000E+00 0. -1.
          1    1    1    2  502    0  0.31613921274E+00  0.47177527531E+02  0.15328086325E+04  0.15335345197E+04  0.00000000000E+00 0. -1.
         22    1    3    3    0    0 -0.13129886205E+01 -0.49639688957E+02  0.73685600603E+02  0.88856009336E+02  0.00000000000E+00 0. -1.
         22    1    3    3    0    0  0.71032151632E+02  0.61457934561E+02  0.14663501209E+03  0.17413922895E+03  0.00000000000E+00 0. -1.
</event>
<event>
 7    1  0.5452757E-006  0.9604932E+02  0.7818608E-02  0.1394734E+00
          2   -1    0    0  502    0  0.00000000000E+00  0.00000000000E+00  0.34850928698E+03  0.34850928698E+03  0.00000000000E+00 0. -1.
          1   -1    0    0  501    0 -0.00000000000E+00 -0.00000000000E+00 -0.75770157060E+03  0.75770157060E+03  0.00000000000E+00 0. -1.
         25    2    1    2    0    0 -0.11998683663E+03  0.42869257920E+02 -0.17517620724E+03  0.25009192174E+03  0.12499860598E+03 0.  0.
          2    1    1    2  501    0  0.81598643984E+02 -0.44345547025E+02 -0.53990141791E+03  0.54783063743E+03  0.00000000000E+00 0. -1.
          1    1    1    2  502    0  0.38388192647E+02  0.14762891047E+01  0.30588534154E+03  0.30828829841E+03  0.00000000000E+00 0. -1.
         22    1    3    3    0    0 -0.66688888599E+02  0.18126187021E+02 -0.17832335574E+03  0.19124640054E+03  0.00000000000E+00 0. -1.
         22    1    3    3    0    0 -0.53297948032E+02  0.24743070899E+02  0.31471484923E+01  0.58845521202E+02  0.00000000000E+00 0. -1.
</event>
<event>
 7    1  0.5452757E-006  0.1743764E+03  0.7818608E-02  0.1246356E+00
          2   -1    0    0  502    0  0.00000000000E+00  0.00000000000E+00  0.37766993703E+04  0.37766993703E+04  0.00000000000E+00 0. -1.
          1   -1    0    0  501    0 -0.00000000000E+00 -0.00000000000E+00 -0.56742445328E+02  0.56742445328E+02  0.00000000000E+00 0. -1.
         25    2    1    2    0    0 -0.11875531194E+03  0.89302773377E+02  0.49657128011E+03  0.53318274131E+03  0.12499195958E+03 0.  0.
          2    1    1    2  501    0  0.37019518095E+02  0.70820566192E+02  0.85140270251E+01  0.80364706009E+02  0.00000000000E+00 0. -1.
          1    1    1    2  502    0  0.81735793840E+02 -0.16012333957E+03  0.32148716179E+04  0.32198943683E+04  0.00000000000E+00 0. -1.
         22    1    3    3    0    0 -0.78986129732E+02 -0.25715907145E+01  0.12118575499E+03  0.14467691240E+03  0.00000000000E+00 0. -1.
         22    1    3    3    0    0 -0.39769182203E+02  0.91874364091E+02  0.37538552512E+03  0.38850582891E+03  0.00000000000E+00 0. -1.
</event>
<event>
 7    1  0.7193605E-006  0.8245292E+02  0.7818608E-02  0.1345377E+00
          2   -1    0    0  502    0  0.00000000000E+00  0.00000000000E+00  0.23263312896E+04  0.23263312896E+04  0.00000000000E+00 0. -1.
          1   -1    0    0  501    0 -0.00000000000E+00 -0.00000000000E+00 -0.74713040257E+03  0.74713040257E+03  0.00000000000E+00 0. -1.
         25    2    1    2    0    0 -0.14279735798E+03  0.40707552950E+02 -0.12794789402E+03  0.23247345296E+03  0.12500020974E+03 0.  0.
          2    1    1    2  501    0  0.61810755357E+02 -0.26729333025E+02 -0.56417406955E+03  0.56817902766E+03  0.00000000000E+00 0. -1.
          1    1    1    2  502    0  0.80986602624E+02 -0.13978219925E+02  0.22713228506E+04  0.22728092116E+04  0.00000000000E+00 0. -1.
         22    1    3    3    0    0 -0.74282315061E+02  0.39214042347E+00 -0.13350890845E+03  0.15278299886E+03  0.00000000000E+00 0.  1.
         22    1    3    3    0    0 -0.68515042920E+02  0.40315412526E+02  0.55610144304E+01  0.79690454102E+02  0.00000000000E+00 0.  1.
</event>
<event>
 7    1  0.5452757E-006  0.1248086E+03  0.7818608E-02  0.1239819E+00
          2   -1    0    0  502    0  0.00000000000E+00  0.00000000000E+00  0.88834604725E+03  0.88834604725E+03  0.00000000000E+00 0. -1.
          1   -1    0    0  501    0 -0.00000000000E+00 -0.00000000000E+00 -0.62549479349E+03  0.62549479349E+03  0.00000000000E+00 0. -1.
         25    2    1    2    0    0 -0.18065901096E+02 -0.71323978558E+02  0.49451091408E+02  0.15324275135E+03  0.12499777479E+03 0.  0.
          2    1    1    2  501    0 -0.10665898256E+03  0.66754292079E+02 -0.56164552471E+03  0.57556751949E+03  0.00000000000E+00 0. -1.
          1    1    1    2  502    0  0.12472488366E+03  0.45696864787E+01  0.77504568706E+03  0.78503056990E+03  0.00000000000E+00 0. -1.
         22    1    3    3    0    0 -0.16453647707E+02 -0.61787445638E+02  0.90645601733E+02  0.11092806712E+03  0.00000000000E+00 0. -1.
         22    1    3    3    0    0 -0.16122533889E+01 -0.95365329196E+01 -0.41194510324E+02  0.42314684236E+02  0.00000000000E+00 0. -1.
</event>
<event>
 7    1  0.5452757E-006  0.9350517E+02  0.7818608E-02  0.1341130E+00
          2   -1    0    0  502    0  0.00000000000E+00  0.00000000000E+00  0.97127887064E+02  0.97127887064E+02  0.00000000000E+00 0. -1.
          1   -1    0    0  501    0 -0.00000000000E+00 -0.00000000000E+00 -0.19994777040E+04  0.19994777040E+04  0.00000000000E+00 0. -1.
         25    2    1    2    0    0 -0.63831161330E+01 -0.91640325766E+02 -0.17602194662E+03  0.23462160927E+03  0.12499952146E+03 0.  0.
          2    1    1    2  501    0 -0.53615335116E+02  0.77698588786E+02 -0.17786567223E+04  0.17811601306E+04  0.00000000000E+00 0. -1.
          1    1    1    2  502    0  0.59998451249E+02  0.13941736980E+02  0.52328851982E+02  0.80823851257E+02  0.00000000000E+00 0. -1.
         22    1    3    3    0    0 -0.62225458597E+02 -0.60925779835E+02 -0.12803048991E+03  0.15484109497E+03  0.00000000000E+00 0. -1.
         22    1    3    3    0    0  0.55842342464E+02 -0.30714545931E+02 -0.47991456713E+02  0.79780514294E+02  0.00000000000E+00 0. -1.
</event>
<event>
 7    1  0.5452757E-006  0.1183492E+03  0.7818608E-02  0.1374501E+00
          2   -1    0    0  502    0  0.00000000000E+00  0.00000000000E+00  0.86852106671E+03  0.86852106671E+03  0.00000000000E+00 0. -1.
          1   -1    0    0  501    0 -0.00000000000E+00 -0.00000000000E+00 -0.23205147666E+03  0.23205147666E+03  0.00000000000E+00 0. -1.
         25    2    1    2    0    0 -0.10624360865E+03  0.58255985442E+02  0.34748345359E+03  0.38865387416E+03  0.12500247664E+03 0.  0.
          2    1    1    2  501    0  0.81811074568E+02 -0.85681551686E+02 -0.19412250540E+03  0.22741575874E+03  0.00000000000E+00 0. -1.
          1    1    1    2  502    0  0.24432534086E+02  0.27425566244E+02  0.48310864186E+03  0.48450291046E+03  0.00000000000E+00 0. -1.
         22    1    3    3    0    0 -0.10946739097E+03  0.49296863502E+02  0.15558656639E+03  0.19652091512E+03  0.00000000000E+00 0.  1.
         22    1    3    3    0    0  0.32237823119E+01  0.89591219395E+01  0.19189688719E+03  0.19213295905E+03  0.00000000000E+00 0.  1.
</event>
<event>
 7    1  0.5452757E-006  0.2315682E+03  0.7818608E-02  0.1202340E+00
          2   -1    0    0  502    0  0.00000000000E+00  0.00000000000E+00  0.44097192842E+03  0.44097192842E+03  0.00000000000E+00 0. -1.
          1   -1    0    0  501    0 -0.00000000000E+00 -0.00000000000E+00 -0.20063286972E+04  0.20063286972E+04  0.00000000000E+00 0. -1.
         25    2    1    2    0    0  0.88038135841E+02  0.11118028997E+03  0.29804163480E+03  0.35293861544E+03  0.12500031982E+03 0.  0.
          2    1    1    2  501    0 -0.11779982977E+03 -0.20162777849E+03 -0.19510307867E+04  0.19649559007E+04  0.00000000000E+00 0. -1.
          1    1    1    2  502    0  0.29761693934E+02  0.90447488523E+02  0.87632383117E+02  0.12940610950E+03  0.00000000000E+00 0. -1.
         22    1    3    3    0    0  0.42879406809E+02  0.75300438556E+01  0.19554844225E+03  0.20033606354E+03  0.00000000000E+00 0.  1.
         22    1    3    3    0    0  0.45158729032E+02  0.10365024612E+03  0.10249319255E+03  0.15260255190E+03  0.00000000000E+00 0.  1.
</event>
<event>
 7    1  0.5452757E-006  0.7260468E+02  0.7818608E-02  0.1380576E+00
          2   -1    0    0  502    0  0.00000000000E+00  0.00000000000E+00  0.51490222991E+03  0.51490222991E+03  0.00000000000E+00 0. -1.
          1   -1    0    0  501    0 -0.00000000000E+00 -0.00000000000E+00 -0.10021452785E+04  0.10021452785E+04  0.00000000000E+00 0. -1.
         25    2    1    2    0    0  0.10732222869E+03  0.31151929678E+02  0.24429728675E+02  0.16944173606E+03  0.12500074712E+03 0.  0.
          2    1    1    2  501    0 -0.71061581976E+02  0.12785032490E+02 -0.92628672259E+03  0.92909649549E+03  0.00000000000E+00 0. -1.
          1    1    1    2  502    0 -0.36260646712E+02 -0.43936962168E+02  0.41461394534E+03  0.41850927685E+03  0.00000000000E+00 0. -1.
         22    1    3    3    0    0  0.29107009123E+02  0.79729023307E+01 -0.50398373077E+02  0.58743349925E+02  0.00000000000E+00 0.  1.
         22    1    3    3    0    0  0.78215219565E+02  0.23179027348E+02  0.74828101751E+02  0.11069838613E+03  0.00000000000E+00 0.  1.
</event>
<event>
 7    1  0.5452757E-006  0.9818809E+02  0.7818608E-02  0.1355413E+00
          2   -1    0    0  502    0  0.00000000000E+00  0.00000000000E+00  0.17802663333E+04  0.17802663333E+04  0.00000000000E+00 0. -1.
          1   -1    0    0  501    0 -0.00000000000E+00 -0.00000000000E+00 -0.25627874018E+03  0.25627874018E+03  0.00000000000E+00 0. -1.
         25    2    1    2    0    0 -0.12345828620E+03 -0.19925374402E+02  0.16974356587E+03  0.24510483804E+03  0.12499813800E+03 0.  0.
          2    1    1    2  501    0  0.82397952014E+02  0.51689750456E+02 -0.20732501171E+03  0.22900854412E+03  0.00000000000E+00 0. -1.
          1    1    1    2  502    0  0.41060334186E+02 -0.31764376054E+02  0.15615690390E+04  0.15624316913E+04  0.00000000000E+00 0. -1.
         22    1    3    3    0    0 -0.76248779652E+02 -0.49663188320E+02  0.16585115035E+03  0.18917429198E+03  0.00000000000E+00 0. -1.
         22    1    3    3    0    0 -0.47209506547E+02  0.29737813918E+02  0.38924155212E+01  0.55930546070E+02  0.00000000000E+00 0. -1.
</event>
<event>
 7    1  0.5452757E-006  0.2213608E+03  0.7818608E-02  0.1173924E+00
          2   -1    0    0  502    0  0.00000000000E+00  0.00000000000E+00  0.40737304757E+04  0.40737304757E+04  0.00000000000E+00 0. -1.
          1   -1    0    0  501    0 -0.00000000000E+00 -0.00000000000E+00 -0.57123549943E+03  0.57123549943E+03  0.00000000000E+00 0. -1.
         25    2    1    2    0    0 -0.77943163704E+02 -0.52989620569E+02  0.36162505018E+03  0.39405432376E+03  0.12499238579E+03 0.  0.
          2    1    1    2  501    0  0.20478513811E+03  0.10338425410E+03 -0.52999415953E+03  0.57751109593E+03  0.00000000000E+00 0. -1.
          1    1    1    2  502    0 -0.12684197441E+03 -0.50394633526E+02  0.36708640856E+04  0.36734005555E+04  0.00000000000E+00 0. -1.
         22    1    3    3    0    0 -0.74445360033E+02  0.17860928964E+02  0.12095370682E+03  0.14314651099E+03  0.00000000000E+00 0.  1.
         22    1    3    3    0    0 -0.34978036715E+01 -0.70850549534E+02  0.24067134336E+03  0.25090781278E+03  0.00000000000E+00 0.  1.
</event>
<event>
 7    1  0.5452757E-006  0.6020489E+02  0.7818608E-02  0.1519003E+00
          2   -1    0    0  502    0  0.00000000000E+00  0.00000000000E+00  0.61982739777E+03  0.61982739777E+03  0.00000000000E+00 0. -1.
          1   -1    0    0  501    0 -0.00000000000E+00 -0.00000000000E+00 -0.83156445879E+02  0.83156445879E+02  0.00000000000E+00 0. -1.
         25    2    1    2    0    0  0.39499172236E+02 -0.54587849855E+02  0.36751540661E+03  0.39398888491E+03  0.12497859567E+03 0.  0.
          2    1    1    2  501    0 -0.50571144684E+02  0.32496953527E+02 -0.56198192015E+02  0.82290518585E+02  0.00000000000E+00 0. -1.
          1    1    1    2  502    0  0.11071972449E+02  0.22090896328E+02  0.22535373730E+03  0.22670444016E+03  0.00000000000E+00 0. -1.
         22    1    3    3    0    0  0.48438792055E+02  0.80991890125E+01  0.49494575166E+02  0.69725364174E+02  0.00000000000E+00 0. -1.
         22    1    3    3    0    0 -0.89396198195E+01 -0.62687038867E+02  0.31802083145E+03  0.32426352073E+03  0.00000000000E+00 0. -1.
</event>
<event>
 7    1  0.5452757E-006  0.7218002E+02  0.7818608E-02  0.1365601E+00
          2   -1    0    0  502    0  0.00000000000E+00  0.00000000000E+00  0.30579192379E+03  0.30579192379E+03  0.00000000000E+00 0. -1.
          1   -1    0    0  501    0 -0.00000000000E+00 -0.00000000000E+00 -0.11893911221E+04  0.11893911221E+04  0.00000000000E+00 0. -1.
         25    2    1    2    0    0  0.68908460711E+02 -0.11007820563E+03 -0.23587136157E+03  0.29686006066E+03  0.12500003638E+03 0.  0.
          2    1    1    2  501    0 -0.50931091332E+02  0.47792251857E+02 -0.91786366753E+03  0.92051713051E+03  0.00000000000E+00 0. -1.
          1    1    1    2  502    0 -0.17977369379E+02  0.62285953775E+02  0.27013583078E+03  0.27780585472E+03  0.00000000000E+00 0. -1.
         22    1    3    3    0    0  0.34030096240E+02 -0.34135639733E+02 -0.17073931040E+01  0.48230742699E+02  0.00000000000E+00 0.  1.
         22    1    3    3    0    0  0.34878364471E+02 -0.75942565900E+02 -0.23416396846E+03  0.24862931796E+03  0.00000000000E+00 0.  1.
</event>
<event>
 7    1  0.5452757E-006  0.1609796E+03  0.7818608E-02  0.1253349E+00
          2   -1    0    0  502    0  0.00000000000E+00  0.00000000000E+00  0.40248080893E+03  0.40248080893E+03  0.00000000000E+00 0. -1.
          1   -1    0    0  501    0 -0.00000000000E+00 -0.00000000000E+00 -0.93037750365E+03  0.93037750365E+03  0.00000000000E+00 0. -1.
         25    2    1    2    0    0  0.87430751703E+02 -0.51218156775E+02 -0.15355050281E+03  0.22242276677E+03  0.12500677717E+03 0.  0.
          2    1    1    2  501    0 -0.14298001643E+03  0.10978530984E+03 -0.72681767103E+03  0.74883911909E+03  0.00000000000E+00 0. -1.
          1    1    1    2  502    0  0.55549264732E+02 -0.58567153062E+02  0.35247147911E+03  0.36159642672E+03  0.00000000000E+00 0. -1.
         22    1    3    3    0    0  0.11780475811E+03 -0.44846999772E+02 -0.14049375577E+03  0.18875303927E+03  0.00000000000E+00 0.  1.
         22    1    3    3    0    0 -0.30374006410E+02 -0.63711570037E+01 -0.13056747040E+02  0.33669727505E+02  0.00000000000E+00 0.  1.
</event>
<event>
 7    1  0.5452757E-006  0.1159517E+03  0.7818608E-02  0.1342228E+00
          2   -1    0    0  502    0  0.00000000000E+00  0.00000000000E+00  0.34101072954E+04  0.34101072954E+04  0.00000000000E+00 0. -1.
          1   -1    0    0  501    0 -0.00000000000E+00 -0.00000000000E+00 -0.13786842086E+02  0.13786842086E+02  0.00000000000E+00 0. -1.
         25    2    1    2    0    0  0.10160565981E+03  0.40786158750E+02  0.81191250556E+03  0.82874283191E+03  0.12500217559E+03 0.  0.
          2    1    1    2  501    0 -0.19842994750E+02  0.45025018495E+02  0.15008707880E+03  0.15794659842E+03  0.00000000000E+00 0. -1.
          1    1    1    2  502    0 -0.81762665064E+02 -0.85811177245E+02  0.24343208690E+04  0.24372047072E+04  0.00000000000E+00 0. -1.
         22    1    3    3    0    0  0.10444688767E+03  0.75812456872E+02  0.58021878823E+03  0.59439929608E+03  0.00000000000E+00 0.  1.
         22    1    3    3    0    0 -0.28412278599E+01 -0.35026298122E+02  0.23169371733E+03  0.23434353583E+03  0.00000000000E+00 0.  1.
</event>
<event>
 7    1  0.5452757E-006  0.9029857E+02  0.7818608E-02  0.1361582E+00
          2   -1    0    0  502    0  0.00000000000E+00  0.00000000000E+00  0.56980800745E+03  0.56980800745E+03  0.00000000000E+00 0. -1.
          1   -1    0    0  501    0 -0.00000000000E+00 -0.00000000000E+00 -0.21245984672E+04  0.21245984672E+04  0.00000000000E+00 0. -1.
         25    2    1    2    0    0  0.12750658211E+03 -0.54128843974E+02 -0.27921790837E+03  0.33582165315E+03  0.12500272855E+03 0.  0.
          2    1    1    2  501    0 -0.53483879642E+02  0.33815709551E+01 -0.18129613891E+04  0.18137532795E+04  0.00000000000E+00 0. -1.
          1    1    1    2  502    0 -0.74022702464E+02  0.50747273019E+02  0.53738883776E+03  0.54483154199E+03  0.00000000000E+00 0. -1.
         22    1    3    3    0    0  0.27234016959E+01 -0.60442545552E+02 -0.74315926217E+02  0.95830971607E+02  0.00000000000E+00 0. -1.
         22    1    3    3    0    0  0.12478318041E+03  0.63137015774E+01 -0.20490198215E+03  0.23999068155E+03  0.00000000000E+00 0. -1.
</event>
<event>
 7    1  0.5452757E-006  0.3372677E+02  0.7818608E-02  0.1572646E+00
          2   -1    0    0  502    0  0.00000000000E+00  0.00000000000E+00  0.15493972045E+04  0.15493972045E+04  0.00000000000E+00 0. -1.
          1   -1    0    0  501    0 -0.00000000000E+00 -0.00000000000E+00 -0.31128329150E+03  0.31128329150E+03  0.00000000000E+00 0. -1.
         25    2    1    2    0    0  0.16094796302E+02 -0.62737472105E+02  0.18360332348E+03  0.23136496153E+03  0.12499812861E+03 0.  0.
          2    1    1    2  501    0 -0.85355155890E+01  0.32477022821E+02 -0.28623961469E+03  0.28820258336E+03  0.00000000000E+00 0. -1.
          1    1    1    2  502    0 -0.75592807131E+01  0.30260449284E+02  0.13407502042E+04  0.13411129511E+04  0.00000000000E+00 0. -1.
         22    1    3    3    0    0 -0.43726425242E+02 -0.35499212424E+02  0.28958758642E+02  0.63330909115E+02  0.00000000000E+00 0.  1.
         22    1    3    3    0    0  0.59821221544E+02 -0.27238259681E+02  0.15464456484E+03  0.16803405241E+03  0.00000000000E+00 0.  1.
</event>
<event>
 7    1  0.5452757E-006  0.9056596E+02  0.7818608E-02  0.1356768E+00
          2   -1    0    0  502    0  0.00000000000E+00  0.00000000000E+00  0.12547424807E+04  0.12547424807E+04  0.00000000000E+00 0. -1.
          1   -1    0    0  501    0 -0.00000000000E+00 -0.00000000000E+00 -0.97112491411E+02  0.97112491411E+02  0.00000000000E+00 0. -1.
         25    2    1    2    0    0  0.52826126536E+02  0.73857807395E+02  0.69681206339E+03  0.71373566311E+03  0.12500387898E+03 0.  0.
          2    1    1    2  501    0  0.37443094663E+02 -0.41157316279E+02 -0.75213585512E+02  0.93557434054E+02  0.00000000000E+00 0. -1.
          1    1    1    2  502    0 -0.90269221199E+02 -0.32700491116E+02  0.53603151146E+03  0.54456187500E+03  0.00000000000E+00 0. -1.
         22    1    3    3    0    0  0.11597919601E+02  0.58262197285E+02  0.63524074374E+03  0.63801238067E+03  0.00000000000E+00 0. -1.
         22    1    3    3    0    0  0.41228206934E+02  0.15595610110E+02  0.61571319640E+02  0.75723282443E+02  0.00000000000E+00 0. -1.
</event>
<event>
 7    1  0.5452757E-006  0.1302173E+03  0.7818608E-02  0.1264392E+00
          2   -1    0    0  502    0  0.00000000000E+00  0.00000000000E+00  0.32214245605E+03  0.32214245605E+03  0.00000000000E+00 0. -1.
          1   -1    0    0  501    0 -0.00000000000E+00 -0.00000000000E+00 -0.14156943270E+04  0.14156943270E+04  0.00000000000E+00 0. -1.
         25    2    1    2    0    0  0.50419955683E+02  0.25391527981E+02  0.77337306491E+02  0.15745736954E+03  0.12499945049E+03 0.  0.
          2    1    1    2  501    0 -0.69307687331E+02 -0.11288537169E+03 -0.13624835431E+04  0.13689076185E+04  0.00000000000E+00 0. -1.
          1    1    1    2  502    0  0.18887731648E+02  0.87493843706E+02  0.19159436572E+03  0.21147179498E+03  0.00000000000E+00 0. -1.
         22    1    3    3    0    0  0.73355157840E+02  0.15572624907E+02 -0.12547867524E+01  0.75000402119E+02  0.00000000000E+00 0. -1.
         22    1    3    3    0    0 -0.22935202157E+02  0.98189030745E+01  0.78592093243E+02  0.82456967419E+02  0.00000000000E+00 0. -1.
</event>
<event>
 7    1  0.5452757E-006  0.5564507E+02  0.7818608E-02  0.1430555E+00
          2   -1    0    0  502    0  0.00000000000E+00  0.00000000000E+00  0.15826607758E+03  0.15826607758E+03  0.00000000000E+00 0. -1.
          1   -1    0    0  501    0 -0.00000000000E+00 -0.00000000000E+00 -0.84853147765E+03  0.84853147765E+03  0.00000000000E+00 0. -1.
         25    2    1    2    0    0 -0.33691811873E+01 -0.65346829726E+01 -0.75941781341E+01  0.12544622671E+03  0.12500012316E+03 0.  0.
          2    1    1    2  501    0 -0.15885506870E+01  0.56482093769E+02 -0.77457564129E+03  0.77663387416E+03  0.00000000000E+00 0. -1.
          1    1    1    2  502    0  0.49577318743E+01 -0.49947410796E+02  0.91904419353E+02  0.10471745436E+03  0.00000000000E+00 0. -1.
         22    1    3    3    0    0  0.40778254671E+02 -0.48221813277E+02  0.52959584573E+01  0.63373941851E+02  0.00000000000E+00 0. -1.
         22    1    3    3    0    0 -0.44147435858E+02  0.41687130305E+02 -0.12890136591E+02  0.62072284856E+02  0.00000000000E+00 0. -1.
</event>
<event>
 7    1  0.5452757E-006  0.2183055E+03  0.7818608E-02  0.1367741E+00
          2   -1    0    0  502    0  0.00000000000E+00  0.00000000000E+00  0.44339253601E+03  0.44339253601E+03  0.00000000000E+00 0. -1.
          1   -1    0    0  501    0 -0.00000000000E+00 -0.00000000000E+00 -0.43620657560E+03  0.43620657560E+03  0.00000000000E+00 0. -1.
         25    2    1    2    0    0  0.22232108344E+03  0.79148216872E+02  0.13663498820E+03  0.29997406694E+03  0.12499686579E+03 0.  0.
          2    1    1    2  501    0 -0.20135273769E+03 -0.77224149336E+02 -0.32111321078E+03  0.38680768911E+03  0.00000000000E+00 0. -1.
          1    1    1    2  502    0 -0.20968345751E+02 -0.19240675362E+01  0.19166418300E+03  0.19281735555E+03  0.00000000000E+00 0. -1.
         22    1    3    3    0    0  0.13989195569E+03  0.82150875361E+02  0.14431990021E+03  0.21713304489E+03  0.00000000000E+00 0.  1.
         22    1    3    3    0    0  0.82429127756E+02 -0.30026584887E+01 -0.76849120105E+01  0.82841022043E+02  0.00000000000E+00 0.  1.
</event>
<event>
 7    1  0.5452757E-006  0.6903360E+02  0.7818608E-02  0.1431359E+00
          2   -1    0    0  502    0  0.00000000000E+00  0.00000000000E+00  0.34570908943E+03  0.34570908943E+03  0.00000000000E+00 0. -1.
          1   -1    0    0  501    0 -0.00000000000E+00 -0.00000000000E+00 -0.99220210319E+03  0.99220210319E+03  0.00000000000E+00 0. -1.
         25    2    1    2    0    0  0.23383184353E+02  0.57291727038E+02 -0.89879130765E+02  0.16592666816E+03  0.12499714301E+03 0.  0.
          2    1    1    2  501    0 -0.58557663843E+02 -0.37802321391E+02 -0.86157191983E+03  0.86438659669E+03  0.00000000000E+00 0. -1.
          1    1    1    2  502    0  0.35174479489E+02 -0.19489405647E+02  0.30495803684E+03  0.30759792777E+03  0.00000000000E+00 0. -1.
         22    1    3    3    0    0  0.88589094736E+00 -0.29558328928E+02  0.10423107018E+02  0.31354756764E+02  0.00000000000E+00 0.  1.
         22    1    3    3    0    0  0.22497293406E+02  0.86850055966E+02 -0.10030223778E+03  0.13457191139E+03  0.00000000000E+00 0.  1.
</event>
<event>
 7    1  0.5452757E-006  0.9286012E+02  0.7818608E-02  0.1332873E+00
          2   -1    0    0  502    0  0.00000000000E+00  0.00000000000E+00  0.10587776810E+04  0.10587776810E+04  0.00000000000E+00 0. -1.
          1   -1    0    0  501    0 -0.00000000000E+00 -0.00000000000E+00 -0.95032674133E+03  0.95032674133E+03  0.00000000000E+00 0. -1.
         25    2    1    2    0    0 -0.14673043068E+03 -0.36702996723E+02 -0.19595088546E+01  0.19622860530E+03  0.12499958644E+03 0.  0.
          2    1    1    2  501    0  0.55059693255E+02  0.37551038304E+02 -0.84773700600E+03  0.85035268074E+03  0.00000000000E+00 0. -1.
          1    1    1    2  502    0  0.91670737422E+02 -0.84804158067E+00  0.95814745451E+03  0.96252313627E+03  0.00000000000E+00 0. -1.
         22    1    3    3    0    0 -0.12012837207E+03  0.29340199379E+02 -0.12350914499E+02  0.12427476882E+03  0.00000000000E+00 0.  1.
         22    1    3    3    0    0 -0.26602058605E+02 -0.66043196102E+02  0.10391405644E+02  0.71953836483E+02  0.00000000000E+00 0.  1.
</event>
<event>
 7    1  0.5452757E-006  0.7889526E+02  0.7818608E-02  0.1364999E+00
          2   -1    0    0  502    0  0.00000000000E+00  0.00000000000E+00  0.12273258394E+04  0.12273258394E+04  0.00000000000E+00 0. -1.
          1   -1    0    0  501    0 -0.00000000000E+00 -0.00000000000E+00 -0.23643520336E+04  0.23643520336E+04  0.00000000000E+00 0. -1.
         25    2    1    2    0    0 -0.88726322865E+02  0.77235030251E+02  0.19078106774E+03  0.25663257259E+03  0.12500100497E+03 0.  0.
          2    1    1    2  501    0  0.59369963181E+02 -0.53306627983E+01 -0.23295418814E+04  0.23303043976E+04  0.00000000000E+00 0. -1.
          1    1    1    2  502    0  0.29356359684E+02 -0.71904367453E+02  0.10017346194E+04  0.10047409028E+04  0.00000000000E+00 0. -1.
         22    1    3    3    0    0 -0.11896498428E+03  0.49852064020E+02  0.12768711408E+03  0.18149902169E+03  0.00000000000E+00 0. -1.
         22    1    3    3    0    0  0.30238661414E+02  0.27382966231E+02  0.63093953658E+02  0.75133550907E+02  0.00000000000E+00 0. -1.
</event>
<event>
 7    1  0.5452757E-006  0.8310061E+02  0.7818608E-02  0.1329953E+00
          2   -1    0    0  502    0  0.00000000000E+00  0.00000000000E+00  0.16857753888E+02  0.16857753888E+02  0.00000000000E+00 0. -1.
          1   -1    0    0  501    0 -0.00000000000E+00 -0.00000000000E+00 -0.17629629677E+04  0.17629629677E+04  0.00000000000E+00 0. -1.
         25    2    1    2    0    0  0.18581072078E+02 -0.11745108985E+03 -0.10046331485E+04  0.10193403957E+04  0.12500825828E+03 0.  0.
          2    1    1    2  501    0 -0.58748005267E+02  0.48852946794E+02 -0.51108453411E+03  0.51676429785E+03  0.00000000000E+00 0. -1.
          1    1    1    2  502    0  0.40166933188E+02  0.68598143060E+02 -0.23038753127E+03  0.24371602803E+03  0.00000000000E+00 0. -1.
         22    1    3    3    0    0  0.49764745704E+02 -0.19806326071E+01 -0.39100563694E+03  0.39416476370E+03  0.00000000000E+00 0. -1.
         22    1    3    3    0    0 -0.31183673626E+02 -0.11547045725E+03 -0.61362751153E+03  0.62517563205E+03  0.00000000000E+00 0. -1.
</event>
<event>
 7    1  0.5452757E-006  0.7764351E+02  0.7818608E-02  0.1337617E+00
          2   -1    0    0  502    0  0.00000000000E+00  0.00000000000E+00  0.34894394415E+04  0.34894394415E+04  0.00000000000E+00 0. -1.
          1   -1    0    0  501    0 -0.00000000000E+00 -0.00000000000E+00 -0.33736438406E+03  0.33736438406E+03  0.00000000000E+00 0. -1.
         25    2    1    2    0    0 -0.31881357233E+01  0.80892112976E+00  0.14730017538E+04  0.14782996636E+04  0.12499964054E+03 0.  0.
          2    1    1    2  501    0  0.16339601823E+02 -0.76144487563E+02 -0.32944793175E+03  0.33852755472E+03  0.00000000000E+00 0. -1.
          1    1    1    2  502    0 -0.13151466099E+02  0.75335566434E+02  0.20085212354E+04  0.20099766073E+04  0.00000000000E+00 0. -1.
         22    1    3    3    0    0 -0.50216696175E+02 -0.31787030859E+02  0.48249388485E+03  0.48614039209E+03  0.00000000000E+00 0. -1.
         22    1    3    3    0    0  0.47028560452E+02  0.32595951989E+02  0.99050786893E+03  0.99215927149E+03  0.00000000000E+00 0. -1.
</event>
<event>
 7    1  0.5452757E-006  0.1761588E+03  0.7818608E-02  0.1246814E+00
          2   -1    0    0  502    0  0.00000000000E+00  0.00000000000E+00  0.38245447472E+03  0.38245447472E+03  0.00000000000E+00 0. -1.
          1   -1    0    0  501    0 -0.00000000000E+00 -0.00000000000E+00 -0.19301356650E+04  0.19301356650E+04  0.00000000000E+00 0. -1.
         25    2    1    2    0    0 -0.23425283725E+03  0.92347464550E+02 -0.63200465981E+03  0.69170588064E+03  0.12499875728E+03 0.  0.
          2    1    1    2  501    0  0.75923493277E+02 -0.20874132056E+02 -0.12455659448E+04  0.12480523343E+04  0.00000000000E+00 0. -1.
          1    1    1    2  502    0  0.15832934398E+03 -0.71473332494E+02  0.32988941436E+03  0.37283192477E+03  0.00000000000E+00 0. -1.
         22    1    3    3    0    0 -0.80722252164E+02 -0.26694657011E+02 -0.23020223051E+03  0.24540120953E+03  0.00000000000E+00 0.  1.
         22    1    3    3    0    0 -0.15353058509E+03  0.11904212156E+03 -0.40180242929E+03  0.44630467111E+03  0.00000000000E+00 0.  1.
</event>
<event>
 7    1  0.5452757E-006  0.8245545E+02  0.7818608E-02  0.1389814E+00
          2   -1    0    0  502    0  0.00000000000E+00  0.00000000000E+00  0.36264235978E+03  0.36264235978E+03  0.00000000000E+00 0. -1.
          1   -1    0    0  501    0 -0.00000000000E+00 -0.00000000000E+00 -0.14861802870E+04  0.14861802870E+04  0.00000000000E+00 0. -1.
         25    2    1    2    0    0 -0.41796470043E+02  0.74096947612E+02 -0.17149463488E+03  0.22863216527E+03  0.12499981859E+03 0.  0.
          2    1    1    2  501    0  0.45761351057E+02  0.85231577077E+01 -0.12805675514E+04  0.12814132820E+04  0.00000000000E+00 0. -1.
          1    1    1    2  502    0 -0.39648810133E+01 -0.82620105320E+02  0.32852425911E+03  0.33877719951E+03  0.00000000000E+00 0. -1.
         22    1    3    3    0    0 -0.52582553235E+02 -0.14627564184E+02 -0.32933488453E+02  0.63745628872E+02  0.00000000000E+00 0.  1.
         22    1    3    3    0    0  0.10786083192E+02  0.88724511796E+02 -0.13856114643E+03  0.16488653639E+03  0.00000000000E+00 0.  1.
</event>
<event>
 7    1  0.5452757E-006  0.6526205E+02  0.7818608E-02  0.1415228E+00
          2   -1    0    0  502    0  0.00000000000E+00  0.00000000000E+00  0.13646575326E+03  0.13646575326E+03  0.00000000000E+00 0. -1.
          1   -1    0    0  501    0 -0.00000000000E+00 -0.00000000000E+00 -0.19511890409E+04  0.19511890409E+04  0.00000000000E+00 0. -1.
         25    2    1    2    0    0 -0.18500296042E+02  0.16524060995E+02 -0.16755417320E+03  0.21050981588E+03  0.12499870430E+03 0.  0.
          2    1    1    2  501    0  0.16125286571E+02 -0.64592285097E+02 -0.17564629290E+04  0.17577241562E+04  0.00000000000E+00 0. -1.
          1    1    1    2  502    0  0.23750094706E+01  0.48068224103E+02  0.10929381461E+03  0.11942082209E+03  0.00000000000E+00 0. -1.
         22    1    3    3    0    0 -0.96871693214E+01  0.57245981993E+02 -0.15719806124E+03  0.16757736769E+03  0.00000000000E+00 0.  1.
         22    1    3    3    0    0 -0.88131267207E+01 -0.40721920998E+02 -0.10356111962E+02  0.42932448187E+02  0.00000000000E+00 0.  1.
</event>
<event>
 7    1  0.5452757E-006  0.1145451E+03  0.7818608E-02  0.1284786E+00
          2   -1    0    0  502    0  0.00000000000E+00  0.00000000000E+00  0.24249483146E+04  0.24249483146E+04  0.00000000000E+00 0. -1.
          1   -1    0    0  501    0 -0.00000000000E+00 -0.00000000000E+00 -0.43495087719E+03  0.43495087719E+03  0.00000000000E+00 0. -1.
         25    2    1    2    0    0  0.15208193991E+03 -0.48124109555E+02  0.12240205532E+03  0.23675324768E+03  0.12499996308E+03 0.  0.
          2    1    1    2  501    0 -0.40892915258E+02  0.72990288857E+02 -0.37167685070E+03  0.38097702573E+03  0.00000000000E+00 0. -1.
          1    1    1    2  502    0 -0.11118902465E+03 -0.24866179303E+02  0.22392722328E+04  0.22421689184E+04  0.00000000000E+00 0. -1.
         22    1    3    3    0    0  0.71809866420E+02 -0.59991531211E+01 -0.13575259506E+02  0.73327582969E+02  0.00000000000E+00 0. -1.
         22    1    3    3    0    0  0.80272073493E+02 -0.42124956433E+02  0.13597731483E+03  0.16342566471E+03  0.00000000000E+00 0. -1.
</event>
<event>
 7    1  0.5452757E-006  0.1681431E+03  0.7818608E-02  0.1217497E+00
          2   -1    0    0  502    0  0.00000000000E+00  0.00000000000E+00  0.16236583425E+04  0.16236583425E+04  0.00000000000E+00 0. -1.
          1   -1    0    0  501    0 -0.00000000000E+00 -0.00000000000E+00 -0.26297265099E+04  0.26297265099E+04  0.00000000000E+00 0. -1.
         25    2    1    2    0    0 -0.23730587788E+03 -0.81923688827E+02 -0.47912244078E+03  0.55516583351E+03  0.12500087588E+03 0.  0.
          2    1    1    2  501    0  0.10860907973E+03 -0.25394296765E+02 -0.21066756818E+04  0.21096263250E+04  0.00000000000E+00 0. -1.
          1    1    1    2  502    0  0.12869679815E+03  0.10731798559E+03  0.15797299552E+04  0.15885926939E+04  0.00000000000E+00 0. -1.
         22    1    3    3    0    0 -0.14034899387E+03  0.17652640381E+02 -0.24406203332E+03  0.28209170832E+03  0.00000000000E+00 0.  1.
         22    1    3    3    0    0 -0.96956884008E+02 -0.99576329208E+02 -0.23506040746E+03  0.27307412519E+03  0.00000000000E+00 0.  1.
</event>
<event>
 7    1  0.5452757E-006  0.1647191E+03  0.7818608E-02  0.1333078E+00
          2   -1    0    0  502    0  0.00000000000E+00  0.00000000000E+00  0.34691198246E+03  0.34691198246E+03  0.00000000000E+00 0. -1.
          1   -1    0    0  501    0 -0.00000000000E+00 -0.00000000000E+00 -0.11693876329E+04  0.11693876329E+04  0.00000000000E+00 0. -1.
         25    2    1    2    0    0  0.17376836078E+03 -0.39682109772E+02 -0.24208239545E+03  0.32557302133E+03  0.12499517185E+03 0.  0.
          2    1    1    2  501    0 -0.14830816037E+03  0.67219894261E+02 -0.87688358668E+03  0.89187367335E+03  0.00000000000E+00 0. -1.
          1    1    1    2  502    0 -0.25460200407E+02 -0.27537784488E+02  0.29649033173E+03  0.29885292066E+03  0.00000000000E+00 0. -1.
         22    1    3    3    0    0  0.14331256175E+03 -0.81133837622E+02 -0.20026376125E+03  0.25928124505E+03  0.00000000000E+00 0.  1.
         22    1    3    3    0    0  0.30455799031E+02  0.41451727850E+02 -0.41818634201E+02  0.66291776283E+02  0.00000000000E+00 0.  1.
</event>
<event>
 7    1  0.5452757E-006  0.8469645E+02  0.7818608E-02  0.1498377E+00
          2   -1    0    0  502    0  0.00000000000E+00  0.00000000000E+00  0.15425829685E+03  0.15425829685E+03  0.00000000000E+00 0. -1.
          1   -1    0    0  501    0 -0.00000000000E+00 -0.00000000000E+00 -0.14936514529E+04  0.14936514529E+04  0.00000000000E+00 0. -1.
         25    2    1    2    0    0  0.54129891621E+02 -0.87988613155E+02 -0.37651519951E+03  0.40995161288E+03  0.12499835291E+03 0.  0.
          2    1    1    2  501    0 -0.53554037347E+01  0.19482931802E+02 -0.10874610245E+04  0.10876487231E+04  0.00000000000E+00 0. -1.
          1    1    1    2  502    0 -0.48774487887E+02  0.68505681352E+02  0.12458306798E+03  0.15030941379E+03  0.00000000000E+00 0. -1.
         22    1    3    3    0    0 -0.20537500440E+01  0.25240238899E+02 -0.13504093986E+03  0.13739484338E+03  0.00000000000E+00 0.  1.
         22    1    3    3    0    0  0.56183641665E+02 -0.11322885205E+03 -0.24147425965E+03  0.27255676950E+03  0.00000000000E+00 0.  1.
</event>
<event>
 7    1  0.5452757E-006  0.7442814E+02  0.7818608E-02  0.1439819E+00
          2   -1    0    0  502    0  0.00000000000E+00  0.00000000000E+00  0.76003114806E+03  0.76003114806E+03  0.00000000000E+00 0. -1.
          1   -1    0    0  501    0 -0.00000000000E+00 -0.00000000000E+00 -0.29075927275E+04  0.29075927275E+04  0.00000000000E+00 0. -1.
         25    2    1    2    0    0  0.50136269517E+02 -0.10392382940E+02 -0.53450555030E+03  0.55131009158E+03  0.12499994652E+03 0.  0.
          2    1    1    2  501    0 -0.63268929610E+02  0.42834483526E+02 -0.23636598506E+04  0.23648944247E+04  0.00000000000E+00 0. -1.
          1    1    1    2  502    0  0.13132660093E+02 -0.32442100587E+02  0.75060382150E+03  0.75141935928E+03  0.00000000000E+00 0. -1.
         22    1    3    3    0    0 -0.26483160041E+02 -0.32187925898E+02 -0.31599497966E+03  0.31873225050E+03  0.00000000000E+00 0. -1.
         22    1    3    3    0    0  0.76619429557E+02  0.21795542958E+02 -0.21851057064E+03  0.23257784108E+03  0.00000000000E+00 0. -1.
</event>
<event>
 7    1  0.5452757E-006  0.7255900E+02  0.7818608E-02  0.1377347E+00
          2   -1    0    0  502    0  0.00000000000E+00  0.00000000000E+00  0.96145988540E+02  0.96145988540E+02  0.00000000000E+00 0. -1.
          1   -1    0    0  501    0 -0.00000000000E+00 -0.00000000000E+00 -0.69068037934E+03  0.69068037934E+03  0.00000000000E+00 0. -1.
         25    2    1    2    0    0 -0.48904649735E+02 -0.35409028270E+02 -0.36634565905E+03  0.39176291445E+03  0.12499430062E+03 0.  0.
          2    1    1    2  501    0  0.44086982422E+02 -0.38493570496E+02 -0.29169214673E+03  0.29750584104E+03  0.00000000000E+00 0. -1.
          1    1    1    2  502    0  0.48176673127E+01  0.73902598766E+02  0.63503414974E+02  0.97557612394E+02  0.00000000000E+00 0. -1.
         22    1    3    3    0    0  0.27771242670E+02 -0.34898040417E+02 -0.53471376588E+02  0.69629758427E+02  0.00000000000E+00 0.  1.
         22    1    3    3    0    0 -0.76675892405E+02 -0.51098785290E+00 -0.31287428246E+03  0.32213315602E+03  0.00000000000E+00 0.  1.
</event>
<event>
 7    1  0.5452757E-006  0.5039142E+02  0.7818608E-02  0.1445504E+00
          2   -1    0    0  502    0  0.00000000000E+00  0.00000000000E+00  0.74896794753E+02  0.74896794753E+02  0.00000000000E+00 0. -1.
          1   -1    0    0  501    0 -0.00000000000E+00 -0.00000000000E+00 -0.12382397879E+04  0.12382397879E+04  0.00000000000E+00 0. -1.
         25    2    1    2    0    0 -0.79548709079E+00  0.89589369168E+02 -0.81784762787E+03  0.83218287069E+03  0.12500679977E+03 0.  0.
          2    1    1    2  501    0  0.22143139232E+02 -0.44328997709E+02 -0.40224848295E+03  0.40528905819E+03  0.00000000000E+00 0. -1.
          1    1    1    2  502    0 -0.21347652141E+02 -0.45260371459E+02  0.56753117631E+02  0.75664653818E+02  0.00000000000E+00 0. -1.
         22    1    3    3    0    0 -0.45883425391E+02  0.94943526241E+02 -0.49093541979E+03  0.50213260032E+03  0.00000000000E+00 0. -1.
         22    1    3    3    0    0  0.45087938300E+02 -0.53541570733E+01 -0.32691220807E+03  0.33005027036E+03  0.00000000000E+00 0. -1.
</event>
<event>
 7    1  0.5452757E-006  0.1163777E+03  0.7818608E-02  0.1405891E+00
          2   -1    0    0  502    0  0.00000000000E+00  0.00000000000E+00  0.89276586796E+03  0.89276586796E+03  0.00000000000E+00 0. -1.
          1   -1    0    0  501    0 -0.00000000000E+00 -0.00000000000E+00 -0.64286470906E+03  0.64286470906E+03  0.00000000000E+00 0. -1.
         25    2    1    2    0    0 -0.72808679008E+02  0.49609151194E+02  0.19508191070E+03  0.24787904964E+03  0.12499959898E+03 0.  0.
          2    1    1    2  501    0  0.97758988530E+02 -0.64442291290E+02 -0.61058711859E+03  0.62171235965E+03  0.00000000000E+00 0. -1.
          1    1    1    2  502    0 -0.24950309521E+02  0.14833140096E+02  0.66540636679E+03  0.66603916773E+03  0.00000000000E+00 0. -1.
         22    1    3    3    0    0 -0.81227033349E+01  0.54556586919E+02  0.16035282838E+02  0.57441533592E+02  0.00000000000E+00 0. -1.
         22    1    3    3    0    0 -0.64685975673E+02 -0.49474357251E+01  0.17904662786E+03  0.19043751605E+03  0.00000000000E+00 0. -1.
</event>
<event>
 7    1  0.5452757E-006  0.4545507E+02  0.7818608E-02  0.1504862E+00
          2   -1    0    0  502    0  0.00000000000E+00  0.00000000000E+00  0.24069150859E+03  0.24069150859E+03  0.00000000000E+00 0. -1.
          1   -1    0    0  501    0 -0.00000000000E+00 -0.00000000000E+00 -0.28224617572E+03  0.28224617572E+03  0.00000000000E+00 0. -1.
         25    2    1    2    0    0 -0.42420027824E+01 -0.36659841634E+02  0.77492687623E+02  0.15162729178E+03  0.12499512151E+03 0.  0.
          2    1    1    2  501    0 -0.31606630089E+02  0.33235505319E+02 -0.24039541526E+03  0.24473155407E+03  0.00000000000E+00 0. -1.
          1    1    1    2  502    0  0.35848632871E+02  0.34243363149E+01  0.12134806050E+03  0.12657883846E+03  0.00000000000E+00 0. -1.
         22    1    3    3    0    0 -0.22601101506E+02 -0.19328585650E+02  0.10800465487E+03  0.11202414689E+03  0.00000000000E+00 0. -1.
         22    1    3    3    0    0  0.18359098724E+02 -0.17331255984E+02 -0.30511967247E+02  0.39603144890E+02  0.00000000000E+00 0. -1.
</event>
<event>
 7    1  0.5452757E-006  0.7318178E+02  0.7818608E-02  0.1355560E+00
          2   -1    0    0  502    0  0.00000000000E+00  0.00000000000E+00  0.59077777968E+02  0.59077777968E+02  0.00000000000E+00 0. -1.
          1   -1    0    0  501    0 -0.00000000000E+00 -0.00000000000E+00 -0.85584653510E+03  0.85584653510E+03  0.00000000000E+00 0. -1.
         25    2    1    2    0    0  0.60094036151E+02  0.48523777336E+01 -0.18427531670E+03  0.23069002074E+03  0.12500261827E+03 0.  0.
          2    1    1    2  501    0 -0.18714299646E+02 -0.70748483449E+02 -0.60116481618E+03  0.60560276513E+03  0.00000000000E+00 0. -1.
          1    1    1    2  502    0 -0.41379736506E+02  0.65896105715E+02 -0.11328624254E+02  0.78631527196E+02  0.00000000000E+00 0. -1.
         22    1    3    3    0    0 -0.34205655039E+02 -0.11103846347E+02 -0.21507547207E+02  0.41903422619E+02  0.00000000000E+00 0. -1.
         22    1    3    3    0    0  0.94299691190E+02  0.15956224081E+02 -0.16276776949E+03  0.18878659812E+03  0.00000000000E+00 0. -1.
</event>
<event>
 7    1  0.5452757E-006  0.3910235E+02  0.7818608E-02  0.1515650E+00
          2   -1    0    0  502    0  0.00000000000E+00  0.00000000000E+00  0.16909992797E+04  0.16909992797E+04  0.00000000000E+00 0. -1.
          1   -1    0    0  501    0 -0.00000000000E+00 -0.00000000000E+00 -0.15481976294E+03  0.15481976294E+03  0.00000000000E+00 0. -1.
         25    2    1    2    0    0  0.41603666134E+02 -0.63131233672E+02  0.91853349245E+01  0.14637397914E+03  0.12499821475E+03 0.  0.
          2    1    1    2  501    0 -0.28606610239E+02  0.26377341773E+02 -0.81587268931E+02  0.90391286970E+02  0.00000000000E+00 0. -1.
          1    1    1    2  502    0 -0.12997055894E+02  0.36753891898E+02  0.16085814507E+04  0.16090537765E+04  0.00000000000E+00 0. -1.
         22    1    3    3    0    0 -0.22399659781E+02 -0.29637736053E+02 -0.43322071190E+02  0.57069624222E+02  0.00000000000E+00 0. -1.
         22    1    3    3    0    0  0.64003325915E+02 -0.33493497619E+02  0.52507406115E+02  0.89304354921E+02  0.00000000000E+00 0. -1.
</event>
<event>
 7    1  0.5452757E-006  0.6223567E+02  0.7818608E-02  0.1427704E+00
          2   -1    0    0  502    0  0.00000000000E+00  0.00000000000E+00  0.24257119041E+04  0.24257119041E+04  0.00000000000E+00 0. -1.
          1   -1    0    0  501    0 -0.00000000000E+00 -0.00000000000E+00 -0.27691890188E+03  0.27691890188E+03  0.00000000000E+00 0. -1.
         25    2    1    2    0    0 -0.93059206030E+02  0.23794855812E+02  0.18638740998E+03  0.24411389418E+03  0.12500046297E+03 0.  0.
          2    1    1    2  501    0  0.49231357078E+02 -0.37293340991E+02 -0.24396927301E+03  0.25166550414E+03  0.00000000000E+00 0. -1.
          1    1    1    2  502    0  0.43827848951E+02  0.13498485179E+02  0.22063748653E+04  0.22068514077E+04  0.00000000000E+00 0. -1.
         22    1    3    3    0    0  0.10792855765E+02  0.46886563111E+02  0.36899757460E+02  0.60633552070E+02  0.00000000000E+00 0. -1.
         22    1    3    3    0    0 -0.10385206179E+03 -0.23091707300E+02  0.14948765252E+03  0.18348034211E+03  0.00000000000E+00 0. -1.
</event>
<event>
 7    1  0.5452757E-006  0.1119464E+03  0.7818608E-02  0.1383480E+00
          2   -1    0    0  502    0  0.00000000000E+00  0.00000000000E+00  0.42037178032E+03  0.42037178032E+03  0.00000000000E+00 0. -1.
          1   -1    0    0  501    0 -0.00000000000E+00 -0.00000000000E+00 -0.48740990576E+03  0.48740990576E+03  0.00000000000E+00 0. -1.
         25    2    1    2    0    0 -0.72929678128E+02 -0.10158384932E+03 -0.38909514280E+00  0.17680384730E+03  0.12498572971E+03 0.  0.
          2    1    1    2  501    0  0.35950424770E+02 -0.31162755429E+01 -0.38867454170E+03  0.39034605619E+03  0.00000000000E+00 0. -1.
          1    1    1    2  502    0  0.36979253358E+02  0.10470012486E+03  0.32202551140E+03  0.34063178260E+03  0.00000000000E+00 0. -1.
         22    1    3    3    0    0 -0.59503032075E+02 -0.13125692994E+03  0.22040780267E+01  0.14413136523E+03  0.00000000000E+00 0. -1.
         22    1    3    3    0    0 -0.13426646053E+02  0.29673080617E+02 -0.25931731695E+01  0.32672482071E+02  0.00000000000E+00 0. -1.
</event>
<event>
 7    1  0.5452757E-006  0.1352930E+03  0.7818608E-02  0.1384606E+00
          2   -1    0    0  502    0  0.00000000000E+00  0.00000000000E+00  0.74481795466E+03  0.74481795466E+03  0.00000000000E+00 0. -1.
          1   -1    0    0  501    0 -0.00000000000E+00 -0.00000000000E+00 -0.14018194534E+03  0.14018194534E+03  0.00000000000E+00 0. -1.
         25    2    1    2    0    0  0.14146433607E+03 -0.38624831530E+02  0.33782854063E+03  0.38891900437E+03  0.12500333239E+03 0.  0.
          2    1    1    2  501    0 -0.23402966209E+02 -0.18101965160E+02 -0.10121161711E+03  0.10544748175E+03  0.00000000000E+00 0. -1.
          1    1    1    2  502    0 -0.11806136986E+03  0.56726796689E+02  0.36801908580E+03  0.39063341387E+03  0.00000000000E+00 0. -1.
         22    1    3    3    0    0  0.64223433620E+02 -0.81593608772E+02  0.16895596590E+03  0.19831360224E+03  0.00000000000E+00 0. -1.
         22    1    3    3    0    0  0.77240902445E+02  0.42968777242E+02  0.16887257473E+03  0.19060540214E+03  0.00000000000E+00 0. -1.
</event>
<event>
 7    1  0.5452757E-006  0.8046998E+02  0.7818608E-02  0.1474566E+00
          2   -1    0    0  502    0  0.00000000000E+00  0.00000000000E+00  0.90777900655E+03  0.90777900655E+03  0.00000000000E+00 0. -1.
          1   -1    0    0  501    0 -0.00000000000E+00 -0.00000000000E+00 -0.60244904859E+03  0.60244904859E+03  0.00000000000E+00 0. -1.
         25    2    1    2    0    0 -0.67594407842E+02  0.29422543108E+01 -0.13939292286E+03  0.19907498104E+03  0.12499120090E+03 0.  0.
          2    1    1    2  501    0 -0.10564962093E+02 -0.22795218158E+02 -0.43099669361E+03  0.43172837560E+03  0.00000000000E+00 0. -1.
          1    1    1    2  502    0  0.78159369935E+02  0.19852963847E+02  0.87571957443E+03  0.87942469849E+03  0.00000000000E+00 0. -1.
         22    1    3    3    0    0 -0.60962213904E+02 -0.59611523605E+01 -0.20533209112E+01  0.61287380335E+02  0.00000000000E+00 0.  1.
         22    1    3    3    0    0 -0.66321939377E+01  0.89034066713E+01 -0.13733960195E+03  0.13778760071E+03  0.00000000000E+00 0.  1.
</event>
<event>
 7    1  0.5452757E-006  0.4007834E+03  0.7818608E-02  0.1195905E+00
          2   -1    0    0  502    0  0.00000000000E+00  0.00000000000E+00  0.14058231040E+04  0.14058231040E+04  0.00000000000E+00 0. -1.
          1   -1    0    0  501    0 -0.00000000000E+00 -0.00000000000E+00 -0.38415529987E+03  0.38415529987E+03  0.00000000000E+00 0. -1.
         25    2    1    2    0    0  0.23859942438E+03 -0.32471375636E+03  0.38905001215E+03  0.57389355879E+03  0.12500078396E+03 0.  0.
          2    1    1    2  501    0 -0.50912979647E+02 -0.29821768462E+02 -0.24453591251E+03  0.25155373557E+03  0.00000000000E+00 0. -1.
          1    1    1    2  502    0 -0.18768644473E+03  0.35453552482E+03  0.87715370450E+03  0.96453110951E+03  0.00000000000E+00 0. -1.
         22    1    3    3    0    0  0.19923931264E+03 -0.31959778148E+03  0.37582798570E+03  0.53205800479E+03  0.00000000000E+00 0.  1.
         22    1    3    3    0    0  0.39360111738E+02 -0.51159748767E+01  0.13222026442E+02  0.41835553997E+02  0.00000000000E+00 0.  1.
</event>
<event>
 7    1  0.5452757E-006  0.1086359E+03  0.7818608E-02  0.1458111E+00
          2   -1    0    0  502    0  0.00000000000E+00  0.00000000000E+00  0.70761773146E+02  0.70761773146E+02  0.00000000000E+00 0. -1.
          1   -1    0    0  501    0 -0.00000000000E+00 -0.00000000000E+00 -0.51654294304E+03  0.51654294304E+03  0.00000000000E+00 0. -1.
         25    2    1    2    0    0 -0.87038569323E+02 -0.37595365097E+02 -0.20682486233E+03  0.25959456780E+03  0.12499476759E+03 0.  0.
          2    1    1    2  501    0 -0.20695475165E+02  0.32638485987E+01 -0.20992875827E+03  0.21097165438E+03  0.00000000000E+00 0. -1.
          1    1    1    2  502    0  0.10773404449E+03  0.34331516498E+02 -0.29027549288E+02  0.11673849401E+03  0.00000000000E+00 0. -1.
         22    1    3    3    0    0 -0.94742845684E+02 -0.59508774989E+02 -0.20816633172E+03  0.23632757513E+03  0.00000000000E+00 0. -1.
         22    1    3    3    0    0  0.77042763605E+01  0.21913409893E+02  0.13414693850E+01  0.23266992661E+02  0.00000000000E+00 0. -1.
</event>
<event>
 7    1  0.5452757E-006  0.4617053E+02  0.7818608E-02  0.1532594E+00
          2   -1    0    0  502    0  0.00000000000E+00  0.00000000000E+00  0.12434876857E+04  0.12434876857E+04  0.00000000000E+00 0. -1.
          1   -1    0    0  501    0 -0.00000000000E+00 -0.00000000000E+00 -0.31960495917E+03  0.31960495917E+03  0.00000000000E+00 0. -1.
         25    2    1    2    0    0 -0.22833337140E+02 -0.29869485119E+02  0.26581058539E+02  0.13321102069E+03  0.12500030374E+03 0.  0.
          2    1    1    2  501    0 -0.14084760975E+01  0.46579599382E+02 -0.26406317246E+03  0.26814362184E+03  0.00000000000E+00 0. -1.
          1    1    1    2  502    0  0.24241813237E+02 -0.16710114264E+02  0.11613648404E+04  0.11617380023E+04  0.00000000000E+00 0. -1.
         22    1    3    3    0    0  0.16131707039E+02 -0.80363728907E+01  0.69179850808E+02  0.71488929346E+02  0.00000000000E+00 0. -1.
         22    1    3    3    0    0 -0.38965044179E+02 -0.21833112228E+02 -0.42598792269E+02  0.61722091347E+02  0.00000000000E+00 0. -1.
</event>
<event>
 7    1  0.5452757E-006  0.9050567E+02  0.7818608E-02  0.1409907E+00
          2   -1    0    0  502    0  0.00000000000E+00  0.00000000000E+00  0.23198567973E+04  0.23198567973E+04  0.00000000000E+00 0. -1.
          1   -1    0    0  501    0 -0.00000000000E+00 -0.00000000000E+00 -0.11348024371E+03  0.11348024371E+03  0.00000000000E+00 0. -1.
         25    2    1    2    0    0 -0.62078195809E+02 -0.91260388750E+01  0.26478889137E+03  0.29945781244E+03  0.12499934982E+03 0.  0.
          2    1    1    2  501    0  0.92246405567E+02 -0.10825930284E+02 -0.73514529441E+02  0.11845246365E+03  0.00000000000E+00 0. -1.
          1    1    1    2  502    0 -0.30168209758E+02  0.19951969159E+02  0.20151021917E+04  0.20154267649E+04  0.00000000000E+00 0. -1.
         22    1    3    3    0    0  0.38378544301E+02 -0.34148569138E+01  0.87465517560E+02  0.95576098856E+02  0.00000000000E+00 0. -1.
         22    1    3    3    0    0 -0.10045674011E+03 -0.57111819612E+01  0.17732337381E+03  0.20388171358E+03  0.00000000000E+00 0. -1.
</event>
<event>
 7    1  0.5452757E-006  0.8568042E+02  0.7818608E-02  0.1319527E+00
          2   -1    0    0  502    0  0.00000000000E+00  0.00000000000E+00  0.25395833550E+04  0.25395833550E+04  0.00000000000E+00 0. -1.
          1   -1    0    0  501    0 -0.00000000000E+00 -0.00000000000E+00 -0.13479497003E+02  0.13479497003E+02  0.00000000000E+00 0. -1.
         25    2    1    2    0    0 -0.26490386009E+02  0.44349842014E+02  0.80221268797E+03  0.81353469811E+03  0.12499943696E+03 0.  0.
          2    1    1    2  501    0 -0.39331976346E+02 -0.99200095563E+02  0.43901647326E+03  0.45179987507E+03  0.00000000000E+00 0. -1.
          1    1    1    2  502    0  0.65822362355E+02  0.54850253549E+02  0.12848746968E+04  0.12877282789E+04  0.00000000000E+00 0. -1.
         22    1    3    3    0    0 -0.64127529454E+01 -0.23791298860E+02  0.57383648000E+03  0.57436526277E+03  0.00000000000E+00 0.  1.
         22    1    3    3    0    0 -0.20077633064E+02  0.68141140874E+02  0.22837620797E+03  0.23916943533E+03  0.00000000000E+00 0.  1.
</event>
<event>
 7    1  0.5452757E-006  0.8380289E+02  0.7818608E-02  0.1420295E+00
          2   -1    0    0  502    0  0.00000000000E+00  0.00000000000E+00  0.57999403484E+03  0.57999403484E+03  0.00000000000E+00 0. -1.
          1   -1    0    0  501    0 -0.00000000000E+00 -0.00000000000E+00 -0.17108536576E+04  0.17108536576E+04  0.00000000000E+00 0. -1.
         25    2    1    2    0    0 -0.10996764496E+03  0.36447846163E+02 -0.12014787389E+04  0.12135084747E+04  0.12502131764E+03 0.  0.
          2    1    1    2  501    0  0.27231851218E+02 -0.23610560138E+02 -0.49965422160E+03  0.50095246624E+03  0.00000000000E+00 0. -1.
          1    1    1    2  502    0  0.82735793745E+02 -0.12837286025E+02  0.57027333775E+03  0.57638675143E+03  0.00000000000E+00 0. -1.
         22    1    3    3    0    0 -0.92494995961E+02  0.38563722264E+02 -0.11855272160E+04  0.11897551281E+04  0.00000000000E+00 0. -1.
         22    1    3    3    0    0 -0.17472649002E+02 -0.21158761004E+01 -0.15951522882E+02  0.23753346650E+02  0.00000000000E+00 0. -1.
</event>
<event>
 7    1  0.5452757E-006  0.1314537E+03  0.7818608E-02  0.1395115E+00
          2   -1    0    0  502    0  0.00000000000E+00  0.00000000000E+00  0.15375285361E+04  0.15375285361E+04  0.00000000000E+00 0. -1.
          1   -1    0    0  501    0 -0.00000000000E+00 -0.00000000000E+00 -0.31927674441E+03  0.31927674441E+03  0.00000000000E+00 0. -1.
         25    2    1    2    0    0  0.91486110981E+02  0.86075300653E+02  0.31793747584E+03  0.36398639862E+03  0.12499277560E+03 0.  0.
          2    1    1    2  501    0 -0.11289631492E+03 -0.68054493826E+02 -0.28141440859E+03  0.31075884768E+03  0.00000000000E+00 0. -1.
          1    1    1    2  502    0  0.21410203936E+02 -0.18020806827E+02  0.11817287244E+04  0.11820600342E+04  0.00000000000E+00 0. -1.
         22    1    3    3    0    0  0.38585410949E+01  0.54657208714E+02  0.32395701686E+02  0.63653596062E+02  0.00000000000E+00 0.  1.
         22    1    3    3    0    0  0.87627569886E+02  0.31418091939E+02  0.28554177415E+03  0.30033280255E+03  0.00000000000E+00 0.  1.
</event>
<event>
 7    1  0.5452757E-006  0.6472965E+02  0.7818608E-02  0.1482965E+00
          2   -1    0    0  502    0  0.00000000000E+00  0.00000000000E+00  0.64735311277E+02  0.64735311277E+02  0.00000000000E+00 0. -1.
          1   -1    0    0  501    0 -0.00000000000E+00 -0.00000000000E+00 -0.70775261560E+03  0.70775261560E+03  0.00000000000E+00 0. -1.
         25    2    1    2    0    0  0.46356195633E+02  0.52424602806E+02 -0.33808378192E+03  0.36718210209E+03  0.12499926658E+03 0.  0.
          2    1    1    2  501    0  0.12974786911E+02 -0.26417687693E+02 -0.33329271572E+03  0.33458970945E+03  0.00000000000E+00 0. -1.
          1    1    1    2  502    0 -0.59330982543E+02 -0.26006915113E+02  0.28359193313E+02  0.70716115339E+02  0.00000000000E+00 0. -1.
         22    1    3    3    0    0 -0.35916890973E+02  0.30454624669E+02 -0.59534745016E+02  0.75907134612E+02  0.00000000000E+00 0.  1.
         22    1    3    3    0    0  0.82273086606E+02  0.21969978137E+02 -0.27854903690E+03  0.29127496748E+03  0.00000000000E+00 0.  1.
</event>
<event>
 7    1  0.5452757E-006  0.1959692E+03  0.7818608E-02  0.1330138E+00
          2   -1    0    0  502    0  0.00000000000E+00  0.00000000000E+00  0.92254050784E+03  0.92254050784E+03  0.00000000000E+00 0. -1.
          1   -1    0    0  501    0 -0.00000000000E+00 -0.00000000000E+00 -0.22176476558E+03  0.22176476558E+03  0.00000000000E+00 0. -1.
         25    2    1    2    0    0  0.11049015207E+03 -0.15105001875E+03  0.21593653582E+03  0.31189425205E+03  0.12500102038E+03 0.  0.
          2    1    1    2  501    0 -0.19138950629E+02 -0.26077666883E+02 -0.15702289250E+03  0.16032009516E+03  0.00000000000E+00 0. -1.
          1    1    1    2  502    0 -0.91351201437E+02  0.17712768563E+03  0.64186209895E+03  0.67209092621E+03  0.00000000000E+00 0. -1.
         22    1    3    3    0    0  0.20658986625E+00  0.19376295606E+02  0.34802419222E+02  0.39833301325E+02  0.00000000000E+00 0.  1.
         22    1    3    3    0    0  0.11028356220E+03 -0.17042631435E+03  0.18113411660E+03  0.27206095073E+03  0.00000000000E+00 0.  1.
</event>
<event>
 7    1  0.5452757E-006  0.2343806E+03  0.7818608E-02  0.1218109E+00
          2   -1    0    0  502    0  0.00000000000E+00  0.00000000000E+00  0.17322631334E+04  0.17322631334E+04  0.00000000000E+00 0. -1.
          1   -1    0    0  501    0 -0.00000000000E+00 -0.00000000000E+00 -0.82365464419E+02  0.82365464419E+02  0.00000000000E+00 0. -1.
         25    2    1    2    0    0 -0.23510365864E+03 -0.31288758355E+02  0.42657708544E+03  0.50383194023E+03  0.12500358984E+03 0.  0.
          2    1    1    2  501    0  0.24081716460E+02 -0.75767574249E+02  0.16757176015E+02  0.81249352756E+02  0.00000000000E+00 0. -1.
          1    1    1    2  502    0  0.21102194218E+03  0.10705633260E+03  0.12065634075E+04  0.12295473049E+04  0.00000000000E+00 0. -1.
         22    1    3    3    0    0 -0.21454112529E+03 -0.68804163679E+02  0.35642436093E+03  0.42166364847E+03  0.00000000000E+00 0.  1.
         22    1    3    3    0    0 -0.20562533346E+02  0.37515405324E+02  0.70152724511E+02  0.82168291759E+02  0.00000000000E+00 0.  1.
</event>
<event>
 7    1  0.5452757E-006  0.7390584E+02  0.7818608E-02  0.1436396E+00
          2   -1    0    0  502    0  0.00000000000E+00  0.00000000000E+00  0.81308623514E+03  0.81308623514E+03  0.00000000000E+00 0. -1.
          1   -1    0    0  501    0 -0.00000000000E+00 -0.00000000000E+00 -0.74143800795E+02  0.74143800795E+02  0.00000000000E+00 0. -1.
         25    2    1    2    0    0  0.25034714412E+02  0.10466159333E+03  0.13829552010E+03  0.21524757015E+03  0.12500031813E+03 0.  0.
          2    1    1    2  501    0 -0.28688172309E+01 -0.36048468744E+02 -0.23861404159E+02  0.43325383086E+02  0.00000000000E+00 0. -1.
          1    1    1    2  502    0 -0.22165897181E+02 -0.68613124589E+02  0.62450831841E+03  0.62865708270E+03  0.00000000000E+00 0. -1.
         22    1    3    3    0    0  0.35917128932E+02  0.48288136401E+02  0.14543151043E+03  0.15739157694E+03  0.00000000000E+00 0. -1.
         22    1    3    3    0    0 -0.10882414520E+02  0.56373456932E+02 -0.71359903311E+01  0.57855993209E+02  0.00000000000E+00 0. -1.
</event>
<event>
 7    1  0.5452757E-006  0.8454578E+02  0.7818608E-02  0.1431191E+00
          2   -1    0    0  502    0  0.00000000000E+00  0.00000000000E+00  0.12618709541E+04  0.12618709541E+04  0.00000000000E+00 0. -1.
          1   -1    0    0  501    0 -0.00000000000E+00 -0.00000000000E+00 -0.12257400140E+03  0.12257400140E+03  0.00000000000E+00 0. -1.
         25    2    1    2    0    0  0.21790201892E+02  0.10275799785E+03  0.31082132642E+03  0.35109824619E+03  0.12500424990E+03 0.  0.
          2    1    1    2  501    0  0.15820664688E+02 -0.28819754193E+02 -0.97895614258E+02  0.10326869300E+03  0.00000000000E+00 0. -1.
          1    1    1    2  502    0 -0.37610866580E+02 -0.73938243662E+02  0.92637124054E+03  0.93007801633E+03  0.00000000000E+00 0. -1.
         22    1    3    3    0    0  0.25479973803E+02  0.13167985076E+03  0.25565289271E+03  0.28869917511E+03  0.00000000000E+00 0. -1.
         22    1    3    3    0    0 -0.36897719113E+01 -0.28921852903E+02  0.55168433718E+02  0.62399071075E+02  0.00000000000E+00 0. -1.
</event>
<event>
 7    1  0.5452757E-006  0.1378051E+03  0.7818608E-02  0.1298531E+00
          2   -1    0    0  502    0  0.00000000000E+00  0.00000000000E+00  0.10037547672E+04  0.10037547672E+04  0.00000000000E+00 0. -1.
          1   -1    0    0  501    0 -0.00000000000E+00 -0.00000000000E+00 -0.67956567812E+03  0.67956567812E+03  0.00000000000E+00 0. -1.
         25    2    1    2    0    0  0.18463606294E+03  0.63520579066E+02  0.16694297897E+03  0.28569349694E+03  0.12500190505E+03 0.  0.
          2    1    1    2  501    0 -0.12396278941E+03 -0.55784213763E+02 -0.61151233565E+03  0.62643913377E+03  0.00000000000E+00 0. -1.
          1    1    1    2  502    0 -0.60673273530E+02 -0.77363653026E+01  0.76875844574E+03  0.77118781459E+03  0.00000000000E+00 0. -1.
         22    1    3    3    0    0  0.77690574167E+02  0.63445116241E+02  0.14533303068E+03  0.17658651675E+03  0.00000000000E+00 0.  1.
         22    1    3    3    0    0  0.10694548877E+03  0.75462824960E-01  0.21609948287E+02  0.10910698020E+03  0.00000000000E+00 0.  1.
</event>
<event>
 7    1  0.5452757E-006  0.6201513E+02  0.7818608E-02  0.1466447E+00
          2   -1    0    0  502    0  0.00000000000E+00  0.00000000000E+00  0.99897328102E+03  0.99897328102E+03  0.00000000000E+00 0. -1.
          1   -1    0    0  501    0 -0.00000000000E+00 -0.00000000000E+00 -0.46848892013E+03  0.46848892013E+03  0.00000000000E+00 0. -1.
         25    2    1    2    0    0  0.35893073540E+02  0.35747429453E+02 -0.87727594473E+02  0.16089801049E+03  0.12500338998E+03 0.  0.
          2    1    1    2  501    0 -0.13526032435E+02 -0.62082643892E+02 -0.34092987857E+03  0.34680021673E+03  0.00000000000E+00 0. -1.
          1    1    1    2  502    0 -0.22367041105E+02  0.26335214439E+02  0.95914183393E+03  0.95976397393E+03  0.00000000000E+00 0. -1.
         22    1    3    3    0    0 -0.35893052517E+02  0.44033551828E+02 -0.62250371452E+02  0.84275581585E+02  0.00000000000E+00 0. -1.
         22    1    3    3    0    0  0.71786126057E+02 -0.82861223752E+01 -0.25477223022E+02  0.76622428904E+02  0.00000000000E+00 0. -1.
</event>
<event>
 7    1  0.5452757E-006  0.8721660E+02  0.7818608E-02  0.1341304E+00
          2   -1    0    0  502    0  0.00000000000E+00  0.00000000000E+00  0.11880261647E+04  0.11880261647E+04  0.00000000000E+00 0. -1.
          1   -1    0    0  501    0 -0.00000000000E+00 -0.00000000000E+00 -0.77773287885E+02  0.77773287885E+02  0.00000000000E+00 0. -1.
         25    2    1    2    0    0  0.58908736380E+02 -0.94026336051E+02  0.76823467957E+03  0.78620659021E+03  0.12500035401E+03 0.  0.
          2    1    1    2  501    0  0.66393939804E+01  0.86854572879E+02 -0.37175168588E+02  0.94708983428E+02  0.00000000000E+00 0. -1.
          1    1    1    2  502    0 -0.65548130360E+02  0.71717631721E+01  0.37919336581E+03  0.38488387892E+03  0.00000000000E+00 0. -1.
         22    1    3    3    0    0 -0.15126752374E+02  0.26190236791E+01  0.10139335916E+02  0.18397936168E+02  0.00000000000E+00 0. -1.
         22    1    3    3    0    0  0.74035488754E+02 -0.96645359730E+02  0.75809534366E+03  0.76780865404E+03  0.00000000000E+00 0. -1.
</event>
<event>
 7    1  0.5452757E-006  0.5338517E+02  0.7818608E-02  0.1497474E+00
          2   -1    0    0  502    0  0.00000000000E+00  0.00000000000E+00  0.90798617551E+03  0.90798617551E+03  0.00000000000E+00 0. -1.
          1   -1    0    0  501    0 -0.00000000000E+00 -0.00000000000E+00 -0.11248363711E+04  0.11248363711E+04  0.00000000000E+00 0. -1.
         25    2    1    2    0    0  0.96912146783E+01 -0.31321751689E+02  0.19613793802E+03  0.23488348587E+03  0.12500075773E+03 0.  0.
          2    1    1    2  501    0 -0.23952528687E+02 -0.21604607973E+02 -0.11041429663E+04  0.11046140379E+04  0.00000000000E+00 0. -1.
          1    1    1    2  502    0  0.14261314009E+02  0.52926359663E+02  0.69115483265E+03  0.69332502286E+03  0.00000000000E+00 0. -1.
         22    1    3    3    0    0 -0.51095506374E+02 -0.18361907300E+02  0.41864047168E+02  0.68560257121E+02  0.00000000000E+00 0.  1.
         22    1    3    3    0    0  0.60786721052E+02 -0.12959844390E+02  0.15427389086E+03  0.16632322875E+03  0.00000000000E+00 0.  1.
</event>
<event>
 7    1  0.5452757E-006  0.1268582E+03  0.7818608E-02  0.1248411E+00
          2   -1    0    0  502    0  0.00000000000E+00  0.00000000000E+00  0.17391689651E+03  0.17391689651E+03  0.00000000000E+00 0. -1.
          1   -1    0    0  501    0 -0.00000000000E+00 -0.00000000000E+00 -0.72126309523E+03  0.72126309523E+03  0.00000000000E+00 0. -1.
         25    2    1    2    0    0 -0.95368656514E+02 -0.67493786704E+02  0.16103613720E+02  0.17185803273E+03  0.12500106060E+03 0.  0.
          2    1    1    2  501    0  0.12574077872E+03 -0.35734891542E+02 -0.59657973209E+03  0.61073324999E+03  0.00000000000E+00 0. -1.
          1    1    1    2  502    0 -0.30372122210E+02  0.10322867825E+03  0.33129919649E+02  0.11258870901E+03  0.00000000000E+00 0. -1.
         22    1    3    3    0    0 -0.56195303436E+02 -0.99121032833E+02  0.33210910422E+02  0.11868384831E+03  0.00000000000E+00 0.  1.
         22    1    3    3    0    0 -0.39173353077E+02  0.31627246129E+02 -0.17107296701E+02  0.53174184427E+02  0.00000000000E+00 0.  1.
</event>
<event>
 7    1  0.5452757E-006  0.4255766E+02  0.7818608E-02  0.1579660E+00
          2   -1    0    0  502    0  0.00000000000E+00  0.00000000000E+00  0.42570430735E+03  0.42570430735E+03  0.00000000000E+00 0. -1.
          1   -1    0    0  501    0 -0.00000000000E+00 -0.00000000000E+00 -0.15262747307E+04  0.15262747307E+04  0.00000000000E+00 0. -1.
         25    2    1    2    0    0  0.33846015655E+02 -0.11183085514E+02  0.87419168413E+02  0.15664571304E+03  0.12500061691E+03 0.  0.
          2    1    1    2  501    0 -0.26198358556E+02  0.33578853430E+02 -0.14908958257E+04  0.14915040249E+04  0.00000000000E+00 0. -1.
          1    1    1    2  502    0 -0.76476570993E+01 -0.22395767916E+02  0.30290623388E+03  0.30382930010E+03  0.00000000000E+00 0. -1.
         22    1    3    3    0    0  0.26418607601E+02  0.38726375106E+02 -0.90797096573E+01  0.47750561084E+02  0.00000000000E+00 0.  1.
         22    1    3    3    0    0  0.74274080543E+01 -0.49909460619E+02  0.96498878071E+02  0.10889515195E+03  0.00000000000E+00 0.  1.
</event>
<event>
 7    1  0.5452757E-006  0.3519403E+02  0.7818608E-02  0.1597973E+00
          2   -1    0    0  502    0  0.00000000000E+00  0.00000000000E+00  0.11012230121E+04  0.11012230121E+04  0.00000000000E+00 0. -1.
          1   -1    0    0  501    0 -0.00000000000E+00 -0.00000000000E+00 -0.97779199194E+02  0.97779199194E+02  0.00000000000E+00 0. -1.
         25    2    1    2    0    0  0.24467496808E+02  0.26821715982E+02  0.46184842096E+02  0.13811666411E+03  0.12500044167E+03 0.  0.
          2    1    1    2  501    0 -0.24163641201E+02  0.84254663408E+01 -0.48325790643E+02  0.54683197423E+02  0.00000000000E+00 0. -1.
          1    1    1    2  502    0 -0.30385560702E+00 -0.35247182322E+02  0.10055847615E+04  0.10062023498E+04  0.00000000000E+00 0. -1.
         22    1    3    3    0    0  0.26788275079E+02  0.73356284961E+02  0.47681599517E+02  0.91500224904E+02  0.00000000000E+00 0.  1.
         22    1    3    3    0    0 -0.23207782705E+01 -0.46534568980E+02 -0.14967574206E+01  0.46616439211E+02  0.00000000000E+00 0.  1.
</event>
<event>
 7    1  0.5452757E-006  0.5893654E+02  0.7818608E-02  0.1404176E+00
          2   -1    0    0  502    0  0.00000000000E+00  0.00000000000E+00  0.20576241480E+04  0.20576241480E+04  0.00000000000E+00 0. -1.
          1   -1    0    0  501    0 -0.00000000000E+00 -0.00000000000E+00 -0.95288308769E+03  0.95288308769E+03  0.00000000000E+00 0. -1.
         25    2    1    2    0    0 -0.68750990013E+01  0.77348172347E+01  0.89817627854E+02  0.15427358639E+03  0.12500415514E+03 0.  0.
          2    1    1    2  501    0 -0.46108042612E+02 -0.35340981627E+02 -0.91927696703E+03  0.92111078524E+03  0.00000000000E+00 0. -1.
          1    1    1    2  502    0  0.52983141614E+02  0.27606164392E+02  0.19342003995E+04  0.19351228641E+04  0.00000000000E+00 0. -1.
         22    1    3    3    0    0 -0.61809055063E+02 -0.14967383557E+02  0.61365388607E+02  0.88374729291E+02  0.00000000000E+00 0. -1.
         22    1    3    3    0    0  0.54933956062E+02  0.22702200792E+02  0.28452239247E+02  0.65898857104E+02  0.00000000000E+00 0. -1.
</event>
<event>
 7    1  0.5452757E-006  0.7568763E+02  0.7818608E-02  0.1392048E+00
          2   -1    0    0  502    0  0.00000000000E+00  0.00000000000E+00  0.76310531280E+03  0.76310531280E+03  0.00000000000E+00 0. -1.
          1   -1    0    0  501    0 -0.00000000000E+00 -0.00000000000E+00 -0.27336457397E+02  0.27336457397E+02  0.00000000000E+00 0. -1.
         25    2    1    2    0    0 -0.69522550380E+02  0.35758207482E+02  0.42777365314E+03  0.45246721413E+03  0.12499698846E+03 0.  0.
          2    1    1    2  501    0  0.77493703801E+02  0.13409659797E+02  0.11986519732E+03  0.14336233339E+03  0.00000000000E+00 0. -1.
          1    1    1    2  502    0 -0.79711534211E+01 -0.49167867279E+02  0.18813000494E+03  0.19461222268E+03  0.00000000000E+00 0. -1.
         22    1    3    3    0    0 -0.31240039267E+02 -0.40641249824E+02  0.85515479335E+02  0.99702299104E+02  0.00000000000E+00 0. -1.
         22    1    3    3    0    0 -0.38282511113E+02  0.76399457306E+02  0.34225817381E+03  0.35276491502E+03  0.00000000000E+00 0. -1.
</event>
<event>
 7    1  0.5452757E-006  0.7829492E+02  0.7818608E-02  0.1504469E+00
          2   -1    0    0  502    0  0.00000000000E+00  0.00000000000E+00  0.15415006351E+04  0.15415006351E+04  0.00000000000E+00 0. -1.
          1   -1    0    0  501    0 -0.00000000000E+00 -0.00000000000E+00 -0.49078509391E+02  0.49078509391E+02  0.00000000000E+00 0. -1.
         25    2    1    2    0    0  0.97740678910E+02  0.46677974686E+01  0.59744636805E+03  0.61817154150E+03  0.12497545111E+03 0.  0.
          2    1    1    2  501    0 -0.76822588230E+02 -0.60431605906E+01 -0.12638521508E+00  0.77060014441E+02  0.00000000000E+00 0. -1.
          1    1    1    2  502    0 -0.20918090679E+02  0.13753631220E+01  0.89510214283E+03  0.89534758851E+03  0.00000000000E+00 0. -1.
         22    1    3    3    0    0  0.69266254284E+02  0.49527446645E+02  0.49983005346E+03  0.50703142339E+03  0.00000000000E+00 0. -1.
         22    1    3    3    0    0  0.28474424626E+02 -0.44859649176E+02  0.97616314586E+02  0.11114011812E+03  0.00000000000E+00 0. -1.
</event>
<event>
 7    1  0.5452757E-006  0.4202533E+02  0.7818608E-02  0.1498647E+00
          2   -1    0    0  502    0  0.00000000000E+00  0.00000000000E+00  0.61748962257E+03  0.61748962257E+03  0.00000000000E+00 0. -1.
          1   -1    0    0  501    0 -0.00000000000E+00 -0.00000000000E+00 -0.75314303118E+02  0.75314303118E+02  0.00000000000E+00 0. -1.
         25    2    1    2    0    0 -0.16872392660E+02 -0.10771275766E+02  0.46942110414E+03  0.48619110828E+03  0.12499969098E+03 0.  0.
          2    1    1    2  501    0 -0.39041848444E+02 -0.11305843234E+02 -0.53257779275E+02  0.66996112383E+02  0.00000000000E+00 0. -1.
          1    1    1    2  502    0  0.55914241104E+02  0.22077119000E+02  0.12601199459E+03  0.13961670502E+03  0.00000000000E+00 0. -1.
         22    1    3    3    0    0  0.13310747927E+02  0.34181022482E+02  0.43761407048E+02  0.57101480324E+02  0.00000000000E+00 0. -1.
         22    1    3    3    0    0 -0.30183140587E+02 -0.44952298249E+02  0.42565969709E+03  0.42908962796E+03  0.00000000000E+00 0. -1.
</event>
<event>
 7    1  0.5452757E-006  0.1146143E+03  0.7818608E-02  0.1389240E+00
          2   -1    0    0  502    0  0.00000000000E+00  0.00000000000E+00  0.50098431354E+03  0.50098431354E+03  0.00000000000E+00 0. -1.
          1   -1    0    0  501    0 -0.00000000000E+00 -0.00000000000E+00 -0.10499643696E+03  0.10499643696E+03  0.00000000000E+00 0. -1.
         25    2    1    2    0    0 -0.11084274562E+03 -0.65797899468E+02  0.23188102911E+03  0.29327361141E+03  0.12500048663E+03 0.  0.
          2    1    1    2  501    0  0.62359694003E+01  0.33059775976E+02 -0.56849003365E+02  0.66057893439E+02  0.00000000000E+00 0. -1.
          1    1    1    2  502    0  0.10460677622E+03  0.32738123492E+02  0.22095585084E+03  0.24664924565E+03  0.00000000000E+00 0. -1.
         22    1    3    3    0    0  0.22955918126E+02 -0.20478480862E+02  0.80696815838E+02  0.86361556504E+02  0.00000000000E+00 0.  1.
         22    1    3    3    0    0 -0.13379866374E+03 -0.45319418606E+02  0.15118421327E+03  0.20691205490E+03  0.00000000000E+00 0.  1.
</event>
<event>
 7    1  0.5452757E-006  0.9509335E+02  0.7818608E-02  0.1297213E+00
          2   -1    0    0  502    0  0.00000000000E+00  0.00000000000E+00  0.10769543199E+04  0.10769543199E+04  0.00000000000E+00 0. -1.
          1   -1    0    0  501    0 -0.00000000000E+00 -0.00000000000E+00 -0.33583248321E+03  0.33583248321E+03  0.00000000000E+00 0. -1.
         25    2    1    2    0    0 -0.26251563765E+02 -0.92288106159E+02  0.57733820016E+02  0.16782353284E+03  0.12500122025E+03 0.  0.
          2    1    1    2  501    0  0.92638602090E+02  0.31930414129E+02 -0.27006816683E+03  0.28729475575E+03  0.00000000000E+00 0. -1.
          1    1    1    2  502    0 -0.66387038325E+02  0.60357692030E+02  0.95345618350E+03  0.95766851452E+03  0.00000000000E+00 0. -1.
         22    1    3    3    0    0 -0.16651164708E+02 -0.10135519330E+03 -0.58525251929E+01  0.10288045755E+03  0.00000000000E+00 0. -1.
         22    1    3    3    0    0 -0.96003990570E+01  0.90670871406E+01  0.63586345209E+02  0.64943075291E+02  0.00000000000E+00 0. -1.
</event>
<event>
 7    1  0.5452757E-006  0.1368844E+03  0.7818608E-02  0.1267758E+00
          2   -1    0    0  502    0  0.00000000000E+00  0.00000000000E+00  0.48339091942E+03  0.48339091942E+03  0.00000000000E+00 0. -1.
          1   -1    0    0  501    0 -0.00000000000E+00 -0.00000000000E+00 -0.13587805725E+03  0.13587805725E+03  0.00000000000E+00 0. -1.
         25    2    1    2    0    0 -0.10253831289E+02 -0.14927437627E+02  0.40423828210E+02  0.13261325670E+03  0.12499688202E+03 0.  0.
          2    1    1    2  501    0 -0.91822582158E+02  0.10612911914E+03 -0.10593489217E+02  0.14073733881E+03  0.00000000000E+00 0. -1.
          1    1    1    2  502    0  0.10207641345E+03 -0.91201681510E+02  0.31768252317E+03  0.34591838116E+03  0.00000000000E+00 0. -1.
         22    1    3    3    0    0  0.45715155363E+02  0.26960025378E+01  0.55573742536E+02  0.72011004152E+02  0.00000000000E+00 0.  1.
         22    1    3    3    0    0 -0.55968986652E+02 -0.17623440165E+02 -0.15149914326E+02  0.60602252551E+02  0.00000000000E+00 0.  1.
</event>
<event>
 7    1  0.5452757E-006  0.4152817E+02  0.7818608E-02  0.1606826E+00
          2   -1    0    0  502    0  0.00000000000E+00  0.00000000000E+00  0.23725130527E+04  0.23725130527E+04  0.00000000000E+00 0. -1.
          1   -1    0    0  501    0 -0.00000000000E+00 -0.00000000000E+00 -0.13285832193E+03  0.13285832193E+03  0.00000000000E+00 0. -1.
         25    2    1    2    0    0 -0.26340407873E+02  0.11753869044E+02  0.76409141575E+03  0.77478590516E+03  0.12500214674E+03 0.  0.
          2    1    1    2  501    0 -0.10352694693E+01  0.20539531107E+02 -0.12640037100E+03  0.12806247659E+03  0.00000000000E+00 0. -1.
          1    1    1    2  502    0  0.27375677343E+02 -0.32293400151E+02  0.16019636861E+04  0.16025229929E+04  0.00000000000E+00 0. -1.
         22    1    3    3    0    0  0.37894914457E+02 -0.10796494178E+02  0.51664085841E+03  0.51814126009E+03  0.00000000000E+00 0. -1.
         22    1    3    3    0    0 -0.64235322330E+02  0.22550363222E+02  0.24745055733E+03  0.25664464507E+03  0.00000000000E+00 0. -1.
</event>
<event>
 7    1  0.5452757E-006  0.1298525E+03  0.7818608E-02  0.1321943E+00
          2   -1    0    0  502    0  0.00000000000E+00  0.00000000000E+00  0.44358902558E+03  0.44358902558E+03  0.00000000000E+00 0. -1.
          1   -1    0    0  501    0 -0.00000000000E+00 -0.00000000000E+00 -0.40860315548E+04  0.40860315548E+04  0.00000000000E+00 0. -1.
         25    2    1    2    0    0  0.17129140767E+03 -0.46884159462E+02 -0.10482176367E+04  0.10704784099E+04  0.12499976545E+03 0.  0.
          2    1    1    2  501    0 -0.42942077708E+02  0.30185741736E+02 -0.30167657221E+04  0.30172223357E+04  0.00000000000E+00 0. -1.
          1    1    1    2  502    0 -0.12834932996E+03  0.16698417725E+02  0.42254082963E+03  0.44191983476E+03  0.00000000000E+00 0. -1.
         22    1    3    3    0    0  0.13727621643E+03 -0.60252779275E+02 -0.52499013068E+03  0.54597600160E+03  0.00000000000E+00 0.  1.
         22    1    3    3    0    0  0.34015191244E+02  0.13368619814E+02 -0.52322750606E+03  0.52450240832E+03  0.00000000000E+00 0.  1.
</event>
<event>
 7    1  0.5452757E-006  0.1274715E+03  0.7818608E-02  0.1288148E+00
          2   -1    0    0  502    0  0.00000000000E+00  0.00000000000E+00  0.76058617793E+03  0.76058617793E+03  0.00000000000E+00 0. -1.
          1   -1    0    0  501    0 -0.00000000000E+00 -0.00000000000E+00 -0.25802813430E+04  0.25802813430E+04  0.00000000000E+00 0. -1.
         25    2    1    2    0    0  0.16752690048E+03 -0.14256157500E+02 -0.20910330299E+03  0.29600300685E+03  0.12500035333E+03 0.  0.
          2    1    1    2  501    0 -0.47459066942E+02  0.55253994950E+02 -0.23215409435E+04  0.23226833016E+04  0.00000000000E+00 0. -1.
          1    1    1    2  502    0 -0.12006783354E+03 -0.40997837450E+02  0.71094908143E+03  0.72218121251E+03  0.00000000000E+00 0. -1.
         22    1    3    3    0    0  0.79294680424E+02  0.36983973579E+01 -0.13297591762E+02  0.80486958156E+02  0.00000000000E+00 0. -1.
         22    1    3    3    0    0  0.88232220059E+02 -0.17954554858E+02 -0.19580571123E+03  0.21551604870E+03  0.00000000000E+00 0. -1.
</event>
<event>
 7    1  0.6263960E-006  0.9139108E+02  0.7818608E-02  0.1386446E+00
          2   -1    0    0  502    0  0.00000000000E+00  0.00000000000E+00  0.95038450168E+03  0.95038450168E+03  0.00000000000E+00 0. -1.
          1   -1    0    0  501    0 -0.00000000000E+00 -0.00000000000E+00 -0.22015192629E+04  0.22015192629E+04  0.00000000000E+00 0. -1.
         25    2    1    2    0    0  0.58398014960E+02  0.99254186788E+01 -0.25162903892E+03  0.28714154535E+03  0.12499700697E+03 0.  0.
          2    1    1    2  501    0 -0.81320630777E+02 -0.46486272301E+02 -0.19304986277E+04  0.19327697664E+04  0.00000000000E+00 0. -1.
          1    1    1    2  502    0  0.22922615817E+02  0.36560853622E+02  0.93099290535E+03  0.93199245284E+03  0.00000000000E+00 0. -1.
         22    1    3    3    0    0 -0.48893262313E+00  0.13983254163E+02 -0.21948419040E+03  0.21992971670E+03  0.00000000000E+00 0.  1.
         22    1    3    3    0    0  0.58886947583E+02 -0.40578354840E+01 -0.32144848524E+02  0.67211828654E+02  0.00000000000E+00 0.  1.
</event>
<event>
 7    1  0.5452757E-006  0.1180079E+03  0.7818608E-02  0.1436800E+00
          2   -1    0    0  502    0  0.00000000000E+00  0.00000000000E+00  0.11388355685E+04  0.11388355685E+04  0.00000000000E+00 0. -1.
          1   -1    0    0  501    0 -0.00000000000E+00 -0.00000000000E+00 -0.11254112678E+04  0.11254112678E+04  0.00000000000E+00 0. -1.
         25    2    1    2    0    0  0.48725649145E+02  0.91333362801E+02 -0.29019679279E+03  0.33249880817E+03  0.12500122736E+03 0.  0.
          2    1    1    2  501    0 -0.43300996611E+02 -0.11325116373E+03 -0.80943369913E+03  0.81846424215E+03  0.00000000000E+00 0. -1.
          1    1    1    2  502    0 -0.54246525336E+01  0.21917800932E+02  0.11130547926E+04  0.11132837860E+04  0.00000000000E+00 0. -1.
         22    1    3    3    0    0  0.45391917994E+02 -0.93603921602E+00 -0.25305515931E+02  0.51977605996E+02  0.00000000000E+00 0. -1.
         22    1    3    3    0    0  0.33337311510E+01  0.92269402017E+02 -0.26489127686E+03  0.28052120217E+03  0.00000000000E+00 0. -1.
</event>
<event>
 7    1  0.5452757E-006  0.8275319E+02  0.7818608E-02  0.1337516E+00
          2   -1    0    0  502    0  0.00000000000E+00  0.00000000000E+00  0.15590275729E+04  0.15590275729E+04  0.00000000000E+00 0. -1.
          1   -1    0    0  501    0 -0.00000000000E+00 -0.00000000000E+00 -0.13584760998E+03  0.13584760998E+03  0.00000000000E+00 0. -1.
         25    2    1    2    0    0  0.75275929830E+02  0.24109047289E+02  0.18779719691E+03  0.23903927351E+03  0.12499710134E+03 0.  0.
          2    1    1    2  501    0 -0.46020057565E+02  0.55133590506E+02 -0.97047832505E+02  0.12073044477E+03  0.00000000000E+00 0. -1.
          1    1    1    2  502    0 -0.29255872265E+02 -0.79242637795E+02  0.13324305985E+04  0.13351054646E+04  0.00000000000E+00 0. -1.
         22    1    3    3    0    0  0.93039977196E+02 -0.18097408344E+02  0.88436005181E+02  0.12963363976E+03  0.00000000000E+00 0.  1.
         22    1    3    3    0    0 -0.17764047365E+02  0.42206455633E+02  0.99361191725E+02  0.10940563375E+03  0.00000000000E+00 0.  1.
</event>
<event>
 7    1  0.5452757E-006  0.1348219E+03  0.7818608E-02  0.1316406E+00
          2   -1    0    0  502    0  0.00000000000E+00  0.00000000000E+00  0.60256075739E+03  0.60256075739E+03  0.00000000000E+00 0. -1.
          1   -1    0    0  501    0 -0.00000000000E+00 -0.00000000000E+00 -0.11846030870E+04  0.11846030870E+04  0.00000000000E+00 0. -1.
         25    2    1    2    0    0  0.46235552667E+02 -0.10504309262E+03 -0.10957606823E+03  0.20199450239E+03  0.12499234629E+03 0.  0.
          2    1    1    2  501    0 -0.42950811578E+02 -0.31260446768E+02 -0.10197627710E+04  0.10211454827E+04  0.00000000000E+00 0. -1.
          1    1    1    2  502    0 -0.32847410884E+01  0.13630353939E+03  0.54729650963E+03  0.56402385927E+03  0.00000000000E+00 0. -1.
         22    1    3    3    0    0  0.47048831514E+02 -0.13198855257E+03 -0.77616898434E+02  0.16018412368E+03  0.00000000000E+00 0. -1.
         22    1    3    3    0    0 -0.81327884780E+00  0.26945459947E+02 -0.31959169798E+02  0.41810378716E+02  0.00000000000E+00 0. -1.
</event>
<event>
 7    1  0.5452757E-006  0.1076536E+03  0.7818608E-02  0.1356807E+00
          2   -1    0    0  502    0  0.00000000000E+00  0.00000000000E+00  0.31995288439E+03  0.31995288439E+03  0.00000000000E+00 0. -1.
          1   -1    0    0  501    0 -0.00000000000E+00 -0.00000000000E+00 -0.90075826911E+03  0.90075826911E+03  0.00000000000E+00 0. -1.
         25    2    1    2    0    0  0.51445277331E+02  0.40055687631E+02  0.12985503621E+03  0.19167181680E+03  0.12499872102E+03 0.  0.
          2    1    1    2  501    0 -0.97644398101E+02 -0.47492692273E+02 -0.86293374749E+03  0.86973825767E+03  0.00000000000E+00 0. -1.
          1    1    1    2  502    0  0.46199120770E+02  0.74370046421E+01  0.15227332656E+03  0.15930107903E+03  0.00000000000E+00 0. -1.
         22    1    3    3    0    0 -0.28989358739E+02  0.22233315035E+02 -0.15609475547E+01  0.36566921866E+02  0.00000000000E+00 0. -1.
         22    1    3    3    0    0  0.80434636070E+02  0.17822372596E+02  0.13141598376E+03  0.15510489494E+03  0.00000000000E+00 0. -1.
</event>
<event>
 7    1  0.5452757E-006  0.6422225E+02  0.7818608E-02  0.1432722E+00
          2   -1    0    0  502    0  0.00000000000E+00  0.00000000000E+00  0.13838400295E+04  0.13838400295E+04  0.00000000000E+00 0. -1.
          1   -1    0    0  501    0 -0.00000000000E+00 -0.00000000000E+00 -0.25448836796E+04  0.25448836796E+04  0.00000000000E+00 0. -1.
         25    2    1    2    0    0  0.32447022540E+01 -0.98081510059E+02  0.48950994124E+03  0.51466002091E+03  0.12499777535E+03 0.  0.
          2    1    1    2  501    0 -0.18768437277E+02  0.38446116578E+02 -0.25310509915E+04  0.25314125464E+04  0.00000000000E+00 0. -1.
          1    1    1    2  502    0  0.15523735023E+02  0.59635393480E+02  0.88049740014E+03  0.88265114182E+03  0.00000000000E+00 0. -1.
         22    1    3    3    0    0 -0.28162538837E+02 -0.54044631208E+01  0.19757467957E+02  0.34823761363E+02  0.00000000000E+00 0.  1.
         22    1    3    3    0    0  0.31407241091E+02 -0.92677046938E+02  0.46975247328E+03  0.47983625955E+03  0.00000000000E+00 0.  1.
</event>
<event>
 7    1  0.5452757E-006  0.1786827E+03  0.7818608E-02  0.1235841E+00
          2   -1    0    0  502    0  0.00000000000E+00  0.00000000000E+00  0.64996891115E+03  0.64996891115E+03  0.00000000000E+00 0. -1.
          1   -1    0    0  501    0 -0.00000000000E+00 -0.00000000000E+00 -0.78112719694E+03  0.78112719694E+03  0.00000000000E+00 0. -1.
         25    2    1    2    0    0  0.14963133689E+03 -0.19402388953E+03 -0.40604992749E+03  0.49044510493E+03  0.12500020255E+03 0.  0.
          2    1    1    2  501    0 -0.81088045842E+02  0.30849759796E+02 -0.31398611200E+03  0.32575183405E+03  0.00000000000E+00 0. -1.
          1    1    1    2  502    0 -0.68543291051E+02  0.16317412974E+03  0.58887775371E+03  0.61489916911E+03  0.00000000000E+00 0. -1.
         22    1    3    3    0    0  0.13062961009E+03 -0.13441221123E+03 -0.19566165286E+03  0.27095058583E+03  0.00000000000E+00 0. -1.
         22    1    3    3    0    0  0.19001726803E+02 -0.59611678308E+02 -0.21038827463E+03  0.21949451910E+03  0.00000000000E+00 0. -1.
</event>
<event>
 7    1  0.5452757E-006  0.4680567E+02  0.7818608E-02  0.1552498E+00
          2   -1    0    0  502    0  0.00000000000E+00  0.00000000000E+00  0.84831044445E+02  0.84831044445E+02  0.00000000000E+00 0. -1.
          1   -1    0    0  501    0 -0.00000000000E+00 -0.00000000000E+00 -0.13672567251E+04  0.13672567251E+04  0.00000000000E+00 0. -1.
         25    2    1    2    0    0  0.39877627301E+01  0.69036677752E+02 -0.81534998285E+03  0.82776986003E+03  0.12500152602E+03 0.  0.
          2    1    1    2  501    0 -0.15762848866E+01 -0.43625375364E+02 -0.54272524264E+03  0.54447805011E+03  0.00000000000E+00 0. -1.
          1    1    1    2  502    0 -0.24114778435E+01 -0.25411302388E+02  0.75649544843E+02  0.79839859403E+02  0.00000000000E+00 0. -1.
         22    1    3    3    0    0  0.14453234630E+02  0.14828658600E+02 -0.15125246488E+02  0.25642897427E+02  0.00000000000E+00 0.  1.
         22    1    3    3    0    0 -0.10465471900E+02  0.54208019152E+02 -0.80022473636E+03  0.80212696260E+03  0.00000000000E+00 0.  1.
</event>
<event>
 7    1  0.5452757E-006  0.2817912E+03  0.7818608E-02  0.1311422E+00
          2   -1    0    0  502    0  0.00000000000E+00  0.00000000000E+00  0.20121447888E+04  0.20121447888E+04  0.00000000000E+00 0. -1.
          1   -1    0    0  501    0 -0.00000000000E+00 -0.00000000000E+00 -0.66381498203E+03  0.66381498203E+03  0.00000000000E+00 0. -1.
         25    2    1    2    0    0 -0.24703348245E+03  0.89581874513E+02  0.10413462249E+04  0.10812399523E+04  0.12500968265E+03 0.  0.
          2    1    1    2  501    0  0.25852163893E+03 -0.11355620914E+03 -0.61270998125E+03  0.67464210626E+03  0.00000000000E+00 0. -1.
          1    1    1    2  502    0 -0.11488156475E+02  0.23974334624E+02  0.91969356315E+03  0.92007771224E+03  0.00000000000E+00 0. -1.
         22    1    3    3    0    0  0.11206304105E+02 -0.91998264194E+01  0.53627289888E+02  0.55552716213E+02  0.00000000000E+00 0. -1.
         22    1    3    3    0    0 -0.25823978656E+03  0.98781700932E+02  0.98771893497E+03  0.10256872361E+04  0.00000000000E+00 0. -1.
</event>
<event>
 7    1  0.5452757E-006  0.4653533E+02  0.7818608E-02  0.1466067E+00
          2   -1    0    0  502    0  0.00000000000E+00  0.00000000000E+00  0.26831087483E+04  0.26831087483E+04  0.00000000000E+00 0. -1.
          1   -1    0    0  501    0 -0.00000000000E+00 -0.00000000000E+00 -0.41877333686E+03  0.41877333686E+03  0.00000000000E+00 0. -1.
         25    2    1    2    0    0  0.86815266381E+01  0.12322773615E+02  0.76151509886E+03  0.77185296348E+03  0.12499812710E+03 0.  0.
          2    1    1    2  501    0 -0.36839132631E+02  0.27833381118E+02 -0.41200086963E+03  0.41457995052E+03  0.00000000000E+00 0. -1.
          1    1    1    2  502    0  0.28157605993E+02 -0.40156154733E+02  0.19148211822E+04  0.19154491712E+04  0.00000000000E+00 0. -1.
         22    1    3    3    0    0 -0.12639471863E+02 -0.45274785592E+02  0.53811739039E+03  0.54016653756E+03  0.00000000000E+00 0. -1.
         22    1    3    3    0    0  0.21320998501E+02  0.57597559208E+02  0.22339770847E+03  0.23168642592E+03  0.00000000000E+00 0. -1.
</event>
<event>
 7    1  0.5452757E-006  0.3920036E+02  0.7818608E-02  0.1519415E+00
          2   -1    0    0  502    0  0.00000000000E+00  0.00000000000E+00  0.12642976995E+04  0.12642976995E+04  0.00000000000E+00 0. -1.
          1   -1    0    0  501    0 -0.00000000000E+00 -0.00000000000E+00 -0.39276638826E+02  0.39276638826E+02  0.00000000000E+00 0. -1.
         25    2    1    2    0    0 -0.43609683679E+01 -0.20042529488E+02  0.12893961989E+03  0.18075079265E+03  0.12499880972E+03 0.  0.
          2    1    1    2  501    0  0.42184092182E+02  0.18723075547E+02  0.27813573149E+02  0.53885490092E+02  0.00000000000E+00 0. -1.
          1    1    1    2  502    0 -0.37823123814E+02  0.13194539416E+01  0.10682678676E+04  0.10689380555E+04  0.00000000000E+00 0. -1.
         22    1    3    3    0    0  0.50607079166E+02 -0.40032733138E+02  0.45928431487E+02  0.79203011326E+02  0.00000000000E+00 0.  1.
         22    1    3    3    0    0 -0.54968047534E+02  0.19990203649E+02  0.83011188399E+02  0.10154778132E+03  0.00000000000E+00 0.  1.
</event>
<event>
 7    1  0.5452757E-006  0.1350835E+03  0.7818608E-02  0.1276118E+00
          2   -1    0    0  502    0  0.00000000000E+00  0.00000000000E+00  0.92958161284E+03  0.92958161284E+03  0.00000000000E+00 0. -1.
          1   -1    0    0  501    0 -0.00000000000E+00 -0.00000000000E+00 -0.59505368814E+03  0.59505368814E+03  0.00000000000E+00 0. -1.
         25    2    1    2    0    0 -0.54045011858E+02 -0.10191956850E+03 -0.33254979462E+03  0.37353212984E+03  0.12501369675E+03 0.  0.
          2    1    1    2  501    0  0.17309847324E+02  0.16963664961E+03 -0.21007755777E+03  0.27057125491E+03  0.00000000000E+00 0. -1.
          1    1    1    2  502    0  0.36735164534E+02 -0.67717081112E+02  0.87715527708E+03  0.88053191623E+03  0.00000000000E+00 0. -1.
         22    1    3    3    0    0 -0.36571815416E+02 -0.93756551613E+02 -0.33866393091E+03  0.35330022184E+03  0.00000000000E+00 0. -1.
         22    1    3    3    0    0 -0.17473196442E+02 -0.81630168874E+01  0.61141362975E+01  0.20231907999E+02  0.00000000000E+00 0. -1.
</event>
<event>
 7    1  0.5452757E-006  0.6590464E+02  0.7818608E-02  0.1491818E+00
          2   -1    0    0  502    0  0.00000000000E+00  0.00000000000E+00  0.12765831737E+03  0.12765831737E+03  0.00000000000E+00 0. -1.
          1   -1    0    0  501    0 -0.00000000000E+00 -0.00000000000E+00 -0.77812341878E+03  0.77812341878E+03  0.00000000000E+00 0. -1.
         25    2    1    2    0    0 -0.14808128171E+02  0.89982522763E+02 -0.11665308933E+03  0.19377369557E+03  0.12499666709E+03 0.  0.
          2    1    1    2  501    0  0.47850076181E+01 -0.26747504460E+02 -0.61106725991E+03  0.61167108925E+03  0.00000000000E+00 0. -1.
          1    1    1    2  502    0  0.10023120553E+02 -0.63235018303E+02  0.77255247830E+02  0.10033695133E+03  0.00000000000E+00 0. -1.
         22    1    3    3    0    0  0.36738933570E+02  0.10306049901E+02  0.60735136705E+01  0.38637436156E+02  0.00000000000E+00 0. -1.
         22    1    3    3    0    0 -0.51547061741E+02  0.79676472862E+02 -0.12272660300E+03  0.15513625941E+03  0.00000000000E+00 0. -1.
</event>
<event>
 7    1  0.5452757E-006  0.5291517E+02  0.7818608E-02  0.1542449E+00
          2   -1    0    0  502    0  0.00000000000E+00  0.00000000000E+00  0.13175869243E+04  0.13175869243E+04  0.00000000000E+00 0. -1.
          1   -1    0    0  501    0 -0.00000000000E+00 -0.00000000000E+00 -0.25644512821E+03  0.25644512821E+03  0.00000000000E+00 0. -1.
         25    2    1    2    0    0  0.29281595591E+02  0.90247968636E+01 -0.10181103040E+03  0.16410178230E+03  0.12500020098E+03 0.  0.
          2    1    1    2  501    0  0.16689204611E+02  0.17370798590E+02 -0.12176215813E+03  0.12412210660E+03  0.00000000000E+00 0. -1.
          1    1    1    2  502    0 -0.45970800202E+02 -0.26395595453E+02  0.12847149846E+04  0.12858081636E+04  0.00000000000E+00 0. -1.
         22    1    3    3    0    0  0.93203641184E+01  0.65821917554E+02 -0.38887241040E+02  0.77016956143E+02  0.00000000000E+00 0.  1.
         22    1    3    3    0    0  0.19961231472E+02 -0.56797120690E+02 -0.62923789356E+02  0.87084826161E+02  0.00000000000E+00 0.  1.
</event>
<event>
 7    1  0.5452757E-006  0.1194308E+03  0.7818608E-02  0.1256840E+00
          2   -1    0    0  502    0  0.00000000000E+00  0.00000000000E+00  0.85038580698E+03  0.85038580698E+03  0.00000000000E+00 0. -1.
          1   -1    0    0  501    0 -0.00000000000E+00 -0.00000000000E+00 -0.47692425758E+03  0.47692425758E+03  0.00000000000E+00 0. -1.
         25    2    1    2    0    0  0.17319231109E+02  0.20050173915E+03  0.24823487193E+03  0.34314019378E+03  0.12499495100E+03 0.  0.
          2    1    1    2  501    0  0.30850900679E+02 -0.10047504572E+03 -0.41733456146E+03  0.43036629640E+03  0.00000000000E+00 0. -1.
          1    1    1    2  502    0 -0.48170131788E+02 -0.10002669343E+03  0.54256123893E+03  0.55380357437E+03  0.00000000000E+00 0. -1.
         22    1    3    3    0    0 -0.51479456006E+02  0.11973912735E+03  0.14760992046E+03  0.19691694093E+03  0.00000000000E+00 0.  1.
         22    1    3    3    0    0  0.68798687115E+02  0.80762611806E+02  0.10062495148E+03  0.14622325285E+03  0.00000000000E+00 0.  1.
</event>
<event>
 7    1  0.5452757E-006  0.7132177E+02  0.7818608E-02  0.1456650E+00
          2   -1    0    0  502    0  0.00000000000E+00  0.00000000000E+00  0.11152206470E+03  0.11152206470E+03  0.00000000000E+00 0. -1.
          1   -1    0    0  501    0 -0.00000000000E+00 -0.00000000000E+00 -0.87552646320E+03  0.87552646320E+03  0.00000000000E+00 0. -1.
         25    2    1    2    0    0  0.53574133104E+02 -0.14566495868E+02 -0.37685348111E+02  0.14187126605E+03  0.12499960052E+03 0.  0.
          2    1    1    2  501    0  0.22544204333E+02  0.23067200460E+02 -0.76058603813E+03  0.76126963573E+03  0.00000000000E+00 0. -1.
          1    1    1    2  502    0 -0.76118337437E+02 -0.85007045923E+01  0.34266987734E+02  0.83907626120E+02  0.00000000000E+00 0. -1.
         22    1    3    3    0    0 -0.32052647834E+02  0.11733796480E+02  0.15725763001E+02  0.37581296345E+02  0.00000000000E+00 0. -1.
         22    1    3    3    0    0  0.85626780938E+02 -0.26300292348E+02 -0.53411111112E+02  0.10428996971E+03  0.00000000000E+00 0. -1.
</event>
<event>
 7    1  0.5452757E-006  0.1273129E+03  0.7818608E-02  0.1244163E+00
          2   -1    0    0  502    0  0.00000000000E+00  0.00000000000E+00  0.97078655922E+03  0.97078655922E+03  0.00000000000E+00 0. -1.
          1   -1    0    0  501    0 -0.00000000000E+00 -0.00000000000E+00 -0.11774890408E+04  0.11774890408E+04  0.00000000000E+00 0. -1.
         25    2    1    2    0    0 -0.21846428642E+03  0.28736714323E+02 -0.18448894024E+03  0.31339048636E+03  0.12499993871E+03 0.  0.
          2    1    1    2  501    0  0.10949397201E+03 -0.54159057881E+02 -0.92104753878E+03  0.92911285759E+03  0.00000000000E+00 0. -1.
          1    1    1    2  502    0  0.10897031441E+03  0.25422343558E+02  0.89883399742E+03  0.90577225609E+03  0.00000000000E+00 0. -1.
         22    1    3    3    0    0 -0.12093526723E+03 -0.42898888378E+02 -0.12259915946E+03  0.17747170869E+03  0.00000000000E+00 0.  1.
         22    1    3    3    0    0 -0.97529019189E+02  0.71635602701E+02 -0.61889780776E+02  0.13591877767E+03  0.00000000000E+00 0.  1.
</event>
<event>
 7    1  0.5452757E-006  0.1153433E+03  0.7818608E-02  0.1325609E+00
          2   -1    0    0  502    0  0.00000000000E+00  0.00000000000E+00  0.10165209059E+04  0.10165209059E+04  0.00000000000E+00 0. -1.
          1   -1    0    0  501    0 -0.00000000000E+00 -0.00000000000E+00 -0.12478468382E+03  0.12478468382E+03  0.00000000000E+00 0. -1.
         25    2    1    2    0    0  0.12593019992E+03 -0.22758829866E+02  0.42937264483E+03  0.46514763938E+03  0.12500031482E+03 0.  0.
          2    1    1    2  501    0 -0.16051848901E+02  0.54900958164E+02 -0.92964510429E+02  0.10915208317E+03  0.00000000000E+00 0. -1.
          1    1    1    2  502    0 -0.10987835102E+03 -0.32142128298E+02  0.55532808773E+03  0.56700586721E+03  0.00000000000E+00 0. -1.
         22    1    3    3    0    0  0.11986685261E+01  0.30553849596E+02  0.27954149852E+02  0.41429567042E+02  0.00000000000E+00 0. -1.
         22    1    3    3    0    0  0.12473153139E+03 -0.53312679462E+02  0.40141849498E+03  0.42371807234E+03  0.00000000000E+00 0. -1.
</event>
<event>
 7    1  0.5452757E-006  0.1387209E+03  0.7818608E-02  0.1277765E+00
          2   -1    0    0  502    0  0.00000000000E+00  0.00000000000E+00  0.13183333308E+04  0.13183333308E+04  0.00000000000E+00 0. -1.
          1   -1    0    0  501    0 -0.00000000000E+00 -0.00000000000E+00 -0.19841910871E+04  0.19841910871E+04  0.00000000000E+00 0. -1.
         25    2    1    2    0    0 -0.13104516137E+02 -0.14069373255E+03 -0.20519290128E+03  0.27874307929E+03  0.12500849088E+03 0.  0.
          2    1    1    2  501    0  0.81773478120E+02  0.11352763214E+03 -0.17383462396E+04  0.17439676241E+04  0.00000000000E+00 0. -1.
          1    1    1    2  502    0 -0.68668961982E+02  0.27166100412E+02  0.12776813846E+04  0.12798137145E+04  0.00000000000E+00 0. -1.
         22    1    3    3    0    0 -0.60177726469E+02 -0.60668633334E+02 -0.14432732735E+03  0.16772721679E+03  0.00000000000E+00 0.  1.
         22    1    3    3    0    0  0.47073210332E+02 -0.80025099217E+02 -0.60865573935E+02  0.11101586250E+03  0.00000000000E+00 0.  1.
</event>
<event>
 7    1  0.5452757E-006  0.8800875E+02  0.7818608E-02  0.1322982E+00
          2   -1    0    0  502    0  0.00000000000E+00  0.00000000000E+00  0.22988858238E+04  0.22988858238E+04  0.00000000000E+00 0. -1.
          1   -1    0    0  501    0 -0.00000000000E+00 -0.00000000000E+00 -0.30065696125E+02  0.30065696125E+02  0.00000000000E+00 0. -1.
         25    2    1    2    0    0  0.30177454557E+02 -0.31910850563E+02  0.72298183556E+03  0.73502640093E+03  0.12502837421E+03 0.  0.
          2    1    1    2  501    0 -0.26145269374E+02 -0.72141846603E+02  0.43944695052E+02  0.88425999373E+02  0.00000000000E+00 0. -1.
          1    1    1    2  502    0 -0.40321851830E+01  0.10405269717E+03  0.15018935970E+04  0.15054991196E+04  0.00000000000E+00 0. -1.
         22    1    3    3    0    0 -0.42180245726E+02 -0.40774584191E+02  0.27919845267E+03  0.28529548861E+03  0.00000000000E+00 0. -1.
         22    1    3    3    0    0  0.72357700283E+02  0.88637336279E+01  0.44378338289E+03  0.44973091232E+03  0.00000000000E+00 0. -1.
</event>
<event>
 7    1  0.5452757E-006  0.1727060E+03  0.7818608E-02  0.1261544E+00
          2   -1    0    0  502    0  0.00000000000E+00  0.00000000000E+00  0.19928342355E+03  0.19928342355E+03  0.00000000000E+00 0. -1.
          1   -1    0    0  501    0 -0.00000000000E+00 -0.00000000000E+00 -0.45610046484E+03  0.45610046484E+03  0.00000000000E+00 0. -1.
         25    2    1    2    0    0  0.44235161712E+02  0.11047619694E+03  0.26919860958E+01  0.17260991729E+03  0.12500078853E+03 0.  0.
          2    1    1    2  501    0 -0.59901841698E+02 -0.17807985604E+03 -0.33259239854E+03  0.38199262995E+03  0.00000000000E+00 0. -1.
          1    1    1    2  502    0  0.15666679987E+02  0.67603659095E+02  0.73083371154E+02  0.10078134115E+03  0.00000000000E+00 0. -1.
         22    1    3    3    0    0  0.60781092068E+01  0.12564629566E+03  0.21204091371E+02  0.12756781928E+03  0.00000000000E+00 0.  1.
         22    1    3    3    0    0  0.38157052505E+02 -0.15170098719E+02 -0.18512105275E+02  0.45042098005E+02  0.00000000000E+00 0.  1.
</event>
<event>
 7    1  0.5452757E-006  0.5695296E+02  0.7818608E-02  0.1418457E+00
          2   -1    0    0  502    0  0.00000000000E+00  0.00000000000E+00  0.89581361798E+03  0.89581361798E+03  0.00000000000E+00 0. -1.
          1   -1    0    0  501    0 -0.00000000000E+00 -0.00000000000E+00 -0.69826790426E+03  0.69826790426E+03  0.00000000000E+00 0. -1.
         25    2    1    2    0    0 -0.65851522526E+02  0.83782292829E+02 -0.22161432149E+02  0.16574779333E+03  0.12500122523E+03 0.  0.
          2    1    1    2  501    0  0.43199566175E+02 -0.32048414199E+02 -0.60214535491E+03  0.60454307688E+03  0.00000000000E+00 0. -1.
          1    1    1    2  502    0  0.22651956351E+02 -0.51733878630E+02  0.82185250078E+03  0.82379065202E+03  0.00000000000E+00 0. -1.
         22    1    3    3    0    0 -0.26559647850E+02  0.73417607811E+01 -0.64351657482E+02  0.70003229682E+02  0.00000000000E+00 0.  1.
         22    1    3    3    0    0 -0.39291874676E+02  0.76440532048E+02  0.42190225332E+02  0.95744563652E+02  0.00000000000E+00 0.  1.
</event>
<event>
 7    1  0.5452757E-006  0.5973476E+02  0.7818608E-02  0.1527159E+00
          2   -1    0    0  502    0  0.00000000000E+00  0.00000000000E+00  0.76401024121E+03  0.76401024121E+03  0.00000000000E+00 0. -1.
          1   -1    0    0  501    0 -0.00000000000E+00 -0.00000000000E+00 -0.14753839151E+03  0.14753839151E+03  0.00000000000E+00 0. -1.
         25    2    1    2    0    0 -0.78154103960E+01  0.42090090477E+02  0.34366620628E+03  0.36819155443E+03  0.12500361220E+03 0.  0.
          2    1    1    2  501    0 -0.17292223958E+02  0.16043262713E+02 -0.13176549982E+03  0.13386020406E+03  0.00000000000E+00 0. -1.
          1    1    1    2  502    0  0.25107634354E+02 -0.58133353191E+02  0.40457114325E+03  0.40949687423E+03  0.00000000000E+00 0. -1.
         22    1    3    3    0    0 -0.43357595296E+02 -0.20288743431E+02  0.22042890949E+03  0.22556688214E+03  0.00000000000E+00 0.  1.
         22    1    3    3    0    0  0.35542184900E+02  0.62378833908E+02  0.12323729679E+03  0.14262467230E+03  0.00000000000E+00 0.  1.
</event>
<event>
 7    1  0.5452757E-006  0.1024379E+03  0.7818608E-02  0.1333413E+00
          2   -1    0    0  502    0  0.00000000000E+00  0.00000000000E+00  0.15126492790E+04  0.15126492790E+04  0.00000000000E+00 0. -1.
          1   -1    0    0  501    0 -0.00000000000E+00 -0.00000000000E+00 -0.24894348688E+03  0.24894348688E+03  0.00000000000E+00 0. -1.
         25    2    1    2    0    0 -0.97717416337E+02 -0.64195992997E+02  0.30512423659E+03  0.34985338219E+03  0.12500708101E+03 0.  0.
          2    1    1    2  501    0  0.53157966946E+02 -0.28103166187E+02 -0.22032665202E+03  0.22838430548E+03  0.00000000000E+00 0. -1.
          1    1    1    2  502    0  0.44559449390E+02  0.92299159184E+02  0.11789082076E+04  0.11833550782E+04  0.00000000000E+00 0. -1.
         22    1    3    3    0    0 -0.49047175059E+02 -0.52650012385E+02  0.28819982041E+03  0.29704677354E+03  0.00000000000E+00 0.  1.
         22    1    3    3    0    0 -0.48670241278E+02 -0.11545980613E+02  0.16924416185E+02  0.52806608654E+02  0.00000000000E+00 0.  1.
</event>
<event>
 7    1  0.5452757E-006  0.1627921E+03  0.7818608E-02  0.1334034E+00
          2   -1    0    0  502    0  0.00000000000E+00  0.00000000000E+00  0.39499679377E+03  0.39499679377E+03  0.00000000000E+00 0. -1.
          1   -1    0    0  501    0 -0.00000000000E+00 -0.00000000000E+00 -0.28352239157E+04  0.28352239157E+04  0.00000000000E+00 0. -1.
         25    2    1    2    0    0  0.22313612482E+02 -0.14066679384E+03 -0.11569442282E+03  0.22202655556E+03  0.12500219083E+03 0.  0.
          2    1    1    2  501    0  0.34631584447E+02 -0.14724475266E+02 -0.26461905375E+04  0.26464581080E+04  0.00000000000E+00 0. -1.
          1    1    1    2  502    0 -0.56945196929E+02  0.15539126910E+03  0.32165783833E+03  0.36173604593E+03  0.00000000000E+00 0. -1.
         22    1    3    3    0    0 -0.27642675642E+02 -0.86853724434E+02 -0.77493409823E+01  0.91475347774E+02  0.00000000000E+00 0. -1.
         22    1    3    3    0    0  0.49956288124E+02 -0.53813069402E+02 -0.10794508183E+03  0.13055120778E+03  0.00000000000E+00 0. -1.
</event>
<event>
 7    1  0.5452757E-006  0.5489152E+02  0.7818608E-02  0.1428260E+00
          2   -1    0    0  502    0  0.00000000000E+00  0.00000000000E+00  0.76844158854E+03  0.76844158854E+03  0.00000000000E+00 0. -1.
          1   -1    0    0  501    0 -0.00000000000E+00 -0.00000000000E+00 -0.33238429242E+03  0.33238429242E+03  0.00000000000E+00 0. -1.
         25    2    1    2    0    0 -0.44687519869E+02  0.69241578004E+01  0.28122193090E+03  0.31105564912E+03  0.12499969615E+03 0.  0.
          2    1    1    2  501    0  0.21851294252E+02  0.46938554014E+02 -0.31352437121E+03  0.31777073223E+03  0.00000000000E+00 0. -1.
          1    1    1    2  502    0  0.22836225617E+02 -0.53862711815E+02  0.46835973643E+03  0.47199949961E+03  0.00000000000E+00 0. -1.
         22    1    3    3    0    0  0.98310288127E+01 -0.45301309881E+02  0.17299384963E+03  0.17909698438E+03  0.00000000000E+00 0. -1.
         22    1    3    3    0    0 -0.54518548682E+02  0.52225467681E+02  0.10822808126E+03  0.13195866474E+03  0.00000000000E+00 0. -1.
</event>
<event>
 7    1  0.5452757E-006  0.1114956E+03  0.7818608E-02  0.1333988E+00
          2   -1    0    0  502    0  0.00000000000E+00  0.00000000000E+00  0.84983446636E+03  0.84983446636E+03  0.00000000000E+00 0. -1.
          1   -1    0    0  501    0 -0.00000000000E+00 -0.00000000000E+00 -0.20086654283E+04  0.20086654283E+04  0.00000000000E+00 0. -1.
         25    2    1    2    0    0  0.90118019378E+02  0.41143676635E+02  0.10297032136E+03  0.18987949207E+03  0.12504908989E+03 0.  0.
          2    1    1    2  501    0 -0.65724116376E+02 -0.90401799605E+02 -0.19625445285E+04  0.19657245919E+04  0.00000000000E+00 0. -1.
          1    1    1    2  502    0 -0.24393903002E+02  0.49258122969E+02  0.70074324513E+03  0.70289581076E+03  0.00000000000E+00 0. -1.
         22    1    3    3    0    0 -0.22657304551E+01 -0.13915162193E+02  0.78274520708E+02  0.79534054753E+02  0.00000000000E+00 0. -1.
         22    1    3    3    0    0  0.92383749833E+02  0.55058838828E+02  0.24695800652E+02  0.11034543731E+03  0.00000000000E+00 0. -1.
</event>
<event>
 7    1  0.5452757E-006  0.1271088E+03  0.7818608E-02  0.1341524E+00
          2   -1    0    0  502    0  0.00000000000E+00  0.00000000000E+00  0.27015550922E+04  0.27015550922E+04  0.00000000000E+00 0. -1.
          1   -1    0    0  501    0 -0.00000000000E+00 -0.00000000000E+00 -0.65458560858E+02  0.65458560858E+02  0.00000000000E+00 0. -1.
         25    2    1    2    0    0 -0.12336789574E+03 -0.71584408469E+02  0.11523032237E+04  0.11678069898E+04  0.12500592294E+03 0.  0.
          2    1    1    2  501    0  0.40398569711E+02 -0.20180273181E+02 -0.45975316192E+02  0.64443910181E+02  0.00000000000E+00 0. -1.
          1    1    1    2  502    0  0.82969326024E+02  0.91764681650E+02  0.15297686238E+04  0.15347627530E+04  0.00000000000E+00 0. -1.
         22    1    3    3    0    0 -0.78853750454E+02 -0.14130736341E+02  0.24866472724E+03  0.26125033635E+03  0.00000000000E+00 0. -1.
         22    1    3    3    0    0 -0.44514145282E+02 -0.57453672128E+02  0.90363849651E+03  0.90655665347E+03  0.00000000000E+00 0. -1.
</event>
<event>
 7    1  0.5452757E-006  0.7118216E+02  0.7818608E-02  0.1475839E+00
          2   -1    0    0  502    0  0.00000000000E+00  0.00000000000E+00  0.99701030896E+03  0.99701030896E+03  0.00000000000E+00 0. -1.
          1   -1    0    0  501    0 -0.00000000000E+00 -0.00000000000E+00 -0.48658960938E+03  0.48658960938E+03  0.00000000000E+00 0. -1.
         25    2    1    2    0    0 -0.90284187071E+02 -0.14520220092E+02  0.89168515746E+02  0.17871746000E+03  0.12500734011E+03 0.  0.
          2    1    1    2  501    0  0.70585578054E+02 -0.55846229520E+01 -0.43874653387E+03  0.44442325864E+03  0.00000000000E+00 0. -1.
          1    1    1    2  502    0  0.19698609017E+02  0.20104843044E+02  0.85999871769E+03  0.86045919970E+03  0.00000000000E+00 0. -1.
         22    1    3    3    0    0  0.50904765282E+01 -0.51929827664E+02  0.25282258188E+02  0.57981139448E+02  0.00000000000E+00 0. -1.
         22    1    3    3    0    0 -0.95374663599E+02  0.37409607573E+02  0.63886257558E+02  0.12073632055E+03  0.00000000000E+00 0. -1.
</event>
<event>
 7    1  0.5452757E-006  0.1144951E+03  0.7818608E-02  0.1256808E+00
          2   -1    0    0  502    0  0.00000000000E+00  0.00000000000E+00  0.72180667069E+03  0.72180667069E+03  0.00000000000E+00 0. -1.
          1   -1    0    0  501    0 -0.00000000000E+00 -0.00000000000E+00 -0.25786598987E+03  0.25786598987E+03  0.00000000000E+00 0. -1.
         25    2    1    2    0    0 -0.73585972748E+02 -0.78099692574E+02 -0.34263673658E+01  0.16477651951E+03  0.12500041609E+03 0.  0.
          2    1    1    2  501    0 -0.33832476735E+02  0.11772792824E+03 -0.14620294313E+03  0.19073490018E+03  0.00000000000E+00 0. -1.
          1    1    1    2  502    0  0.10741844948E+03 -0.39628235664E+02  0.61356999132E+03  0.62416124087E+03  0.00000000000E+00 0. -1.
         22    1    3    3    0    0 -0.20424416678E+02 -0.99728290666E+02  0.18260136338E+02  0.10342302130E+03  0.00000000000E+00 0. -1.
         22    1    3    3    0    0 -0.53161556070E+02  0.21628598092E+02 -0.21686503703E+02  0.61353498206E+02  0.00000000000E+00 0. -1.
</event>
<event>
 7    1  0.5452757E-006  0.1015829E+03  0.7818608E-02  0.1371051E+00
          2   -1    0    0  502    0  0.00000000000E+00  0.00000000000E+00  0.53253144781E+03  0.53253144781E+03  0.00000000000E+00 0. -1.
          1   -1    0    0  501    0 -0.00000000000E+00 -0.00000000000E+00 -0.71265684209E+02  0.71265684209E+02  0.00000000000E+00 0. -1.
         25    2    1    2    0    0  0.64380139909E+02  0.43140207036E+02  0.19006456069E+03  0.24032311874E+03  0.12499913716E+03 0.  0.
          2    1    1    2  501    0  0.43025966219E+02 -0.93353462299E+01 -0.22128144044E+02  0.49275117627E+02  0.00000000000E+00 0. -1.
          1    1    1    2  502    0 -0.10740610613E+03 -0.33804860806E+02  0.29332934696E+03  0.31419889566E+03  0.00000000000E+00 0. -1.
         22    1    3    3    0    0 -0.35264478628E+02  0.24325383246E+02  0.36407385922E+02  0.56221041192E+02  0.00000000000E+00 0.  1.
         22    1    3    3    0    0  0.99644618537E+02  0.18814823790E+02  0.15365717477E+03  0.18410207754E+03  0.00000000000E+00 0.  1.
</event>
<event>
 7    1  0.5452757E-006  0.9647150E+02  0.7818608E-02  0.1475285E+00
          2   -1    0    0  502    0  0.00000000000E+00  0.00000000000E+00  0.12899996729E+03  0.12899996729E+03  0.00000000000E+00 0. -1.
          1   -1    0    0  501    0 -0.00000000000E+00 -0.00000000000E+00 -0.61825348810E+03  0.61825348810E+03  0.00000000000E+00 0. -1.
         25    2    1    2    0    0  0.10400140567E+03 -0.17175216762E+01 -0.11941526941E+03  0.20175060362E+03  0.12499622887E+03 0.  0.
          2    1    1    2  501    0 -0.10546057830E+02 -0.17986507789E+02 -0.43137942367E+03  0.43188301768E+03  0.00000000000E+00 0. -1.
          1    1    1    2  502    0 -0.93455347841E+02  0.19704029465E+02  0.61541172261E+02  0.11361983410E+03  0.00000000000E+00 0. -1.
         22    1    3    3    0    0  0.10482055098E+03  0.27405056173E+02 -0.13134886939E+03  0.17026717388E+03  0.00000000000E+00 0. -1.
         22    1    3    3    0    0 -0.81914530463E+00 -0.29122577849E+02  0.11933599984E+02  0.31483429740E+02  0.00000000000E+00 0. -1.
</event>
<event>
 7    1  0.5452757E-006  0.9765189E+02  0.7818608E-02  0.1304137E+00
          2   -1    0    0  502    0  0.00000000000E+00  0.00000000000E+00  0.35813618661E+04  0.35813618661E+04  0.00000000000E+00 0. -1.
          1   -1    0    0  501    0 -0.00000000000E+00 -0.00000000000E+00 -0.23186573557E+04  0.23186573557E+04  0.00000000000E+00 0. -1.
         25    2    1    2    0    0 -0.17874441250E+03  0.76675290588E+01 -0.14057771529E+03  0.25960538493E+03  0.12499802336E+03 0.  0.
          2    1    1    2  501    0  0.81388081020E+02 -0.98016092465E+01 -0.21170992602E+04  0.21186857645E+04  0.00000000000E+00 0. -1.
          1    1    1    2  502    0  0.97356331483E+02  0.21340801876E+01  0.35203814859E+04  0.35217280723E+04  0.00000000000E+00 0. -1.
         22    1    3    3    0    0 -0.47362969651E+01  0.31278923648E+02 -0.56858612607E+02  0.65066930165E+02  0.00000000000E+00 0.  1.
         22    1    3    3    0    0 -0.17400811554E+03 -0.23611394589E+02 -0.83719102683E+02  0.19453845476E+03  0.00000000000E+00 0.  1.
</event>
<event>
 7    1  0.5452757E-006  0.1466677E+03  0.7818608E-02  0.1222643E+00
          2   -1    0    0  502    0  0.00000000000E+00  0.00000000000E+00  0.36157410381E+04  0.36157410381E+04  0.00000000000E+00 0. -1.
          1   -1    0    0  501    0 -0.00000000000E+00 -0.00000000000E+00 -0.29163606975E+03  0.29163606975E+03  0.00000000000E+00 0. -1.
         25    2    1    2    0    0 -0.13971133520E+03  0.95682864664E+02  0.38603731046E+03  0.43968652243E+03  0.12499986068E+03 0.  0.
          2    1    1    2  501    0  0.14564444331E+03  0.25317907709E+02 -0.24293722016E+03  0.28437966393E+03  0.00000000000E+00 0. -1.
          1    1    1    2  502    0 -0.59331081182E+01 -0.12100077237E+03  0.31810048781E+04  0.31833109215E+04  0.00000000000E+00 0. -1.
         22    1    3    3    0    0 -0.96042937787E+02  0.11450165934E+03  0.34820536310E+03  0.37892195869E+03  0.00000000000E+00 0.  1.
         22    1    3    3    0    0 -0.43668397409E+02 -0.18818794677E+02  0.37831947361E+02  0.60764563740E+02  0.00000000000E+00 0.  1.
</event>
<event>
 7    1  0.5452757E-006  0.7544657E+02  0.7818608E-02  0.1412300E+00
          2   -1    0    0  502    0  0.00000000000E+00  0.00000000000E+00  0.30314089042E+03  0.30314089042E+03  0.00000000000E+00 0. -1.
          1   -1    0    0  501    0 -0.00000000000E+00 -0.00000000000E+00 -0.11657194342E+03  0.11657194342E+03  0.00000000000E+00 0. -1.
         25    2    1    2    0    0  0.66785103923E+02  0.35529629629E+02  0.61070916228E+02  0.15834142223E+03  0.12497897622E+03 0.  0.
          2    1    1    2  501    0 -0.38395150273E+02 -0.67273477811E+02 -0.42297915417E+02  0.88255436262E+02  0.00000000000E+00 0. -1.
          1    1    1    2  502    0 -0.28389953650E+02  0.31743848182E+02  0.16779594618E+03  0.17311597535E+03  0.00000000000E+00 0. -1.
         22    1    3    3    0    0  0.74776077260E+02 -0.10330710783E+02  0.78246087809E+02  0.10872274635E+03  0.00000000000E+00 0. -1.
         22    1    3    3    0    0 -0.79909733376E+01  0.45860340412E+02 -0.17175171581E+02  0.49618675883E+02  0.00000000000E+00 0. -1.
</event>
<event>
 7    1  0.5452757E-006  0.4669865E+02  0.7818608E-02  0.1536985E+00
          2   -1    0    0  502    0  0.00000000000E+00  0.00000000000E+00  0.48910984293E+03  0.48910984293E+03  0.00000000000E+00 0. -1.
          1   -1    0    0  501    0 -0.00000000000E+00 -0.00000000000E+00 -0.81965694704E+03  0.81965694704E+03  0.00000000000E+00 0. -1.
         25    2    1    2    0    0 -0.62075821128E+02  0.10477710994E+02 -0.96038296462E+02  0.16977696382E+03  0.12505068197E+03 0.  0.
          2    1    1    2  501    0  0.44896077307E+02  0.11991213809E+02 -0.68551968665E+03  0.68709292512E+03  0.00000000000E+00 0. -1.
          1    1    1    2  502    0  0.17179743821E+02 -0.22468924803E+02  0.45101087900E+03  0.45189690103E+03  0.00000000000E+00 0. -1.
         22    1    3    3    0    0 -0.20062282833E+02  0.66664905392E+02 -0.52664783056E+02  0.87294239087E+02  0.00000000000E+00 0. -1.
         22    1    3    3    0    0 -0.42013538294E+02 -0.56187194398E+02 -0.43373513406E+02  0.82482724734E+02  0.00000000000E+00 0. -1.
</event>
<event>
 7    1  0.5452757E-006  0.1001035E+03  0.7818608E-02  0.1370805E+00
          2   -1    0    0  502    0  0.00000000000E+00  0.00000000000E+00  0.14142727377E+04  0.14142727377E+04  0.00000000000E+00 0. -1.
          1   -1    0    0  501    0 -0.00000000000E+00 -0.00000000000E+00 -0.33668574963E+03  0.33668574963E+03  0.00000000000E+00 0. -1.
         25    2    1    2    0    0 -0.73516034757E+02 -0.84595972956E+02  0.12698029551E+03  0.21049921260E+03  0.12499934820E+03 0.  0.
          2    1    1    2  501    0 -0.16688397070E+02  0.41541805264E+02 -0.29120770106E+03  0.29462883318E+03  0.00000000000E+00 0. -1.
          1    1    1    2  502    0  0.90204431827E+02  0.43054167692E+02  0.12418143937E+04  0.12458304416E+04  0.00000000000E+00 0. -1.
         22    1    3    3    0    0 -0.22078391814E+02 -0.10720626973E+03  0.67105332206E+02  0.12838911662E+03  0.00000000000E+00 0.  1.
         22    1    3    3    0    0 -0.51437642943E+02  0.22610296777E+02  0.59874963309E+02  0.82110095987E+02  0.00000000000E+00 0.  1.
</event>
<event>
 7    1  0.5452757E-006  0.9654475E+02  0.7818608E-02  0.1335700E+00
          2   -1    0    0  502    0  0.00000000000E+00  0.00000000000E+00  0.33702492708E+03  0.33702492708E+03  0.00000000000E+00 0. -1.
          1   -1    0    0  501    0 -0.00000000000E+00 -0.00000000000E+00 -0.60472250560E+03  0.60472250560E+03  0.00000000000E+00 0. -1.
         25    2    1    2    0    0 -0.29801220327E+02 -0.37020689081E+02  0.41423947897E+02  0.13999666879E+03  0.12499791863E+03 0.  0.
          2    1    1    2  501    0  0.92336470315E+02  0.36416996248E+02 -0.54692632162E+03  0.55586025460E+03  0.00000000000E+00 0. -1.
          1    1    1    2  502    0 -0.62535249988E+02  0.60369283293E+00  0.23780479520E+03  0.24589050928E+03  0.00000000000E+00 0. -1.
         22    1    3    3    0    0 -0.52247005400E+02  0.24404952437E+02 -0.77355331324E+01  0.58182383498E+02  0.00000000000E+00 0. -1.
         22    1    3    3    0    0  0.22445785073E+02 -0.61425641518E+02  0.49159481029E+02  0.81814285296E+02  0.00000000000E+00 0. -1.
</event>
<event>
 7    1  0.5452757E-006  0.5471474E+02  0.7818608E-02  0.1451612E+00
          2   -1    0    0  502    0  0.00000000000E+00  0.00000000000E+00  0.69969153855E+03  0.69969153855E+03  0.00000000000E+00 0. -1.
          1   -1    0    0  501    0 -0.00000000000E+00 -0.00000000000E+00 -0.84094078633E+02  0.84094078633E+02  0.00000000000E+00 0. -1.
         25    2    1    2    0    0  0.15310015263E+02 -0.27885120524E+01  0.20121119593E+03  0.23738341456E+03  0.12499107079E+03 0.  0.
          2    1    1    2  501    0 -0.45824034183E+02  0.33965149116E+02 -0.52476026793E+02  0.77506172988E+02  0.00000000000E+00 0. -1.
          1    1    1    2  502    0  0.30514018920E+02 -0.31176637064E+02  0.46686229078E+03  0.46889602963E+03  0.00000000000E+00 0. -1.
         22    1    3    3    0    0 -0.38419677075E+02  0.29450743046E+02  0.34950883701E+02  0.59707471258E+02  0.00000000000E+00 0. -1.
         22    1    3    3    0    0  0.53729692338E+02 -0.32239255098E+02  0.16626031223E+03  0.17767594331E+03  0.00000000000E+00 0. -1.
</event>
<event>
 7    1  0.5452757E-006  0.7334712E+02  0.7818608E-02  0.1490326E+00
          2   -1    0    0  502    0  0.00000000000E+00  0.00000000000E+00  0.36301339721E+03  0.36301339721E+03  0.00000000000E+00 0. -1.
          1   -1    0    0  501    0 -0.00000000000E+00 -0.00000000000E+00 -0.21821290342E+03  0.21821290342E+03  0.00000000000E+00 0. -1.
         25    2    1    2    0    0 -0.49447611212E+02 -0.65328093204E+01 -0.46777307761E+02  0.14248181690E+03  0.12500083109E+03 0.  0.
          2    1    1    2  501    0 -0.24665065991E+02 -0.47652803997E+00 -0.11789270141E+03  0.12044617721E+03  0.00000000000E+00 0. -1.
          1    1    1    2  502    0  0.74112677203E+02  0.70093373603E+01  0.30947050296E+03  0.31829830652E+03  0.00000000000E+00 0. -1.
         22    1    3    3    0    0 -0.13793923361E+02 -0.47871397122E+02  0.22178775508E+02  0.54532935618E+02  0.00000000000E+00 0. -1.
         22    1    3    3    0    0 -0.35653687851E+02  0.41338587802E+02 -0.68956083269E+02  0.87948881282E+02  0.00000000000E+00 0. -1.
</event>
<event>
 7    1  0.6141336E-006  0.1402175E+03  0.7818608E-02  0.1381211E+00
          2   -1    0    0  502    0  0.00000000000E+00  0.00000000000E+00  0.13134864925E+04  0.13134864925E+04  0.00000000000E+00 0. -1.
          1   -1    0    0  501    0 -0.00000000000E+00 -0.00000000000E+00 -0.93903601920E+03  0.93903601920E+03  0.00000000000E+00 0. -1.
         25    2    1    2    0    0  0.37219166273E+02  0.11800560894E+03 -0.80058410261E+02  0.19325096421E+03  0.12500398407E+03 0.  0.
          2    1    1    2  501    0 -0.19797246295E+02  0.21662004941E+02 -0.79817045097E+03  0.79870973590E+03  0.00000000000E+00 0. -1.
          1    1    1    2  502    0 -0.17421919977E+02 -0.13966761388E+03  0.12526793345E+04  0.12605618116E+04  0.00000000000E+00 0. -1.
         22    1    3    3    0    0 -0.32994299034E+02  0.42348412769E+02  0.11926666501E+02  0.54993246919E+02  0.00000000000E+00 0.  1.
         22    1    3    3    0    0  0.70213465307E+02  0.75657196173E+02 -0.91985076762E+02  0.13825771729E+03  0.00000000000E+00 0.  1.
</event>
<event>
 7    1  0.5452757E-006  0.5188132E+02  0.7818608E-02  0.1524202E+00
          2   -1    0    0  502    0  0.00000000000E+00  0.00000000000E+00  0.12168433085E+04  0.12168433085E+04  0.00000000000E+00 0. -1.
          1   -1    0    0  501    0 -0.00000000000E+00 -0.00000000000E+00 -0.17583530043E+03  0.17583530043E+03  0.00000000000E+00 0. -1.
         25    2    1    2    0    0  0.25248842586E+02 -0.13589756460E+02  0.18699052705E+03  0.22674415212E+03  0.12500107112E+03 0.  0.
          2    1    1    2  501    0  0.26984099399E+02  0.62437296966E+01 -0.15403379748E+03  0.15650411032E+03  0.00000000000E+00 0. -1.
          1    1    1    2  502    0 -0.52232941985E+02  0.73460267636E+01  0.10080512785E+04  0.10094303465E+04  0.00000000000E+00 0. -1.
         22    1    3    3    0    0  0.70646227991E+02 -0.31849254182E+02  0.95456984559E+02  0.12295243154E+03  0.00000000000E+00 0.  1.
         22    1    3    3    0    0 -0.45397385405E+02  0.18259497721E+02  0.91533542494E+02  0.10379172058E+03  0.00000000000E+00 0.  1.
</event>
<event>
 7    1  0.5452757E-006  0.6843445E+02  0.7818608E-02  0.1441691E+00
          2   -1    0    0  502    0  0.00000000000E+00  0.00000000000E+00  0.23981362580E+03  0.23981362580E+03  0.00000000000E+00 0. -1.
          1   -1    0    0  501    0 -0.00000000000E+00 -0.00000000000E+00 -0.18444951574E+03  0.18444951574E+03  0.00000000000E+00 0. -1.
         25    2    1    2    0    0 -0.17358673127E+02  0.34733909937E+02  0.23945230685E+02  0.13306137788E+03  0.12499675267E+03 0.  0.
          2    1    1    2  501    0  0.50778263405E+02 -0.51825222755E+02 -0.11724119285E+03  0.13787596980E+03  0.00000000000E+00 0. -1.
          1    1    1    2  502    0 -0.33419590278E+02  0.17091312818E+02  0.14866007222E+03  0.15332579386E+03  0.00000000000E+00 0. -1.
         22    1    3    3    0    0  0.34974858414E+01  0.59591743863E+02 -0.32489627879E+02  0.67963109578E+02  0.00000000000E+00 0.  1.
         22    1    3    3    0    0 -0.20856158968E+02 -0.24857833926E+02  0.56434858564E+02  0.65098268299E+02  0.00000000000E+00 0.  1.
</event>
<event>
 7    1  0.5452757E-006  0.8208549E+02  0.7818608E-02  0.1447517E+00
          2   -1    0    0  502    0  0.00000000000E+00  0.00000000000E+00  0.65562997981E+02  0.65562997981E+02  0.00000000000E+00 0. -1.
          1   -1    0    0  501    0 -0.00000000000E+00 -0.00000000000E+00 -0.11961414567E+04  0.11961414567E+04  0.00000000000E+00 0. -1.
         25    2    1    2    0    0 -0.70020982953E+00  0.65534495826E+02 -0.18174183319E+03  0.23010879791E+03  0.12499881801E+03 0.  0.
          2    1    1    2  501    0 -0.25849730767E+02 -0.79436273143E+02 -0.98277506332E+03  0.98631899259E+03  0.00000000000E+00 0. -1.
          1    1    1    2  502    0  0.26549940596E+02  0.13901777318E+02  0.33938437800E+02  0.45276664172E+02  0.00000000000E+00 0. -1.
         22    1    3    3    0    0  0.23044149031E+02  0.72799683008E+02 -0.39988184360E+02  0.86196760607E+02  0.00000000000E+00 0.  1.
         22    1    3    3    0    0 -0.23744358861E+02 -0.72651871828E+01 -0.14175364883E+03  0.14391203730E+03  0.00000000000E+00 0.  1.
</event>
<event>
 7    1  0.5452757E-006  0.1253963E+03  0.7818608E-02  0.1240555E+00
          2   -1    0    0  502    0  0.00000000000E+00  0.00000000000E+00  0.13759203706E+04  0.13759203706E+04  0.00000000000E+00 0. -1.
          1   -1    0    0  501    0 -0.00000000000E+00 -0.00000000000E+00 -0.14502151953E+04  0.14502151953E+04  0.00000000000E+00 0. -1.
         25    2    1    2    0    0  0.15322765462E+03  0.85493209185E+01  0.10271927816E+03  0.22299903135E+03  0.12500205138E+03 0.  0.
          2    1    1    2  501    0 -0.74961768612E+02  0.90909039527E+02 -0.13842645486E+04  0.13892703339E+04  0.00000000000E+00 0. -1.
          1    1    1    2  502    0 -0.78265886008E+02 -0.99458360446E+02  0.12072504457E+04  0.12138662006E+04  0.00000000000E+00 0. -1.
         22    1    3    3    0    0  0.43400825543E+02  0.49602465381E+02  0.79855116808E+02  0.10354166268E+03  0.00000000000E+00 0. -1.
         22    1    3    3    0    0  0.10982682908E+03 -0.41053144462E+02  0.22864161349E+02  0.11945736867E+03  0.00000000000E+00 0. -1.
</event>
<event>
 7    1  0.5452757E-006  0.3943523E+02  0.7818608E-02  0.1556239E+00
          2   -1    0    0  502    0  0.00000000000E+00  0.00000000000E+00  0.15103375576E+04  0.15103375576E+04  0.00000000000E+00 0. -1.
          1   -1    0    0  501    0 -0.00000000000E+00 -0.00000000000E+00 -0.22113358322E+03  0.22113358322E+03  0.00000000000E+00 0. -1.
         25    2    1    2    0    0 -0.36013208446E+02  0.47205566174E+02 -0.31832304376E+02  0.14199718997E+03  0.12499835878E+03 0.  0.
          2    1    1    2  501    0  0.34429022339E+02 -0.17666960826E+02 -0.13127584051E+03  0.13686060567E+03  0.00000000000E+00 0. -1.
          1    1    1    2  502    0  0.15841861072E+01 -0.29538605349E+02  0.14523121193E+04  0.14526133452E+04  0.00000000000E+00 0. -1.
         22    1    3    3    0    0 -0.29143766399E+02  0.15691791935E+02 -0.78543119099E+02  0.85232699194E+02  0.00000000000E+00 0. -1.
         22    1    3    3    0    0 -0.68694420475E+01  0.31513774239E+02  0.46710814723E+02  0.56764490775E+02  0.00000000000E+00 0. -1.
</event>
<event>
 7    1  0.5452757E-006  0.1211537E+03  0.7818608E-02  0.1258980E+00
          2   -1    0    0  502    0  0.00000000000E+00  0.00000000000E+00  0.21746545586E+04  0.21746545586E+04  0.00000000000E+00 0. -1.
          1   -1    0    0  501    0 -0.00000000000E+00 -0.00000000000E+00 -0.86293794085E+03  0.86293794085E+03  0.00000000000E+00 0. -1.
         25    2    1    2    0    0  0.54678202580E+02 -0.55169331574E+02  0.16289571679E+03  0.21952993951E+03  0.12500007524E+03 0.  0.
          2    1    1    2  501    0 -0.12107058033E+03 -0.21534698666E+02 -0.82878406681E+03  0.83785730173E+03  0.00000000000E+00 0. -1.
          1    1    1    2  502    0  0.66392377752E+02  0.76704030240E+02  0.19776049677E+04  0.19802052582E+04  0.00000000000E+00 0. -1.
         22    1    3    3    0    0  0.85375235162E+02 -0.44106581874E+02  0.16017176117E+03  0.18678681543E+03  0.00000000000E+00 0.  1.
         22    1    3    3    0    0 -0.30697032581E+02 -0.11062749700E+02  0.27239556203E+01  0.32743124079E+02  0.00000000000E+00 0.  1.
</event>
<event>
 7    1  0.5452757E-006  0.6679071E+02  0.7818608E-02  0.1374465E+00
          2   -1    0    0  502    0  0.00000000000E+00  0.00000000000E+00  0.25124763346E+03  0.25124763346E+03  0.00000000000E+00 0. -1.
          1   -1    0    0  501    0 -0.00000000000E+00 -0.00000000000E+00 -0.17563457033E+04  0.17563457033E+04  0.00000000000E+00 0. -1.
         25    2    1    2    0    0  0.27478169216E+02  0.44040423951E+00 -0.11534651641E+03  0.17229276710E+03  0.12499894003E+03 0.  0.
          2    1    1    2  501    0 -0.11730080793E+02 -0.65752593416E+02 -0.16067511282E+04  0.16081387336E+04  0.00000000000E+00 0. -1.
          1    1    1    2  502    0 -0.15748088423E+02  0.65312189176E+02  0.21699957476E+03  0.22716183612E+03  0.00000000000E+00 0. -1.
         22    1    3    3    0    0  0.64785008265E+02 -0.37233516668E+02 -0.62217240114E+02  0.97233826556E+02  0.00000000000E+00 0.  1.
         22    1    3    3    0    0 -0.37306839049E+02  0.37673920908E+02 -0.53129276294E+02  0.75058940546E+02  0.00000000000E+00 0.  1.
</event>
<event>
 7    1  0.5452757E-006  0.9345351E+02  0.7818608E-02  0.1319949E+00
          2   -1    0    0  502    0  0.00000000000E+00  0.00000000000E+00  0.58894159912E+02  0.58894159912E+02  0.00000000000E+00 0. -1.
          1   -1    0    0  501    0 -0.00000000000E+00 -0.00000000000E+00 -0.54967307373E+03  0.54967307373E+03  0.00000000000E+00 0. -1.
         25    2    1    2    0    0 -0.58523517910E+02 -0.42234208922E+02 -0.15838815922E+03  0.21429163679E+03  0.12500146426E+03 0.  0.
          2    1    1    2  501    0 -0.58387606584E+02  0.45857142555E+02 -0.21950010519E+03  0.23171596040E+03  0.00000000000E+00 0. -1.
          1    1    1    2  502    0  0.11691112449E+03 -0.36229336337E+01 -0.11289064941E+03  0.16255963645E+03  0.00000000000E+00 0. -1.
         22    1    3    3    0    0 -0.21492860192E+01  0.16942156392E+02 -0.12474320031E+03  0.12590679933E+03  0.00000000000E+00 0.  1.
         22    1    3    3    0    0 -0.56374231891E+02 -0.59176365314E+02 -0.33644958907E+02  0.88384837461E+02  0.00000000000E+00 0.  1.
</event>
<event>
 7    1  0.5452757E-006  0.1680153E+03  0.7818608E-02  0.1300600E+00
          2   -1    0    0  502    0  0.00000000000E+00  0.00000000000E+00  0.25456266943E+04  0.25456266943E+04  0.00000000000E+00 0. -1.
          1   -1    0    0  501    0 -0.00000000000E+00 -0.00000000000E+00 -0.59104853250E+02  0.59104853250E+02  0.00000000000E+00 0. -1.
         25    2    1    2    0    0 -0.18689488051E+03  0.21721231367E+02  0.11709987738E+04  0.11925872270E+04  0.12499862927E+03 0.  0.
          2    1    1    2  501    0  0.27423462174E+02 -0.40870345248E+02 -0.29621503667E+02  0.57444450366E+02  0.00000000000E+00 0. -1.
          1    1    1    2  502    0  0.15947141833E+03  0.19149113881E+02  0.13451445709E+04  0.13546998702E+04  0.00000000000E+00 0. -1.
         22    1    3    3    0    0 -0.17136090212E+02  0.45338022798E+02  0.39017932846E+03  0.39317819148E+03  0.00000000000E+00 0. -1.
         22    1    3    3    0    0 -0.16975879029E+03 -0.23616791431E+02  0.78081944537E+03  0.79940903547E+03  0.00000000000E+00 0. -1.
</event>
<event>
 7    1  0.5452757E-006  0.1088775E+03  0.7818608E-02  0.1297653E+00
          2   -1    0    0  502    0  0.00000000000E+00  0.00000000000E+00  0.12248642646E+04  0.12248642646E+04  0.00000000000E+00 0. -1.
          1   -1    0    0  501    0 -0.00000000000E+00 -0.00000000000E+00 -0.71469542577E+02  0.71469542577E+02  0.00000000000E+00 0. -1.
         25    2    1    2    0    0  0.14040843500E+03 -0.10538132004E+03  0.36065517063E+03  0.42014020558E+03  0.12500355601E+03 0.  0.
          2    1    1    2  501    0 -0.72751683278E+02  0.66474151327E+02  0.21308943742E+02  0.10082505293E+03  0.00000000000E+00 0. -1.
          1    1    1    2  502    0 -0.67656751723E+02  0.38907168717E+02  0.77143060766E+03  0.77536854867E+03  0.00000000000E+00 0. -1.
         22    1    3    3    0    0 -0.11966736205E+02 -0.45785500501E+02  0.48842429354E+02  0.68008071115E+02  0.00000000000E+00 0.  1.
         22    1    3    3    0    0  0.15237517121E+03 -0.59595819542E+02  0.31181274127E+03  0.35213213447E+03  0.00000000000E+00 0.  1.
</event>
<event>
 7    1  0.5452757E-006  0.1576412E+03  0.7818608E-02  0.1280616E+00
          2   -1    0    0  502    0  0.00000000000E+00  0.00000000000E+00  0.81757079467E+03  0.81757079467E+03  0.00000000000E+00 0. -1.
          1   -1    0    0  501    0 -0.00000000000E+00 -0.00000000000E+00 -0.59829847766E+03  0.59829847766E+03  0.00000000000E+00 0. -1.
         25    2    1    2    0    0  0.55648728054E+01 -0.15141869829E+03 -0.21295662718E+03  0.28971652438E+03  0.12500619760E+03 0.  0.
          2    1    1    2  501    0 -0.68787058632E+02  0.14980874582E+03 -0.32599066251E+03  0.36530019409E+03  0.00000000000E+00 0. -1.
          1    1    1    2  502    0  0.63222185827E+02  0.16099524729E+01  0.75821960670E+03  0.76085255386E+03  0.00000000000E+00 0. -1.
         22    1    3    3    0    0 -0.54432678575E+02 -0.10544928080E+03 -0.15056136012E+03  0.19170600011E+03  0.00000000000E+00 0. -1.
         22    1    3    3    0    0  0.59997551381E+02 -0.45969417491E+02 -0.62395267060E+02  0.98010524270E+02  0.00000000000E+00 0. -1.
</event>
<event>
 7    1  0.5452757E-006  0.5201960E+02  0.7818608E-02  0.1537584E+00
          2   -1    0    0  502    0  0.00000000000E+00  0.00000000000E+00  0.14475495616E+03  0.14475495616E+03  0.00000000000E+00 0. -1.
          1   -1    0    0  501    0 -0.00000000000E+00 -0.00000000000E+00 -0.76094647725E+03  0.76094647725E+03  0.00000000000E+00 0. -1.
         25    2    1    2    0    0 -0.30862479210E+02 -0.14176306837E+02  0.10654499833E+02  0.12997227096E+03  0.12500325017E+03 0.  0.
          2    1    1    2  501    0  0.52305283020E+02  0.76404452359E+00 -0.69813216729E+03  0.70008924389E+03  0.00000000000E+00 0. -1.
          1    1    1    2  502    0 -0.21442803810E+02  0.13412262313E+02  0.71286146374E+02  0.75639918564E+02  0.00000000000E+00 0. -1.
         22    1    3    3    0    0  0.29045742839E+02  0.17506618970E+02  0.43094013547E+02  0.54838224701E+02  0.00000000000E+00 0.  1.
         22    1    3    3    0    0 -0.59908222049E+02 -0.31682925806E+02 -0.32439513714E+02  0.75134046256E+02  0.00000000000E+00 0.  1.
</event>
<event>
 7    1  0.5452757E-006  0.7756758E+02  0.7818608E-02  0.1451122E+00
          2   -1    0    0  502    0  0.00000000000E+00  0.00000000000E+00  0.19929414762E+03  0.19929414762E+03  0.00000000000E+00 0. -1.
          1   -1    0    0  501    0 -0.00000000000E+00 -0.00000000000E+00 -0.10683108868E+04  0.10683108868E+04  0.00000000000E+00 0. -1.
         25    2    1    2    0    0  0.46227363420E+02  0.41069168283E+02 -0.30519094418E+03  0.33554489058E+03  0.12500086190E+03 0.  0.
          2    1    1    2  501    0 -0.37876125150E+02 -0.70801519445E+02 -0.74447372008E+03  0.74879141014E+03  0.00000000000E+00 0. -1.
          1    1    1    2  502    0 -0.83512382701E+01  0.29732351162E+02  0.18064792512E+03  0.18326873365E+03  0.00000000000E+00 0. -1.
         22    1    3    3    0    0  0.17277968445E+02  0.45850756878E+02 -0.30209223539E+03  0.30604009343E+03  0.00000000000E+00 0. -1.
         22    1    3    3    0    0  0.28949394975E+02 -0.47815885954E+01 -0.30987087822E+01  0.29504797153E+02  0.00000000000E+00 0. -1.
</event>
<event>
 7    1  0.5452757E-006  0.6586050E+02  0.7818608E-02  0.1531759E+00
          2   -1    0    0  502    0  0.00000000000E+00  0.00000000000E+00  0.12768354029E+04  0.12768354029E+04  0.00000000000E+00 0. -1.
          1   -1    0    0  501    0 -0.00000000000E+00 -0.00000000000E+00 -0.26102182717E+03  0.26102182717E+03  0.00000000000E+00 0. -1.
         25    2    1    2    0    0 -0.47952800067E+02 -0.65899459556E+02  0.16499168221E+03  0.22246219444E+03  0.12499985181E+03 0.  0.
          2    1    1    2  501    0  0.47477274637E+02  0.45150499298E+02 -0.22756473112E+03  0.23680871193E+03  0.00000000000E+00 0. -1.
          1    1    1    2  502    0  0.47552542982E+00  0.20748960259E+02  0.10783866246E+04  0.10785863237E+04  0.00000000000E+00 0. -1.
         22    1    3    3    0    0 -0.39657368379E+02 -0.52648010829E+02  0.99801242740E+01  0.66664254226E+02  0.00000000000E+00 0. -1.
         22    1    3    3    0    0 -0.82954316884E+01 -0.13251448727E+02  0.15501155794E+03  0.15579794021E+03  0.00000000000E+00 0. -1.
</event>
<event>
 7    1  0.5452757E-006  0.1601777E+03  0.7818608E-02  0.1405768E+00
          2   -1    0    0  502    0  0.00000000000E+00  0.00000000000E+00  0.25126604328E+03  0.25126604328E+03  0.00000000000E+00 0. -1.
          1   -1    0    0  501    0 -0.00000000000E+00 -0.00000000000E+00 -0.22552193149E+03  0.22552193149E+03  0.00000000000E+00 0. -1.
         25    2    1    2    0    0  0.10973543991E+03  0.93304754625E+02 -0.52533109632E+02  0.19781938152E+03  0.12500054436E+03 0.  0.
          2    1    1    2  501    0  0.15929420486E+02  0.13851843829E+02 -0.59980394712E+02  0.63586694868E+02  0.00000000000E+00 0. -1.
          1    1    1    2  502    0 -0.12566486039E+03 -0.10715659845E+03  0.13825761613E+03  0.21538189838E+03  0.00000000000E+00 0. -1.
         22    1    3    3    0    0  0.11649101281E+03  0.79002929374E+02  0.22775053992E+01  0.14077217746E+03  0.00000000000E+00 0.  1.
         22    1    3    3    0    0 -0.67555729056E+01  0.14301825250E+02 -0.54810615031E+02  0.57047204058E+02  0.00000000000E+00 0.  1.
</event>
<event>
 7    1  0.5452757E-006  0.1067329E+03  0.7818608E-02  0.1321700E+00
          2   -1    0    0  502    0  0.00000000000E+00  0.00000000000E+00  0.19751445460E+04  0.19751445460E+04  0.00000000000E+00 0. -1.
          1   -1    0    0  501    0 -0.00000000000E+00 -0.00000000000E+00 -0.10709551693E+03  0.10709551693E+03  0.00000000000E+00 0. -1.
         25    2    1    2    0    0 -0.33541971288E+02 -0.32103539878E+02  0.11227375291E+03  0.17432065392E+03  0.12500637456E+03 0.  0.
          2    1    1    2  501    0 -0.37428550628E+02 -0.51912443806E+02 -0.60647721274E+02  0.88169974025E+02  0.00000000000E+00 0. -1.
          1    1    1    2  502    0  0.70970521916E+02  0.84015983684E+02  0.18164229974E+04  0.18197494350E+04  0.00000000000E+00 0. -1.
         22    1    3    3    0    0  0.33631000433E+02 -0.41812275151E+02  0.15012762409E+02  0.55719777266E+02  0.00000000000E+00 0. -1.
         22    1    3    3    0    0 -0.67172971721E+02  0.97087352734E+01  0.97260990499E+02  0.11860087665E+03  0.00000000000E+00 0. -1.
</event>
<event>
 7    1  0.5452757E-006  0.1079440E+03  0.7818608E-02  0.1440449E+00
          2   -1    0    0  502    0  0.00000000000E+00  0.00000000000E+00  0.79237971326E+03  0.79237971326E+03  0.00000000000E+00 0. -1.
          1   -1    0    0  501    0 -0.00000000000E+00 -0.00000000000E+00 -0.93390744455E+02  0.93390744455E+02  0.00000000000E+00 0. -1.
         25    2    1    2    0    0  0.18181273085E+02 -0.88438611944E+02  0.15770551375E+03  0.22057655955E+03  0.12502416879E+03 0.  0.
          2    1    1    2  501    0  0.17315430911E+02 -0.16646014466E+02 -0.54297370789E+02  0.59372707702E+02  0.00000000000E+00 0. -1.
          1    1    1    2  502    0 -0.35496703997E+02  0.10508462641E+03  0.59558082584E+03  0.60582119046E+03  0.00000000000E+00 0. -1.
         22    1    3    3    0    0 -0.10999167850E+02 -0.86890914217E+02  0.16811059619E+03  0.18955786773E+03  0.00000000000E+00 0. -1.
         22    1    3    3    0    0  0.29180440935E+02 -0.15476977263E+01 -0.10405082442E+02  0.31018691817E+02  0.00000000000E+00 0. -1.
</event>
<event>
 7    1  0.5452757E-006  0.4282270E+02  0.7818608E-02  0.1586024E+00
          2   -1    0    0  502    0  0.00000000000E+00  0.00000000000E+00  0.12211553476E+04  0.12211553476E+04  0.00000000000E+00 0. -1.
          1   -1    0    0  501    0 -0.00000000000E+00 -0.00000000000E+00 -0.19566013913E+03  0.19566013913E+03  0.00000000000E+00 0. -1.
         25    2    1    2    0    0  0.51971780658E+02 -0.28253870092E+02  0.40732774226E+02  0.14416491192E+03  0.12500006310E+03 0.  0.
          2    1    1    2  501    0 -0.41562572821E+02  0.81756190698E+01 -0.14071171022E+03  0.14694922116E+03  0.00000000000E+00 0. -1.
          1    1    1    2  502    0 -0.10409207837E+02  0.20078251022E+02  0.11254741445E+04  0.11257013537E+04  0.00000000000E+00 0. -1.
         22    1    3    3    0    0 -0.16749358762E+02  0.32178086695E+02 -0.12410447638E+02  0.38340442001E+02  0.00000000000E+00 0. -1.
         22    1    3    3    0    0  0.68721139420E+02 -0.60431956787E+02  0.53143221865E+02  0.10582446992E+03  0.00000000000E+00 0. -1.
</event>
<event>
 7    1  0.5452757E-006  0.9148117E+02  0.7818608E-02  0.1404334E+00
          2   -1    0    0  502    0  0.00000000000E+00  0.00000000000E+00  0.14883057282E+04  0.14883057282E+04  0.00000000000E+00 0. -1.
          1   -1    0    0  501    0 -0.00000000000E+00 -0.00000000000E+00 -0.30341221034E+03  0.30341221034E+03  0.00000000000E+00 0. -1.
         25    2    1    2    0    0 -0.17513914517E+02 -0.12605881031E+03  0.41541918409E+02  0.18316385590E+03  0.12500282503E+03 0.  0.
          2    1    1    2  501    0  0.11656960487E+02  0.35516612094E+02 -0.22959230527E+03  0.23261543608E+03  0.00000000000E+00 0. -1.
          1    1    1    2  502    0  0.58569540298E+01  0.90542198214E+02  0.13729439047E+04  0.13759386466E+04  0.00000000000E+00 0. -1.
         22    1    3    3    0    0  0.44612611449E+02 -0.10078191445E+03  0.15890964532E+02  0.11135439881E+03  0.00000000000E+00 0. -1.
         22    1    3    3    0    0 -0.62126525966E+02 -0.25276895861E+02  0.25650953876E+02  0.71809457091E+02  0.00000000000E+00 0. -1.
</event>
<event>
 7    1  0.5452757E-006  0.1242521E+03  0.7818608E-02  0.1345215E+00
          2   -1    0    0  502    0  0.00000000000E+00  0.00000000000E+00  0.15016438582E+04  0.15016438582E+04  0.00000000000E+00 0. -1.
          1   -1    0    0  501    0 -0.00000000000E+00 -0.00000000000E+00 -0.10820043796E+03  0.10820043796E+03  0.00000000000E+00 0. -1.
         25    2    1    2    0    0 -0.11292170372E+03  0.97167924092E+02  0.27546010444E+03  0.33718948880E+03  0.12500226227E+03 0.  0.
          2    1    1    2  501    0  0.25547781992E+01 -0.44677510306E+02 -0.67446276511E+02  0.80941997962E+02  0.00000000000E+00 0. -1.
          1    1    1    2  502    0  0.11036692552E+03 -0.52490413786E+02  0.11854295923E+04  0.11917128094E+04  0.00000000000E+00 0. -1.
         22    1    3    3    0    0 -0.58704338838E+02  0.27620618381E+02  0.21488020935E+02  0.68343492754E+02  0.00000000000E+00 0.  1.
         22    1    3    3    0    0 -0.54217364877E+02  0.69547305711E+02  0.25397208351E+03  0.26884599604E+03  0.00000000000E+00 0.  1.
</event>
<event>
 7    1  0.5452757E-006  0.9755200E+02  0.7818608E-02  0.1312822E+00
          2   -1    0    0  502    0  0.00000000000E+00  0.00000000000E+00  0.19019415345E+04  0.19019415345E+04  0.00000000000E+00 0. -1.
          1   -1    0    0  501    0 -0.00000000000E+00 -0.00000000000E+00 -0.45377142488E+02  0.45377142488E+02  0.00000000000E+00 0. -1.
         25    2    1    2    0    0 -0.50943370694E+02  0.55425621616E+01  0.68442564141E+03  0.69763123743E+03  0.12499975119E+03 0.  0.
          2    1    1    2  501    0  0.82003467114E+02  0.63631289608E+02  0.34287101803E+02  0.10931200751E+03  0.00000000000E+00 0. -1.
          1    1    1    2  502    0 -0.31060096419E+02 -0.69173851770E+02  0.11378516488E+04  0.11403754321E+04  0.00000000000E+00 0. -1.
         22    1    3    3    0    0 -0.42803981172E+02 -0.53439850502E+02  0.47487967044E+03  0.47979026649E+03  0.00000000000E+00 0.  1.
         22    1    3    3    0    0 -0.81393895218E+01  0.58982412664E+02  0.20954597098E+03  0.21784097094E+03  0.00000000000E+00 0.  1.
</event>
<event>
 7    1  0.5452757E-006  0.4209071E+02  0.7818608E-02  0.1578856E+00
          2   -1    0    0  502    0  0.00000000000E+00  0.00000000000E+00  0.17115545599E+03  0.17115545599E+03  0.00000000000E+00 0. -1.
          1   -1    0    0  501    0 -0.00000000000E+00 -0.00000000000E+00 -0.19624323846E+03  0.19624323846E+03  0.00000000000E+00 0. -1.
         25    2    1    2    0    0 -0.21492742835E+02 -0.46435928212E+01  0.64625293537E+02  0.14242773700E+03  0.12500292298E+03 0.  0.
          2    1    1    2  501    0  0.41957531178E+02 -0.79841270892E+01 -0.15216701877E+03  0.15804740526E+03  0.00000000000E+00 0. -1.
          1    1    1    2  502    0 -0.20464788344E+02  0.12627719910E+02  0.62453942764E+02  0.66923552198E+02  0.00000000000E+00 0. -1.
         22    1    3    3    0    0 -0.95270802638E+01 -0.53707361037E+01  0.10230455460E+03  0.10288747230E+03  0.00000000000E+00 0. -1.
         22    1    3    3    0    0 -0.11965662571E+02  0.72714328249E+00 -0.37679261062E+02  0.39540264697E+02  0.00000000000E+00 0. -1.
</event>
<event>
 7    1  0.5452757E-006  0.6018646E+02  0.7818608E-02  0.1420579E+00
          2   -1    0    0  502    0  0.00000000000E+00  0.00000000000E+00  0.24384351779E+04  0.24384351779E+04  0.00000000000E+00 0. -1.
          1   -1    0    0  501    0 -0.00000000000E+00 -0.00000000000E+00 -0.80894978697E+03  0.80894978697E+03  0.00000000000E+00 0. -1.
         25    2    1    2    0    0  0.37696741630E+02  0.14099416684E+02  0.55752401950E+02  0.14266593335E+03  0.12500160133E+03 0.  0.
          2    1    1    2  501    0  0.12020401311E+02 -0.48611077538E+02 -0.76428207999E+03  0.76592076920E+03  0.00000000000E+00 0. -1.
          1    1    1    2  502    0 -0.49717142941E+02  0.34511660854E+02  0.23380150690E+04  0.23387982623E+04  0.00000000000E+00 0. -1.
         22    1    3    3    0    0 -0.23790742908E+02 -0.41880117164E+02  0.20038319514E+02  0.52167786140E+02  0.00000000000E+00 0. -1.
         22    1    3    3    0    0  0.61487484539E+02  0.55979533848E+02  0.35714082437E+02  0.90498147213E+02  0.00000000000E+00 0. -1.
</event>
<event>
 7    1  0.5452757E-006  0.1074845E+03  0.7818608E-02  0.1281142E+00
          2   -1    0    0  502    0  0.00000000000E+00  0.00000000000E+00  0.31603155994E+04  0.31603155994E+04  0.00000000000E+00 0. -1.
          1   -1    0    0  501    0 -0.00000000000E+00 -0.00000000000E+00 -0.44156728416E+03  0.44156728416E+03  0.00000000000E+00 0. -1.
         25    2    1    2    0    0 -0.10510958427E+03 -0.25207462676E+00  0.12124371123E+04  0.12233871206E+04  0.12499682972E+03 0.  0.
          2    1    1    2  501    0  0.67025102331E+02  0.84318981168E+02 -0.42832425678E+03  0.44166019050E+03  0.00000000000E+00 0. -1.
          1    1    1    2  502    0  0.38084481944E+02 -0.84066906542E+02  0.19346354598E+04  0.19368355724E+04  0.00000000000E+00 0. -1.
         22    1    3    3    0    0 -0.76584821349E+02  0.49708460741E+02  0.96685901376E+03  0.97116039788E+03  0.00000000000E+00 0.  1.
         22    1    3    3    0    0 -0.28524762926E+02 -0.49960535368E+02  0.24557809853E+03  0.25222672276E+03  0.00000000000E+00 0.  1.
</event>
<event>
 7    1  0.5452757E-006  0.5707433E+02  0.7818608E-02  0.1432339E+00
          2   -1    0    0  502    0  0.00000000000E+00  0.00000000000E+00  0.73727751962E+03  0.73727751962E+03  0.00000000000E+00 0. -1.
          1   -1    0    0  501    0 -0.00000000000E+00 -0.00000000000E+00 -0.26531889468E+03  0.26531889468E+03  0.00000000000E+00 0. -1.
         25    2    1    2    0    0  0.41401637249E+02  0.49350965130E+02 -0.17613936165E+02  0.14172191192E+03  0.12500094498E+03 0.  0.
          2    1    1    2  501    0 -0.57754667623E+02 -0.39248363937E+01 -0.18024837964E+03  0.18931583224E+03  0.00000000000E+00 0. -1.
          1    1    1    2  502    0  0.16353030375E+02 -0.45426128737E+02  0.66982094074E+03  0.67155867013E+03  0.00000000000E+00 0. -1.
         22    1    3    3    0    0  0.48215028589E+02  0.96099252750E+01 -0.63713877055E+02  0.80476690880E+02  0.00000000000E+00 0.  1.
         22    1    3    3    0    0 -0.68133913400E+01  0.39741039855E+02  0.46099940891E+02  0.61245221042E+02  0.00000000000E+00 0.  1.
</event>
<event>
 7    1  0.5585403E-006  0.1686845E+03  0.7818608E-02  0.1294307E+00
          2   -1    0    0  502    0  0.00000000000E+00  0.00000000000E+00  0.19102930470E+04  0.19102930470E+04  0.00000000000E+00 0. -1.
          1   -1    0    0  501    0 -0.00000000000E+00 -0.00000000000E+00 -0.88276110510E+03  0.88276110510E+03  0.00000000000E+00 0. -1.
         25    2    1    2    0    0 -0.15957888355E+03 -0.46610655432E+02 -0.41521599080E+03  0.46440090138E+03  0.12500361960E+03 0.  0.
          2    1    1    2  501    0  0.14439186578E+03  0.96304542323E+02 -0.42557597156E+03  0.45960687913E+03  0.00000000000E+00 0. -1.
          1    1    1    2  502    0  0.15187017772E+02 -0.49693886891E+02  0.18683239043E+04  0.18690463716E+04  0.00000000000E+00 0. -1.
         22    1    3    3    0    0 -0.20364927380E+02  0.39286910862E+02 -0.96211299952E+02  0.10589998050E+03  0.00000000000E+00 0.  1.
         22    1    3    3    0    0 -0.13921395617E+03 -0.85897566293E+02 -0.31900469084E+03  0.35850092087E+03  0.00000000000E+00 0.  1.
</event>
<event>
 7    1  0.5452757E-006  0.3234426E+02  0.7818608E-02  0.1603712E+00
          2   -1    0    0  502    0  0.00000000000E+00  0.00000000000E+00  0.29136803881E+04  0.29136803881E+04  0.00000000000E+00 0. -1.
          1   -1    0    0  501    0 -0.00000000000E+00 -0.00000000000E+00 -0.28648317013E+02  0.28648317013E+02  0.00000000000E+00 0. -1.
         25    2    1    2    0    0  0.36770599500E+02  0.30228696562E+02  0.12767637864E+04  0.12837561714E+04  0.12505314985E+03 0.  0.
          2    1    1    2  501    0 -0.50214740942E+01 -0.26428256214E+02 -0.17756794192E+02  0.32233083448E+02  0.00000000000E+00 0. -1.
          1    1    1    2  502    0 -0.31749125405E+02 -0.38004403486E+01  0.16260250789E+04  0.16263394503E+04  0.00000000000E+00 0. -1.
         22    1    3    3    0    0  0.71967215806E+01 -0.28131450768E+02  0.78348765421E+02  0.83556569860E+02  0.00000000000E+00 0.  1.
         22    1    3    3    0    0  0.29573877919E+02  0.58360147330E+02  0.11984150209E+04  0.12001996015E+04  0.00000000000E+00 0.  1.
</event>
<event>
 7    1  0.1014038E-005  0.8630336E+02  0.7818608E-02  0.1460918E+00
          2   -1    0    0  502    0  0.00000000000E+00  0.00000000000E+00  0.80407033832E+03  0.80407033832E+03  0.00000000000E+00 0. -1.
          1   -1    0    0  501    0 -0.00000000000E+00 -0.00000000000E+00 -0.17713814551E+04  0.17713814551E+04  0.00000000000E+00 0. -1.
         25    2    1    2    0    0 -0.95686267014E+02 -0.52289872358E+02 -0.12371726595E+04  0.12482422047E+04  0.12498927906E+03 0.  0.
          2    1    1    2  501    0  0.15395367270E+02  0.20753201510E+02 -0.52602631404E+03  0.52666060776E+03  0.00000000000E+00 0. -1.
          1    1    1    2  502    0  0.80290899744E+02  0.31536670848E+02  0.79588785679E+03  0.80054898087E+03  0.00000000000E+00 0. -1.
         22    1    3    3    0    0 -0.11573079884E+03 -0.19181701907E+02 -0.70769720530E+03  0.71735408960E+03  0.00000000000E+00 0. -1.
         22    1    3    3    0    0  0.20044531828E+02 -0.33108170451E+02 -0.52947545419E+03  0.53088811514E+03  0.00000000000E+00 0. -1.
</event>
<event>
 7    1  0.5452757E-006  0.2864195E+02  0.7818608E-02  0.1629787E+00
          2   -1    0    0  502    0  0.00000000000E+00  0.00000000000E+00  0.19611504704E+03  0.19611504704E+03  0.00000000000E+00 0. -1.
          1   -1    0    0  501    0 -0.00000000000E+00 -0.00000000000E+00 -0.30974322538E+03  0.30974322538E+03  0.00000000000E+00 0. -1.
         25    2    1    2    0    0 -0.52907423467E+01 -0.75838048505E+01 -0.14091665816E+03  0.18859210364E+03  0.12499588376E+03 0.  0.
          2    1    1    2  501    0 -0.23218930078E+02  0.11819178113E+02 -0.14259466429E+03  0.14495533784E+03  0.00000000000E+00 0. -1.
          1    1    1    2  502    0  0.28509672425E+02 -0.42353732627E+01  0.16988314411E+03  0.17231083095E+03  0.00000000000E+00 0. -1.
         22    1    3    3    0    0  0.14194970321E+02 -0.53779008169E+02 -0.12361845151E+03  0.13555515651E+03  0.00000000000E+00 0. -1.
         22    1    3    3    0    0 -0.19485712668E+02  0.46195203319E+02 -0.17298206656E+02  0.53036947134E+02  0.00000000000E+00 0. -1.
</event>
<event>
 7    1  0.5452757E-006  0.1093963E+03  0.7818608E-02  0.1264056E+00
          2   -1    0    0  502    0  0.00000000000E+00  0.00000000000E+00  0.48865445395E+03  0.48865445395E+03  0.00000000000E+00 0. -1.
          1   -1    0    0  501    0 -0.00000000000E+00 -0.00000000000E+00 -0.29150998525E+03  0.29150998525E+03  0.00000000000E+00 0. -1.
         25    2    1    2    0    0  0.96392591001E+02  0.13595900099E+03  0.26015241876E+03  0.33328938325E+03  0.12500460172E+03 0.  0.
          2    1    1    2  501    0 -0.10442506530E+03 -0.29365514525E+02 -0.22673160579E+03  0.25134468121E+03  0.00000000000E+00 0. -1.
          1    1    1    2  502    0  0.80324743006E+01 -0.10659348646E+03  0.16372365573E+03  0.19553037474E+03  0.00000000000E+00 0. -1.
         22    1    3    3    0    0  0.10078988024E+02 -0.18383935836E+02  0.72377797586E+02  0.75353172991E+02  0.00000000000E+00 0.  1.
         22    1    3    3    0    0  0.86313602977E+02  0.15434293682E+03  0.18777462117E+03  0.25793621026E+03  0.00000000000E+00 0.  1.
</event>
<event>
 7    1  0.5452757E-006  0.6732215E+02  0.7818608E-02  0.1415536E+00
          2   -1    0    0  502    0  0.00000000000E+00  0.00000000000E+00  0.80504990473E+03  0.80504990473E+03  0.00000000000E+00 0. -1.
          1   -1    0    0  501    0 -0.00000000000E+00 -0.00000000000E+00 -0.96600104558E+02  0.96600104558E+02  0.00000000000E+00 0. -1.
         25    2    1    2    0    0 -0.32851203803E+02 -0.63978085126E+02  0.17627085682E+03  0.22774904867E+03  0.12500326890E+03 0.  0.
          2    1    1    2  501    0 -0.13607727570E+02  0.66775748468E+02 -0.53336387960E+02  0.86538668315E+02  0.00000000000E+00 0. -1.
          1    1    1    2  502    0  0.46458931374E+02 -0.27976633425E+01  0.58551533131E+03  0.58736229231E+03  0.00000000000E+00 0. -1.
         22    1    3    3    0    0 -0.18970134377E+02 -0.52657624909E+02  0.57220093841E+01  0.56262179577E+02  0.00000000000E+00 0. -1.
         22    1    3    3    0    0 -0.13881069426E+02 -0.11320460217E+02  0.17054884744E+03  0.17148686909E+03  0.00000000000E+00 0. -1.
</event>
<event>
 7    1  0.5452757E-006  0.8459530E+02  0.7818608E-02  0.1409053E+00
          2   -1    0    0  502    0  0.00000000000E+00  0.00000000000E+00  0.21596713150E+03  0.21596713150E+03  0.00000000000E+00 0. -1.
          1   -1    0    0  501    0 -0.00000000000E+00 -0.00000000000E+00 -0.61799086580E+03  0.61799086580E+03  0.00000000000E+00 0. -1.
         25    2    1    2    0    0 -0.76198442929E+02  0.50137262844E+02 -0.19990758801E+02  0.15603018539E+03  0.12500336189E+03 0.  0.
          2    1    1    2  501    0  0.44138316159E+02 -0.72265140875E+02 -0.52395660287E+03  0.53075508781E+03  0.00000000000E+00 0. -1.
          1    1    1    2  502    0  0.32060126770E+02  0.22127878030E+02  0.14192362737E+03  0.14717272411E+03  0.00000000000E+00 0. -1.
         22    1    3    3    0    0  0.13922949476E+02 -0.30430996628E+02 -0.89582166737E+01  0.34643090564E+02  0.00000000000E+00 0.  1.
         22    1    3    3    0    0 -0.90121392406E+02  0.80568259472E+02 -0.11032542128E+02  0.12138709482E+03  0.00000000000E+00 0.  1.
</event>
<event>
 7    1  0.5452757E-006  0.3100826E+02  0.7818608E-02  0.1635754E+00
          2   -1    0    0  502    0  0.00000000000E+00  0.00000000000E+00  0.12623214224E+04  0.12623214224E+04  0.00000000000E+00 0. -1.
          1   -1    0    0  501    0 -0.00000000000E+00 -0.00000000000E+00 -0.21204716937E+02  0.21204716937E+02  0.00000000000E+00 0. -1.
         25    2    1    2    0    0 -0.14078014829E+02  0.13944849984E+02  0.27487378468E+03  0.30261152297E+03  0.12500194793E+03 0.  0.
          2    1    1    2  501    0  0.97598806852E+00 -0.33153199161E+02  0.31052080180E+02  0.45434775787E+02  0.00000000000E+00 0. -1.
          1    1    1    2  502    0  0.13102026760E+02  0.19208349177E+02  0.93519084061E+03  0.93547984059E+03  0.00000000000E+00 0. -1.
         22    1    3    3    0    0  0.27138614755E+02  0.17488097931E+02  0.25442424215E+03  0.25646448677E+03  0.00000000000E+00 0. -1.
         22    1    3    3    0    0 -0.41216629584E+02 -0.35432479475E+01  0.20449542528E+02  0.46147036198E+02  0.00000000000E+00 0. -1.
</event>
<event>
 7    1  0.5452757E-006  0.9266047E+02  0.7818608E-02  0.1308422E+00
          2   -1    0    0  502    0  0.00000000000E+00  0.00000000000E+00  0.34410630720E+04  0.34410630720E+04  0.00000000000E+00 0. -1.
          1   -1    0    0  501    0 -0.00000000000E+00 -0.00000000000E+00 -0.76069717483E+03  0.76069717483E+03  0.00000000000E+00 0. -1.
         25    2    1    2    0    0  0.16028492307E+03  0.48359951560E+02  0.15933941563E+04  0.16070349043E+04  0.12500521925E+03 0.  0.
          2    1    1    2  501    0 -0.92539619159E+02 -0.27065492777E+00 -0.75009459756E+03  0.75578142320E+03  0.00000000000E+00 0. -1.
          1    1    1    2  502    0 -0.67745303908E+02 -0.48089296632E+02  0.18370663384E+04  0.18389439193E+04  0.00000000000E+00 0. -1.
         22    1    3    3    0    0  0.21943040092E+02 -0.23537622694E+02  0.65395521490E+03  0.65474646985E+03  0.00000000000E+00 0. -1.
         22    1    3    3    0    0  0.13834188297E+03  0.71897574254E+02  0.93943894145E+03  0.95228843450E+03  0.00000000000E+00 0. -1.
</event>
<event>
 7    1  0.5452757E-006  0.1203389E+03  0.7818608E-02  0.1310067E+00
          2   -1    0    0  502    0  0.00000000000E+00  0.00000000000E+00  0.50757291897E+03  0.50757291897E+03  0.00000000000E+00 0. -1.
          1   -1    0    0  501    0 -0.00000000000E+00 -0.00000000000E+00 -0.15284234881E+04  0.15284234881E+04  0.00000000000E+00 0. -1.
         25    2    1    2    0    0  0.83856069633E+02  0.56703652135E+02 -0.34517160899E+03  0.38080968898E+03  0.12500173993E+03 0.  0.
          2    1    1    2  501    0  0.37042450901E+02 -0.50985765926E+02 -0.11570844239E+04  0.11587994026E+04  0.00000000000E+00 0. -1.
          1    1    1    2  502    0 -0.12089852053E+03 -0.57178862091E+01  0.48140546372E+03  0.49638731550E+03  0.00000000000E+00 0. -1.
         22    1    3    3    0    0  0.48518436650E+02  0.58827418995E+02 -0.70450594312E+02  0.10381709955E+03  0.00000000000E+00 0. -1.
         22    1    3    3    0    0  0.35337632983E+02 -0.21237668601E+01 -0.27472101468E+03  0.27699258942E+03  0.00000000000E+00 0. -1.
</event>
<event>
 7    1  0.5452757E-006  0.7829373E+02  0.7818608E-02  0.1430841E+00
          2   -1    0    0  502    0  0.00000000000E+00  0.00000000000E+00  0.23891411179E+04  0.23891411179E+04  0.00000000000E+00 0. -1.
          1   -1    0    0  501    0 -0.00000000000E+00 -0.00000000000E+00 -0.75549695769E+03  0.75549695769E+03  0.00000000000E+00 0. -1.
         25    2    1    2    0    0 -0.83069103750E+02  0.76478000694E+02  0.22654198552E+03  0.28230156032E+03  0.12499415653E+03 0.  0.
          2    1    1    2  501    0  0.61170141091E+02 -0.48415268424E+02 -0.72537719631E+03  0.72956007382E+03  0.00000000000E+00 0. -1.
          1    1    1    2  502    0  0.21898962659E+02 -0.28062732270E+02  0.21324793710E+04  0.21327764415E+04  0.00000000000E+00 0. -1.
         22    1    3    3    0    0 -0.42706358005E+02 -0.25601443251E+02  0.11732760870E+03  0.12745601074E+03  0.00000000000E+00 0.  1.
         22    1    3    3    0    0 -0.40362745745E+02  0.10207944394E+03  0.10921437682E+03  0.15484554958E+03  0.00000000000E+00 0.  1.
</event>
<event>
 7    1  0.5452757E-006  0.6232161E+02  0.7818608E-02  0.1465300E+00
          2   -1    0    0  502    0  0.00000000000E+00  0.00000000000E+00  0.34298849601E+03  0.34298849601E+03  0.00000000000E+00 0. -1.
          1   -1    0    0  501    0 -0.00000000000E+00 -0.00000000000E+00 -0.17689611875E+03  0.17689611875E+03  0.00000000000E+00 0. -1.
         25    2    1    2    0    0  0.33108809430E+02  0.79679907963E+02  0.14260035807E+03  0.20834397300E+03  0.12500907154E+03 0.  0.
          2    1    1    2  501    0 -0.27624538767E+02 -0.20945304997E+02 -0.13659779571E+03  0.14092827514E+03  0.00000000000E+00 0. -1.
          1    1    1    2  502    0 -0.54842706627E+01 -0.58734602966E+02  0.16008981490E+03  0.17061236662E+03  0.00000000000E+00 0. -1.
         22    1    3    3    0    0 -0.25834464318E+02  0.54261193815E+00  0.95628558922E+02  0.99058241736E+02  0.00000000000E+00 0. -1.
         22    1    3    3    0    0  0.58943273748E+02  0.79137296025E+02  0.46971799150E+02  0.10928573126E+03  0.00000000000E+00 0. -1.
</event>
<event>
 7    1  0.5452757E-006  0.8909597E+02  0.7818608E-02  0.1366077E+00
          2   -1    0    0  502    0  0.00000000000E+00  0.00000000000E+00  0.20748466327E+03  0.20748466327E+03  0.00000000000E+00 0. -1.
          1   -1    0    0  501    0 -0.00000000000E+00 -0.00000000000E+00 -0.48935952125E+03  0.48935952125E+03  0.00000000000E+00 0. -1.
         25    2    1    2    0    0  0.55352962597E+01 -0.51114836919E+02  0.23825033221E+02  0.13724494784E+03  0.12500070977E+03 0.  0.
          2    1    1    2  501    0 -0.51623618551E+02  0.75861692175E+02 -0.42211359366E+03  0.43197208276E+03  0.00000000000E+00 0. -1.
          1    1    1    2  502    0  0.46088322291E+02 -0.24746855256E+02  0.11641370246E+03  0.12762715391E+03  0.00000000000E+00 0. -1.
         22    1    3    3    0    0 -0.34341163778E+01 -0.39426109204E+02 -0.48976484950E+02  0.62967510038E+02  0.00000000000E+00 0. -1.
         22    1    3    3    0    0  0.89694126375E+01 -0.11688727715E+02  0.72801518171E+02  0.74277437804E+02  0.00000000000E+00 0. -1.
</event>
<event>
 7    1  0.5452757E-006  0.6734992E+02  0.7818608E-02  0.1489330E+00
          2   -1    0    0  502    0  0.00000000000E+00  0.00000000000E+00  0.75861728588E+03  0.75861728588E+03  0.00000000000E+00 0. -1.
          1   -1    0    0  501    0 -0.00000000000E+00 -0.00000000000E+00 -0.10859676300E+04  0.10859676300E+04  0.00000000000E+00 0. -1.
         25    2    1    2    0    0  0.47030042353E+02  0.78015064322E+02 -0.15579329423E+03  0.21953172293E+03  0.12499780680E+03 0.  0.
          2    1    1    2  501    0 -0.25787981077E+02 -0.61261727215E+02 -0.89682303424E+03  0.89928281088E+03  0.00000000000E+00 0. -1.
          1    1    1    2  502    0 -0.21242061276E+02 -0.16753337107E+02  0.72526598433E+03  0.72577038208E+03  0.00000000000E+00 0. -1.
         22    1    3    3    0    0 -0.12696111149E+02  0.92044759832E+02 -0.10148834300E+03  0.13759837505E+03  0.00000000000E+00 0. -1.
         22    1    3    3    0    0  0.59726153502E+02 -0.14029695510E+02 -0.54304951231E+02  0.81933347889E+02  0.00000000000E+00 0. -1.
</event>
<event>
 7    1  0.5452757E-006  0.1049546E+03  0.7818608E-02  0.1405326E+00
          2   -1    0    0  502    0  0.00000000000E+00  0.00000000000E+00  0.50110208884E+02  0.50110208884E+02  0.00000000000E+00 0. -1.
          1   -1    0    0  501    0 -0.00000000000E+00 -0.00000000000E+00 -0.18496306885E+04  0.18496306885E+04  0.00000000000E+00 0. -1.
         25    2    1    2    0    0 -0.11428333495E+03  0.53158059852E+02 -0.79089657565E+03  0.81057305743E+03  0.12499931237E+03 0.  0.
          2    1    1    2  501    0  0.13685832241E+02 -0.29289114223E+02 -0.98182979901E+03  0.98236190299E+03  0.00000000000E+00 0. -1.
          1    1    1    2  502    0  0.10059750271E+03 -0.23868945629E+02 -0.26794105002E+02  0.10680593701E+03  0.00000000000E+00 0. -1.
         22    1    3    3    0    0 -0.98079983156E+02  0.48486075774E+02 -0.78518124276E+03  0.79276741017E+03  0.00000000000E+00 0. -1.
         22    1    3    3    0    0 -0.16203351794E+02  0.46719840783E+01 -0.57153328864E+01  0.17805647267E+02  0.00000000000E+00 0. -1.
</event>
<event>
 7    1  0.5452757E-006  0.1611765E+03  0.7818608E-02  0.1289259E+00
          2   -1    0    0  502    0  0.00000000000E+00  0.00000000000E+00  0.11933961551E+04  0.11933961551E+04  0.00000000000E+00 0. -1.
          1   -1    0    0  501    0 -0.00000000000E+00 -0.00000000000E+00 -0.78829922608E+03  0.78829922608E+03  0.00000000000E+00 0. -1.
         25    2    1    2    0    0 -0.56085009552E+01 -0.10998717201E+03  0.22431649228E+03  0.27941197864E+03  0.12499812721E+03 0.  0.
          2    1    1    2  501    0  0.34035868524E+02  0.15940212047E+03 -0.75113977773E+03  0.76862113036E+03  0.00000000000E+00 0. -1.
          1    1    1    2  502    0 -0.28427367569E+02 -0.49414948460E+02  0.93192021448E+03  0.93366227219E+03  0.00000000000E+00 0. -1.
         22    1    3    3    0    0 -0.61357797247E+01 -0.10957876195E+03  0.81767744675E+02  0.13686167079E+03  0.00000000000E+00 0.  1.
         22    1    3    3    0    0  0.52727876951E+00 -0.40841006055E+00  0.14254874761E+03  0.14255030784E+03  0.00000000000E+00 0.  1.
</event>
<event>
 7    1  0.5452757E-006  0.7600204E+02  0.7818608E-02  0.1457845E+00
          2   -1    0    0  502    0  0.00000000000E+00  0.00000000000E+00  0.11237094429E+04  0.11237094429E+04  0.00000000000E+00 0. -1.
          1   -1    0    0  501    0 -0.00000000000E+00 -0.00000000000E+00 -0.26758098874E+03  0.26758098874E+03  0.00000000000E+00 0. -1.
         25    2    1    2    0    0  0.35468793210E+02 -0.42111748158E+02  0.30760924605E+03  0.33657096488E+03  0.12500052609E+03 0.  0.
          2    1    1    2  501    0 -0.27912094282E+02  0.71149933732E+02 -0.24704100622E+03  0.25859361329E+03  0.00000000000E+00 0. -1.
          1    1    1    2  502    0 -0.75566989273E+01 -0.29038185574E+02  0.79556021431E+03  0.79612585344E+03  0.00000000000E+00 0. -1.
         22    1    3    3    0    0  0.19896807008E+02 -0.67482236645E+02  0.78006084571E+02  0.10504610617E+03  0.00000000000E+00 0.  1.
         22    1    3    3    0    0  0.15571986201E+02  0.25370488488E+02  0.22960316148E+03  0.23152485871E+03  0.00000000000E+00 0.  1.
</event>
<event>
 7    1  0.5452757E-006  0.5961691E+02  0.7818608E-02  0.1418095E+00
          2   -1    0    0  502    0  0.00000000000E+00  0.00000000000E+00  0.19652145036E+03  0.19652145036E+03  0.00000000000E+00 0. -1.
          1   -1    0    0  501    0 -0.00000000000E+00 -0.00000000000E+00 -0.41401764426E+03  0.41401764426E+03  0.00000000000E+00 0. -1.
         25    2    1    2    0    0  0.66748619315E+02 -0.86668193783E+02  0.11824090579E+02  0.16652704430E+03  0.12499877348E+03 0.  0.
          2    1    1    2  501    0 -0.32045200205E+02  0.48576512129E+02 -0.32776790034E+03  0.33289393038E+03  0.00000000000E+00 0. -1.
          1    1    1    2  502    0 -0.34703419111E+02  0.38091681654E+02  0.98447615865E+02  0.11111811994E+03  0.00000000000E+00 0. -1.
         22    1    3    3    0    0  0.55334555335E+02 -0.54033134907E+00  0.47187714469E+02  0.72724723230E+02  0.00000000000E+00 0.  1.
         22    1    3    3    0    0  0.11414063980E+02 -0.86127862434E+02 -0.35363623890E+02  0.93802321073E+02  0.00000000000E+00 0.  1.
</event>
<event>
 7    1  0.5452757E-006  0.4843043E+02  0.7818608E-02  0.1458955E+00
          2   -1    0    0  502    0  0.00000000000E+00  0.00000000000E+00  0.38147405315E+04  0.38147405315E+04  0.00000000000E+00 0. -1.
          1   -1    0    0  501    0 -0.00000000000E+00 -0.00000000000E+00 -0.93601250340E+03  0.93601250340E+03  0.00000000000E+00 0. -1.
         25    2    1    2    0    0  0.55268927786E+01  0.28015910773E+02  0.75645735915E+03  0.76724845591E+03  0.12500807609E+03 0.  0.
          2    1    1    2  501    0 -0.47779484575E+02 -0.81055803042E+01 -0.92980721791E+03  0.93106930035E+03  0.00000000000E+00 0. -1.
          1    1    1    2  502    0  0.42252591796E+02 -0.19910330469E+02  0.30520778869E+04  0.30524352787E+04  0.00000000000E+00 0. -1.
         22    1    3    3    0    0  0.32841304742E+02  0.17011853550E+02  0.62191762424E+02  0.72358619195E+02  0.00000000000E+00 0. -1.
         22    1    3    3    0    0 -0.27314411963E+02  0.11004057223E+02  0.69426559672E+03  0.69488983671E+03  0.00000000000E+00 0. -1.
</event>
<event>
 7    1  0.5452757E-006  0.1195898E+03  0.7818608E-02  0.1372514E+00
          2   -1    0    0  502    0  0.00000000000E+00  0.00000000000E+00  0.81219651691E+03  0.81219651691E+03  0.00000000000E+00 0. -1.
          1   -1    0    0  501    0 -0.00000000000E+00 -0.00000000000E+00 -0.79545449234E+02  0.79545449234E+02  0.00000000000E+00 0. -1.
         25    2    1    2    0    0  0.47246167568E+02  0.14018861521E+03  0.21889156422E+03  0.29228671363E+03  0.12503182752E+03 0.  0.
          2    1    1    2  501    0 -0.40346121056E+02 -0.10389002241E+03  0.31545457889E+02  0.11582772619E+03  0.00000000000E+00 0. -1.
          1    1    1    2  502    0 -0.69000465120E+01 -0.36298592800E+02  0.48221404557E+03  0.48362752633E+03  0.00000000000E+00 0. -1.
         22    1    3    3    0    0 -0.30400545431E+02  0.14594397563E+02  0.76911798403E+01  0.34588203915E+02  0.00000000000E+00 0.  1.
         22    1    3    3    0    0  0.77646712999E+02  0.12559421765E+03  0.21120038438E+03  0.25769850971E+03  0.00000000000E+00 0.  1.
</event>
<event>
 7    1  0.5452757E-006  0.7212824E+02  0.7818608E-02  0.1427157E+00
          2   -1    0    0  502    0  0.00000000000E+00  0.00000000000E+00  0.63814566341E+03  0.63814566341E+03  0.00000000000E+00 0. -1.
          1   -1    0    0  501    0 -0.00000000000E+00 -0.00000000000E+00 -0.26148412212E+03  0.26148412212E+03  0.00000000000E+00 0. -1.
         25    2    1    2    0    0  0.30245187051E+01 -0.48199599584E+02  0.21834593659E+02  0.13577208751E+03  0.12499984461E+03 0.  0.
          2    1    1    2  501    0  0.31617127916E+02  0.67662233832E+02 -0.19695872894E+03  0.21064320917E+03  0.00000000000E+00 0. -1.
          1    1    1    2  502    0 -0.34641646621E+02 -0.19462634248E+02  0.55178567656E+03  0.55321448885E+03  0.00000000000E+00 0. -1.
         22    1    3    3    0    0  0.13917502249E+02 -0.34803468163E+02 -0.49662290592E+02  0.62219943522E+02  0.00000000000E+00 0. -1.
         22    1    3    3    0    0 -0.10892983543E+02 -0.13396131421E+02  0.71496884251E+02  0.73552143987E+02  0.00000000000E+00 0. -1.
</event>
<event>
 7    1  0.5452757E-006  0.7507528E+02  0.7818608E-02  0.1510723E+00
          2   -1    0    0  502    0  0.00000000000E+00  0.00000000000E+00  0.63775846718E+02  0.63775846718E+02  0.00000000000E+00 0. -1.
          1   -1    0    0  501    0 -0.00000000000E+00 -0.00000000000E+00 -0.12413801081E+04  0.12413801081E+04  0.00000000000E+00 0. -1.
         25    2    1    2    0    0  0.47832887586E+02  0.39013853729E+02 -0.97780647798E+02  0.17028404602E+03  0.12500214130E+03 0.  0.
          2    1    1    2  501    0 -0.67950042756E+02 -0.33158705232E+02 -0.11018680400E+04  0.11044590918E+04  0.00000000000E+00 0. -1.
          1    1    1    2  502    0  0.20117155170E+02 -0.58551484966E+01  0.22044426428E+02  0.30412816912E+02  0.00000000000E+00 0. -1.
         22    1    3    3    0    0  0.34030250797E+02 -0.40308949662E+02 -0.64080435495E+02  0.83001033761E+02  0.00000000000E+00 0.  1.
         22    1    3    3    0    0  0.13802636789E+02  0.79322803391E+02 -0.33700212303E+02  0.87283012261E+02  0.00000000000E+00 0.  1.
</event>
<event>
 7    1  0.5452757E-006  0.1149472E+03  0.7818608E-02  0.1454251E+00
          2   -1    0    0  502    0  0.00000000000E+00  0.00000000000E+00  0.11342140192E+04  0.11342140192E+04  0.00000000000E+00 0. -1.
          1   -1    0    0  501    0 -0.00000000000E+00 -0.00000000000E+00 -0.27388270952E+02  0.27388270952E+02  0.00000000000E+00 0. -1.
         25    2    1    2    0    0 -0.29139286793E+02  0.10341608526E+03  0.44784708350E+03  0.47722206658E+03  0.12501962210E+03 0.  0.
          2    1    1    2  501    0  0.15035501014E+02  0.13738646488E+02  0.65912968942E+01  0.21407052408E+02  0.00000000000E+00 0. -1.
          1    1    1    2  502    0  0.14103785779E+02 -0.11715473174E+03  0.65238736780E+03  0.66297317111E+03  0.00000000000E+00 0. -1.
         22    1    3    3    0    0 -0.59798861040E+02  0.86552554317E+02  0.19146366449E+03  0.21846185768E+03  0.00000000000E+00 0. -1.
         22    1    3    3    0    0  0.30659574247E+02  0.16863530939E+02  0.25638341901E+03  0.25876020890E+03  0.00000000000E+00 0. -1.
</event>
<event>
 7    1  0.5452757E-006  0.3663803E+03  0.7818608E-02  0.1249175E+00
          2   -1    0    0  502    0  0.00000000000E+00  0.00000000000E+00  0.21813861500E+04  0.21813861500E+04  0.00000000000E+00 0. -1.
          1   -1    0    0  501    0 -0.00000000000E+00 -0.00000000000E+00 -0.10484602882E+04  0.10484602882E+04  0.00000000000E+00 0. -1.
         25    2    1    2    0    0 -0.30746549186E+02  0.33765309702E+03  0.60304838699E+02  0.36635636589E+03  0.12500139617E+03 0.  0.
          2    1    1    2  501    0 -0.24442520061E+02  0.27742442317E+02 -0.87769483335E+03  0.87847327812E+03  0.00000000000E+00 0. -1.
          1    1    1    2  502    0  0.55189069247E+02 -0.36539553934E+03  0.19503158564E+04  0.19850167942E+04  0.00000000000E+00 0. -1.
         22    1    3    3    0    0 -0.52462125158E+02  0.72168835286E+02 -0.12800203887E+02  0.90135789685E+02  0.00000000000E+00 0. -1.
         22    1    3    3    0    0  0.21715575972E+02  0.26548426173E+03  0.73105042586E+02  0.27622057621E+03  0.00000000000E+00 0. -1.
</event>
<event>
 7    1  0.5452757E-006  0.8797278E+02  0.7818608E-02  0.1353315E+00
          2   -1    0    0  502    0  0.00000000000E+00  0.00000000000E+00  0.86382035852E+03  0.86382035852E+03  0.00000000000E+00 0. -1.
          1   -1    0    0  501    0 -0.00000000000E+00 -0.00000000000E+00 -0.53276204569E+03  0.53276204569E+03  0.00000000000E+00 0. -1.
         25    2    1    2    0    0  0.78427826964E+02 -0.79300070229E+01 -0.40755853940E+03  0.43352415672E+03  0.12500168947E+03 0.  0.
          2    1    1    2  501    0 -0.11001013657E+03 -0.41882319943E+02 -0.79996512412E+02  0.14232287543E+03  0.00000000000E+00 0. -1.
          1    1    1    2  502    0  0.31582309607E+02  0.49812326965E+02  0.81861336463E+03  0.82073537206E+03  0.00000000000E+00 0. -1.
         22    1    3    3    0    0 -0.31956512285E+01 -0.52962301506E+02 -0.17861182329E+03  0.18632606094E+03  0.00000000000E+00 0. -1.
         22    1    3    3    0    0  0.81623478192E+02  0.45032294484E+02 -0.22894671611E+03  0.24719809578E+03  0.00000000000E+00 0. -1.
</event>
<event>
 7    1  0.5452757E-006  0.6082730E+02  0.7818608E-02  0.1492698E+00
          2   -1    0    0  502    0  0.00000000000E+00  0.00000000000E+00  0.15993713974E+04  0.15993713974E+04  0.00000000000E+00 0. -1.
          1   -1    0    0  501    0 -0.00000000000E+00 -0.00000000000E+00 -0.57181563940E+03  0.57181563940E+03  0.00000000000E+00 0. -1.
         25    2    1    2    0    0 -0.16223035202E+02 -0.87773210004E+02  0.65243242537E+02  0.16687900710E+03  0.12499839618E+03 0.  0.
          2    1    1    2  501    0  0.96183778485E+00  0.29245179927E+02 -0.51996965045E+03  0.52079232240E+03  0.00000000000E+00 0. -1.
          1    1    1    2  502    0  0.15261197417E+02  0.58528030076E+02  0.14822821659E+04  0.14835157073E+04  0.00000000000E+00 0. -1.
         22    1    3    3    0    0  0.16006483748E+02 -0.15517681220E+01  0.72767911325E+02  0.74523717197E+02  0.00000000000E+00 0.  1.
         22    1    3    3    0    0 -0.32229518950E+02 -0.86221441882E+02 -0.75246687881E+01  0.92355289899E+02  0.00000000000E+00 0.  1.
</event>
<event>
 7    1  0.5452757E-006  0.1411413E+03  0.7818608E-02  0.1263837E+00
          2   -1    0    0  502    0  0.00000000000E+00  0.00000000000E+00  0.18273221726E+03  0.18273221726E+03  0.00000000000E+00 0. -1.
          1   -1    0    0  501    0 -0.00000000000E+00 -0.00000000000E+00 -0.76878681637E+03  0.76878681637E+03  0.00000000000E+00 0. -1.
         25    2    1    2    0    0 -0.71631894772E+02  0.22516299898E+02 -0.18867517867E+03  0.23845532445E+03  0.12499802639E+03 0.  0.
          2    1    1    2  501    0 -0.81534973380E+02 -0.15688273736E+02 -0.51385470808E+03  0.52051967767E+03  0.00000000000E+00 0. -1.
          1    1    1    2  502    0  0.15316686815E+03 -0.68280261627E+01  0.11647528765E+03  0.19254403152E+03  0.00000000000E+00 0. -1.
         22    1    3    3    0    0 -0.36704320984E+01 -0.31579395128E+02 -0.11768255352E+01  0.31813757823E+02  0.00000000000E+00 0. -1.
         22    1    3    3    0    0 -0.67961462673E+02  0.54095695027E+02 -0.18749835313E+03  0.20664156662E+03  0.00000000000E+00 0. -1.
</event>
<event>
 7    1  0.5452757E-006  0.1931046E+03  0.7818608E-02  0.1378355E+00
          2   -1    0    0  502    0  0.00000000000E+00  0.00000000000E+00  0.84440303652E+03  0.84440303652E+03  0.00000000000E+00 0. -1.
          1   -1    0    0  501    0 -0.00000000000E+00 -0.00000000000E+00 -0.49294098827E+03  0.49294098827E+03  0.00000000000E+00 0. -1.
         25    2    1    2    0    0 -0.17756972764E+03 -0.41484975997E-01 -0.18623176399E+03  0.28607336700E+03  0.12499876597E+03 0.  0.
          2    1    1    2  501    0 -0.15748218063E+02 -0.15089924050E+02 -0.24446381384E+03  0.24543485583E+03  0.00000000000E+00 0. -1.
          1    1    1    2  502    0  0.19331794570E+03  0.15131409026E+02  0.78215762608E+03  0.80583580195E+03  0.00000000000E+00 0. -1.
         22    1    3    3    0    0 -0.46235498105E+02  0.54348212834E+02 -0.87950408954E+02  0.11325512774E+03  0.00000000000E+00 0. -1.
         22    1    3    3    0    0 -0.13133422954E+03 -0.54389697810E+02 -0.98281355033E+02  0.17281823927E+03  0.00000000000E+00 0. -1.
</event>
<event>
 7    1  0.5452757E-006  0.1241224E+03  0.7818608E-02  0.1441859E+00
          2   -1    0    0  502    0  0.00000000000E+00  0.00000000000E+00  0.40927275335E+02  0.40927275335E+02  0.00000000000E+00 0. -1.
          1   -1    0    0  501    0 -0.00000000000E+00 -0.00000000000E+00 -0.16832983832E+04  0.16832983832E+04  0.00000000000E+00 0. -1.
         25    2    1    2    0    0 -0.10656358612E+03  0.16194415484E+02 -0.35784633820E+03  0.39408215159E+03  0.12501473299E+03 0.  0.
          2    1    1    2  501    0  0.12649458185E+03 -0.10718150437E+02 -0.12988218194E+04  0.13050110637E+04  0.00000000000E+00 0. -1.
          1    1    1    2  502    0 -0.19930995737E+02 -0.54762650469E+01  0.14297049724E+02  0.25132443191E+02  0.00000000000E+00 0. -1.
         22    1    3    3    0    0 -0.31408096661E+02  0.51761636703E+02 -0.25365610795E+03  0.26078181813E+03  0.00000000000E+00 0. -1.
         22    1    3    3    0    0 -0.75155489455E+02 -0.35567221219E+02 -0.10419023025E+03  0.13330033346E+03  0.00000000000E+00 0. -1.
</event>
<event>
 7    1  0.5452757E-006  0.7016851E+02  0.7818608E-02  0.1387837E+00
          2   -1    0    0  502    0  0.00000000000E+00  0.00000000000E+00  0.44856474690E+03  0.44856474690E+03  0.00000000000E+00 0. -1.
          1   -1    0    0  501    0 -0.00000000000E+00 -0.00000000000E+00 -0.79745846360E+03  0.79745846360E+03  0.00000000000E+00 0. -1.
         25    2    1    2    0    0 -0.55019569778E+01 -0.28630257863E+02 -0.82151903138E+02  0.15239410316E+03  0.12500025718E+03 0.  0.
          2    1    1    2  501    0  0.59372514337E+02  0.42294654785E+02 -0.67635034945E+03  0.68026739484E+03  0.00000000000E+00 0. -1.
          1    1    1    2  502    0 -0.53870557359E+02 -0.13664396922E+02  0.40960853588E+03  0.41336171250E+03  0.00000000000E+00 0. -1.
         22    1    3    3    0    0  0.29561134031E+02  0.38797167215E+02 -0.50071132421E+02  0.69901352856E+02  0.00000000000E+00 0. -1.
         22    1    3    3    0    0 -0.35063091009E+02 -0.67427425078E+02 -0.32080770717E+02  0.82492750309E+02  0.00000000000E+00 0. -1.
</event>
<event>
 7    1  0.5452757E-006  0.5390046E+02  0.7818608E-02  0.1545144E+00
          2   -1    0    0  502    0  0.00000000000E+00  0.00000000000E+00  0.88134422505E+03  0.88134422505E+03  0.00000000000E+00 0. -1.
          1   -1    0    0  501    0 -0.00000000000E+00 -0.00000000000E+00 -0.17141187406E+03  0.17141187406E+03  0.00000000000E+00 0. -1.
         25    2    1    2    0    0 -0.23326927152E+02  0.37280827467E+02  0.31732397021E+03  0.34387491321E+03  0.12498579213E+03 0.  0.
          2    1    1    2  501    0  0.15356709964E+02  0.17442646277E+02 -0.15588464004E+03  0.15760740925E+03  0.00000000000E+00 0. -1.
          1    1    1    2  502    0  0.79702171877E+01 -0.54723473744E+02  0.54849302082E+03  0.55127377665E+03  0.00000000000E+00 0. -1.
         22    1    3    3    0    0  0.47101853124E+02 -0.92314109841E+01  0.10875710730E+03  0.11887771828E+03  0.00000000000E+00 0. -1.
         22    1    3    3    0    0 -0.70428780276E+02  0.46512238451E+02  0.20856686292E+03  0.22499719492E+03  0.00000000000E+00 0. -1.
</event>
<event>
 7    1  0.5452757E-006  0.2393325E+03  0.7818608E-02  0.1233375E+00
          2   -1    0    0  502    0  0.00000000000E+00  0.00000000000E+00  0.23761777629E+04  0.23761777629E+04  0.00000000000E+00 0. -1.
          1   -1    0    0  501    0 -0.00000000000E+00 -0.00000000000E+00 -0.23552866169E+03  0.23552866169E+03  0.00000000000E+00 0. -1.
         25    2    1    2    0    0  0.21226491556E+03 -0.64920799717E+01  0.86818285966E+02  0.26126875917E+03  0.12500163304E+03 0.  0.
          2    1    1    2  501    0  0.19286674346E+02 -0.63568126567E+02 -0.13384662834E+03  0.14942490569E+03  0.00000000000E+00 0. -1.
          1    1    1    2  502    0 -0.23155158990E+03  0.70060206538E+02  0.21876774435E+04  0.22010127597E+04  0.00000000000E+00 0. -1.
         22    1    3    3    0    0  0.19837514106E+03  0.31623116348E+02  0.51243913763E+02  0.20731294406E+03  0.00000000000E+00 0.  1.
         22    1    3    3    0    0  0.13889774494E+02 -0.38115196320E+02  0.35574372203E+02  0.53955815105E+02  0.00000000000E+00 0.  1.
</event>
<event>
 7    1  0.5452757E-006  0.1895520E+03  0.7818608E-02  0.1265482E+00
          2   -1    0    0  502    0  0.00000000000E+00  0.00000000000E+00  0.50254954264E+03  0.50254954264E+03  0.00000000000E+00 0. -1.
          1   -1    0    0  501    0 -0.00000000000E+00 -0.00000000000E+00 -0.70366639706E+03  0.70366639706E+03  0.00000000000E+00 0. -1.
         25    2    1    2    0    0  0.97285021129E+02  0.96099494641E+02 -0.31400152612E+03  0.36458202488E+03  0.12499442489E+03 0.  0.
          2    1    1    2  501    0  0.58218145895E+02  0.17670536943E+02 -0.34213401198E+03  0.34750148567E+03  0.00000000000E+00 0. -1.
          1    1    1    2  502    0 -0.15550316702E+03 -0.11377003158E+03  0.45501868368E+03  0.49413242915E+03  0.00000000000E+00 0. -1.
         22    1    3    3    0    0  0.12524869713E+03  0.89908102771E+02 -0.24026555589E+03  0.28547896669E+03  0.00000000000E+00 0.  1.
         22    1    3    3    0    0 -0.27963676002E+02  0.61913918704E+01 -0.73735970229E+02  0.79103058187E+02  0.00000000000E+00 0.  1.
</event>
<event>
 7    1  0.5452757E-006  0.9010601E+02  0.7818608E-02  0.1322134E+00
          2   -1    0    0  502    0  0.00000000000E+00  0.00000000000E+00  0.19405747081E+03  0.19405747081E+03  0.00000000000E+00 0. -1.
          1   -1    0    0  501    0 -0.00000000000E+00 -0.00000000000E+00 -0.13709497464E+04  0.13709497464E+04  0.00000000000E+00 0. -1.
         25    2    1    2    0    0  0.74369891872E+02  0.83242496647E+02 -0.99061146387E+03  0.10046871344E+04  0.12499988610E+03 0.  0.
          2    1    1    2  501    0 -0.85513428468E+02 -0.85543591474E+01 -0.36041367820E+03  0.37051820865E+03  0.00000000000E+00 0. -1.
          1    1    1    2  502    0  0.11143536596E+02 -0.74688137500E+02  0.17413286644E+03  0.18980187424E+03  0.00000000000E+00 0. -1.
         22    1    3    3    0    0  0.72929956628E+02  0.24058719795E+02 -0.24558505459E+03  0.25731229976E+03  0.00000000000E+00 0. -1.
         22    1    3    3    0    0  0.14399352434E+01  0.59183776852E+02 -0.74502640929E+03  0.74737483460E+03  0.00000000000E+00 0. -1.
</event>
<event>
 7    1  0.5452757E-006  0.1035736E+03  0.7818608E-02  0.1421104E+00
          2   -1    0    0  502    0  0.00000000000E+00  0.00000000000E+00  0.19979164471E+03  0.19979164471E+03  0.00000000000E+00 0. -1.
          1   -1    0    0  501    0 -0.00000000000E+00 -0.00000000000E+00 -0.17738536500E+04  0.17738536500E+04  0.00000000000E+00 0. -1.
         25    2    1    2    0    0  0.43562721296E+02  0.61749695173E+02 -0.14564592144E+04  0.14637663607E+04  0.12501111863E+03 0.  0.
          2    1    1    2  501    0  0.10034797996E+02  0.27188779462E+02 -0.29924774987E+03  0.30064787161E+03  0.00000000000E+00 0. -1.
          1    1    1    2  502    0 -0.53597519292E+02 -0.88938474636E+02  0.18164495903E+03  0.20923106243E+03  0.00000000000E+00 0. -1.
         22    1    3    3    0    0  0.36224500908E+02  0.79394790079E+02 -0.53203828674E+03  0.53914792564E+03  0.00000000000E+00 0.  1.
         22    1    3    3    0    0  0.73382203879E+01 -0.17645094906E+02 -0.92442092768E+03  0.92461843503E+03  0.00000000000E+00 0.  1.
</event>
<event>
 7    1  0.5452757E-006  0.6475471E+02  0.7818608E-02  0.1438352E+00
          2   -1    0    0  502    0  0.00000000000E+00  0.00000000000E+00  0.25446056539E+02  0.25446056539E+02  0.00000000000E+00 0. -1.
          1   -1    0    0  501    0 -0.00000000000E+00 -0.00000000000E+00 -0.32714969747E+04  0.32714969747E+04  0.00000000000E+00 0. -1.
         25    2    1    2    0    0 -0.14356936128E+02 -0.64649927737E+02 -0.94601561567E+03  0.95653357957E+03  0.12500083593E+03 0.  0.
          2    1    1    2  501    0  0.49132633803E+02  0.43558880947E+02 -0.22987809187E+04  0.22997184836E+04  0.00000000000E+00 0. -1.
          1    1    1    2  502    0 -0.34775697675E+02  0.21091046790E+02 -0.12543838283E+01  0.40690968067E+02  0.00000000000E+00 0. -1.
         22    1    3    3    0    0 -0.47853053973E+02 -0.82526493278E+02 -0.50830761843E+03  0.51718195234E+03  0.00000000000E+00 0.  1.
         22    1    3    3    0    0  0.33496117845E+02  0.17876565541E+02 -0.43770799723E+03  0.43935162723E+03  0.00000000000E+00 0.  1.
</event>
<event>
 7    1  0.5452757E-006  0.1180902E+03  0.7818608E-02  0.1322604E+00
          2   -1    0    0  502    0  0.00000000000E+00  0.00000000000E+00  0.43041084919E+03  0.43041084919E+03  0.00000000000E+00 0. -1.
          1   -1    0    0  501    0 -0.00000000000E+00 -0.00000000000E+00 -0.65125130835E+03  0.65125130835E+03  0.00000000000E+00 0. -1.
         25    2    1    2    0    0  0.80615571668E+02  0.80535820440E+02 -0.32313017959E+03  0.36472209649E+03  0.12499682370E+03 0.  0.
          2    1    1    2  501    0 -0.46874766749E+02  0.33093318495E+02 -0.29593625680E+03  0.30144763985E+03  0.00000000000E+00 0. -1.
          1    1    1    2  502    0 -0.33740804918E+02 -0.11362913893E+03  0.39822597723E+03  0.41549242119E+03  0.00000000000E+00 0. -1.
         22    1    3    3    0    0 -0.33605872434E+02  0.10977646796E+02 -0.63857269924E+02  0.72990508378E+02  0.00000000000E+00 0. -1.
         22    1    3    3    0    0  0.11422144410E+03  0.69558173644E+02 -0.25927290967E+03  0.29173158811E+03  0.00000000000E+00 0. -1.
</event>
<event>
 7    1  0.5452757E-006  0.9479852E+02  0.7818608E-02  0.1341998E+00
          2   -1    0    0  502    0  0.00000000000E+00  0.00000000000E+00  0.20655725699E+04  0.20655725699E+04  0.00000000000E+00 0. -1.
          1   -1    0    0  501    0 -0.00000000000E+00 -0.00000000000E+00 -0.28471067768E+02  0.28471067768E+02  0.00000000000E+00 0. -1.
         25    2    1    2    0    0 -0.47159879957E+02  0.18923994806E+02  0.70767043725E+03  0.72041936564E+03  0.12499777108E+03 0.  0.
          2    1    1    2  501    0 -0.55542691003E+02  0.23482321823E+02  0.26339583905E+02  0.65804130891E+02  0.00000000000E+00 0. -1.
          1    1    1    2  502    0  0.10270257096E+03 -0.42406316629E+02  0.13030914809E+04  0.13078201411E+04  0.00000000000E+00 0. -1.
         22    1    3    3    0    0 -0.84946638286E+02  0.59655726487E+01  0.33659008442E+03  0.34719505230E+03  0.00000000000E+00 0.  1.
         22    1    3    3    0    0  0.37786758329E+02  0.12958422158E+02  0.37108035283E+03  0.37322431333E+03  0.00000000000E+00 0.  1.
</event>
<event>
 7    1  0.5452757E-006  0.1105456E+03  0.7818608E-02  0.1266680E+00
          2   -1    0    0  502    0  0.00000000000E+00  0.00000000000E+00  0.18350265089E+04  0.18350265089E+04  0.00000000000E+00 0. -1.
          1   -1    0    0  501    0 -0.00000000000E+00 -0.00000000000E+00 -0.52214586338E+02  0.52214586338E+02  0.00000000000E+00 0. -1.
         25    2    1    2    0    0  0.14301085050E+02  0.31374441767E+02  0.28164630541E+03  0.31006245341E+03  0.12500082812E+03 0.  0.
          2    1    1    2  501    0  0.10077866017E+03  0.21824446258E+02  0.40123276297E+02  0.11064593125E+03  0.00000000000E+00 0. -1.
          1    1    1    2  502    0 -0.11507974522E+03 -0.53198888025E+02  0.14610423409E+04  0.14665327106E+04  0.00000000000E+00 0. -1.
         22    1    3    3    0    0  0.91470331561E+01 -0.48572377195E+02  0.11427869771E+03  0.12450929601E+03  0.00000000000E+00 0.  1.
         22    1    3    3    0    0  0.51540518941E+01  0.79946818962E+02  0.16736760770E+03  0.18555315740E+03  0.00000000000E+00 0.  1.
</event>
<event>
 7    1  0.5452757E-006  0.8964154E+02  0.7818608E-02  0.1471897E+00
          2   -1    0    0  502    0  0.00000000000E+00  0.00000000000E+00  0.73476467709E+03  0.73476467709E+03  0.00000000000E+00 0. -1.
          1   -1    0    0  501    0 -0.00000000000E+00 -0.00000000000E+00 -0.25735115852E+03  0.25735115852E+03  0.00000000000E+00 0. -1.
         25    2    1    2    0    0 -0.28830241839E+02  0.78555067744E+02  0.41363875833E+03  0.44014089331E+03  0.12499960823E+03 0.  0.
          2    1    1    2  501    0  0.51302027134E+02 -0.73714265216E+02 -0.23538356891E+03  0.25193474432E+03  0.00000000000E+00 0. -1.
          1    1    1    2  502    0 -0.22471785295E+02 -0.48408025285E+01  0.29915832915E+03  0.30004019798E+03  0.00000000000E+00 0. -1.
         22    1    3    3    0    0  0.26552543455E+02  0.75452584917E+02  0.14276468139E+03  0.16364560608E+03  0.00000000000E+00 0. -1.
         22    1    3    3    0    0 -0.55382785295E+02  0.31024828269E+01  0.27087407693E+03  0.27649528723E+03  0.00000000000E+00 0. -1.
</event>
<event>
 7    1  0.5452757E-006  0.3660098E+02  0.7818608E-02  0.1537166E+00
          2   -1    0    0  502    0  0.00000000000E+00  0.00000000000E+00  0.21180015757E+03  0.21180015757E+03  0.00000000000E+00 0. -1.
          1   -1    0    0  501    0 -0.00000000000E+00 -0.00000000000E+00 -0.32645426632E+03  0.32645426632E+03  0.00000000000E+00 0. -1.
         25    2    1    2    0    0 -0.24589950534E+02  0.39263169720E+02  0.10680141926E+02  0.13373056231E+03  0.12499414266E+03 0.  0.
          2    1    1    2  501    0  0.36346303418E+02 -0.51894429273E+01 -0.26129727668E+03  0.26386407654E+03  0.00000000000E+00 0. -1.
          1    1    1    2  502    0 -0.11756352884E+02 -0.34073726793E+02  0.13596302600E+03  0.14065978505E+03  0.00000000000E+00 0. -1.
         22    1    3    3    0    0  0.15946513175E+02  0.70008017335E+02 -0.19724120593E+02  0.74461095257E+02  0.00000000000E+00 0.  1.
         22    1    3    3    0    0 -0.40536463709E+02 -0.30744847615E+02  0.30404262519E+02  0.59269467049E+02  0.00000000000E+00 0.  1.
</event>
<event>
 7    1  0.5452757E-006  0.7658460E+02  0.7818608E-02  0.1460058E+00
          2   -1    0    0  502    0  0.00000000000E+00  0.00000000000E+00  0.29611444188E+03  0.29611444188E+03  0.00000000000E+00 0. -1.
          1   -1    0    0  501    0 -0.00000000000E+00 -0.00000000000E+00 -0.12451890053E+04  0.12451890053E+04  0.00000000000E+00 0. -1.
         25    2    1    2    0    0 -0.67896932266E+02  0.38568655261E+02 -0.16946711201E+03  0.22458910126E+03  0.12499451096E+03 0.  0.
          2    1    1    2  501    0  0.20048672388E+02  0.21368944175E+02 -0.10424752329E+04  0.10428869508E+04  0.00000000000E+00 0. -1.
          1    1    1    2  502    0  0.47848259878E+02 -0.59937599436E+02  0.26286778144E+03  0.27382739512E+03  0.00000000000E+00 0. -1.
         22    1    3    3    0    0 -0.14243832109E+02  0.23915255930E+02  0.15208926193E+02  0.31719673002E+02  0.00000000000E+00 0. -1.
         22    1    3    3    0    0 -0.53653100157E+02  0.14653399330E+02 -0.18467603821E+03  0.19286942826E+03  0.00000000000E+00 0. -1.
</event>
<event>
 7    1  0.5452757E-006  0.7930316E+02  0.7818608E-02  0.1502744E+00
          2   -1    0    0  502    0  0.00000000000E+00  0.00000000000E+00  0.61184670500E+03  0.61184670500E+03  0.00000000000E+00 0. -1.
          1   -1    0    0  501    0 -0.00000000000E+00 -0.00000000000E+00 -0.14747479708E+03  0.14747479708E+03  0.00000000000E+00 0. -1.
         25    2    1    2    0    0  0.39542256199E+02 -0.87588295685E+02  0.11890221457E+03  0.19747871049E+03  0.12499921960E+03 0.  0.
          2    1    1    2  501    0 -0.23376744845E+02  0.74274626882E+02 -0.93893796304E+02  0.12198047951E+03  0.00000000000E+00 0. -1.
          1    1    1    2  502    0 -0.16165511354E+02  0.13313668803E+02  0.43936348966E+03  0.43986231207E+03  0.00000000000E+00 0. -1.
         22    1    3    3    0    0  0.71362304894E+02 -0.78830533389E+01  0.51630478860E+02  0.88433180634E+02  0.00000000000E+00 0. -1.
         22    1    3    3    0    0 -0.31820048694E+02 -0.79705242346E+02  0.67271735706E+02  0.10904552985E+03  0.00000000000E+00 0. -1.
</event>
<event>
 7    1  0.5452757E-006  0.1801036E+03  0.7818608E-02  0.1220684E+00
          2   -1    0    0  502    0  0.00000000000E+00  0.00000000000E+00  0.62141086791E+03  0.62141086791E+03  0.00000000000E+00 0. -1.
          1   -1    0    0  501    0 -0.00000000000E+00 -0.00000000000E+00 -0.15572692106E+04  0.15572692106E+04  0.00000000000E+00 0. -1.
         25    2    1    2    0    0  0.12713949587E+03  0.16580978119E+03 -0.27478977764E+03  0.36714230946E+03  0.12500687399E+03 0.  0.
          2    1    1    2  501    0 -0.27077680658E+02 -0.17712931135E+03 -0.12253293193E+04  0.12383617947E+04  0.00000000000E+00 0. -1.
          1    1    1    2  502    0 -0.10006181522E+03  0.11319530167E+02  0.56426075434E+03  0.57317597430E+03  0.00000000000E+00 0. -1.
         22    1    3    3    0    0  0.89349882630E+01  0.57029061997E+02 -0.15890372168E+03  0.16906371785E+03  0.00000000000E+00 0. -1.
         22    1    3    3    0    0  0.11820450761E+03  0.10878071919E+03 -0.11588605596E+03  0.19807859161E+03  0.00000000000E+00 0. -1.
</event>
<event>
 7    1  0.5452757E-006  0.1136395E+03  0.7818608E-02  0.1366042E+00
          2   -1    0    0  502    0  0.00000000000E+00  0.00000000000E+00  0.39147837925E+02  0.39147837925E+02  0.00000000000E+00 0. -1.
          1   -1    0    0  501    0 -0.00000000000E+00 -0.00000000000E+00 -0.12106308906E+04  0.12106308906E+04  0.00000000000E+00 0. -1.
         25    2    1    2    0    0  0.13835546129E+03  0.17759198773E+02 -0.55383212288E+03  0.58464762933E+03  0.12500082937E+03 0.  0.
          2    1    1    2  501    0 -0.10626727985E+03  0.78034745511E+01 -0.61484501782E+03  0.62400963528E+03  0.00000000000E+00 0. -1.
          1    1    1    2  502    0 -0.32088181443E+02 -0.25562673324E+02 -0.28059120204E+01  0.41121463958E+02  0.00000000000E+00 0. -1.
         22    1    3    3    0    0  0.13055827607E+03 -0.25543084995E+02 -0.48532853556E+03  0.50323125903E+03  0.00000000000E+00 0. -1.
         22    1    3    3    0    0  0.77971852177E+01  0.43302283769E+02 -0.68503587322E+02  0.81416370300E+02  0.00000000000E+00 0. -1.
</event>
<event>
 7    1  0.5452757E-006  0.8134259E+02  0.7818608E-02  0.1402658E+00
          2   -1    0    0  502    0  0.00000000000E+00  0.00000000000E+00  0.11880155460E+04  0.11880155460E+04  0.00000000000E+00 0. -1.
          1   -1    0    0  501    0 -0.00000000000E+00 -0.00000000000E+00 -0.55804081575E+03  0.55804081575E+03  0.00000000000E+00 0. -1.
         25    2    1    2    0    0 -0.11998546689E+03  0.21146210611E+02  0.36565265649E+03  0.40517390065E+03  0.12498139895E+03 0.  0.
          2    1    1    2  501    0  0.80922548601E+02 -0.41541424806E+01 -0.53466018591E+03  0.54076541140E+03  0.00000000000E+00 0. -1.
          1    1    1    2  502    0  0.39062918286E+02 -0.16992068131E+02  0.79898225965E+03  0.80011704969E+03  0.00000000000E+00 0. -1.
         22    1    3    3    0    0  0.20202855678E+02  0.17729941920E+02  0.11361777388E+03  0.11675403530E+03  0.00000000000E+00 0. -1.
         22    1    3    3    0    0 -0.14018832257E+03  0.34162686916E+01  0.25203488261E+03  0.28841986535E+03  0.00000000000E+00 0. -1.
</event>
<event>
 7    1  0.5452757E-006  0.8876861E+02  0.7818608E-02  0.1409120E+00
          2   -1    0    0  502    0  0.00000000000E+00  0.00000000000E+00  0.96053076832E+03  0.96053076832E+03  0.00000000000E+00 0. -1.
          1   -1    0    0  501    0 -0.00000000000E+00 -0.00000000000E+00 -0.58695032316E+03  0.58695032316E+03  0.00000000000E+00 0. -1.
         25    2    1    2    0    0 -0.58456319032E+02 -0.66749075193E+01  0.13909559830E+03  0.19604713093E+03  0.12500078581E+03 0.  0.
          2    1    1    2  501    0 -0.27723451341E+02 -0.24660513186E+02 -0.55520215159E+03  0.55644061659E+03  0.00000000000E+00 0. -1.
          1    1    1    2  502    0  0.86179770373E+02  0.31335420705E+02  0.78968699845E+03  0.79499334396E+03  0.00000000000E+00 0. -1.
         22    1    3    3    0    0 -0.22863341922E+02 -0.15584229262E+02  0.15398413396E+03  0.15645035672E+03  0.00000000000E+00 0.  1.
         22    1    3    3    0    0 -0.35592977110E+02  0.89093217428E+01 -0.14888535661E+02  0.39596774207E+02  0.00000000000E+00 0.  1.
</event>
<event>
 7    1  0.5452757E-006  0.8953633E+02  0.7818608E-02  0.1335496E+00
          2   -1    0    0  502    0  0.00000000000E+00  0.00000000000E+00  0.14698279284E+04  0.14698279284E+04  0.00000000000E+00 0. -1.
          1   -1    0    0  501    0 -0.00000000000E+00 -0.00000000000E+00 -0.14275837375E+04  0.14275837375E+04  0.00000000000E+00 0. -1.
         25    2    1    2    0    0 -0.32655514091E+02  0.14188993102E+02  0.29060955610E+03  0.31835965850E+03  0.12502498927E+03 0.  0.
          2    1    1    2  501    0 -0.32034376669E+02  0.59474799789E+02 -0.14108372076E+04  0.14124535672E+04  0.00000000000E+00 0. -1.
          1    1    1    2  502    0  0.64689890760E+02 -0.73663792891E+02  0.11624718424E+04  0.11665984402E+04  0.00000000000E+00 0. -1.
         22    1    3    3    0    0  0.45804272179E+02  0.20090901599E+02  0.91700135241E+02  0.10445377198E+03  0.00000000000E+00 0.  1.
         22    1    3    3    0    0 -0.78459786271E+02 -0.59019084964E+01  0.19890942086E+03  0.21390588653E+03  0.00000000000E+00 0.  1.
</event>
<event>
 7    1  0.5452757E-006  0.5771306E+02  0.7818608E-02  0.1427374E+00
          2   -1    0    0  502    0  0.00000000000E+00  0.00000000000E+00  0.38289570750E+02  0.38289570750E+02  0.00000000000E+00 0. -1.
          1   -1    0    0  501    0 -0.00000000000E+00 -0.00000000000E+00 -0.12337540789E+04  0.12337540789E+04  0.00000000000E+00 0. -1.
         25    2    1    2    0    0  0.85221263990E+02 -0.33761693062E+02 -0.32176679391E+03  0.35715732011E+03  0.12499986355E+03 0.  0.
          2    1    1    2  501    0 -0.30594797983E+02  0.39011248676E+02 -0.85569608720E+03  0.85713109431E+03  0.00000000000E+00 0. -1.
          1    1    1    2  502    0 -0.54626466007E+02 -0.52495556142E+01 -0.18001627064E+02  0.57755235257E+02  0.00000000000E+00 0. -1.
         22    1    3    3    0    0  0.93103106140E+02 -0.50556853523E+02 -0.14586440588E+03  0.18027925204E+03  0.00000000000E+00 0. -1.
         22    1    3    3    0    0 -0.78818421499E+01  0.16795160461E+02 -0.17590238803E+03  0.17687806807E+03  0.00000000000E+00 0. -1.
</event>
<event>
 7    1  0.5780138E-006  0.1183556E+03  0.7818608E-02  0.1320298E+00
          2   -1    0    0  502    0  0.00000000000E+00  0.00000000000E+00  0.50184572460E+03  0.50184572460E+03  0.00000000000E+00 0. -1.
          1   -1    0    0  501    0 -0.00000000000E+00 -0.00000000000E+00 -0.23528590706E+04  0.23528590706E+04  0.00000000000E+00 0. -1.
         25    2    1    2    0    0 -0.79868466985E+02 -0.16212125129E+02 -0.36780413142E+03  0.39692106913E+03  0.12499860405E+03 0.  0.
          2    1    1    2  501    0  0.10238388595E+03  0.70140310414E+02 -0.19667814257E+04  0.19706931014E+04  0.00000000000E+00 0. -1.
          1    1    1    2  502    0 -0.22515418964E+02 -0.53928185285E+02  0.48357221115E+03  0.48709062469E+03  0.00000000000E+00 0. -1.
         22    1    3    3    0    0 -0.82703365928E+02  0.30071669191E+02 -0.14722603052E+03  0.17152159073E+03  0.00000000000E+00 0. -1.
         22    1    3    3    0    0  0.28348989433E+01 -0.46283794321E+02 -0.22057810089E+03  0.22539947840E+03  0.00000000000E+00 0. -1.
</event>
<event>
 7    1  0.5452757E-006  0.2664068E+03  0.7818608E-02  0.1184739E+00
          2   -1    0    0  502    0  0.00000000000E+00  0.00000000000E+00  0.23503222305E+04  0.23503222305E+04  0.00000000000E+00 0. -1.
          1   -1    0    0  501    0 -0.00000000000E+00 -0.00000000000E+00 -0.11490304189E+04  0.11490304189E+04  0.00000000000E+00 0. -1.
         25    2    1    2    0    0 -0.14716948391E+03 -0.28784836247E+03  0.15548405528E+04  0.15930065085E+04  0.12500021917E+03 0.  0.
          2    1    1    2  501    0  0.18220766875E+03  0.19374721820E+03 -0.11109371495E+04  0.11423304991E+04  0.00000000000E+00 0. -1.
          1    1    1    2  502    0 -0.35038184837E+02  0.94101144269E+02  0.75738840829E+03  0.76401564170E+03  0.00000000000E+00 0. -1.
         22    1    3    3    0    0 -0.16820344984E+03 -0.23177603489E+03  0.12579342336E+04  0.12901205629E+04  0.00000000000E+00 0.  1.
         22    1    3    3    0    0  0.21033965935E+02 -0.56072327576E+02  0.29690631925E+03  0.30288594562E+03  0.00000000000E+00 0.  1.
</event>
<event>
 7    1  0.5452757E-006  0.1160134E+03  0.7818608E-02  0.1316563E+00
          2   -1    0    0  502    0  0.00000000000E+00  0.00000000000E+00  0.37876644087E+03  0.37876644087E+03  0.00000000000E+00 0. -1.
          1   -1    0    0  501    0 -0.00000000000E+00 -0.00000000000E+00 -0.97654888226E+03  0.97654888226E+03  0.00000000000E+00 0. -1.
         25    2    1    2    0    0  0.92245186909E+02 -0.14706381528E+03 -0.13862254357E+03  0.25490825920E+03  0.12500028300E+03 0.  0.
          2    1    1    2  501    0 -0.61413557735E+02  0.93680037391E+02 -0.77274406298E+03  0.78082069731E+03  0.00000000000E+00 0. -1.
          1    1    1    2  502    0 -0.30831629173E+02  0.53383777890E+02  0.31358416515E+03  0.31958636662E+03  0.00000000000E+00 0. -1.
         22    1    3    3    0    0  0.10992419718E+03 -0.15318539641E+03 -0.14182022171E+03  0.23592810364E+03  0.00000000000E+00 0.  1.
         22    1    3    3    0    0 -0.17679010272E+02  0.61215811271E+01  0.31976781432E+01  0.18980155564E+02  0.00000000000E+00 0.  1.
</event>
<event>
 7    1  0.5452757E-006  0.5526336E+02  0.7818608E-02  0.1494084E+00
          2   -1    0    0  502    0  0.00000000000E+00  0.00000000000E+00  0.40579888907E+02  0.40579888907E+02  0.00000000000E+00 0. -1.
          1   -1    0    0  501    0 -0.00000000000E+00 -0.00000000000E+00 -0.24087976585E+04  0.24087976585E+04  0.00000000000E+00 0. -1.
         25    2    1    2    0    0 -0.17338629830E+02 -0.48883380902E+02 -0.58309293405E+03  0.59859247537E+03  0.12500147527E+03 0.  0.
          2    1    1    2  501    0 -0.27633203967E+02  0.15935487064E+02 -0.17940429992E+04  0.17943265635E+04  0.00000000000E+00 0. -1.
          1    1    1    2  502    0  0.44971833797E+02  0.32947893838E+02  0.89181636041E+01  0.56458508530E+02  0.00000000000E+00 0. -1.
         22    1    3    3    0    0 -0.43231927933E+02 -0.53946954833E+02 -0.15536543924E+03  0.17005203098E+03  0.00000000000E+00 0.  1.
         22    1    3    3    0    0  0.25893298103E+02  0.50635739313E+01 -0.42772749480E+03  0.42854044439E+03  0.00000000000E+00 0.  1.
</event>
<event>
 7    1  0.5452757E-006  0.7186960E+02  0.7818608E-02  0.1488250E+00
          2   -1    0    0  502    0  0.00000000000E+00  0.00000000000E+00  0.33532129480E+02  0.33532129480E+02  0.00000000000E+00 0. -1.
          1   -1    0    0  501    0 -0.00000000000E+00 -0.00000000000E+00 -0.11540444724E+04  0.11540444724E+04  0.00000000000E+00 0. -1.
         25    2    1    2    0    0 -0.93665811259E+02  0.68504441885E+01 -0.39179042730E+03  0.42183535950E+03  0.12500047528E+03 0.  0.
          2    1    1    2  501    0  0.25377758379E+02 -0.29103403324E+01 -0.68297322459E+03  0.68345074892E+03  0.00000000000E+00 0. -1.
          1    1    1    2  502    0  0.68288052881E+02 -0.39401038561E+01 -0.45748691078E+02  0.82290493497E+02  0.00000000000E+00 0. -1.
         22    1    3    3    0    0  0.30951065244E+02  0.66052546536E+01 -0.73887873450E+02  0.80380443341E+02  0.00000000000E+00 0. -1.
         22    1    3    3    0    0 -0.12461687650E+03  0.24518953490E+00 -0.31790255385E+03  0.34145491616E+03  0.00000000000E+00 0. -1.
</event>
<event>
 7    1  0.5452757E-006  0.2229433E+03  0.7818608E-02  0.1225992E+00
          2   -1    0    0  502    0  0.00000000000E+00  0.00000000000E+00  0.66217303790E+03  0.66217303790E+03  0.00000000000E+00 0. -1.
          1   -1    0    0  501    0 -0.00000000000E+00 -0.00000000000E+00 -0.45582091743E+03  0.45582091743E+03  0.00000000000E+00 0. -1.
         25    2    1    2    0    0 -0.20808328217E+03 -0.67886987752E+01 -0.90869541565E+02  0.25927723568E+03  0.12499069009E+03 0.  0.
          2    1    1    2  501    0  0.22597211698E+03 -0.68067882329E+02 -0.22784482601E+03  0.32803947780E+03  0.00000000000E+00 0. -1.
          1    1    1    2  502    0 -0.17888834817E+02  0.74856581104E+02  0.52506648804E+03  0.53067724184E+03  0.00000000000E+00 0. -1.
         22    1    3    3    0    0 -0.30384501367E+02 -0.50975416286E+02 -0.16093425650E+02  0.61487473017E+02  0.00000000000E+00 0.  1.
         22    1    3    3    0    0 -0.17769878080E+03  0.44186717511E+02 -0.74776115914E+02  0.19778976266E+03  0.00000000000E+00 0.  1.
</event>
<event>
 7    1  0.5452757E-006  0.8885280E+02  0.7818608E-02  0.1404377E+00
          2   -1    0    0  502    0  0.00000000000E+00  0.00000000000E+00  0.47286508828E+03  0.47286508828E+03  0.00000000000E+00 0. -1.
          1   -1    0    0  501    0 -0.00000000000E+00 -0.00000000000E+00 -0.15437520862E+03  0.15437520862E+03  0.00000000000E+00 0. -1.
         25    2    1    2    0    0 -0.10544102118E+03  0.66418640411E+00  0.13662764319E+03  0.21309882177E+03  0.12500297943E+03 0.  0.
          2    1    1    2  501    0  0.24051202467E+02  0.30029022038E+02 -0.10634666456E+03  0.11309206678E+03  0.00000000000E+00 0. -1.
          1    1    1    2  502    0  0.81389818711E+02 -0.30693208442E+02  0.28820890103E+03  0.30104940835E+03  0.00000000000E+00 0. -1.
         22    1    3    3    0    0 -0.12758834115E+03  0.20445683205E+02  0.12867518932E+03  0.18235710874E+03  0.00000000000E+00 0. -1.
         22    1    3    3    0    0  0.22147319971E+02 -0.19781496801E+02  0.79524538603E+01  0.30741713030E+02  0.00000000000E+00 0. -1.
</event>
<event>
 7    1  0.5452757E-006  0.3762603E+02  0.7818608E-02  0.1547666E+00
          2   -1    0    0  502    0  0.00000000000E+00  0.00000000000E+00  0.22831041569E+03  0.22831041569E+03  0.00000000000E+00 0. -1.
          1   -1    0    0  501    0 -0.00000000000E+00 -0.00000000000E+00 -0.60754823026E+02  0.60754823026E+02  0.00000000000E+00 0. -1.
         25    2    1    2    0    0  0.27457228777E+02 -0.41288277936E+01  0.93207173342E+02  0.15837515864E+03  0.12499666828E+03 0.  0.
          2    1    1    2  501    0 -0.85731916210E+01 -0.31611911559E+02 -0.12370965057E+02  0.35012188498E+02  0.00000000000E+00 0. -1.
          1    1    1    2  502    0 -0.18884037156E+02  0.35740739353E+02  0.86719384383E+02  0.95677891577E+02  0.00000000000E+00 0. -1.
         22    1    3    3    0    0  0.64962900336E+02  0.13806833844E+02  0.95970698868E+02  0.11670982016E+03  0.00000000000E+00 0.  1.
         22    1    3    3    0    0 -0.37505671560E+02 -0.17935661638E+02 -0.27635255262E+01  0.41665338483E+02  0.00000000000E+00 0.  1.
</event>
<event>
 7    1  0.5452757E-006  0.1066976E+03  0.7818608E-02  0.1287775E+00
          2   -1    0    0  502    0  0.00000000000E+00  0.00000000000E+00  0.20839337799E+03  0.20839337799E+03  0.00000000000E+00 0. -1.
          1   -1    0    0  501    0 -0.00000000000E+00 -0.00000000000E+00 -0.43178985004E+03  0.43178985004E+03  0.00000000000E+00 0. -1.
         25    2    1    2    0    0 -0.20522050460E+01  0.73816805409E+02 -0.13199025096E+03  0.19621229108E+03  0.12499881807E+03 0.  0.
          2    1    1    2  501    0 -0.80188704089E+02 -0.10317777117E+03 -0.23905048251E+03  0.27243533897E+03  0.00000000000E+00 0. -1.
          1    1    1    2  502    0  0.82240909135E+02  0.29360965764E+02  0.14764426142E+03  0.17153559799E+03  0.00000000000E+00 0. -1.
         22    1    3    3    0    0  0.83650008496E+01  0.10841221394E+03 -0.93307940115E+02  0.14328137722E+03  0.00000000000E+00 0.  1.
         22    1    3    3    0    0 -0.10417205896E+02 -0.34595408531E+02 -0.38682310843E+02  0.52930913861E+02  0.00000000000E+00 0.  1.
</event>
<event>
 7    1  0.5452757E-006  0.5503944E+02  0.7818608E-02  0.1432818E+00
          2   -1    0    0  502    0  0.00000000000E+00  0.00000000000E+00  0.13755351493E+04  0.13755351493E+04  0.00000000000E+00 0. -1.
          1   -1    0    0  501    0 -0.00000000000E+00 -0.00000000000E+00 -0.14612937820E+04  0.14612937820E+04  0.00000000000E+00 0. -1.
         25    2    1    2    0    0 -0.11941842828E+01 -0.10450014829E+03  0.20670353589E+03  0.26319790374E+03  0.12500031085E+03 0.  0.
          2    1    1    2  501    0  0.46268553091E+01  0.54733984594E+02 -0.14319743476E+04  0.14330274767E+04  0.00000000000E+00 0. -1.
          1    1    1    2  502    0 -0.34326710263E+01  0.49766163692E+02  0.11395121789E+04  0.11406035509E+04  0.00000000000E+00 0. -1.
         22    1    3    3    0    0  0.55279948961E+02 -0.62965427202E+02  0.15462397617E+03  0.17586668754E+03  0.00000000000E+00 0. -1.
         22    1    3    3    0    0 -0.56474133243E+02 -0.41534721084E+02  0.52079559721E+02  0.87331216193E+02  0.00000000000E+00 0. -1.
</event>
<event>
 7    1  0.5452757E-006  0.6336267E+02  0.7818608E-02  0.1444106E+00
          2   -1    0    0  502    0  0.00000000000E+00  0.00000000000E+00  0.37259713802E+03  0.37259713802E+03  0.00000000000E+00 0. -1.
          1   -1    0    0  501    0 -0.00000000000E+00 -0.00000000000E+00 -0.78581029541E+03  0.78581029541E+03  0.00000000000E+00 0. -1.
         25    2    1    2    0    0 -0.41606937550E+02  0.91940245384E+02 -0.54888979348E+03  0.57191741592E+03  0.12500151712E+03 0.  0.
          2    1    1    2  501    0  0.67496299273E+01 -0.39242640757E+02 -0.22084856563E+03  0.22440951695E+03  0.00000000000E+00 0. -1.
          1    1    1    2  502    0  0.34857307623E+02 -0.52697604627E+02  0.35652520172E+03  0.36208050056E+03  0.00000000000E+00 0. -1.
         22    1    3    3    0    0 -0.80913060756E+02  0.88935892465E+02 -0.38414677580E+03  0.40252361636E+03  0.00000000000E+00 0.  1.
         22    1    3    3    0    0  0.39306123206E+02  0.30043529187E+01 -0.16474301768E+03  0.16939379957E+03  0.00000000000E+00 0.  1.
</event>
<event>
 7    1  0.5452757E-006  0.5303704E+02  0.7818608E-02  0.1519211E+00
          2   -1    0    0  502    0  0.00000000000E+00  0.00000000000E+00  0.10545991138E+04  0.10545991138E+04  0.00000000000E+00 0. -1.
          1   -1    0    0  501    0 -0.00000000000E+00 -0.00000000000E+00 -0.96002781017E+03  0.96002781017E+03  0.00000000000E+00 0. -1.
         25    2    1    2    0    0 -0.18321394227E+02 -0.23239420027E+02  0.72894041915E+03  0.74017188523E+03  0.12499816351E+03 0.  0.
          2    1    1    2  501    0  0.46182567645E+02  0.26131061670E+02 -0.95305975559E+03  0.95453578229E+03  0.00000000000E+00 0. -1.
          1    1    1    2  502    0 -0.27861173419E+02 -0.28916416429E+01  0.31869064005E+03  0.31991925643E+03  0.00000000000E+00 0. -1.
         22    1    3    3    0    0 -0.51464187462E+02  0.12536367117E+02  0.14809447943E+03  0.15728222382E+03  0.00000000000E+00 0. -1.
         22    1    3    3    0    0  0.33142793235E+02 -0.35775787144E+02  0.58084593972E+03  0.58288966141E+03  0.00000000000E+00 0. -1.
</event>
<event>
 7    1  0.5452757E-006  0.8588968E+02  0.7818608E-02  0.1484978E+00
          2   -1    0    0  502    0  0.00000000000E+00  0.00000000000E+00  0.11180876775E+04  0.11180876775E+04  0.00000000000E+00 0. -1.
          1   -1    0    0  501    0 -0.00000000000E+00 -0.00000000000E+00 -0.14454062798E+03  0.14454062798E+03  0.00000000000E+00 0. -1.
         25    2    1    2    0    0  0.97864966255E+02 -0.23980488299E+02  0.12165368944E+03  0.20144120347E+03  0.12500529133E+03 0.  0.
          2    1    1    2  501    0 -0.84151500678E+02  0.69447226299E+01 -0.87466090186E+02  0.12157311040E+03  0.00000000000E+00 0. -1.
          1    1    1    2  502    0 -0.13713465577E+02  0.17035765669E+02  0.93935945024E+03  0.93961399160E+03  0.00000000000E+00 0. -1.
         22    1    3    3    0    0  0.18137985330E+01 -0.52097036410E+02  0.74195581163E+02  0.90677314318E+02  0.00000000000E+00 0. -1.
         22    1    3    3    0    0  0.96051167722E+02  0.28116548111E+02  0.47458108278E+02  0.11076388915E+03  0.00000000000E+00 0. -1.
</event>
<event>
 7    1  0.5452757E-006  0.1361295E+03  0.7818608E-02  0.1388097E+00
          2   -1    0    0  502    0  0.00000000000E+00  0.00000000000E+00  0.14566782994E+04  0.14566782994E+04  0.00000000000E+00 0. -1.
          1   -1    0    0  501    0 -0.00000000000E+00 -0.00000000000E+00 -0.45530719041E+03  0.45530719041E+03  0.00000000000E+00 0. -1.
         25    2    1    2    0    0 -0.76957415423E+02 -0.82753379592E+02 -0.51844854463E+02  0.17630334679E+03  0.12499766211E+03 0.  0.
          2    1    1    2  501    0  0.95997735873E+02  0.10407702065E+03 -0.32639102992E+03  0.35577899872E+03  0.00000000000E+00 0. -1.
          1    1    1    2  502    0 -0.19040320450E+02 -0.21323641055E+02  0.13796069934E+04  0.13799031443E+04  0.00000000000E+00 0. -1.
         22    1    3    3    0    0  0.29504305394E+02 -0.11263888558E+02  0.11068151254E+02  0.33464655898E+02  0.00000000000E+00 0. -1.
         22    1    3    3    0    0 -0.10646172082E+03 -0.71489491034E+02 -0.62913005717E+02  0.14283869089E+03  0.00000000000E+00 0. -1.
</event>
<event>
 7    1  0.5452757E-006  0.9029383E+02  0.7818608E-02  0.1332878E+00
          2   -1    0    0  502    0  0.00000000000E+00  0.00000000000E+00  0.40082795668E+03  0.40082795668E+03  0.00000000000E+00 0. -1.
          1   -1    0    0  501    0 -0.00000000000E+00 -0.00000000000E+00 -0.73411911618E+03  0.73411911618E+03  0.00000000000E+00 0. -1.
         25    2    1    2    0    0 -0.12232577069E+03 -0.10827706503E+02 -0.24992058589E+03  0.30523082488E+03  0.12499889521E+03 0.  0.
          2    1    1    2  501    0  0.51688202207E+02 -0.45007502139E+02 -0.44847054238E+03  0.45367738854E+03  0.00000000000E+00 0. -1.
          1    1    1    2  502    0  0.70637568479E+02  0.55835208642E+02  0.36509996877E+03  0.37603885943E+03  0.00000000000E+00 0. -1.
         22    1    3    3    0    0  0.23056362967E+01  0.29314837903E+02 -0.85342323654E+01  0.30618765522E+02  0.00000000000E+00 0.  1.
         22    1    3    3    0    0 -0.12463140698E+03 -0.40142544407E+02 -0.24138635353E+03  0.27461205936E+03  0.00000000000E+00 0.  1.
</event>
<event>
 7    1  0.5452757E-006  0.5730655E+02  0.7818608E-02  0.1517381E+00
          2   -1    0    0  502    0  0.00000000000E+00  0.00000000000E+00  0.17066950613E+04  0.17066950613E+04  0.00000000000E+00 0. -1.
          1   -1    0    0  501    0 -0.00000000000E+00 -0.00000000000E+00 -0.17416593549E+03  0.17416593549E+03  0.00000000000E+00 0. -1.
         25    2    1    2    0    0 -0.34040893734E+02 -0.15174880359E+01  0.57064422750E+03  0.58516707703E+03  0.12499835376E+03 0.  0.
          2    1    1    2  501    0 -0.25710586790E+02  0.52629300888E+01 -0.16507338956E+03  0.16714651252E+03  0.00000000000E+00 0. -1.
          1    1    1    2  502    0  0.59751480524E+02 -0.37454420529E+01  0.11269582879E+04  0.11285474072E+04  0.00000000000E+00 0. -1.
         22    1    3    3    0    0 -0.62490426348E+02 -0.82718418182E+01  0.53659838317E+03  0.54028816531E+03  0.00000000000E+00 0. -1.
         22    1    3    3    0    0  0.28449532614E+02  0.67543537823E+01  0.34045844330E+02  0.44878911719E+02  0.00000000000E+00 0. -1.
</event>
<event>
 7    1  0.5452757E-006  0.5483770E+02  0.7818608E-02  0.1448773E+00
          2   -1    0    0  502    0  0.00000000000E+00  0.00000000000E+00  0.36562414410E+03  0.36562414410E+03  0.00000000000E+00 0. -1.
          1   -1    0    0  501    0 -0.00000000000E+00 -0.00000000000E+00 -0.35451204570E+03  0.35451204570E+03  0.00000000000E+00 0. -1.
         25    2    1    2    0    0  0.80327856474E+02  0.55125800906E+02 -0.20932579190E+03  0.26255020290E+03  0.12499561367E+03 0.  0.
          2    1    1    2  501    0 -0.40760794312E+02 -0.17720736624E+02 -0.11211575885E+03  0.12060435416E+03  0.00000000000E+00 0. -1.
          1    1    1    2  502    0 -0.39567062161E+02 -0.37405064281E+02  0.33255364915E+03  0.33698163275E+03  0.00000000000E+00 0. -1.
         22    1    3    3    0    0  0.34470334633E+02  0.90816136834E+02 -0.10435324487E+03  0.14256708734E+03  0.00000000000E+00 0. -1.
         22    1    3    3    0    0  0.45857521840E+02 -0.35690335929E+02 -0.10497254703E+03  0.11998311555E+03  0.00000000000E+00 0. -1.
</event>
<event>
 7    1  0.5452757E-006  0.2253384E+03  0.7818608E-02  0.1318111E+00
          2   -1    0    0  502    0  0.00000000000E+00  0.00000000000E+00  0.87238945406E+03  0.87238945406E+03  0.00000000000E+00 0. -1.
          1   -1    0    0  501    0 -0.00000000000E+00 -0.00000000000E+00 -0.14650200493E+04  0.14650200493E+04  0.00000000000E+00 0. -1.
         25    2    1    2    0    0  0.64831337878E+02 -0.18824638131E+03 -0.11053668497E+03  0.25977739472E+03  0.12500453446E+03 0.  0.
          2    1    1    2  501    0 -0.37455999738E+01 -0.31075964180E+02 -0.12634218779E+04  0.12638095532E+04  0.00000000000E+00 0. -1.
          1    1    1    2  502    0 -0.61085737905E+02  0.21932234549E+03  0.78132796770E+03  0.81382255543E+03  0.00000000000E+00 0. -1.
         22    1    3    3    0    0  0.44633271330E+02 -0.44129416327E+02 -0.94397526565E+02  0.11335972528E+03  0.00000000000E+00 0.  1.
         22    1    3    3    0    0  0.20198066548E+02 -0.14411696498E+03 -0.16139158405E+02  0.14641766943E+03  0.00000000000E+00 0.  1.
</event>
<event>
 7    1  0.5452757E-006  0.1924442E+03  0.7818608E-02  0.1210851E+00
          2   -1    0    0  502    0  0.00000000000E+00  0.00000000000E+00  0.14743387014E+04  0.14743387014E+04  0.00000000000E+00 0. -1.
          1   -1    0    0  501    0 -0.00000000000E+00 -0.00000000000E+00 -0.16954601317E+03  0.16954601317E+03  0.00000000000E+00 0. -1.
         25    2    1    2    0    0  0.24274300617E+03  0.87027815908E+02  0.67282025079E+03  0.73130703783E+03  0.12499954366E+03 0.  0.
          2    1    1    2  501    0 -0.18772861449E+03  0.18985664377E+01 -0.71859022571E+02  0.20102078593E+03  0.00000000000E+00 0. -1.
          1    1    1    2  502    0 -0.55014391687E+02 -0.88926382346E+02  0.70383146000E+03  0.71155689081E+03  0.00000000000E+00 0. -1.
         22    1    3    3    0    0  0.15869984748E+03  0.35557879890E+02  0.55162336456E+03  0.57509854872E+03  0.00000000000E+00 0.  1.
         22    1    3    3    0    0  0.84043158698E+02  0.51469936018E+02  0.12119688623E+03  0.15620848911E+03  0.00000000000E+00 0.  1.
</event>
<event>
 7    1  0.5452757E-006  0.8891616E+02  0.7818608E-02  0.1341614E+00
          2   -1    0    0  502    0  0.00000000000E+00  0.00000000000E+00  0.25386493237E+04  0.25386493237E+04  0.00000000000E+00 0. -1.
          1   -1    0    0  501    0 -0.00000000000E+00 -0.00000000000E+00 -0.80481317423E+03  0.80481317423E+03  0.00000000000E+00 0. -1.
         25    2    1    2    0    0 -0.62761941320E+01 -0.14846206250E+03  0.75200252567E+03  0.77667144708E+03  0.12502145210E+03 0.  0.
          2    1    1    2  501    0  0.22744124846E+01  0.64465372638E+02 -0.79016731519E+03  0.79279590262E+03  0.00000000000E+00 0. -1.
          1    1    1    2  502    0  0.40017816474E+01  0.83996689865E+02  0.17720009390E+04  0.17739951482E+04  0.00000000000E+00 0. -1.
         22    1    3    3    0    0 -0.49587144397E+02 -0.14172564396E+03  0.56649853344E+03  0.58605940947E+03  0.00000000000E+00 0. -1.
         22    1    3    3    0    0  0.43310950265E+02 -0.67364185413E+01  0.18550399223E+03  0.19061203761E+03  0.00000000000E+00 0. -1.
</event>
<event>
 7    1  0.5452757E-006  0.8766158E+02  0.7818608E-02  0.1424537E+00
          2   -1    0    0  502    0  0.00000000000E+00  0.00000000000E+00  0.38794379427E+03  0.38794379427E+03  0.00000000000E+00 0. -1.
          1   -1    0    0  501    0 -0.00000000000E+00 -0.00000000000E+00 -0.16568562677E+03  0.16568562677E+03  0.00000000000E+00 0. -1.
         25    2    1    2    0    0  0.10229404900E+03  0.13011062291E+02  0.54486798782E+02  0.17095946048E+03  0.12499986273E+03 0.  0.
          2    1    1    2  501    0 -0.23927875276E+02  0.23236075893E+02 -0.97844326391E+02  0.10337296864E+03  0.00000000000E+00 0. -1.
          1    1    1    2  502    0 -0.78366173719E+02 -0.36247138184E+02  0.26561569511E+03  0.27929699192E+03  0.00000000000E+00 0. -1.
         22    1    3    3    0    0  0.96041652049E+02  0.60864702661E+02  0.40700902073E+02  0.12076868132E+03  0.00000000000E+00 0. -1.
         22    1    3    3    0    0  0.62523969469E+01 -0.47853640370E+02  0.13785896709E+02  0.50190779156E+02  0.00000000000E+00 0. -1.
</event>
<event>
 7    1  0.5452757E-006  0.1156658E+03  0.7818608E-02  0.1304092E+00
          2   -1    0    0  502    0  0.00000000000E+00  0.00000000000E+00  0.96608858327E+03  0.96608858327E+03  0.00000000000E+00 0. -1.
          1   -1    0    0  501    0 -0.00000000000E+00 -0.00000000000E+00 -0.23377791431E+04  0.23377791431E+04  0.00000000000E+00 0. -1.
         25    2    1    2    0    0 -0.15962630435E+02  0.53824658519E+02  0.12769719805E+03  0.18730506797E+03  0.12499885865E+03 0.  0.
          2    1    1    2  501    0 -0.19872974537E+02  0.66323963903E+02 -0.23025914255E+04  0.23036321486E+04  0.00000000000E+00 0. -1.
          1    1    1    2  502    0  0.35835604972E+02 -0.12014862242E+03  0.80320366762E+03  0.81293050978E+03  0.00000000000E+00 0. -1.
         22    1    3    3    0    0  0.36791239406E+02  0.71348148119E+02  0.87236411306E+02  0.11855102275E+03  0.00000000000E+00 0. -1.
         22    1    3    3    0    0 -0.52753869841E+02 -0.17523489600E+02  0.40460786742E+02  0.68754045224E+02  0.00000000000E+00 0. -1.
</event>
<event>
 7    1  0.5452757E-006  0.5485812E+02  0.7818608E-02  0.1471543E+00
          2   -1    0    0  502    0  0.00000000000E+00  0.00000000000E+00  0.49721435784E+03  0.49721435784E+03  0.00000000000E+00 0. -1.
          1   -1    0    0  501    0 -0.00000000000E+00 -0.00000000000E+00 -0.11534151267E+04  0.11534151267E+04  0.00000000000E+00 0. -1.
         25    2    1    2    0    0  0.78033777357E+02  0.40301350849E+02 -0.11202480468E+03  0.18944224079E+03  0.12500134576E+03 0.  0.
          2    1    1    2  501    0 -0.40621827761E+02 -0.36005081078E+02 -0.10011719147E+04  0.10026423597E+04  0.00000000000E+00 0. -1.
          1    1    1    2  502    0 -0.37411949595E+02 -0.42962697710E+01  0.45699595049E+03  0.45854488403E+03  0.00000000000E+00 0. -1.
         22    1    3    3    0    0  0.18578533987E+02  0.19547752954E+02 -0.12264912474E+03  0.12557899653E+03  0.00000000000E+00 0. -1.
         22    1    3    3    0    0  0.59455243370E+02  0.20753597895E+02  0.10624320060E+02  0.63863244253E+02  0.00000000000E+00 0. -1.
</event>
<event>
 7    1  0.5452757E-006  0.6879828E+02  0.7818608E-02  0.1374328E+00
          2   -1    0    0  502    0  0.00000000000E+00  0.00000000000E+00  0.75699359564E+03  0.75699359564E+03  0.00000000000E+00 0. -1.
          1   -1    0    0  501    0 -0.00000000000E+00 -0.00000000000E+00 -0.47850913215E+03  0.47850913215E+03  0.00000000000E+00 0. -1.
         25    2    1    2    0    0 -0.26257147622E+02 -0.10139205426E+03 -0.17689586145E+03  0.24059324233E+03  0.12499270375E+03 0.  0.
          2    1    1    2  501    0 -0.23274960182E+02  0.62019636390E+02 -0.26428878393E+03  0.27246416348E+03  0.00000000000E+00 0. -1.
          1    1    1    2  502    0  0.49532107804E+02  0.39372417865E+02  0.71966910887E+03  0.72244532198E+03  0.00000000000E+00 0. -1.
         22    1    3    3    0    0  0.11390731780E+02  0.25838198459E+02 -0.17585582321E+02  0.33265807906E+02  0.00000000000E+00 0. -1.
         22    1    3    3    0    0 -0.37647879402E+02 -0.12723025271E+03 -0.15931027913E+03  0.20732743442E+03  0.00000000000E+00 0. -1.
</event>
<event>
 7    1  0.5452757E-006  0.2617131E+03  0.7818608E-02  0.1165665E+00
          2   -1    0    0  502    0  0.00000000000E+00  0.00000000000E+00  0.12917453806E+04  0.12917453806E+04  0.00000000000E+00 0. -1.
          1   -1    0    0  501    0 -0.00000000000E+00 -0.00000000000E+00 -0.35243408557E+03  0.35243408557E+03  0.00000000000E+00 0. -1.
         25    2    1    2    0    0 -0.11935728792E+03 -0.17020312415E+03  0.24521604895E+02  0.24383374363E+03  0.12505326776E+03 0.  0.
          2    1    1    2  501    0  0.88287783043E+02  0.29322296474E+03 -0.14088014874E+03  0.33707811557E+03  0.00000000000E+00 0. -1.
          1    1    1    2  502    0  0.31069504877E+02 -0.12301984059E+03  0.10556698388E+04  0.10632676069E+04  0.00000000000E+00 0. -1.
         22    1    3    3    0    0 -0.31802954985E+02  0.10012459915E+01 -0.30238538359E+02  0.43895325964E+02  0.00000000000E+00 0.  1.
         22    1    3    3    0    0 -0.87554332935E+02 -0.17120437014E+03  0.54760143254E+02  0.19993841767E+03  0.00000000000E+00 0.  1.
</event>
<event>
 7    1  0.5452757E-006  0.1572180E+03  0.7818608E-02  0.1346397E+00
          2   -1    0    0  502    0  0.00000000000E+00  0.00000000000E+00  0.29061128443E+03  0.29061128443E+03  0.00000000000E+00 0. -1.
          1   -1    0    0  501    0 -0.00000000000E+00 -0.00000000000E+00 -0.35729471994E+03  0.35729471994E+03  0.00000000000E+00 0. -1.
         25    2    1    2    0    0 -0.12963688584E+03  0.54851605755E+02  0.87947602954E+02  0.20778263890E+03  0.12499769333E+03 0.  0.
          2    1    1    2  501    0  0.13243477343E+03 -0.89749553545E+02 -0.27314457733E+03  0.31654685545E+03  0.00000000000E+00 0. -1.
          1    1    1    2  502    0 -0.27978875862E+01  0.34897947790E+02  0.11851353887E+03  0.12357651002E+03  0.00000000000E+00 0. -1.
         22    1    3    3    0    0 -0.83915046781E+02  0.89946220556E+02  0.31221857227E+02  0.12691281274E+03  0.00000000000E+00 0.  1.
         22    1    3    3    0    0 -0.45721839061E+02 -0.35094614801E+02  0.56725745727E+02  0.80869826162E+02  0.00000000000E+00 0.  1.
</event>
<event>
 7    1  0.5452757E-006  0.9798980E+02  0.7818608E-02  0.1372720E+00
          2   -1    0    0  502    0  0.00000000000E+00  0.00000000000E+00  0.15329758083E+04  0.15329758083E+04  0.00000000000E+00 0. -1.
          1   -1    0    0  501    0 -0.00000000000E+00 -0.00000000000E+00 -0.97086510974E+03  0.97086510974E+03  0.00000000000E+00 0. -1.
         25    2    1    2    0    0 -0.72351385185E+01 -0.95439897901E+02  0.10370185875E+04  0.10489028855E+04  0.12501436341E+03 0.  0.
          2    1    1    2  501    0 -0.37516105796E+02  0.90556209860E+02 -0.96139179478E+03  0.96637573873E+03  0.00000000000E+00 0. -1.
          1    1    1    2  502    0  0.44751244314E+02  0.48836880404E+01  0.48648390586E+03  0.48856229381E+03  0.00000000000E+00 0. -1.
         22    1    3    3    0    0 -0.16109478455E+02  0.46528895599E+01  0.16760084584E+02  0.23707912448E+02  0.00000000000E+00 0. -1.
         22    1    3    3    0    0  0.88743399367E+01 -0.10009278746E+03  0.10202585029E+04  0.10251949730E+04  0.00000000000E+00 0. -1.
</event>
<event>
 7    1  0.5452757E-006  0.1032231E+03  0.7818608E-02  0.1450647E+00
          2   -1    0    0  502    0  0.00000000000E+00  0.00000000000E+00  0.81209558545E+03  0.81209558545E+03  0.00000000000E+00 0. -1.
          1   -1    0    0  501    0 -0.00000000000E+00 -0.00000000000E+00 -0.25332289902E+04  0.25332289902E+04  0.00000000000E+00 0. -1.
         25    2    1    2    0    0  0.44869739041E+02  0.11550687333E+03  0.25461161650E+03  0.30952768650E+03  0.12500072875E+03 0.  0.
          2    1    1    2  501    0 -0.28236313197E+02 -0.99207191697E+02 -0.25044530347E+04  0.25065762225E+04  0.00000000000E+00 0. -1.
          1    1    1    2  502    0 -0.16633425844E+02 -0.16299681634E+02  0.52870801346E+03  0.52922066662E+03  0.00000000000E+00 0. -1.
         22    1    3    3    0    0  0.83033676269E+02  0.48927205555E+02  0.11350097969E+03  0.14889907733E+03  0.00000000000E+00 0.  1.
         22    1    3    3    0    0 -0.38163937228E+02  0.66579667775E+02  0.14111063680E+03  0.16062860917E+03  0.00000000000E+00 0.  1.
</event>
<event>
 7    1  0.5452757E-006  0.7881532E+02  0.7818608E-02  0.1350793E+00
          2   -1    0    0  502    0  0.00000000000E+00  0.00000000000E+00  0.78506655374E+03  0.78506655374E+03  0.00000000000E+00 0. -1.
          1   -1    0    0  501    0 -0.00000000000E+00 -0.00000000000E+00 -0.41394139296E+02  0.41394139296E+02  0.00000000000E+00 0. -1.
         25    2    1    2    0    0  0.19467890358E+02 -0.15361969054E+02  0.94004762285E+02  0.15835796347E+03  0.12500144164E+03 0.  0.
          2    1    1    2  501    0  0.67231482905E+02 -0.19701191138E+01  0.29703124542E+03  0.30455133298E+03  0.00000000000E+00 0. -1.
          1    1    1    2  502    0 -0.86699373263E+02  0.17332088168E+02  0.35263640674E+03  0.36355139659E+03  0.00000000000E+00 0. -1.
         22    1    3    3    0    0  0.34372291938E+02  0.11794561954E+02  0.11521811355E+03  0.12081299530E+03  0.00000000000E+00 0.  1.
         22    1    3    3    0    0 -0.14904401581E+02 -0.27156531008E+02 -0.21213351261E+02  0.37544968166E+02  0.00000000000E+00 0.  1.
</event>
<event>
 7    1  0.5452757E-006  0.1422264E+03  0.7818608E-02  0.1312487E+00
          2   -1    0    0  502    0  0.00000000000E+00  0.00000000000E+00  0.15639097595E+04  0.15639097595E+04  0.00000000000E+00 0. -1.
          1   -1    0    0  501    0 -0.00000000000E+00 -0.00000000000E+00 -0.94955856268E+03  0.94955856268E+03  0.00000000000E+00 0. -1.
         25    2    1    2    0    0 -0.10066290838E+03  0.80245335458E+02  0.30420295487E+03  0.35318071774E+03  0.12499938659E+03 0.  0.
          2    1    1    2  501    0  0.13624333972E+03 -0.42095461924E+02 -0.91901780427E+03  0.93001505369E+03  0.00000000000E+00 0. -1.
          1    1    1    2  502    0 -0.35580431339E+02 -0.38149873534E+02  0.12291660462E+04  0.12302725507E+04  0.00000000000E+00 0. -1.
         22    1    3    3    0    0 -0.82531803458E+02 -0.99434145440E+01  0.18320994979E+03  0.20118711633E+03  0.00000000000E+00 0. -1.
         22    1    3    3    0    0 -0.18131104922E+02  0.90188750002E+02  0.12099300508E+03  0.15199360142E+03  0.00000000000E+00 0. -1.
</event>
<event>
 7    1  0.5452757E-006  0.9736385E+02  0.7818608E-02  0.1353238E+00
          2   -1    0    0  502    0  0.00000000000E+00  0.00000000000E+00  0.10752446056E+04  0.10752446056E+04  0.00000000000E+00 0. -1.
          1   -1    0    0  501    0 -0.00000000000E+00 -0.00000000000E+00 -0.17537642351E+04  0.17537642351E+04  0.00000000000E+00 0. -1.
         25    2    1    2    0    0  0.11153959711E+02  0.11227890483E+03 -0.33284135967E+02  0.17164704335E+03  0.12499564191E+03 0.  0.
          2    1    1    2  501    0 -0.48402057166E+02 -0.22381913022E+02 -0.16485135397E+04  0.16493758213E+04  0.00000000000E+00 0. -1.
          1    1    1    2  502    0  0.37248097454E+02 -0.89896991808E+02  0.10032780462E+04  0.10079859761E+04  0.00000000000E+00 0. -1.
         22    1    3    3    0    0  0.51263975848E+01 -0.51028440898E+01 -0.52112526401E+02  0.52612112464E+02  0.00000000000E+00 0.  1.
         22    1    3    3    0    0  0.60275621266E+01  0.11738174892E+03  0.18828390434E+02  0.11903493089E+03  0.00000000000E+00 0.  1.
</event>
<event>
 7    1  0.5452757E-006  0.4223712E+02  0.7818608E-02  0.1550498E+00
          2   -1    0    0  502    0  0.00000000000E+00  0.00000000000E+00  0.82459460223E+03  0.82459460223E+03  0.00000000000E+00 0. -1.
          1   -1    0    0  501    0 -0.00000000000E+00 -0.00000000000E+00 -0.10418585855E+04  0.10418585855E+04  0.00000000000E+00 0. -1.
         25    2    1    2    0    0 -0.15538207753E+01  0.69547619331E+02 -0.14421975101E+03  0.20313363401E+03  0.12499860388E+03 0.  0.
          2    1    1    2  501    0  0.63327937791E+01 -0.41297642504E+02 -0.86742082066E+03  0.86842643883E+03  0.00000000000E+00 0. -1.
          1    1    1    2  502    0 -0.47789730038E+01 -0.28249976827E+02  0.79437658844E+03  0.79489311485E+03  0.00000000000E+00 0. -1.
         22    1    3    3    0    0  0.32150373806E+01  0.10472327132E+03 -0.88910549960E+02  0.13741319411E+03  0.00000000000E+00 0.  1.
         22    1    3    3    0    0 -0.47688581560E+01 -0.35175651985E+02 -0.55309201049E+02  0.65720439905E+02  0.00000000000E+00 0.  1.
</event>
<event>
 7    1  0.5452757E-006  0.6044115E+02  0.7818608E-02  0.1441633E+00
          2   -1    0    0  502    0  0.00000000000E+00  0.00000000000E+00  0.55213684281E+03  0.55213684281E+03  0.00000000000E+00 0. -1.
          1   -1    0    0  501    0 -0.00000000000E+00 -0.00000000000E+00 -0.17680803730E+03  0.17680803730E+03  0.00000000000E+00 0. -1.
         25    2    1    2    0    0  0.36847006120E+02 -0.47752731520E+02  0.13513115229E+03  0.19371041971E+03  0.12500109262E+03 0.  0.
          2    1    1    2  501    0  0.35901469803E+01  0.60894365167E+02 -0.13997616968E+03  0.15269034332E+03  0.00000000000E+00 0. -1.
          1    1    1    2  502    0 -0.40437153100E+02 -0.13141633647E+02  0.38017382290E+03  0.38254411707E+03  0.00000000000E+00 0. -1.
         22    1    3    3    0    0 -0.44162369161E+02 -0.52450127949E+01  0.63471956680E+02  0.77501705103E+02  0.00000000000E+00 0.  1.
         22    1    3    3    0    0  0.81009375280E+02 -0.42507718725E+02  0.71659195612E+02  0.11620871461E+03  0.00000000000E+00 0.  1.
</event>
<event>
 7    1  0.5452757E-006  0.1079760E+03  0.7818608E-02  0.1285964E+00
          2   -1    0    0  502    0  0.00000000000E+00  0.00000000000E+00  0.22657797035E+04  0.22657797035E+04  0.00000000000E+00 0. -1.
          1   -1    0    0  501    0 -0.00000000000E+00 -0.00000000000E+00 -0.15894693324E+03  0.15894693324E+03  0.00000000000E+00 0. -1.
         25    2    1    2    0    0 -0.10519683599E+02 -0.14361546090E+03  0.13442156862E+03  0.23328361998E+03  0.12496409438E+03 0.  0.
          2    1    1    2  501    0 -0.58254486903E+02  0.89076735084E+02 -0.82496060649E+02  0.13466198424E+03  0.00000000000E+00 0. -1.
          1    1    1    2  502    0  0.68774170502E+02  0.54538725818E+02  0.20549072623E+04  0.20567810326E+04  0.00000000000E+00 0. -1.
         22    1    3    3    0    0  0.47225006494E+02 -0.10144475226E+03  0.11206515403E+03  0.15836615089E+03  0.00000000000E+00 0.  1.
         22    1    3    3    0    0 -0.57744690093E+02 -0.42170708638E+02  0.22356414597E+02  0.74917469089E+02  0.00000000000E+00 0.  1.
</event>
<event>
 7    1  0.5452757E-006  0.1696699E+03  0.7818608E-02  0.1394787E+00
          2   -1    0    0  502    0  0.00000000000E+00  0.00000000000E+00  0.15129401373E+04  0.15129401373E+04  0.00000000000E+00 0. -1.
          1   -1    0    0  501    0 -0.00000000000E+00 -0.00000000000E+00 -0.10174496881E+04  0.10174496881E+04  0.00000000000E+00 0. -1.
         25    2    1    2    0    0 -0.15701742135E+03 -0.69915578991E+02  0.65057384233E+03  0.68440867840E+03  0.12500502373E+03 0.  0.
          2    1    1    2  501    0  0.14502577200E+03  0.88047096168E+02 -0.99319796068E+03  0.10075847135E+04  0.00000000000E+00 0. -1.
          1    1    1    2  502    0  0.11991649353E+02 -0.18131517176E+02  0.83811456752E+03  0.83839643359E+03  0.00000000000E+00 0. -1.
         22    1    3    3    0    0 -0.24131120929E+02 -0.41738431621E+02  0.53248074505E+02  0.71831504996E+02  0.00000000000E+00 0. -1.
         22    1    3    3    0    0 -0.13288630043E+03 -0.28177147371E+02  0.59732576782E+03  0.61257717341E+03  0.00000000000E+00 0. -1.
</event>
<event>
 7    1  0.5452757E-006  0.8992591E+02  0.7818608E-02  0.1435725E+00
          2   -1    0    0  502    0  0.00000000000E+00  0.00000000000E+00  0.12382252119E+04  0.12382252119E+04  0.00000000000E+00 0. -1.
          1   -1    0    0  501    0 -0.00000000000E+00 -0.00000000000E+00 -0.10262035085E+03  0.10262035085E+03  0.00000000000E+00 0. -1.
         25    2    1    2    0    0 -0.86885802585E+02 -0.72792569042E+02  0.34298831418E+03  0.38224899999E+03  0.12500165411E+03 0.  0.
          2    1    1    2  501    0  0.28966916307E+02  0.72905954852E+01 -0.78039683509E+02  0.83560919245E+02  0.00000000000E+00 0. -1.
          1    1    1    2  502    0  0.57918886277E+02  0.65501973557E+02  0.87065623033E+03  0.87503564347E+03  0.00000000000E+00 0. -1.
         22    1    3    3    0    0 -0.51159316803E+02  0.15803183355E+02  0.47065632742E+02  0.71289480888E+02  0.00000000000E+00 0.  1.
         22    1    3    3    0    0 -0.35726485782E+02 -0.88595752398E+02  0.29592268144E+03  0.31095951910E+03  0.00000000000E+00 0.  1.
</event>
<event>
 7    1  0.5452757E-006  0.1341493E+03  0.7818608E-02  0.1306147E+00
          2   -1    0    0  502    0  0.00000000000E+00  0.00000000000E+00  0.76311173535E+03  0.76311173535E+03  0.00000000000E+00 0. -1.
          1   -1    0    0  501    0 -0.00000000000E+00 -0.00000000000E+00 -0.16836648236E+04  0.16836648236E+04  0.00000000000E+00 0. -1.
         25    2    1    2    0    0 -0.10769094862E+03 -0.13099724880E+03 -0.34367866275E+03  0.40310846650E+03  0.12499517161E+03 0.  0.
          2    1    1    2  501    0 -0.45855419002E+01  0.58406555593E+02 -0.13035144662E+04  0.13048303784E+04  0.00000000000E+00 0. -1.
          1    1    1    2  502    0  0.11227649052E+03  0.72590693212E+02  0.72664004064E+03  0.73883771406E+03  0.00000000000E+00 0. -1.
         22    1    3    3    0    0 -0.21354434179E+02 -0.65904729884E+02 -0.25199622837E+03  0.26134564162E+03  0.00000000000E+00 0. -1.
         22    1    3    3    0    0 -0.86336514442E+02 -0.65092518921E+02 -0.91682434385E+02  0.14176282489E+03  0.00000000000E+00 0. -1.
</event>
<event>
 7    1  0.5452757E-006  0.4790863E+02  0.7818608E-02  0.1502116E+00
          2   -1    0    0  502    0  0.00000000000E+00  0.00000000000E+00  0.83422813741E+02  0.83422813741E+02  0.00000000000E+00 0. -1.
          1   -1    0    0  501    0 -0.00000000000E+00 -0.00000000000E+00 -0.83832134376E+03  0.83832134376E+03  0.00000000000E+00 0. -1.
         25    2    1    2    0    0 -0.38002682202E+02  0.24059696872E+02 -0.43839616093E+03  0.45808272234E+03  0.12500205486E+03 0.  0.
          2    1    1    2  501    0  0.49332784072E+02  0.88602820129E+01 -0.38424278377E+03  0.38749805814E+03  0.00000000000E+00 0. -1.
          1    1    1    2  502    0 -0.11330101870E+02 -0.32919978885E+02  0.67740414682E+02  0.76163377022E+02  0.00000000000E+00 0. -1.
         22    1    3    3    0    0 -0.54963139309E+02  0.59004708814E+02 -0.37626331609E+03  0.38480720547E+03  0.00000000000E+00 0.  1.
         22    1    3    3    0    0  0.16960457107E+02 -0.34945011941E+02 -0.62132844838E+02  0.73275516870E+02  0.00000000000E+00 0.  1.
</event>
<event>
 7    1  0.5452757E-006  0.1113883E+03  0.7818608E-02  0.1311410E+00
          2   -1    0    0  502    0  0.00000000000E+00  0.00000000000E+00  0.13585184982E+04  0.13585184982E+04  0.00000000000E+00 0. -1.
          1   -1    0    0  501    0 -0.00000000000E+00 -0.00000000000E+00 -0.56658959534E+03  0.56658959534E+03  0.00000000000E+00 0. -1.
         25    2    1    2    0    0  0.31412152855E+02  0.16812722846E+03  0.15411750311E+02  0.21240436163E+03  0.12499840997E+03 0.  0.
          2    1    1    2  501    0 -0.38339477308E+02 -0.10122368894E+03 -0.46091034310E+03  0.47344956975E+03  0.00000000000E+00 0. -1.
          1    1    1    2  502    0  0.69273244533E+01 -0.66903539519E+02  0.12374274956E+04  0.12392541621E+04  0.00000000000E+00 0. -1.
         22    1    3    3    0    0  0.51606026069E+02  0.15098211289E+02 -0.13326640240E+02  0.55396184443E+02  0.00000000000E+00 0.  1.
         22    1    3    3    0    0 -0.20193873215E+02  0.15302901717E+03  0.28738390551E+02  0.15700817719E+03  0.00000000000E+00 0.  1.
</event>
<event>
 7    1  0.5452757E-006  0.2132852E+03  0.7818608E-02  0.1342813E+00
          2   -1    0    0  502    0  0.00000000000E+00  0.00000000000E+00  0.79370767580E+02  0.79370767580E+02  0.00000000000E+00 0. -1.
          1   -1    0    0  501    0 -0.00000000000E+00 -0.00000000000E+00 -0.27554496945E+04  0.27554496945E+04  0.00000000000E+00 0. -1.
         25    2    1    2    0    0  0.87156240416E+02  0.17527712696E+03 -0.73162110147E+03  0.76760501494E+03  0.12501896399E+03 0.  0.
          2    1    1    2  501    0 -0.85549073715E+02 -0.20184318645E+03 -0.19966394706E+04  0.20086384670E+04  0.00000000000E+00 0. -1.
          1    1    1    2  502    0 -0.16071667010E+01  0.26566059487E+02  0.52181645151E+02  0.58576980053E+02  0.00000000000E+00 0. -1.
         22    1    3    3    0    0  0.55527640818E+02  0.15961165684E+01 -0.16254371090E+03  0.17177405053E+03  0.00000000000E+00 0.  1.
         22    1    3    3    0    0  0.31628599598E+02  0.17368101039E+03 -0.56907739058E+03  0.59583096441E+03  0.00000000000E+00 0.  1.
</event>
<event>
 7    1  0.5452757E-006  0.7454248E+02  0.7818608E-02  0.1429743E+00
          2   -1    0    0  502    0  0.00000000000E+00  0.00000000000E+00  0.10929894384E+03  0.10929894384E+03  0.00000000000E+00 0. -1.
          1   -1    0    0  501    0 -0.00000000000E+00 -0.00000000000E+00 -0.22529079755E+03  0.22529079755E+03  0.00000000000E+00 0. -1.
         25    2    1    2    0    0 -0.17541762235E+02  0.69964400531E+02 -0.11815903687E+03  0.18651901403E+03  0.12500021535E+03 0.  0.
          2    1    1    2  501    0  0.37548388878E+02  0.33763775162E+01 -0.44923672685E+02  0.58646549770E+02  0.00000000000E+00 0. -1.
          1    1    1    2  502    0 -0.20006626643E+02 -0.73340778047E+02  0.47090855845E+02  0.89424177594E+02  0.00000000000E+00 0. -1.
         22    1    3    3    0    0  0.66351444473E+01  0.68946387310E+02 -0.35204568387E+01  0.69354329939E+02  0.00000000000E+00 0. -1.
         22    1    3    3    0    0 -0.24176906682E+02  0.10180132213E+01 -0.11463858003E+03  0.11716468409E+03  0.00000000000E+00 0. -1.
</event>
<event>
 7    1  0.5452757E-006  0.4966501E+02  0.7818608E-02  0.1533210E+00
          2   -1    0    0  502    0  0.00000000000E+00  0.00000000000E+00  0.22466340284E+03  0.22466340284E+03  0.00000000000E+00 0. -1.
          1   -1    0    0  501    0 -0.00000000000E+00 -0.00000000000E+00 -0.36138833138E+03  0.36138833138E+03  0.00000000000E+00 0. -1.
         25    2    1    2    0    0 -0.66403624254E+02  0.21848737527E+02 -0.34739163240E+02  0.14737928977E+03  0.12500814752E+03 0.  0.
          2    1    1    2  501    0  0.48973088437E+02 -0.88854054556E+00 -0.26698272421E+03  0.27143862644E+03  0.00000000000E+00 0. -1.
          1    1    1    2  502    0  0.17430535817E+02 -0.20960196982E+02  0.16499695891E+03  0.16723381801E+03  0.00000000000E+00 0. -1.
         22    1    3    3    0    0  0.23232877473E+02 -0.30941380286E+02 -0.39601039066E+01  0.38894961533E+02  0.00000000000E+00 0.  1.
         22    1    3    3    0    0 -0.89636501726E+02  0.52790117813E+02 -0.30779059333E+02  0.10848432824E+03  0.00000000000E+00 0.  1.
</event>
<event>
 7    1  0.5452757E-006  0.2739321E+03  0.7818608E-02  0.1212954E+00
          2   -1    0    0  502    0  0.00000000000E+00  0.00000000000E+00  0.23202678493E+04  0.23202678493E+04  0.00000000000E+00 0. -1.
          1   -1    0    0  501    0 -0.00000000000E+00 -0.00000000000E+00 -0.13474148109E+04  0.13474148109E+04  0.00000000000E+00 0. -1.
         25    2    1    2    0    0 -0.26170453910E+03  0.82923937053E+02  0.14480941711E+03  0.33460417165E+03  0.12499815709E+03 0.  0.
          2    1    1    2  501    0 -0.12719264939E+02 -0.70700919366E+02 -0.12424083854E+04  0.12444834253E+04  0.00000000000E+00 0. -1.
          1    1    1    2  502    0  0.27442380404E+03 -0.12223017686E+02  0.20704520067E+04  0.20885950633E+04  0.00000000000E+00 0. -1.
         22    1    3    3    0    0 -0.19454441142E+03  0.10034244259E+03  0.14947710307E+03  0.26506515829E+03  0.00000000000E+00 0.  1.
         22    1    3    3    0    0 -0.67160127689E+02 -0.17418505533E+02 -0.46676859622E+01  0.69539013355E+02  0.00000000000E+00 0.  1.
</event>
<event>
 7    1  0.5452757E-006  0.8640152E+02  0.7818608E-02  0.1332880E+00
          2   -1    0    0  502    0  0.00000000000E+00  0.00000000000E+00  0.30045577205E+04  0.30045577205E+04  0.00000000000E+00 0. -1.
          1   -1    0    0  501    0 -0.00000000000E+00 -0.00000000000E+00 -0.13425925853E+03  0.13425925853E+03  0.00000000000E+00 0. -1.
         25    2    1    2    0    0  0.17019756326E+02 -0.73739576957E+02  0.14938726138E+03  0.20897114392E+03  0.12500075125E+03 0.  0.
          2    1    1    2  501    0 -0.71413896486E+02  0.54753866791E+01 -0.91433749929E+02  0.11614669645E+03  0.00000000000E+00 0. -1.
          1    1    1    2  502    0  0.54394140160E+02  0.68264190278E+02  0.28123449505E+04  0.28136991387E+04  0.00000000000E+00 0. -1.
         22    1    3    3    0    0 -0.16370938889E+01  0.34853242385E+02  0.47194121008E+02  0.58691682876E+02  0.00000000000E+00 0.  1.
         22    1    3    3    0    0  0.18656850215E+02 -0.10859281934E+03  0.10219314037E+03  0.15027946104E+03  0.00000000000E+00 0.  1.
</event>
<event>
 7    1  0.5452757E-006  0.1703717E+03  0.7818608E-02  0.1226067E+00
          2   -1    0    0  502    0  0.00000000000E+00  0.00000000000E+00  0.60037805783E+03  0.60037805783E+03  0.00000000000E+00 0. -1.
          1   -1    0    0  501    0 -0.00000000000E+00 -0.00000000000E+00 -0.24758202036E+04  0.24758202036E+04  0.00000000000E+00 0. -1.
         25    2    1    2    0    0 -0.17602654000E+03 -0.37679131205E+00  0.74382978590E+02  0.22834902630E+03  0.12499986221E+03 0.  0.
          2    1    1    2  501    0  0.14235442981E+03 -0.94457632494E+02 -0.23901109223E+04  0.23962089327E+04  0.00000000000E+00 0. -1.
          1    1    1    2  502    0  0.33672110181E+02  0.94834423806E+02  0.44028579795E+03  0.45164030248E+03  0.00000000000E+00 0. -1.
         22    1    3    3    0    0 -0.45460674420E+02  0.55086144436E+02  0.84590156435E+01  0.71921562644E+02  0.00000000000E+00 0. -1.
         22    1    3    3    0    0 -0.13056586558E+03 -0.55462935748E+02  0.65923962947E+02  0.15642746366E+03  0.00000000000E+00 0. -1.
</event>
<event>
 7    1  0.5452757E-006  0.1489048E+03  0.7818608E-02  0.1316018E+00
          2   -1    0    0  502    0  0.00000000000E+00  0.00000000000E+00  0.62553122274E+03  0.62553122274E+03  0.00000000000E+00 0. -1.
          1   -1    0    0  501    0 -0.00000000000E+00 -0.00000000000E+00 -0.15009264963E+04  0.15009264963E+04  0.00000000000E+00 0. -1.
         25    2    1    2    0    0 -0.18064722803E+03 -0.54847822746E+02  0.39590260237E+03  0.45607623764E+03  0.12499983729E+03 0.  0.
          2    1    1    2  501    0  0.13350393981E+03  0.65198557974E+02 -0.14641053417E+04  0.14716244784E+04  0.00000000000E+00 0. -1.
          1    1    1    2  502    0  0.47143288217E+02 -0.10350735228E+02  0.19280746581E+03  0.19875700294E+03  0.00000000000E+00 0. -1.
         22    1    3    3    0    0 -0.17864178775E+03 -0.17801442603E+02  0.36865697273E+03  0.41004602575E+03  0.00000000000E+00 0.  1.
         22    1    3    3    0    0 -0.20054402761E+01 -0.37046380143E+02  0.27245629640E+02  0.46030211893E+02  0.00000000000E+00 0.  1.
</event>
<event>
 7    1  0.5452757E-006  0.3514092E+02  0.7818608E-02  0.1565894E+00
          2   -1    0    0  502    0  0.00000000000E+00  0.00000000000E+00  0.23315201918E+04  0.23315201918E+04  0.00000000000E+00 0. -1.
          1   -1    0    0  501    0 -0.00000000000E+00 -0.00000000000E+00 -0.10979305685E+02  0.10979305685E+02  0.00000000000E+00 0. -1.
         25    2    1    2    0    0  0.24060048062E+02 -0.38958010840E+02  0.18346967779E+04  0.18395203560E+04  0.12500504270E+03 0.  0.
          2    1    1    2  501    0  0.94771143594E+01  0.29755155935E+02  0.22885159487E+02  0.38715830432E+02  0.00000000000E+00 0. -1.
          1    1    1    2  502    0 -0.33537162421E+02  0.92028549048E+01  0.46295894869E+03  0.46426331104E+03  0.00000000000E+00 0. -1.
         22    1    3    3    0    0 -0.10625203778E+02 -0.37118016368E+02  0.16479189791E+03  0.16925428122E+03  0.00000000000E+00 0. -1.
         22    1    3    3    0    0  0.34685251840E+02 -0.18399944727E+01  0.16699048800E+04  0.16702660748E+04  0.00000000000E+00 0. -1.
</event>
<event>
 7    1  0.5452757E-006  0.6541652E+02  0.7818608E-02  0.1447690E+00
          2   -1    0    0  502    0  0.00000000000E+00  0.00000000000E+00  0.73039412223E+03  0.73039412223E+03  0.00000000000E+00 0. -1.
          1   -1    0    0  501    0 -0.00000000000E+00 -0.00000000000E+00 -0.26086118982E+03  0.26086118982E+03  0.00000000000E+00 0. -1.
         25    2    1    2    0    0  0.54129459455E+02 -0.71165842016E+02  0.26611592481E+03  0.30730336617E+03  0.12499239164E+03 0.  0.
          2    1    1    2  501    0 -0.55780358194E+02  0.33644177007E+02 -0.23503456233E+03  0.24389469961E+03  0.00000000000E+00 0. -1.
          1    1    1    2  502    0  0.16508987398E+01  0.37521665009E+02  0.43845156993E+03  0.44005724626E+03  0.00000000000E+00 0. -1.
         22    1    3    3    0    0  0.46733388880E+02 -0.10452585603E+03  0.16715393806E+03  0.20260825063E+03  0.00000000000E+00 0. -1.
         22    1    3    3    0    0  0.73960705748E+01  0.33360014016E+02  0.98961986757E+02  0.10469511554E+03  0.00000000000E+00 0. -1.
</event>
<event>
 7    1  0.5452757E-006  0.1221039E+03  0.7818608E-02  0.1367982E+00
          2   -1    0    0  502    0  0.00000000000E+00  0.00000000000E+00  0.23818883073E+04  0.23818883073E+04  0.00000000000E+00 0. -1.
          1   -1    0    0  501    0 -0.00000000000E+00 -0.00000000000E+00 -0.42321609134E+03  0.42321609134E+03  0.00000000000E+00 0. -1.
         25    2    1    2    0    0  0.22745553680E+02 -0.10098695799E+03 -0.20946480700E+02  0.16363949581E+03  0.12499361440E+03 0.  0.
          2    1    1    2  501    0 -0.30990155263E+02 -0.21240807533E+02 -0.32822688849E+03  0.33037017413E+03  0.00000000000E+00 0. -1.
          1    1    1    2  502    0  0.82446015834E+01  0.12222776552E+03  0.23078455852E+04  0.23110947287E+04  0.00000000000E+00 0. -1.
         22    1    3    3    0    0  0.32182163343E+02 -0.42609921603E+01  0.37997174735E+02  0.49976324189E+02  0.00000000000E+00 0. -1.
         22    1    3    3    0    0 -0.94366096633E+01 -0.96725965830E+02 -0.58943655435E+02  0.11366317162E+03  0.00000000000E+00 0. -1.
</event>
<event>
 7    1  0.5452757E-006  0.6534742E+02  0.7818608E-02  0.1477326E+00
          2   -1    0    0  502    0  0.00000000000E+00  0.00000000000E+00  0.46614361645E+02  0.46614361645E+02  0.00000000000E+00 0. -1.
          1   -1    0    0  501    0 -0.00000000000E+00 -0.00000000000E+00 -0.34669084347E+04  0.34669084347E+04  0.00000000000E+00 0. -1.
         25    2    1    2    0    0  0.19285170297E+02 -0.29715474365E+02 -0.17872709966E+04  0.17919870402E+04  0.12500003961E+03 0.  0.
          2    1    1    2  501    0  0.17199134584E+02 -0.24991903411E+02 -0.16526372255E+04  0.16529156677E+04  0.00000000000E+00 0. -1.
          1    1    1    2  502    0 -0.36484304880E+02  0.54707377776E+02  0.19614149055E+02  0.68620088377E+02  0.00000000000E+00 0. -1.
         22    1    3    3    0    0  0.37453641327E+02  0.13853140576E+02 -0.19654395309E+03  0.20055974235E+03  0.00000000000E+00 0. -1.
         22    1    3    3    0    0 -0.18168471030E+02 -0.43568614942E+02 -0.15907270435E+04  0.15914272979E+04  0.00000000000E+00 0. -1.
</event>
<event>
 7    1  0.5452757E-006  0.2039568E+03  0.7818608E-02  0.1314595E+00
          2   -1    0    0  502    0  0.00000000000E+00  0.00000000000E+00  0.13780436179E+04  0.13780436179E+04  0.00000000000E+00 0. -1.
          1   -1    0    0  501    0 -0.00000000000E+00 -0.00000000000E+00 -0.16034899773E+03  0.16034899773E+03  0.00000000000E+00 0. -1.
         25    2    1    2    0    0  0.22716205385E+03  0.14091902015E+02  0.11280710631E+03  0.28311201798E+03  0.12500316428E+03 0.  0.
          2    1    1    2  501    0 -0.28608537583E+02  0.21342527404E+02 -0.61757454301E+02  0.71329762795E+02  0.00000000000E+00 0. -1.
          1    1    1    2  502    0 -0.19855351627E+03 -0.35434429419E+02  0.11666449682E+04  0.11839508349E+04  0.00000000000E+00 0. -1.
         22    1    3    3    0    0  0.17806563663E+02  0.82111443569E+01 -0.25470346322E+02  0.32143975219E+02  0.00000000000E+00 0. -1.
         22    1    3    3    0    0  0.20935549019E+03  0.58807576584E+01  0.13827745263E+03  0.25096804277E+03  0.00000000000E+00 0. -1.
</event>
<event>
 7    1  0.5452757E-006  0.1278505E+03  0.7818608E-02  0.1269208E+00
          2   -1    0    0  502    0  0.00000000000E+00  0.00000000000E+00  0.54200649743E+03  0.54200649743E+03  0.00000000000E+00 0. -1.
          1   -1    0    0  501    0 -0.00000000000E+00 -0.00000000000E+00 -0.11339222936E+03  0.11339222936E+03  0.00000000000E+00 0. -1.
         25    2    1    2    0    0 -0.12084132360E+03  0.72675753106E+02  0.74206729408E+02  0.20252907404E+03  0.12500798600E+03 0.  0.
          2    1    1    2  501    0 -0.83147712349E+01 -0.86599007702E+02  0.13484767605E+02  0.88036143220E+02  0.00000000000E+00 0. -1.
          1    1    1    2  502    0  0.12915609484E+03  0.13923254596E+02  0.34092277105E+03  0.36483350953E+03  0.00000000000E+00 0. -1.
         22    1    3    3    0    0 -0.12524511599E+03  0.25411098398E+02  0.18159184359E+02  0.12908066849E+03  0.00000000000E+00 0. -1.
         22    1    3    3    0    0  0.44037923891E+01  0.47264654708E+02  0.56047545049E+02  0.73448405552E+02  0.00000000000E+00 0. -1.
</event>
<event>
 7    1  0.5452757E-006  0.1025922E+03  0.7818608E-02  0.1324357E+00
          2   -1    0    0  502    0  0.00000000000E+00  0.00000000000E+00  0.96152253673E+03  0.96152253673E+03  0.00000000000E+00 0. -1.
          1   -1    0    0  501    0 -0.00000000000E+00 -0.00000000000E+00 -0.32903797197E+02  0.32903797197E+02  0.00000000000E+00 0. -1.
         25    2    1    2    0    0  0.51282327284E+02 -0.43590418446E+02  0.35882914295E+03  0.38589094147E+03  0.12499385267E+03 0.  0.
          2    1    1    2  501    0  0.11584946606E+02 -0.63986636083E+02  0.79737396048E+02  0.10289097586E+03  0.00000000000E+00 0. -1.
          1    1    1    2  502    0 -0.62867273890E+02  0.10757705453E+03  0.49005220053E+03  0.50564441659E+03  0.00000000000E+00 0. -1.
         22    1    3    3    0    0  0.92290648591E+02 -0.39316464764E+02  0.24044455369E+03  0.26053201650E+03  0.00000000000E+00 0. -1.
         22    1    3    3    0    0 -0.41008321307E+02 -0.42739536821E+01  0.11838458926E+03  0.12535892497E+03  0.00000000000E+00 0. -1.
</event>
<event>
 7    1  0.5452757E-006  0.1618097E+03  0.7818608E-02  0.1235092E+00
          2   -1    0    0  502    0  0.00000000000E+00  0.00000000000E+00  0.34609081729E+03  0.34609081729E+03  0.00000000000E+00 0. -1.
          1   -1    0    0  501    0 -0.00000000000E+00 -0.00000000000E+00 -0.60101231422E+03  0.60101231422E+03  0.00000000000E+00 0. -1.
         25    2    1    2    0    0  0.24648659306E+02  0.13125108908E+03  0.19922222474E+02  0.18399620252E+03  0.12499321102E+03 0.  0.
          2    1    1    2  501    0 -0.89364333951E+02  0.36528941686E+02 -0.48039285924E+03  0.48999759894E+03  0.00000000000E+00 0. -1.
          1    1    1    2  502    0  0.64715674645E+02 -0.16778003077E+03  0.20554913984E+03  0.27310933005E+03  0.00000000000E+00 0. -1.
         22    1    3    3    0    0  0.72151835887E+02  0.73181073055E+02  0.32797138765E+02  0.10787497016E+03  0.00000000000E+00 0. -1.
         22    1    3    3    0    0 -0.47503176581E+02  0.58070016030E+02 -0.12874916291E+02  0.76121232363E+02  0.00000000000E+00 0. -1.
</event>
<event>
 7    1  0.5452757E-006  0.1046780E+03  0.7818608E-02  0.1357671E+00
          2   -1    0    0  502    0  0.00000000000E+00  0.00000000000E+00  0.16160631993E+04  0.16160631993E+04  0.00000000000E+00 0. -1.
          1   -1    0    0  501    0 -0.00000000000E+00 -0.00000000000E+00 -0.94251924722E+02  0.94251924722E+02  0.00000000000E+00 0. -1.
         25    2    1    2    0    0 -0.62276444879E+01 -0.60091137970E+02  0.12723702876E+03  0.18831907166E+03  0.12500033138E+03 0.  0.
          2    1    1    2  501    0 -0.14806929966E+02 -0.45421794308E+02 -0.52467974716E+02  0.70959657158E+02  0.00000000000E+00 0. -1.
          1    1    1    2  502    0  0.21034574453E+02  0.10551293228E+03  0.14470422206E+04  0.14510363952E+04  0.00000000000E+00 0. -1.
         22    1    3    3    0    0 -0.39537590297E+02 -0.85188667768E+02  0.68335090873E+02  0.11614652301E+03  0.00000000000E+00 0. -1.
         22    1    3    3    0    0  0.33309945809E+02  0.25097529798E+02  0.58901937884E+02  0.72172548647E+02  0.00000000000E+00 0. -1.
</event>
<event>
 7    1  0.5452757E-006  0.1526606E+03  0.7818608E-02  0.1359205E+00
          2   -1    0    0  502    0  0.00000000000E+00  0.00000000000E+00  0.98353511900E+03  0.98353511900E+03  0.00000000000E+00 0. -1.
          1   -1    0    0  501    0 -0.00000000000E+00 -0.00000000000E+00 -0.23977422967E+03  0.23977422967E+03  0.00000000000E+00 0. -1.
         25    2    1    2    0    0  0.10349212612E+03 -0.87549266498E+02 -0.47495411898E+02  0.19041159215E+03  0.12500106416E+03 0.  0.
          2    1    1    2  501    0 -0.12034350288E+03  0.11514950559E+03 -0.62965899140E+02  0.17806367338E+03  0.00000000000E+00 0. -1.
          1    1    1    2  502    0  0.16851376763E+02 -0.27600239088E+02  0.85422220037E+03  0.85483408314E+03  0.00000000000E+00 0. -1.
         22    1    3    3    0    0 -0.16917967917E+01 -0.65473886847E+01  0.33979146609E+02  0.34645531880E+02  0.00000000000E+00 0. -1.
         22    1    3    3    0    0  0.10518392291E+03 -0.81001877813E+02 -0.81474558507E+02  0.15576606027E+03  0.00000000000E+00 0. -1.
</event>
<event>
 7    1  0.5452757E-006  0.9317892E+02  0.7818608E-02  0.1435244E+00
          2   -1    0    0  502    0  0.00000000000E+00  0.00000000000E+00  0.17497010593E+04  0.17497010593E+04  0.00000000000E+00 0. -1.
          1   -1    0    0  501    0 -0.00000000000E+00 -0.00000000000E+00 -0.60451445283E+02  0.60451445283E+02  0.00000000000E+00 0. -1.
         25    2    1    2    0    0  0.88694815552E+02  0.51652572409E+02  0.88565985632E+03  0.90030767109E+03  0.12500305195E+03 0.  0.
          2    1    1    2  501    0 -0.25455482181E+02  0.13750687952E+02 -0.46573097214E+02  0.54828061942E+02  0.00000000000E+00 0. -1.
          1    1    1    2  502    0 -0.63239333371E+02 -0.65403260361E+02  0.85016285494E+03  0.85501677157E+03  0.00000000000E+00 0. -1.
         22    1    3    3    0    0  0.69802674858E+02 -0.27508414615E+02  0.54052625112E+03  0.54570848852E+03  0.00000000000E+00 0. -1.
         22    1    3    3    0    0  0.18892140694E+02  0.79160987024E+02  0.34513360520E+03  0.35459918258E+03  0.00000000000E+00 0. -1.
</event>
<event>
 7    1  0.5452757E-006  0.5179187E+02  0.7818608E-02  0.1514689E+00
          2   -1    0    0  502    0  0.00000000000E+00  0.00000000000E+00  0.46763258001E+03  0.46763258001E+03  0.00000000000E+00 0. -1.
          1   -1    0    0  501    0 -0.00000000000E+00 -0.00000000000E+00 -0.41995865834E+02  0.41995865834E+02  0.00000000000E+00 0. -1.
         25    2    1    2    0    0  0.13731238213E+02 -0.27961338006E+02  0.13884265076E+03  0.18939968526E+03  0.12499830311E+03 0.  0.
          2    1    1    2  501    0 -0.12846732118E+02  0.57516491787E+02  0.38983596037E+02  0.70660498962E+02  0.00000000000E+00 0. -1.
          1    1    1    2  502    0 -0.88450609493E+00 -0.29555153782E+02  0.24781046737E+03  0.24956826162E+03  0.00000000000E+00 0. -1.
         22    1    3    3    0    0  0.17184287792E+02 -0.37623495386E+02 -0.80591611635E+01  0.42139971887E+02  0.00000000000E+00 0.  1.
         22    1    3    3    0    0 -0.34530495784E+01  0.96621573805E+01  0.14690181193E+03  0.14725971338E+03  0.00000000000E+00 0.  1.
</event>
<event>
 7    1  0.5452757E-006  0.1331048E+03  0.7818608E-02  0.1250922E+00
          2   -1    0    0  502    0  0.00000000000E+00  0.00000000000E+00  0.10596407435E+03  0.10596407435E+03  0.00000000000E+00 0. -1.
          1   -1    0    0  501    0 -0.00000000000E+00 -0.00000000000E+00 -0.21916534787E+04  0.21916534787E+04  0.00000000000E+00 0. -1.
         25    2    1    2    0    0  0.12461891543E+03  0.16647823446E+03 -0.34366327922E+03  0.42068347136E+03  0.12500102784E+03 0.  0.
          2    1    1    2  501    0 -0.33666072032E+02 -0.12488393557E+03 -0.17687021001E+04  0.17734250818E+04  0.00000000000E+00 0. -1.
          1    1    1    2  502    0 -0.90952843399E+02 -0.41594298891E+02  0.26675974964E+02  0.10350899991E+03  0.00000000000E+00 0. -1.
         22    1    3    3    0    0 -0.17703663422E+02  0.36619250383E+01 -0.48134433714E+01  0.18708250336E+02  0.00000000000E+00 0. -1.
         22    1    3    3    0    0  0.14232257885E+03  0.16281630942E+03 -0.33884983585E+03  0.40197522103E+03  0.00000000000E+00 0. -1.
</event>
<event>
 7    1  0.5452757E-006  0.5871037E+02  0.7818608E-02  0.1420413E+00
          2   -1    0    0  502    0  0.00000000000E+00  0.00000000000E+00  0.24051874586E+04  0.24051874586E+04  0.00000000000E+00 0. -1.
          1   -1    0    0  501    0 -0.00000000000E+00 -0.00000000000E+00 -0.28555496578E+02  0.28555496578E+02  0.00000000000E+00 0. -1.
         25    2    1    2    0    0 -0.37979161611E+02 -0.58449714017E+02  0.71397662409E+03  0.72817811354E+03  0.12498783743E+03 0.  0.
          2    1    1    2  501    0 -0.20322966391E+02  0.47211524858E+02  0.10648519590E+02  0.52491351781E+02  0.00000000000E+00 0. -1.
          1    1    1    2  502    0  0.58302128001E+02  0.11238189159E+02  0.16520068184E+04  0.16530734899E+04  0.00000000000E+00 0. -1.
         22    1    3    3    0    0 -0.75945965660E+02 -0.46364497565E+01  0.42854116391E+03  0.43524339803E+03  0.00000000000E+00 0.  1.
         22    1    3    3    0    0  0.37966804050E+02 -0.53813264261E+02  0.28543546018E+03  0.29293471550E+03  0.00000000000E+00 0.  1.
</event>
<event>
 7    1  0.5452757E-006  0.6131283E+02  0.7818608E-02  0.1457307E+00
          2   -1    0    0  502    0  0.00000000000E+00  0.00000000000E+00  0.60203329304E+03  0.60203329304E+03  0.00000000000E+00 0. -1.
          1   -1    0    0  501    0 -0.00000000000E+00 -0.00000000000E+00 -0.31851564378E+03  0.31851564378E+03  0.00000000000E+00 0. -1.
         25    2    1    2    0    0  0.28119765890E+02  0.44563758912E+02 -0.36009550123E+02  0.14034955373E+03  0.12499863875E+03 0.  0.
          2    1    1    2  501    0 -0.58509221024E+02 -0.22866707528E+02 -0.22540216032E+03  0.23399219888E+03  0.00000000000E+00 0. -1.
          1    1    1    2  502    0  0.30389455134E+02 -0.21697051384E+02  0.54492935971E+03  0.54620718422E+03  0.00000000000E+00 0. -1.
         22    1    3    3    0    0  0.63819318513E+02  0.67118904018E+02 -0.31748718689E+02  0.97907271591E+02  0.00000000000E+00 0.  1.
         22    1    3    3    0    0 -0.35699552623E+02 -0.22555145106E+02 -0.42608314343E+01  0.42442282134E+02  0.00000000000E+00 0.  1.
</event>
<event>
 7    1  0.5452757E-006  0.1482210E+03  0.7818608E-02  0.1341857E+00
          2   -1    0    0  502    0  0.00000000000E+00  0.00000000000E+00  0.38396246939E+03  0.38396246939E+03  0.00000000000E+00 0. -1.
          1   -1    0    0  501    0 -0.00000000000E+00 -0.00000000000E+00 -0.96633810423E+02  0.96633810423E+02  0.00000000000E+00 0. -1.
         25    2    1    2    0    0  0.12032379540E+03 -0.43379182901E+02  0.13444665732E+03  0.22374386916E+03  0.12500338424E+03 0.  0.
          2    1    1    2  501    0 -0.15868178877E+03  0.47828663433E+02  0.10882796450E+03  0.19827006075E+03  0.00000000000E+00 0. -1.
          1    1    1    2  502    0  0.38357993362E+02 -0.44494805320E+01  0.44054037139E+02  0.58582349902E+02  0.00000000000E+00 0. -1.
         22    1    3    3    0    0  0.19485707645E+02 -0.63247148253E+02  0.90133613145E+02  0.11182111958E+03  0.00000000000E+00 0. -1.
         22    1    3    3    0    0  0.10083808776E+03  0.19867965353E+02  0.44313044179E+02  0.11192274958E+03  0.00000000000E+00 0. -1.
</event>
<event>
 7    1  0.5452757E-006  0.1169024E+03  0.7818608E-02  0.1289351E+00
          2   -1    0    0  502    0  0.00000000000E+00  0.00000000000E+00  0.34322130454E+03  0.34322130454E+03  0.00000000000E+00 0. -1.
          1   -1    0    0  501    0 -0.00000000000E+00 -0.00000000000E+00 -0.13999393392E+04  0.13999393392E+04  0.00000000000E+00 0. -1.
         25    2    1    2    0    0 -0.48762040656E+02  0.12117188167E+03 -0.60730760880E+02  0.19071451391E+03  0.12499375578E+03 0.  0.
          2    1    1    2  501    0  0.78212600505E+02 -0.70686581835E+01 -0.12604617379E+04  0.12629057643E+04  0.00000000000E+00 0. -1.
          1    1    1    2  502    0 -0.29450559849E+02 -0.11410322349E+03  0.26447446413E+03  0.28954036552E+03  0.00000000000E+00 0. -1.
         22    1    3    3    0    0 -0.49210027864E+02  0.82673656056E+02 -0.97855236423E+02  0.13723049057E+03  0.00000000000E+00 0. -1.
         22    1    3    3    0    0  0.44798720721E+00  0.38498225616E+02  0.37124475542E+02  0.53484023338E+02  0.00000000000E+00 0. -1.
</event>
<event>
 7    1  0.5452757E-006  0.1487578E+03  0.7818608E-02  0.1238161E+00
          2   -1    0    0  502    0  0.00000000000E+00  0.00000000000E+00  0.11170993517E+04  0.11170993517E+04  0.00000000000E+00 0. -1.
          1   -1    0    0  501    0 -0.00000000000E+00 -0.00000000000E+00 -0.16969069153E+03  0.16969069153E+03  0.00000000000E+00 0. -1.
         25    2    1    2    0    0  0.47864926502E+02 -0.41542884629E+02  0.26110890285E+03  0.29634416043E+03  0.12500055928E+03 0.  0.
          2    1    1    2  501    0 -0.96120888698E+02  0.13114703242E+03 -0.10439520772E+03  0.19322817794E+03  0.00000000000E+00 0. -1.
          1    1    1    2  502    0  0.48255962196E+02 -0.89604147786E+02  0.79069496505E+03  0.79721770486E+03  0.00000000000E+00 0. -1.
         22    1    3    3    0    0  0.48479334491E+02 -0.72927223567E+02  0.10320791033E+03  0.13535323626E+03  0.00000000000E+00 0. -1.
         22    1    3    3    0    0 -0.61440798904E+00  0.31384338937E+02  0.15790099252E+03  0.16099092418E+03  0.00000000000E+00 0. -1.
</event>
<event>
 7    1  0.5452757E-006  0.8515470E+02  0.7818608E-02  0.1403848E+00
          2   -1    0    0  502    0  0.00000000000E+00  0.00000000000E+00  0.19609218459E+04  0.19609218459E+04  0.00000000000E+00 0. -1.
          1   -1    0    0  501    0 -0.00000000000E+00 -0.00000000000E+00 -0.10719705876E+02  0.10719705876E+02  0.00000000000E+00 0. -1.
         25    2    1    2    0    0 -0.47226088859E+02 -0.29500001594E+02  0.71409792207E+03  0.72709053823E+03  0.12499701963E+03 0.  0.
          2    1    1    2  501    0 -0.38729203307E+02 -0.11184126224E+02  0.19564152565E+03  0.19975145163E+03  0.00000000000E+00 0. -1.
          1    1    1    2  502    0  0.85955292166E+02  0.40684127818E+02  0.10404626923E+04  0.10447995619E+04  0.00000000000E+00 0. -1.
         22    1    3    3    0    0 -0.17958099336E+00 -0.66274375065E+02  0.23109905288E+03  0.24041442819E+03  0.00000000000E+00 0.  1.
         22    1    3    3    0    0 -0.47046507865E+02  0.36774373471E+02  0.48299886919E+03  0.48667611004E+03  0.00000000000E+00 0.  1.
</event>
<event>
 7    1  0.5452757E-006  0.2616427E+03  0.7818608E-02  0.1269405E+00
          2   -1    0    0  502    0  0.00000000000E+00  0.00000000000E+00  0.68180892760E+03  0.68180892760E+03  0.00000000000E+00 0. -1.
          1   -1    0    0  501    0 -0.00000000000E+00 -0.00000000000E+00 -0.49128099591E+03  0.49128099591E+03  0.00000000000E+00 0. -1.
         25    2    1    2    0    0 -0.24142308912E+03  0.12668946720E+03  0.20196189209E+03  0.36159307540E+03  0.12500246900E+03 0.  0.
          2    1    1    2  501    0  0.24632738312E+03 -0.84543936308E+02 -0.36887527018E+03  0.45154603508E+03  0.00000000000E+00 0. -1.
          1    1    1    2  502    0 -0.49042940047E+01 -0.42145530896E+02  0.35744130977E+03  0.35995081304E+03  0.00000000000E+00 0. -1.
         22    1    3    3    0    0 -0.12571233208E+03  0.89170592835E+02  0.40354362793E+02  0.15932187439E+03  0.00000000000E+00 0.  1.
         22    1    3    3    0    0 -0.11571075704E+03  0.37518874369E+02  0.16160752930E+03  0.20227120100E+03  0.00000000000E+00 0.  1.
</event>
<event>
 7    1  0.5452757E-006  0.4743894E+02  0.7818608E-02  0.1546414E+00
          2   -1    0    0  502    0  0.00000000000E+00  0.00000000000E+00  0.12746892985E+04  0.12746892985E+04  0.00000000000E+00 0. -1.
          1   -1    0    0  501    0 -0.00000000000E+00 -0.00000000000E+00 -0.11515673905E+03  0.11515673905E+03  0.00000000000E+00 0. -1.
         25    2    1    2    0    0  0.55406615639E+01 -0.31435815284E+02  0.18512890285E+03  0.22564724490E+03  0.12500023618E+03 0.  0.
          2    1    1    2  501    0 -0.31239320917E+02  0.36480123188E+02 -0.88649150426E+02  0.10082344187E+03  0.00000000000E+00 0. -1.
          1    1    1    2  502    0  0.25698659353E+02 -0.50443079042E+01  0.10630528070E+04  0.10633753508E+04  0.00000000000E+00 0. -1.
         22    1    3    3    0    0 -0.23780689755E+02 -0.45152883414E+02  0.16049131480E+02  0.53496529861E+02  0.00000000000E+00 0. -1.
         22    1    3    3    0    0  0.29321351319E+02  0.13717068131E+02  0.16907977137E+03  0.17215071504E+03  0.00000000000E+00 0. -1.
</event>
<event>
 7    1  0.5452757E-006  0.1488184E+03  0.7818608E-02  0.1255389E+00
          2   -1    0    0  502    0  0.00000000000E+00  0.00000000000E+00  0.88277835859E+03  0.88277835859E+03  0.00000000000E+00 0. -1.
          1   -1    0    0  501    0 -0.00000000000E+00 -0.00000000000E+00 -0.23197944702E+03  0.23197944702E+03  0.00000000000E+00 0. -1.
         25    2    1    2    0    0 -0.17743686784E+03 -0.57519833969E+02  0.49758975702E+03  0.54590587593E+03  0.12500114283E+03 0.  0.
          2    1    1    2  501    0  0.10538082987E+03  0.10367094703E+03 -0.17534145380E+03  0.22934125225E+03  0.00000000000E+00 0. -1.
          1    1    1    2  502    0  0.72056037968E+02 -0.46151113064E+02  0.32855060835E+03  0.33951067743E+03  0.00000000000E+00 0. -1.
         22    1    3    3    0    0  0.81103612001E+01  0.20959197026E+02  0.38928438944E+02  0.44949852696E+02  0.00000000000E+00 0.  1.
         22    1    3    3    0    0 -0.18554722904E+03 -0.78479030995E+02  0.45866131808E+03  0.50095602323E+03  0.00000000000E+00 0.  1.
</event>
<event>
 7    1  0.5452757E-006  0.9762170E+02  0.7818608E-02  0.1370536E+00
          2   -1    0    0  502    0  0.00000000000E+00  0.00000000000E+00  0.28429382736E+03  0.28429382736E+03  0.00000000000E+00 0. -1.
          1   -1    0    0  501    0 -0.00000000000E+00 -0.00000000000E+00 -0.18720891704E+04  0.18720891704E+04  0.00000000000E+00 0. -1.
         25    2    1    2    0    0  0.31926761956E+02 -0.13414257009E+03  0.43841535444E+02  0.19120465087E+03  0.12499436404E+03 0.  0.
          2    1    1    2  501    0 -0.39577846100E+02  0.88774209769E+02 -0.17938934990E+04  0.17965247430E+04  0.00000000000E+00 0. -1.
          1    1    1    2  502    0  0.76510841440E+01  0.45368360324E+02  0.16225662055E+03  0.16865360393E+03  0.00000000000E+00 0. -1.
         22    1    3    3    0    0  0.74141417637E+02 -0.46493818956E+02  0.94620918522E+01  0.88023611563E+02  0.00000000000E+00 0. -1.
         22    1    3    3    0    0 -0.42214655681E+02 -0.87648751137E+02  0.34379443592E+02  0.10318103930E+03  0.00000000000E+00 0. -1.
</event>
<event>
 7    1  0.5452757E-006  0.2510468E+03  0.7818608E-02  0.1261718E+00
          2   -1    0    0  502    0  0.00000000000E+00  0.00000000000E+00  0.15292004499E+04  0.15292004499E+04  0.00000000000E+00 0. -1.
          1   -1    0    0  501    0 -0.00000000000E+00 -0.00000000000E+00 -0.18628009533E+04  0.18628009533E+04  0.00000000000E+00 0. -1.
         25    2    1    2    0    0  0.18833096615E+03 -0.22566950527E+03  0.13387137582E+03  0.34632601053E+03  0.12499952754E+03 0.  0.
          2    1    1    2  501    0 -0.31592569243E+02  0.35682263723E+02 -0.17444808177E+04  0.17451316963E+04  0.00000000000E+00 0. -1.
          1    1    1    2  502    0 -0.15673839690E+03  0.18998724155E+03  0.12770089384E+04  0.13005436963E+04  0.00000000000E+00 0. -1.
         22    1    3    3    0    0  0.19207613172E+03 -0.16034475529E+03  0.83573204677E+02  0.26379568129E+03  0.00000000000E+00 0. -1.
         22    1    3    3    0    0 -0.37451655696E+01 -0.65324749973E+02  0.50298171143E+02  0.82530329241E+02  0.00000000000E+00 0. -1.
</event>
<event>
 7    1  0.5452757E-006  0.1382406E+03  0.7818608E-02  0.1320640E+00
          2   -1    0    0  502    0  0.00000000000E+00  0.00000000000E+00  0.37371192349E+04  0.37371192349E+04  0.00000000000E+00 0. -1.
          1   -1    0    0  501    0 -0.00000000000E+00 -0.00000000000E+00 -0.26359302644E+04  0.26359302644E+04  0.00000000000E+00 0. -1.
         25    2    1    2    0    0 -0.10223215725E+03  0.66743921513E+02 -0.53439670305E+03  0.56223746019E+03  0.12499984149E+03 0.  0.
          2    1    1    2  501    0  0.21052905347E+02  0.45220598909E+02 -0.20860306799E+04  0.20866269731E+04  0.00000000000E+00 0. -1.
          1    1    1    2  502    0  0.81179251899E+02 -0.11196452042E+03  0.37216163533E+04  0.37241850661E+04  0.00000000000E+00 0. -1.
         22    1    3    3    0    0  0.16057790230E+02  0.15272661047E+02 -0.14284578379E+02  0.26365810855E+02  0.00000000000E+00 0.  1.
         22    1    3    3    0    0 -0.11828994748E+03  0.51471260466E+02 -0.52011212467E+03  0.53587164933E+03  0.00000000000E+00 0.  1.
</event>
<event>
 7    1  0.5452757E-006  0.9935294E+02  0.7818608E-02  0.1386531E+00
          2   -1    0    0  502    0  0.00000000000E+00  0.00000000000E+00  0.99127542065E+03  0.99127542065E+03  0.00000000000E+00 0. -1.
          1   -1    0    0  501    0 -0.00000000000E+00 -0.00000000000E+00 -0.33182338045E+03  0.33182338045E+03  0.00000000000E+00 0. -1.
         25    2    1    2    0    0  0.54469535278E+01  0.69729350864E+02 -0.81855481678E+02  0.16497528373E+03  0.12499869073E+03 0.  0.
          2    1    1    2  501    0 -0.63137677197E+01 -0.10938713459E+03 -0.19355695473E+03  0.22241785810E+03  0.00000000000E+00 0. -1.
          1    1    1    2  502    0  0.86681419195E+00  0.39657783724E+02  0.93486447660E+03  0.93570565927E+03  0.00000000000E+00 0. -1.
         22    1    3    3    0    0  0.64679139056E+02  0.26484489830E+02 -0.39207783579E+02  0.80137815816E+02  0.00000000000E+00 0. -1.
         22    1    3    3    0    0 -0.59232185528E+02  0.43244861034E+02 -0.42647698099E+02  0.84837467910E+02  0.00000000000E+00 0. -1.
</event>
<event>
 7    1  0.5452757E-006  0.4478151E+02  0.7818608E-02  0.1540673E+00
          2   -1    0    0  502    0  0.00000000000E+00  0.00000000000E+00  0.78774658860E+03  0.78774658860E+03  0.00000000000E+00 0. -1.
          1   -1    0    0  501    0 -0.00000000000E+00 -0.00000000000E+00 -0.26552085650E+02  0.26552085650E+02  0.00000000000E+00 0. -1.
         25    2    1    2    0    0  0.16536115156E+02  0.87046281539E+01  0.37220156847E+03  0.39307544324E+03  0.12500033140E+03 0.  0.
          2    1    1    2  501    0 -0.44222970102E+02 -0.16614352187E+02  0.20317076641E+02  0.51424618487E+02  0.00000000000E+00 0. -1.
          1    1    1    2  502    0  0.27686854946E+02  0.79097240334E+01  0.36867585784E+03  0.36979861252E+03  0.00000000000E+00 0. -1.
         22    1    3    3    0    0 -0.53531511413E+02  0.68101311281E+01  0.12550558116E+03  0.13661497539E+03  0.00000000000E+00 0. -1.
         22    1    3    3    0    0  0.70067626569E+02  0.18944970258E+01  0.24669598732E+03  0.25646046785E+03  0.00000000000E+00 0. -1.
</event>
<event>
 7    1  0.5452757E-006  0.1322791E+03  0.7818608E-02  0.1350317E+00
          2   -1    0    0  502    0  0.00000000000E+00  0.00000000000E+00  0.97634489612E+03  0.97634489612E+03  0.00000000000E+00 0. -1.
          1   -1    0    0  501    0 -0.00000000000E+00 -0.00000000000E+00 -0.55794313224E+03  0.55794313224E+03  0.00000000000E+00 0. -1.
         25    2    1    2    0    0 -0.81576713943E+02 -0.10352147346E+03 -0.23487990206E+03  0.29692313820E+03  0.12499330335E+03 0.  0.
          2    1    1    2  501    0 -0.27868123019E+02  0.29026059825E+02 -0.28599086832E+03  0.28880775819E+03  0.00000000000E+00 0. -1.
          1    1    1    2  502    0  0.10944483696E+03  0.74495413638E+02  0.93927253426E+03  0.94855713197E+03  0.00000000000E+00 0. -1.
         22    1    3    3    0    0 -0.71495813082E+02 -0.13100230408E+03 -0.21427609633E+03  0.26112736437E+03  0.00000000000E+00 0. -1.
         22    1    3    3    0    0 -0.10080900861E+02  0.27480830621E+02 -0.20603805731E+02  0.35795773834E+02  0.00000000000E+00 0. -1.
</event>
<event>
 7    1  0.5452757E-006  0.5996741E+02  0.7818608E-02  0.1444752E+00
          2   -1    0    0  502    0  0.00000000000E+00  0.00000000000E+00  0.43585956476E+03  0.43585956476E+03  0.00000000000E+00 0. -1.
          1   -1    0    0  501    0 -0.00000000000E+00 -0.00000000000E+00 -0.11237382377E+03  0.11237382377E+03  0.00000000000E+00 0. -1.
         25    2    1    2    0    0  0.37005825871E+02  0.42619903557E+02  0.92206603275E+02  0.16526453151E+03  0.12499768142E+03 0.  0.
          2    1    1    2  501    0 -0.37426323047E+02  0.18775773554E+02 -0.66687107776E+02  0.78742807119E+02  0.00000000000E+00 0. -1.
          1    1    1    2  502    0  0.42049717513E+00 -0.61395677112E+02  0.29796624549E+03  0.30422604990E+03  0.00000000000E+00 0. -1.
         22    1    3    3    0    0  0.76414413462E+02  0.76707294885E+01  0.26922553410E+02  0.81380750536E+02  0.00000000000E+00 0. -1.
         22    1    3    3    0    0 -0.39408587591E+02  0.34949174069E+02  0.65284049864E+02  0.83883780975E+02  0.00000000000E+00 0. -1.
</event>
<event>
 7    1  0.5452757E-006  0.5497424E+02  0.7818608E-02  0.1448288E+00
          2   -1    0    0  502    0  0.00000000000E+00  0.00000000000E+00  0.16827809826E+04  0.16827809826E+04  0.00000000000E+00 0. -1.
          1   -1    0    0  501    0 -0.00000000000E+00 -0.00000000000E+00 -0.23049329300E+03  0.23049329300E+03  0.00000000000E+00 0. -1.
         25    2    1    2    0    0 -0.15476839629E+02 -0.59102225776E+01  0.67075202749E+03  0.68250166181E+03  0.12500309072E+03 0.  0.
          2    1    1    2  501    0 -0.42399579911E+02 -0.13493814410E+02 -0.22147792108E+03  0.22590324683E+03  0.00000000000E+00 0. -1.
          1    1    1    2  502    0  0.57876419540E+02  0.19404036987E+02  0.10030135832E+04  0.10048693670E+04  0.00000000000E+00 0. -1.
         22    1    3    3    0    0  0.45081220066E+01  0.58368849182E+02  0.29112881042E+03  0.29695661296E+03  0.00000000000E+00 0.  1.
         22    1    3    3    0    0 -0.19984961635E+02 -0.64279071760E+02  0.37962321706E+03  0.38554504885E+03  0.00000000000E+00 0.  1.
</event>
<event>
 7    1  0.5452757E-006  0.8269400E+02  0.7818608E-02  0.1443988E+00
          2   -1    0    0  502    0  0.00000000000E+00  0.00000000000E+00  0.62483707605E+02  0.62483707605E+02  0.00000000000E+00 0. -1.
          1   -1    0    0  501    0 -0.00000000000E+00 -0.00000000000E+00 -0.79922307063E+03  0.79922307063E+03  0.00000000000E+00 0. -1.
         25    2    1    2    0    0  0.54392529088E+02  0.27139966050E+02 -0.39695403404E+03  0.42058576859E+03  0.12499903447E+03 0.  0.
          2    1    1    2  501    0  0.89934873939E+01  0.29182823243E+02 -0.35385269277E+03  0.35516791545E+03  0.00000000000E+00 0. -1.
          1    1    1    2  502    0 -0.63386016482E+02 -0.56322789293E+02  0.14067363779E+02  0.85953094202E+02  0.00000000000E+00 0. -1.
         22    1    3    3    0    0  0.10918862399E+02 -0.41394151240E+02 -0.58223820212E+02  0.72268323303E+02  0.00000000000E+00 0. -1.
         22    1    3    3    0    0  0.43473666688E+02  0.68534117290E+02 -0.33873021383E+03  0.34831744528E+03  0.00000000000E+00 0. -1.
</event>
<event>
 7    1  0.5452757E-006  0.8306402E+02  0.7818608E-02  0.1356285E+00
          2   -1    0    0  502    0  0.00000000000E+00  0.00000000000E+00  0.11882657624E+04  0.11882657624E+04  0.00000000000E+00 0. -1.
          1   -1    0    0  501    0 -0.00000000000E+00 -0.00000000000E+00 -0.28229978090E+03  0.28229978090E+03  0.00000000000E+00 0. -1.
         25    2    1    2    0    0 -0.93483994091E+01 -0.71420551382E+02 -0.88716358610E+02  0.16936505700E+03  0.12500257004E+03 0.  0.
          2    1    1    2  501    0  0.60655147425E+02  0.56117830121E+01 -0.14562096662E+03  0.15784804381E+03  0.00000000000E+00 0. -1.
          1    1    1    2  502    0 -0.51306748016E+02  0.65808768370E+02  0.11403033068E+04  0.11433524425E+04  0.00000000000E+00 0. -1.
         22    1    3    3    0    0  0.49832928510E+02 -0.58970251680E+02 -0.24141341308E+02  0.80892618373E+02  0.00000000000E+00 0.  1.
         22    1    3    3    0    0 -0.59181327919E+02 -0.12450299702E+02 -0.64575017302E+02  0.88472438626E+02  0.00000000000E+00 0.  1.
</event>
<event>
 7    1  0.5452757E-006  0.6081403E+02  0.7818608E-02  0.1511536E+00
          2   -1    0    0  502    0  0.00000000000E+00  0.00000000000E+00  0.12296963329E+04  0.12296963329E+04  0.00000000000E+00 0. -1.
          1   -1    0    0  501    0 -0.00000000000E+00 -0.00000000000E+00 -0.55377461068E+03  0.55377461068E+03  0.00000000000E+00 0. -1.
         25    2    1    2    0    0  0.74683789076E+02  0.33373466173E+02 -0.14908620438E+03  0.21105264818E+03  0.12500026950E+03 0.  0.
          2    1    1    2  501    0 -0.48960666081E+02 -0.33473987694E+02 -0.37121281349E+03  0.37592101241E+03  0.00000000000E+00 0. -1.
          1    1    1    2  502    0 -0.25723122995E+02  0.10052152100E+00  0.11962207401E+04  0.11964972830E+04  0.00000000000E+00 0. -1.
         22    1    3    3    0    0  0.77410622620E+02 -0.81420101148E+01 -0.15048541699E+03  0.16942419411E+03  0.00000000000E+00 0.  1.
         22    1    3    3    0    0 -0.27268335442E+01  0.41515476288E+02  0.13992126123E+01  0.41628454073E+02  0.00000000000E+00 0.  1.
</event>
<event>
 7    1  0.5452757E-006  0.1208069E+03  0.7818608E-02  0.1343996E+00
          2   -1    0    0  502    0  0.00000000000E+00  0.00000000000E+00  0.51759211463E+03  0.51759211463E+03  0.00000000000E+00 0. -1.
          1   -1    0    0  501    0 -0.00000000000E+00 -0.00000000000E+00 -0.15084606685E+04  0.15084606685E+04  0.00000000000E+00 0. -1.
         25    2    1    2    0    0 -0.44967574214E+02 -0.89179994661E+02  0.25989978379E+03  0.30520320390E+03  0.12500377546E+03 0.  0.
          2    1    1    2  501    0  0.90616686845E+02  0.80262249103E+02 -0.14810140424E+04  0.14859528950E+04  0.00000000000E+00 0. -1.
          1    1    1    2  502    0 -0.45649112631E+02  0.89177455578E+01  0.23024570475E+03  0.23489668415E+03  0.00000000000E+00 0. -1.
         22    1    3    3    0    0 -0.10436641928E+02 -0.95145267049E+02  0.88841021754E+02  0.13059200773E+03  0.00000000000E+00 0. -1.
         22    1    3    3    0    0 -0.34530932286E+02  0.59652723879E+01  0.17105876204E+03  0.17461119617E+03  0.00000000000E+00 0. -1.
</event>
<event>
 7    1  0.5452757E-006  0.9533363E+02  0.7818608E-02  0.1460326E+00
          2   -1    0    0  502    0  0.00000000000E+00  0.00000000000E+00  0.10338791599E+04  0.10338791599E+04  0.00000000000E+00 0. -1.
          1   -1    0    0  501    0 -0.00000000000E+00 -0.00000000000E+00 -0.23067821859E+03  0.23067821859E+03  0.00000000000E+00 0. -1.
         25    2    1    2    0    0  0.17621255725E+02  0.88079291393E+02  0.23694442415E+03  0.28255231092E+03  0.12499871217E+03 0.  0.
          2    1    1    2  501    0 -0.22019719230E+02  0.81892253237E+01 -0.20419899587E+03  0.20554600790E+03  0.00000000000E+00 0. -1.
          1    1    1    2  502    0  0.43984635049E+01 -0.96268516716E+02  0.77045551306E+03  0.77645905971E+03  0.00000000000E+00 0. -1.
         22    1    3    3    0    0 -0.10685448485E+02  0.11216314254E+03  0.20323027991E+03  0.23237318268E+03  0.00000000000E+00 0.  1.
         22    1    3    3    0    0  0.28306704210E+02 -0.24083851148E+02  0.33714144232E+02  0.50179128238E+02  0.00000000000E+00 0.  1.
</event>
<event>
 7    1  0.5452757E-006  0.3148538E+03  0.7818608E-02  0.1252655E+00
          2   -1    0    0  502    0  0.00000000000E+00  0.00000000000E+00  0.84201312851E+03  0.84201312851E+03  0.00000000000E+00 0. -1.
          1   -1    0    0  501    0 -0.00000000000E+00 -0.00000000000E+00 -0.53721381264E+03  0.53721381264E+03  0.00000000000E+00 0. -1.
         25    2    1    2    0    0 -0.11982417611E+03  0.32260369139E+03  0.40126941133E+02  0.36832904042E+03  0.12500054293E+03 0.  0.
          2    1    1    2  501    0  0.31385678332E+02 -0.27238267771E+02 -0.33448907863E+03  0.33706071820E+03  0.00000000000E+00 0. -1.
          1    1    1    2  502    0  0.88438497780E+02 -0.29536542362E+03  0.59916145336E+03  0.67383718253E+03  0.00000000000E+00 0. -1.
         22    1    3    3    0    0 -0.73416844555E+02  0.64583211954E+02  0.41353271118E+02  0.10616551871E+03  0.00000000000E+00 0. -1.
         22    1    3    3    0    0 -0.46407331557E+02  0.25802047944E+03 -0.12263299855E+01  0.26216352171E+03  0.00000000000E+00 0. -1.
</event>
<event>
 7    1  0.5452757E-006  0.3818061E+02  0.7818608E-02  0.1546872E+00
          2   -1    0    0  502    0  0.00000000000E+00  0.00000000000E+00  0.41998660398E+03  0.41998660398E+03  0.00000000000E+00 0. -1.
          1   -1    0    0  501    0 -0.00000000000E+00 -0.00000000000E+00 -0.21128340835E+03  0.21128340835E+03  0.00000000000E+00 0. -1.
         25    2    1    2    0    0  0.19228593574E+00  0.15863147145E+02  0.26090259615E+03  0.28973673127E+03  0.12500212943E+03 0.  0.
          2    1    1    2  501    0 -0.25239647622E+02  0.20384920261E+02 -0.19211966876E+03  0.19483981090E+03  0.00000000000E+00 0. -1.
          1    1    1    2  502    0  0.25047361687E+02 -0.36248067406E+02  0.13992026825E+03  0.14669347015E+03  0.00000000000E+00 0. -1.
         22    1    3    3    0    0  0.13022563385E+02  0.52550926907E+02  0.23914026536E+03  0.24519227882E+03  0.00000000000E+00 0. -1.
         22    1    3    3    0    0 -0.12830277449E+02 -0.36687779761E+02  0.21762330784E+02  0.44544452454E+02  0.00000000000E+00 0. -1.
</event>
<event>
 7    1  0.5452757E-006  0.8446995E+02  0.7818608E-02  0.1370482E+00
          2   -1    0    0  502    0  0.00000000000E+00  0.00000000000E+00  0.26944563332E+03  0.26944563332E+03  0.00000000000E+00 0. -1.
          1   -1    0    0  501    0 -0.00000000000E+00 -0.00000000000E+00 -0.66089497961E+03  0.66089497961E+03  0.00000000000E+00 0. -1.
         25    2    1    2    0    0  0.75251115570E+02 -0.21361866751E+02  0.10682146993E+03  0.18208541124E+03  0.12500084321E+03 0.  0.
          2    1    1    2  501    0 -0.50362781628E+02  0.68376673587E+02 -0.61454772725E+03  0.62038753077E+03  0.00000000000E+00 0. -1.
          1    1    1    2  502    0 -0.24888333941E+02 -0.47014806837E+02  0.11627691104E+03  0.12786767093E+03  0.00000000000E+00 0. -1.
         22    1    3    3    0    0  0.51610533754E+02  0.47642850701E+02  0.30691448581E+02  0.76651506399E+02  0.00000000000E+00 0.  1.
         22    1    3    3    0    0  0.23640581816E+02 -0.69004717452E+02  0.76130021346E+02  0.10543390484E+03  0.00000000000E+00 0.  1.
</event>
<event>
 7    1  0.5452757E-006  0.9914589E+02  0.7818608E-02  0.1333934E+00
          2   -1    0    0  502    0  0.00000000000E+00  0.00000000000E+00  0.73867647252E+02  0.73867647252E+02  0.00000000000E+00 0. -1.
          1   -1    0    0  501    0 -0.00000000000E+00 -0.00000000000E+00 -0.15096583039E+04  0.15096583039E+04  0.00000000000E+00 0. -1.
         25    2    1    2    0    0  0.79161525176E+00  0.45761721433E+02 -0.47389256114E+03  0.49223444407E+03  0.12500330647E+03 0.  0.
          2    1    1    2  501    0 -0.30057610991E+02  0.54047613117E+02 -0.98318161109E+03  0.98512470523E+03  0.00000000000E+00 0. -1.
          1    1    1    2  502    0  0.29265995739E+02 -0.99809334551E+02  0.21283515618E+02  0.10616680181E+03  0.00000000000E+00 0. -1.
         22    1    3    3    0    0 -0.39933237099E+02  0.69281958238E+02 -0.22138537702E+03  0.23538508517E+03  0.00000000000E+00 0.  1.
         22    1    3    3    0    0  0.40724852350E+02 -0.23520236805E+02 -0.25250718411E+03  0.25684935890E+03  0.00000000000E+00 0.  1.
</event>
<event>
 7    1  0.5452757E-006  0.7523995E+02  0.7818608E-02  0.1499308E+00
          2   -1    0    0  502    0  0.00000000000E+00  0.00000000000E+00  0.30650716945E+03  0.30650716945E+03  0.00000000000E+00 0. -1.
          1   -1    0    0  501    0 -0.00000000000E+00 -0.00000000000E+00 -0.46580379554E+03  0.46580379554E+03  0.00000000000E+00 0. -1.
         25    2    1    2    0    0 -0.89829689064E+00  0.89395556765E+02 -0.23448802262E+03  0.28036126185E+03  0.12500172754E+03 0.  0.
          2    1    1    2  501    0  0.16028081282E+02 -0.15932652781E+02 -0.20278070358E+03  0.20403617953E+03  0.00000000000E+00 0. -1.
          1    1    1    2  502    0 -0.15129784392E+02 -0.73462903985E+02  0.27797210011E+03  0.28791352361E+03  0.00000000000E+00 0. -1.
         22    1    3    3    0    0 -0.22835521481E+02  0.10085622892E+03 -0.23374716747E+03  0.25559964447E+03  0.00000000000E+00 0. -1.
         22    1    3    3    0    0  0.21937224590E+02 -0.11460672153E+02 -0.74085514930E+00  0.24761617380E+02  0.00000000000E+00 0. -1.
</event>
<event>
 7    1  0.5452757E-006  0.8322348E+02  0.7818608E-02  0.1357076E+00
          2   -1    0    0  502    0  0.00000000000E+00  0.00000000000E+00  0.19086975356E+04  0.19086975356E+04  0.00000000000E+00 0. -1.
          1   -1    0    0  501    0 -0.00000000000E+00 -0.00000000000E+00 -0.18613500634E+03  0.18613500634E+03  0.00000000000E+00 0. -1.
         25    2    1    2    0    0 -0.50984798785E+02  0.49326217254E+02  0.73005566043E+03  0.74406866140E+03  0.12499752050E+03 0.  0.
          2    1    1    2  501    0  0.83648695304E+02  0.14709579602E+01 -0.16853219923E+03  0.18815517564E+03  0.00000000000E+00 0. -1.
          1    1    1    2  502    0 -0.32663896519E+02 -0.50797175215E+02  0.11610390681E+04  0.11626087049E+04  0.00000000000E+00 0. -1.
         22    1    3    3    0    0 -0.72088812965E+02  0.75113443888E+02  0.63170153555E+03  0.64022313018E+03  0.00000000000E+00 0. -1.
         22    1    3    3    0    0  0.21104014180E+02 -0.25787226633E+02  0.98354124885E+02  0.10384553122E+03  0.00000000000E+00 0. -1.
</event>
<event>
 7    1  0.5452757E-006  0.4492952E+02  0.7818608E-02  0.1501725E+00
          2   -1    0    0  502    0  0.00000000000E+00  0.00000000000E+00  0.19231430668E+04  0.19231430668E+04  0.00000000000E+00 0. -1.
          1   -1    0    0  501    0 -0.00000000000E+00 -0.00000000000E+00 -0.80363134807E+02  0.80363134807E+02  0.00000000000E+00 0. -1.
         25    2    1    2    0    0 -0.11284530014E+02  0.33961203080E+01  0.80627314468E+02  0.14921407282E+03  0.12500080575E+03 0.  0.
          2    1    1    2  501    0  0.48498711533E+02 -0.42136819012E+01 -0.32962445632E+02  0.58791180951E+02  0.00000000000E+00 0. -1.
          1    1    1    2  502    0 -0.37214181519E+02  0.81756159319E+00  0.17951150631E+04  0.17955009478E+04  0.00000000000E+00 0. -1.
         22    1    3    3    0    0 -0.57113383707E+01 -0.45886333475E+02 -0.86905508008E+01  0.47049980436E+02  0.00000000000E+00 0. -1.
         22    1    3    3    0    0 -0.55731916437E+01  0.49282453783E+02  0.89317865269E+02  0.10216409238E+03  0.00000000000E+00 0. -1.
</event>
<event>
 7    1  0.5452757E-006  0.7140648E+02  0.7818608E-02  0.1373217E+00
          2   -1    0    0  502    0  0.00000000000E+00  0.00000000000E+00  0.87712019600E+03  0.87712019600E+03  0.00000000000E+00 0. -1.
          1   -1    0    0  501    0 -0.00000000000E+00 -0.00000000000E+00 -0.98889423835E+03  0.98889423835E+03  0.00000000000E+00 0. -1.
         25    2    1    2    0    0 -0.19084707836E+01 -0.67570131434E+02  0.51740326185E+02  0.15123198982E+03  0.12499875387E+03 0.  0.
          2    1    1    2  501    0 -0.55531359809E+02  0.45529155150E+02 -0.93655174834E+03  0.93930070436E+03  0.00000000000E+00 0. -1.
          1    1    1    2  502    0  0.57439830592E+02  0.22040976284E+02  0.77303737980E+03  0.77548174017E+03  0.00000000000E+00 0. -1.
         22    1    3    3    0    0 -0.15174703787E+02 -0.21284975316E+02 -0.39907080636E+02  0.47706361149E+02  0.00000000000E+00 0.  1.
         22    1    3    3    0    0  0.13266233003E+02 -0.46285156118E+02  0.91647406821E+02  0.10352562867E+03  0.00000000000E+00 0.  1.
</event>
<event>
 7    1  0.5452757E-006  0.1180697E+03  0.7818608E-02  0.1248951E+00
          2   -1    0    0  502    0  0.00000000000E+00  0.00000000000E+00  0.10708597372E+03  0.10708597372E+03  0.00000000000E+00 0. -1.
          1   -1    0    0  501    0 -0.00000000000E+00 -0.00000000000E+00 -0.26310975245E+04  0.26310975245E+04  0.00000000000E+00 0. -1.
         25    2    1    2    0    0 -0.13574861065E+02  0.36285490527E+01 -0.14166729477E+04  0.14222462151E+04  0.12499844919E+03 0.  0.
          2    1    1    2  501    0 -0.13523639771E+02  0.11419257376E+03 -0.11728212918E+04  0.11784449988E+04  0.00000000000E+00 0. -1.
          1    1    1    2  502    0  0.27098500836E+02 -0.11782112281E+03  0.65482688726E+02  0.13749228433E+03  0.00000000000E+00 0. -1.
         22    1    3    3    0    0  0.23382786852E+02  0.46045021848E+02 -0.10512805606E+04  0.10525482012E+04  0.00000000000E+00 0. -1.
         22    1    3    3    0    0 -0.36957647917E+02 -0.42416472795E+02 -0.36539238713E+03  0.36969801390E+03  0.00000000000E+00 0. -1.
</event>
<event>
 7    1  0.5452757E-006  0.1140809E+03  0.7818608E-02  0.1348266E+00
          2   -1    0    0  502    0  0.00000000000E+00  0.00000000000E+00  0.61383806017E+03  0.61383806017E+03  0.00000000000E+00 0. -1.
          1   -1    0    0  501    0 -0.00000000000E+00 -0.00000000000E+00 -0.88088915896E+02  0.88088915896E+02  0.00000000000E+00 0. -1.
         25    2    1    2    0    0  0.11286104255E+02 -0.89206061812E+02  0.12676759737E+03  0.19945040464E+03  0.12500137020E+03 0.  0.
          2    1    1    2  501    0  0.18903563443E+02  0.12585439042E+03  0.30396520488E+02  0.13084578998E+03  0.00000000000E+00 0. -1.
          1    1    1    2  502    0 -0.30189667698E+02 -0.36648328603E+02  0.36858502641E+03  0.37163078145E+03  0.00000000000E+00 0. -1.
         22    1    3    3    0    0 -0.35708659686E+02 -0.67636305199E+02  0.12640225516E+03  0.14774067912E+03  0.00000000000E+00 0.  1.
         22    1    3    3    0    0  0.46994763941E+02 -0.21569756613E+02  0.36534221501E+00  0.51709725518E+02  0.00000000000E+00 0.  1.
</event>
<event>
 7    1  0.5452757E-006  0.2897461E+02  0.7818608E-02  0.1633890E+00
          2   -1    0    0  502    0  0.00000000000E+00  0.00000000000E+00  0.10182915045E+04  0.10182915045E+04  0.00000000000E+00 0. -1.
          1   -1    0    0  501    0 -0.00000000000E+00 -0.00000000000E+00 -0.11890926860E+04  0.11890926860E+04  0.00000000000E+00 0. -1.
         25    2    1    2    0    0 -0.45806073910E+02 -0.24333296695E+02  0.41625346123E+03  0.43769938796E+03  0.12499401784E+03 0.  0.
          2    1    1    2  501    0  0.28272231508E+02  0.63008754036E+01 -0.11779241409E+04  0.11782802306E+04  0.00000000000E+00 0. -1.
          1    1    1    2  502    0  0.17533842402E+02  0.18032421291E+02  0.59086949816E+03  0.59140457193E+03  0.00000000000E+00 0. -1.
         22    1    3    3    0    0  0.23521696123E+02 -0.48589837610E+02  0.25283320076E+03  0.25853214484E+03  0.00000000000E+00 0.  1.
         22    1    3    3    0    0 -0.69327770033E+02  0.24256540916E+02  0.16342026047E+03  0.17916724312E+03  0.00000000000E+00 0.  1.
</event>
<event>
 7    1  0.5452757E-006  0.3818779E+02  0.7818608E-02  0.1581854E+00
          2   -1    0    0  502    0  0.00000000000E+00  0.00000000000E+00  0.84005601785E+03  0.84005601785E+03  0.00000000000E+00 0. -1.
          1   -1    0    0  501    0 -0.00000000000E+00 -0.00000000000E+00 -0.98568860361E+02  0.98568860361E+02  0.00000000000E+00 0. -1.
         25    2    1    2    0    0 -0.12173542146E+02  0.97127674643E+01  0.18293056711E+03  0.22210618208E+03  0.12500012302E+03 0.  0.
          2    1    1    2  501    0 -0.39520780216E+01  0.25717102935E+02 -0.76225647414E+02  0.80544010502E+02  0.00000000000E+00 0. -1.
          1    1    1    2  502    0  0.16125620168E+02 -0.35429870399E+02  0.63478223780E+03  0.63597468563E+03  0.00000000000E+00 0. -1.
         22    1    3    3    0    0 -0.56813399063E+02  0.29904065843E+02  0.53024977169E+02  0.83268623568E+02  0.00000000000E+00 0. -1.
         22    1    3    3    0    0  0.44639856917E+02 -0.20191298378E+02  0.12990558994E+03  0.13883755851E+03  0.00000000000E+00 0. -1.
</event>
<event>
 7    1  0.5452757E-006  0.8595333E+02  0.7818608E-02  0.1317762E+00
          2   -1    0    0  502    0  0.00000000000E+00  0.00000000000E+00  0.74534499432E+03  0.74534499432E+03  0.00000000000E+00 0. -1.
          1   -1    0    0  501    0 -0.00000000000E+00 -0.00000000000E+00 -0.25948915874E+03  0.25948915874E+03  0.00000000000E+00 0. -1.
         25    2    1    2    0    0  0.77028561922E+02  0.67628035865E+02  0.52253130509E+02  0.16988820920E+03  0.12499865355E+03 0.  0.
          2    1    1    2  501    0  0.87411976695E+01 -0.81851721676E+02 -0.18908073011E+03  0.20622229603E+03  0.00000000000E+00 0. -1.
          1    1    1    2  502    0 -0.85769759592E+02  0.14223685811E+02  0.62268343519E+03  0.62872364784E+03  0.00000000000E+00 0. -1.
         22    1    3    3    0    0 -0.15886589799E+02 -0.21119129985E+02 -0.85001301193E+01  0.27760648386E+02  0.00000000000E+00 0.  1.
         22    1    3    3    0    0  0.92915151722E+02  0.88747165850E+02  0.60753260628E+02  0.14212756081E+03  0.00000000000E+00 0.  1.
</event>
<event>
 7    1  0.5452757E-006  0.4511227E+02  0.7818608E-02  0.1570404E+00
          2   -1    0    0  502    0  0.00000000000E+00  0.00000000000E+00  0.44219160851E+03  0.44219160851E+03  0.00000000000E+00 0. -1.
          1   -1    0    0  501    0 -0.00000000000E+00 -0.00000000000E+00 -0.46925854355E+02  0.46925854355E+02  0.00000000000E+00 0. -1.
         25    2    1    2    0    0  0.59710185625E+02  0.15360863495E+02  0.21725582274E+03  0.25812176545E+03  0.12500196353E+03 0.  0.
          2    1    1    2  501    0 -0.22541753419E+02  0.71456119062E+01 -0.18320947979E+02  0.29914002600E+02  0.00000000000E+00 0. -1.
          1    1    1    2  502    0 -0.37168432207E+02 -0.22506475401E+02  0.19633087939E+03  0.20108169481E+03  0.00000000000E+00 0. -1.
         22    1    3    3    0    0  0.63205156152E+02  0.23151732061E+02  0.35376358795E+02  0.76041970143E+02  0.00000000000E+00 0. -1.
         22    1    3    3    0    0 -0.34949705271E+01 -0.77908685664E+01  0.18187946395E+03  0.18207979530E+03  0.00000000000E+00 0. -1.
</event>
<event>
 7    1  0.5452757E-006  0.4758589E+02  0.7818608E-02  0.1586949E+00
          2   -1    0    0  502    0  0.00000000000E+00  0.00000000000E+00  0.54335064761E+03  0.54335064761E+03  0.00000000000E+00 0. -1.
          1   -1    0    0  501    0 -0.00000000000E+00 -0.00000000000E+00 -0.13188895118E+04  0.13188895118E+04  0.00000000000E+00 0. -1.
         25    2    1    2    0    0 -0.12202809911E+02  0.59663705401E+02 -0.50326065521E+03  0.52211243281E+03  0.12498575559E+03 0.  0.
          2    1    1    2  501    0  0.16100826178E+02 -0.12260303911E+02 -0.80501628050E+03  0.80527061508E+03  0.00000000000E+00 0. -1.
          1    1    1    2  502    0 -0.38980162670E+01 -0.47403401491E+02  0.53273807147E+03  0.53485711157E+03  0.00000000000E+00 0. -1.
         22    1    3    3    0    0 -0.14907263108E+00 -0.32404729679E+02 -0.51044796212E+02  0.60462053791E+02  0.00000000000E+00 0. -1.
         22    1    3    3    0    0 -0.12053737279E+02  0.92068435080E+02 -0.45221585900E+03  0.46165037902E+03  0.00000000000E+00 0. -1.
</event>
<event>
 7    1  0.5452757E-006  0.7741856E+02  0.7818608E-02  0.1377558E+00
          2   -1    0    0  502    0  0.00000000000E+00  0.00000000000E+00  0.18946709714E+03  0.18946709714E+03  0.00000000000E+00 0. -1.
          1   -1    0    0  501    0 -0.00000000000E+00 -0.00000000000E+00 -0.93849236127E+03  0.93849236127E+03  0.00000000000E+00 0. -1.
         25    2    1    2    0    0  0.23176032360E+02  0.12333260526E+02 -0.17804677301E+02  0.12896451082E+03  0.12500240288E+03 0.  0.
          2    1    1    2  501    0 -0.77912822082E+02 -0.13865385904E+02 -0.85760992913E+03  0.86125341643E+03  0.00000000000E+00 0. -1.
          1    1    1    2  502    0  0.54736789723E+02  0.15321253775E+01  0.12638934231E+03  0.13774153116E+03  0.00000000000E+00 0. -1.
         22    1    3    3    0    0  0.32420882414E+02  0.65612440269E+02 -0.47717605139E+01  0.73340818328E+02  0.00000000000E+00 0. -1.
         22    1    3    3    0    0 -0.92448500544E+01 -0.53279179743E+02 -0.13032916787E+02  0.55623692493E+02  0.00000000000E+00 0. -1.
</event>
<event>
 7    1  0.5452757E-006  0.1615320E+03  0.7818608E-02  0.1289580E+00
          2   -1    0    0  502    0  0.00000000000E+00  0.00000000000E+00  0.26211946988E+04  0.26211946988E+04  0.00000000000E+00 0. -1.
          1   -1    0    0  501    0 -0.00000000000E+00 -0.00000000000E+00 -0.51692714903E+03  0.51692714903E+03  0.00000000000E+00 0. -1.
         25    2    1    2    0    0  0.21161675577E+03  0.46490176087E+01  0.14394156704E+03  0.28486389801E+03  0.12500000392E+03 0.  0.
          2    1    1    2  501    0 -0.52737836307E+02 -0.20856358765E+02 -0.44200297741E+03  0.44562641205E+03  0.00000000000E+00 0. -1.
          1    1    1    2  502    0 -0.15887891946E+03  0.16207341156E+02  0.24023289601E+04  0.24076315377E+04  0.00000000000E+00 0. -1.
         22    1    3    3    0    0  0.20206758764E+03  0.41220342622E+02  0.10840892313E+03  0.23298695507E+03  0.00000000000E+00 0. -1.
         22    1    3    3    0    0  0.95491681298E+01 -0.36571325014E+02  0.35532643909E+02  0.51876942936E+02  0.00000000000E+00 0. -1.
</event>
<event>
 7    1  0.5452757E-006  0.1287889E+03  0.7818608E-02  0.1277848E+00
          2   -1    0    0  502    0  0.00000000000E+00  0.00000000000E+00  0.26375963017E+03  0.26375963017E+03  0.00000000000E+00 0. -1.
          1   -1    0    0  501    0 -0.00000000000E+00 -0.00000000000E+00 -0.48836183240E+03  0.48836183240E+03  0.00000000000E+00 0. -1.
         25    2    1    2    0    0 -0.70456526759E+02 -0.26654390616E+02 -0.20600600815E+03  0.25246345278E+03  0.12499896357E+03 0.  0.
          2    1    1    2  501    0 -0.61580919688E+02  0.50246840061E+02 -0.23331938224E+03  0.24648506797E+03  0.00000000000E+00 0. -1.
          1    1    1    2  502    0  0.13203744645E+03 -0.23592449445E+02  0.21472318816E+03  0.25317294182E+03  0.00000000000E+00 0. -1.
         22    1    3    3    0    0 -0.91482980841E+02 -0.17383551126E+02 -0.20945924958E+03  0.22922587303E+03  0.00000000000E+00 0. -1.
         22    1    3    3    0    0  0.21026454082E+02 -0.92708394903E+01  0.34532414306E+01  0.23237579747E+02  0.00000000000E+00 0. -1.
</event>
<event>
 7    1  0.5452757E-006  0.1430754E+03  0.7818608E-02  0.1390977E+00
          2   -1    0    0  502    0  0.00000000000E+00  0.00000000000E+00  0.83781630010E+02  0.83781630010E+02  0.00000000000E+00 0. -1.
          1   -1    0    0  501    0 -0.00000000000E+00 -0.00000000000E+00 -0.13846397568E+04  0.13846397568E+04  0.00000000000E+00 0. -1.
         25    2    1    2    0    0 -0.51601505332E+02 -0.11323334041E+03 -0.32244964487E+03  0.36753683690E+03  0.12500019307E+03 0.  0.
          2    1    1    2  501    0  0.47871662229E+02  0.13954706275E+03 -0.10312429338E+04  0.10417423229E+04  0.00000000000E+00 0. -1.
          1    1    1    2  502    0  0.37298431032E+01 -0.26313722336E+02  0.52834451878E+02  0.59142227030E+02  0.00000000000E+00 0. -1.
         22    1    3    3    0    0 -0.76545526508E+02 -0.20791282866E+02 -0.16859215915E+03  0.18631911120E+03  0.00000000000E+00 0.  1.
         22    1    3    3    0    0  0.24944021176E+02 -0.92442057548E+02 -0.15385748572E+03  0.18121772570E+03  0.00000000000E+00 0.  1.
</event>
<event>
 7    1  0.5452757E-006  0.5785599E+02  0.7818608E-02  0.1470134E+00
          2   -1    0    0  502    0  0.00000000000E+00  0.00000000000E+00  0.23339399232E+03  0.23339399232E+03  0.00000000000E+00 0. -1.
          1   -1    0    0  501    0 -0.00000000000E+00 -0.00000000000E+00 -0.84017043456E+02  0.84017043456E+02  0.00000000000E+00 0. -1.
         25    2    1    2    0    0 -0.53442146213E+02 -0.33477189208E+02  0.56728395072E+02  0.15109465011E+03  0.12503878316E+03 0.  0.
          2    1    1    2  501    0  0.29942550883E+02 -0.20108555018E+02 -0.18627586723E+02  0.40594301637E+02  0.00000000000E+00 0. -1.
          1    1    1    2  502    0  0.23499595331E+02  0.53585744226E+02  0.11127614051E+03  0.12572208403E+03  0.00000000000E+00 0. -1.
         22    1    3    3    0    0 -0.35805506350E+02 -0.70830745887E+02 -0.18838322715E+01  0.79388775478E+02  0.00000000000E+00 0. -1.
         22    1    3    3    0    0 -0.17636639864E+02  0.37353556679E+02  0.58612227343E+02  0.71705874630E+02  0.00000000000E+00 0. -1.
</event>
<event>
 7    1  0.5452757E-006  0.6905723E+02  0.7818608E-02  0.1387503E+00
          2   -1    0    0  502    0  0.00000000000E+00  0.00000000000E+00  0.10187638234E+03  0.10187638234E+03  0.00000000000E+00 0. -1.
          1   -1    0    0  501    0 -0.00000000000E+00 -0.00000000000E+00 -0.58657976073E+03  0.58657976073E+03  0.00000000000E+00 0. -1.
         25    2    1    2    0    0 -0.25016656837E+02  0.43151417306E+02 -0.51865096817E+02  0.14421851954E+03  0.12498445973E+03 0.  0.
          2    1    1    2  501    0 -0.51139613130E+02 -0.24309022477E+02 -0.45827845908E+03  0.46176328856E+03  0.00000000000E+00 0. -1.
          1    1    1    2  502    0  0.76156269967E+02 -0.18842394829E+02  0.25440177504E+02  0.82474334975E+02  0.00000000000E+00 0. -1.
         22    1    3    3    0    0  0.20870098558E+02 -0.14607594122E+02  0.26387154973E+02  0.36677305891E+02  0.00000000000E+00 0.  1.
         22    1    3    3    0    0 -0.45886755395E+02  0.57759011428E+02 -0.78252251790E+02  0.10754121364E+03  0.00000000000E+00 0.  1.
</event>
<event>
 7    1  0.5452757E-006  0.1386526E+03  0.7818608E-02  0.1270425E+00
          2   -1    0    0  502    0  0.00000000000E+00  0.00000000000E+00  0.19572973885E+04  0.19572973885E+04  0.00000000000E+00 0. -1.
          1   -1    0    0  501    0 -0.00000000000E+00 -0.00000000000E+00 -0.18607515087E+03  0.18607515087E+03  0.00000000000E+00 0. -1.
         25    2    1    2    0    0 -0.15535768594E+03  0.14283343671E+03  0.33790149172E+03  0.41754395503E+03  0.12501253959E+03 0.  0.
          2    1    1    2  501    0  0.90391862861E+02 -0.97392379080E+02 -0.11484850444E+03  0.17563070161E+03  0.00000000000E+00 0. -1.
          1    1    1    2  502    0  0.64965823079E+02 -0.45441057627E+02  0.15481692503E+04  0.15501978827E+04  0.00000000000E+00 0. -1.
         22    1    3    3    0    0 -0.11841446687E+03  0.30972114278E+02  0.12976816304E+03  0.17838451156E+03  0.00000000000E+00 0.  1.
         22    1    3    3    0    0 -0.36943219065E+02  0.11186132243E+03  0.20813332868E+03  0.23915944347E+03  0.00000000000E+00 0.  1.
</event>
<event>
 7    1  0.5452757E-006  0.8138466E+02  0.7818608E-02  0.1491756E+00
          2   -1    0    0  502    0  0.00000000000E+00  0.00000000000E+00  0.38971860273E+03  0.38971860273E+03  0.00000000000E+00 0. -1.
          1   -1    0    0  501    0 -0.00000000000E+00 -0.00000000000E+00 -0.24083256284E+03  0.24083256284E+03  0.00000000000E+00 0. -1.
         25    2    1    2    0    0 -0.54867586528E+02 -0.43260043855E+02  0.90032822312E+02  0.16915466100E+03  0.12500202718E+03 0.  0.
          2    1    1    2  501    0  0.24496652365E+01 -0.21876614486E+02 -0.19391444358E+03  0.19515993070E+03  0.00000000000E+00 0. -1.
          1    1    1    2  502    0  0.52417921292E+02  0.65136658341E+02  0.25276766117E+03  0.26623657387E+03  0.00000000000E+00 0. -1.
         22    1    3    3    0    0 -0.14490207766E+02 -0.45508472182E+02 -0.20111273603E+02  0.51821332358E+02  0.00000000000E+00 0. -1.
         22    1    3    3    0    0 -0.40377378763E+02  0.22484283269E+01  0.11014409591E+03  0.11733332864E+03  0.00000000000E+00 0. -1.
</event>
<event>
 7    1  0.5452757E-006  0.1458193E+03  0.7818608E-02  0.1346565E+00
          2   -1    0    0  502    0  0.00000000000E+00  0.00000000000E+00  0.13197136004E+03  0.13197136004E+03  0.00000000000E+00 0. -1.
          1   -1    0    0  501    0 -0.00000000000E+00 -0.00000000000E+00 -0.53866739865E+03  0.53866739865E+03  0.00000000000E+00 0. -1.
         25    2    1    2    0    0 -0.11512373884E+03  0.12408048600E+02 -0.16589437119E+01  0.17039252778E+03  0.12499370590E+03 0.  0.
          2    1    1    2  501    0  0.15046981753E+03  0.68229712824E+00 -0.42964501123E+03  0.45523232222E+03  0.00000000000E+00 0. -1.
          1    1    1    2  502    0 -0.35346078683E+02 -0.13090345728E+02  0.24607916334E+02  0.45013908693E+02  0.00000000000E+00 0. -1.
         22    1    3    3    0    0 -0.17215419190E+02 -0.33130183751E+02  0.39942652344E+02  0.54675361997E+02  0.00000000000E+00 0.  1.
         22    1    3    3    0    0 -0.97908319653E+02  0.45538232351E+02 -0.41601596056E+02  0.11571716578E+03  0.00000000000E+00 0.  1.
</event>
<event>
 7    1  0.5452757E-006  0.4498495E+02  0.7818608E-02  0.1491365E+00
          2   -1    0    0  502    0  0.00000000000E+00  0.00000000000E+00  0.24980694715E+03  0.24980694715E+03  0.00000000000E+00 0. -1.
          1   -1    0    0  501    0 -0.00000000000E+00 -0.00000000000E+00 -0.73354349108E+02  0.73354349108E+02  0.00000000000E+00 0. -1.
         25    2    1    2    0    0 -0.20532749274E+02  0.48140235553E+01  0.13462971594E+03  0.18491649236E+03  0.12499672042E+03 0.  0.
          2    1    1    2  501    0  0.56321011404E+02  0.12903433649E+02  0.68957103025E+02  0.89964642961E+02  0.00000000000E+00 0. -1.
          1    1    1    2  502    0 -0.35788262130E+02 -0.17717457205E+02 -0.27134220917E+02  0.48280160945E+02  0.00000000000E+00 0. -1.
         22    1    3    3    0    0  0.89203710918E+01 -0.57161492217E+02  0.55363749290E+02  0.80075926147E+02  0.00000000000E+00 0. -1.
         22    1    3    3    0    0 -0.29453120366E+02  0.61975515772E+02  0.79265966649E+02  0.10484056621E+03  0.00000000000E+00 0. -1.
</event>
<event>
 7    1  0.5452757E-006  0.5560564E+02  0.7818608E-02  0.1443644E+00
          2   -1    0    0  502    0  0.00000000000E+00  0.00000000000E+00  0.12624581481E+04  0.12624581481E+04  0.00000000000E+00 0. -1.
          1   -1    0    0  501    0 -0.00000000000E+00 -0.00000000000E+00 -0.28314592072E+03  0.28314592072E+03  0.00000000000E+00 0. -1.
         25    2    1    2    0    0 -0.98582297005E+01 -0.11411404119E+02 -0.94341556514E+01  0.12626197619E+03  0.12500271398E+03 0.  0.
          2    1    1    2  501    0  0.90900924504E+01 -0.44613035534E+02 -0.21223031534E+03  0.21705911515E+03  0.00000000000E+00 0. -1.
          1    1    1    2  502    0  0.76813725002E+00  0.56024439653E+02  0.12009766983E+04  0.12022829774E+04  0.00000000000E+00 0. -1.
         22    1    3    3    0    0 -0.52693316387E+02  0.72703373265E+01  0.33449795782E+02  0.62835756019E+02  0.00000000000E+00 0. -1.
         22    1    3    3    0    0  0.42835086686E+02 -0.18681741446E+02 -0.42883951433E+02  0.63426220173E+02  0.00000000000E+00 0. -1.
</event>
<event>
 7    1  0.5452757E-006  0.3885125E+02  0.7818608E-02  0.1559240E+00
          2   -1    0    0  502    0  0.00000000000E+00  0.00000000000E+00  0.90881874009E+02  0.90881874009E+02  0.00000000000E+00 0. -1.
          1   -1    0    0  501    0 -0.00000000000E+00 -0.00000000000E+00 -0.93373763354E+03  0.93373763354E+03  0.00000000000E+00 0. -1.
         25    2    1    2    0    0 -0.50917360356E+02 -0.36356365216E+02 -0.35615822200E+03  0.38260652331E+03  0.12499883880E+03 0.  0.
          2    1    1    2  501    0  0.29109659877E+02  0.45185406565E+01 -0.55914929004E+03  0.55992474321E+03  0.00000000000E+00 0. -1.
          1    1    1    2  502    0  0.21807700479E+02  0.31837824560E+02  0.72451752512E+02  0.82088241027E+02  0.00000000000E+00 0. -1.
         22    1    3    3    0    0  0.25381298215E+01  0.43028893634E+02 -0.90653834948E+02  0.10037950777E+03  0.00000000000E+00 0. -1.
         22    1    3    3    0    0 -0.53455490178E+02 -0.79385258850E+02 -0.26550438705E+03  0.28222701553E+03  0.00000000000E+00 0. -1.
</event>
<event>
 7    1  0.5452757E-006  0.1863332E+03  0.7818608E-02  0.1202869E+00
          2   -1    0    0  502    0  0.00000000000E+00  0.00000000000E+00  0.10181763486E+04  0.10181763486E+04  0.00000000000E+00 0. -1.
          1   -1    0    0  501    0 -0.00000000000E+00 -0.00000000000E+00 -0.70063555553E+03  0.70063555553E+03  0.00000000000E+00 0. -1.
         25    2    1    2    0    0 -0.76284845050E+02  0.17545608205E+03  0.38449980033E+03  0.44729192397E+03  0.12500301787E+03 0.  0.
          2    1    1    2  501    0  0.11650232773E+03  0.16452869380E+02 -0.64784029957E+03  0.65843795685E+03  0.00000000000E+00 0. -1.
          1    1    1    2  502    0 -0.40217482678E+02 -0.19190895143E+03  0.58088129232E+03  0.61308202332E+03  0.00000000000E+00 0. -1.
         22    1    3    3    0    0 -0.13801753561E+02 -0.19270627095E+02  0.47720724221E+02  0.53283327507E+02  0.00000000000E+00 0.  1.
         22    1    3    3    0    0 -0.62483091489E+02  0.19472670915E+03  0.33677907611E+03  0.39400859646E+03  0.00000000000E+00 0.  1.
</event>
<event>
 7    1  0.5452757E-006  0.1202199E+03  0.7818608E-02  0.1286839E+00
          2   -1    0    0  502    0  0.00000000000E+00  0.00000000000E+00  0.19361212858E+04  0.19361212858E+04  0.00000000000E+00 0. -1.
          1   -1    0    0  501    0 -0.00000000000E+00 -0.00000000000E+00 -0.12134277647E+03  0.12134277647E+03  0.00000000000E+00 0. -1.
         25    2    1    2    0    0  0.89372745483E+02  0.52570829975E+02  0.38750197645E+02  0.16698547738E+03  0.12502556554E+03 0.  0.
          2    1    1    2  501    0 -0.14355795895E+03  0.37967966787E+01  0.35152588220E+02  0.14784792085E+03  0.00000000000E+00 0. -1.
          1    1    1    2  502    0  0.54185213466E+02 -0.56367626654E+02  0.17408757235E+04  0.17426306640E+04  0.00000000000E+00 0. -1.
         22    1    3    3    0    0  0.15586970161E+01  0.32835718158E+02  0.65333530813E+02  0.73137433451E+02  0.00000000000E+00 0.  1.
         22    1    3    3    0    0  0.87814048466E+02  0.19735111817E+02 -0.26583333168E+02  0.93848043926E+02  0.00000000000E+00 0.  1.
</event>
<event>
 7    1  0.5452757E-006  0.7020991E+02  0.7818608E-02  0.1406008E+00
          2   -1    0    0  502    0  0.00000000000E+00  0.00000000000E+00  0.30107634315E+03  0.30107634315E+03  0.00000000000E+00 0. -1.
          1   -1    0    0  501    0 -0.00000000000E+00 -0.00000000000E+00 -0.20904228177E+03  0.20904228177E+03  0.00000000000E+00 0. -1.
         25    2    1    2    0    0 -0.54231990145E+02  0.23144991496E+02  0.17951382659E+03  0.22655433359E+03  0.12499941098E+03 0.  0.
          2    1    1    2  501    0  0.79595065938E+01  0.47405758287E+02 -0.16324004217E+03  0.17017041762E+03  0.00000000000E+00 0. -1.
          1    1    1    2  502    0  0.46272483552E+02 -0.70550749784E+02  0.75760276967E+02  0.11339387371E+03  0.00000000000E+00 0. -1.
         22    1    3    3    0    0 -0.31303383696E+02 -0.19591318993E+02  0.17384686064E+03  0.17772577913E+03  0.00000000000E+00 0. -1.
         22    1    3    3    0    0 -0.22928606450E+02  0.42736310489E+02  0.56669659431E+01  0.48828554463E+02  0.00000000000E+00 0. -1.
</event>
<event>
 7    1  0.5452757E-006  0.2565646E+03  0.7818608E-02  0.1160201E+00
          2   -1    0    0  502    0  0.00000000000E+00  0.00000000000E+00  0.65268487959E+03  0.65268487959E+03  0.00000000000E+00 0. -1.
          1   -1    0    0  501    0 -0.00000000000E+00 -0.00000000000E+00 -0.10365440785E+04  0.10365440785E+04  0.00000000000E+00 0. -1.
         25    2    1    2    0    0 -0.80142617608E+02 -0.15886936524E+03 -0.12562382943E+03  0.25113614946E+03  0.12500281868E+03 0.  0.
          2    1    1    2  501    0 -0.13779119524E+03 -0.49837318104E+01 -0.81052292858E+03  0.82216705651E+03  0.00000000000E+00 0. -1.
          1    1    1    2  502    0  0.21793381285E+03  0.16385309705E+03  0.55228755910E+03  0.61592575212E+03  0.00000000000E+00 0. -1.
         22    1    3    3    0    0 -0.35911399178E+01 -0.13385844820E+03 -0.98223636958E+02  0.16606885107E+03  0.00000000000E+00 0. -1.
         22    1    3    3    0    0 -0.76551477690E+02 -0.25010917040E+02 -0.27400192469E+02  0.85067298388E+02  0.00000000000E+00 0. -1.
</event>
<event>
 7    1  0.5452757E-006  0.4921656E+02  0.7818608E-02  0.1460084E+00
          2   -1    0    0  502    0  0.00000000000E+00  0.00000000000E+00  0.18835970358E+04  0.18835970358E+04  0.00000000000E+00 0. -1.
          1   -1    0    0  501    0 -0.00000000000E+00 -0.00000000000E+00 -0.91544379575E+02  0.91544379575E+02  0.00000000000E+00 0. -1.
         25    2    1    2    0    0 -0.67579675010E+01 -0.28099357299E+02  0.91920005463E+03  0.92811042698E+03  0.12499992092E+03 0.  0.
          2    1    1    2  501    0  0.49216494295E+02  0.78556362691E-01 -0.79402216960E+02  0.93418314799E+02  0.00000000000E+00 0. -1.
          1    1    1    2  502    0 -0.42458526794E+02  0.28020800936E+02  0.95225481859E+03  0.95361267363E+03  0.00000000000E+00 0. -1.
         22    1    3    3    0    0 -0.59112969151E+02 -0.13586837936E+02  0.27430378989E+03  0.28092973220E+03  0.00000000000E+00 0.  1.
         22    1    3    3    0    0  0.52355001650E+02 -0.14512519363E+02  0.64489626474E+03  0.64718069477E+03  0.00000000000E+00 0.  1.
</event>
<event>
 7    1  0.5452757E-006  0.5493860E+02  0.7818608E-02  0.1542817E+00
          2   -1    0    0  502    0  0.00000000000E+00  0.00000000000E+00  0.12046892803E+04  0.12046892803E+04  0.00000000000E+00 0. -1.
          1   -1    0    0  501    0 -0.00000000000E+00 -0.00000000000E+00 -0.29111611389E+02  0.29111611389E+02  0.00000000000E+00 0. -1.
         25    2    1    2    0    0  0.49696159927E+02  0.16538367194E+02  0.39967282612E+03  0.42202694027E+03  0.12500057789E+03 0.  0.
          2    1    1    2  501    0 -0.90366951844E+01  0.21309474758E+02 -0.90524524902E+01  0.24853620871E+02  0.00000000000E+00 0. -1.
          1    1    1    2  502    0 -0.40659464742E+02 -0.37847841952E+02  0.78495729524E+03  0.78692033050E+03  0.00000000000E+00 0. -1.
         22    1    3    3    0    0  0.62258512945E+02 -0.41257168622E+02  0.18939837028E+03  0.20359277753E+03  0.00000000000E+00 0.  1.
         22    1    3    3    0    0 -0.12562353018E+02  0.57795535817E+02  0.21027445583E+03  0.21843416274E+03  0.00000000000E+00 0.  1.
</event>
<event>
 7    1  0.5452757E-006  0.7036189E+02  0.7818608E-02  0.1483251E+00
          2   -1    0    0  502    0  0.00000000000E+00  0.00000000000E+00  0.38175822019E+03  0.38175822019E+03  0.00000000000E+00 0. -1.
          1   -1    0    0  501    0 -0.00000000000E+00 -0.00000000000E+00 -0.14471616883E+03  0.14471616883E+03  0.00000000000E+00 0. -1.
         25    2    1    2    0    0 -0.72545322722E+02 -0.39523267151E+02  0.23715083082E+03  0.28051799275E+03  0.12499966081E+03 0.  0.
          2    1    1    2  501    0  0.77479624816E+01  0.25886928360E+02 -0.11239621025E+03  0.11559875458E+03  0.00000000000E+00 0. -1.
          1    1    1    2  502    0  0.64797360241E+02  0.13636338791E+02  0.11228743080E+03  0.13035764168E+03  0.00000000000E+00 0. -1.
         22    1    3    3    0    0 -0.27704228360E+02 -0.52790443029E+01 -0.77126093439E+01  0.29238278347E+02  0.00000000000E+00 0.  1.
         22    1    3    3    0    0 -0.44841094362E+02 -0.34244222848E+02  0.24486344016E+03  0.25127971440E+03  0.00000000000E+00 0.  1.
</event>
<event>
 7    1  0.5452757E-006  0.7512003E+02  0.7818608E-02  0.1414511E+00
          2   -1    0    0  502    0  0.00000000000E+00  0.00000000000E+00  0.33796393331E+03  0.33796393331E+03  0.00000000000E+00 0. -1.
          1   -1    0    0  501    0 -0.00000000000E+00 -0.00000000000E+00 -0.26862039709E+04  0.26862039709E+04  0.00000000000E+00 0. -1.
         25    2    1    2    0    0 -0.96028580864E+02 -0.34771504848E+02  0.43832886451E+02  0.16726462192E+03  0.12500234366E+03 0.  0.
          2    1    1    2  501    0  0.74999660781E+02 -0.16359274254E+01 -0.26220457815E+04  0.26231186983E+04  0.00000000000E+00 0. -1.
          1    1    1    2  502    0  0.21028920083E+02  0.36407432273E+02  0.22997285737E+03  0.23378458403E+03  0.00000000000E+00 0. -1.
         22    1    3    3    0    0  0.14759257452E+02 -0.76998701139E+01  0.50350508486E+02  0.53031098283E+02  0.00000000000E+00 0.  1.
         22    1    3    3    0    0 -0.11078783832E+03 -0.27071634734E+02 -0.65176220353E+01  0.11423352364E+03  0.00000000000E+00 0.  1.
</event>
<event>
 7    1  0.5452757E-006  0.2800820E+02  0.7818608E-02  0.1623699E+00
          2   -1    0    0  502    0  0.00000000000E+00  0.00000000000E+00  0.10001298330E+04  0.10001298330E+04  0.00000000000E+00 0. -1.
          1   -1    0    0  501    0 -0.00000000000E+00 -0.00000000000E+00 -0.69398509781E+03  0.69398509781E+03  0.00000000000E+00 0. -1.
         25    2    1    2    0    0  0.22341055021E+02 -0.17559761726E+02  0.43630458827E+03  0.45474627487E+03  0.12500005117E+03 0.  0.
          2    1    1    2  501    0  0.32833854369E+01  0.27823617764E+02 -0.68413389250E+03  0.68470732229E+03  0.00000000000E+00 0. -1.
          1    1    1    2  502    0 -0.25624440458E+02 -0.10263856038E+02  0.55397403942E+03  0.55466133364E+03  0.00000000000E+00 0. -1.
         22    1    3    3    0    0 -0.10411784843E+02  0.47444804181E+02  0.25102335489E+03  0.25567975948E+03  0.00000000000E+00 0. -1.
         22    1    3    3    0    0  0.32752839864E+02 -0.65004565906E+02  0.18528123338E+03  0.19906651539E+03  0.00000000000E+00 0. -1.
</event>
<event>
 7    1  0.5452757E-006  0.2851570E+03  0.7818608E-02  0.1180177E+00
          2   -1    0    0  502    0  0.00000000000E+00  0.00000000000E+00  0.13217380017E+04  0.13217380017E+04  0.00000000000E+00 0. -1.
          1   -1    0    0  501    0 -0.00000000000E+00 -0.00000000000E+00 -0.98712887668E+02  0.98712887668E+02  0.00000000000E+00 0. -1.
         25    2    1    2    0    0 -0.17743943671E+03  0.20746516077E+03  0.40552983007E+03  0.50458508104E+03  0.12500045719E+03 0.  0.
          2    1    1    2  501    0  0.68925680512E+02  0.70680787166E+02  0.10917408706E+03  0.14719206634E+03  0.00000000000E+00 0. -1.
          1    1    1    2  502    0  0.10851375620E+03 -0.27814594794E+03  0.70832119687E+03  0.76867374196E+03  0.00000000000E+00 0. -1.
         22    1    3    3    0    0 -0.69727595635E+02  0.17284843310E+03  0.23503149242E+03  0.29996386590E+03  0.00000000000E+00 0. -1.
         22    1    3    3    0    0 -0.10771184107E+03  0.34616727671E+02  0.17049833766E+03  0.20462121514E+03  0.00000000000E+00 0. -1.
</event>
<event>
 7    1  0.5452757E-006  0.2775774E+03  0.7818608E-02  0.1245211E+00
          2   -1    0    0  502    0  0.00000000000E+00  0.00000000000E+00  0.20028012850E+04  0.20028012850E+04  0.00000000000E+00 0. -1.
          1   -1    0    0  501    0 -0.00000000000E+00 -0.00000000000E+00 -0.80489871246E+03  0.80489871246E+03  0.00000000000E+00 0. -1.
         25    2    1    2    0    0  0.30728374814E+03 -0.56290622647E+01 -0.28075386722E+03  0.43462875515E+03  0.12499773048E+03 0.  0.
          2    1    1    2  501    0 -0.26236056440E+03 -0.18052900982E+02 -0.40817462783E+03  0.48555689655E+03  0.00000000000E+00 0. -1.
          1    1    1    2  502    0 -0.44923183737E+02  0.23681963247E+02  0.18868310676E+04  0.18875143458E+04  0.00000000000E+00 0. -1.
         22    1    3    3    0    0  0.22845249771E+03 -0.57911456575E+02 -0.21854808596E+03  0.32141491314E+03  0.00000000000E+00 0.  1.
         22    1    3    3    0    0  0.78831250424E+02  0.52282394310E+02 -0.62205781267E+02  0.11321384200E+03  0.00000000000E+00 0.  1.
</event>
<event>
 7    1  0.5452757E-006  0.5302461E+02  0.7818608E-02  0.1443063E+00
          2   -1    0    0  502    0  0.00000000000E+00  0.00000000000E+00  0.13235097753E+04  0.13235097753E+04  0.00000000000E+00 0. -1.
          1   -1    0    0  501    0 -0.00000000000E+00 -0.00000000000E+00 -0.18059893610E+02  0.18059893610E+02  0.00000000000E+00 0. -1.
         25    2    1    2    0    0  0.42082586636E+02  0.56656910142E-01  0.54193949320E+03  0.55776020462E+03  0.12500833676E+03 0.  0.
          2    1    1    2  501    0 -0.32971196460E+02  0.47022458834E+02  0.79251755897E+02  0.97872632761E+02  0.00000000000E+00 0. -1.
          1    1    1    2  502    0 -0.91113901755E+01 -0.47079115744E+02  0.68425863255E+03  0.68593683149E+03  0.00000000000E+00 0. -1.
         22    1    3    3    0    0  0.85489511454E+02  0.90228770860E+00  0.41143110376E+03  0.42021997076E+03  0.00000000000E+00 0. -1.
         22    1    3    3    0    0 -0.43406924819E+02 -0.84563079845E+00  0.13050838945E+03  0.13754023386E+03  0.00000000000E+00 0. -1.
</event>
<event>
 7    1  0.5452757E-006  0.1184490E+03  0.7818608E-02  0.1315985E+00
          2   -1    0    0  502    0  0.00000000000E+00  0.00000000000E+00  0.18820638795E+04  0.18820638795E+04  0.00000000000E+00 0. -1.
          1   -1    0    0  501    0 -0.00000000000E+00 -0.00000000000E+00 -0.10405113783E+03  0.10405113783E+03  0.00000000000E+00 0. -1.
         25    2    1    2    0    0 -0.13077538032E+03  0.75136198673E+02  0.61947068602E+03  0.64970569935E+03  0.12500366590E+03 0.  0.
          2    1    1    2  501    0  0.11594719936E+03 -0.16280711846E+02 -0.49301941099E+02  0.12704131617E+03  0.00000000000E+00 0. -1.
          1    1    1    2  502    0  0.14828180958E+02 -0.58855486827E+02  0.12078439968E+04  0.12093680018E+04  0.00000000000E+00 0. -1.
         22    1    3    3    0    0 -0.96754258458E+02  0.36341922136E+01  0.47682735891E+03  0.48655824326E+03  0.00000000000E+00 0. -1.
         22    1    3    3    0    0 -0.34021121863E+02  0.71502006459E+02  0.14264332711E+03  0.16314745609E+03  0.00000000000E+00 0. -1.
</event>
<event>
 7    1  0.5452757E-006  0.5280532E+02  0.7818608E-02  0.1470454E+00
          2   -1    0    0  502    0  0.00000000000E+00  0.00000000000E+00  0.26268409972E+04  0.26268409972E+04  0.00000000000E+00 0. -1.
          1   -1    0    0  501    0 -0.00000000000E+00 -0.00000000000E+00 -0.65696412006E+02  0.65696412006E+02  0.00000000000E+00 0. -1.
         25    2    1    2    0    0 -0.71947057654E+01  0.66566065606E+02  0.63492494693E+03  0.65056614280E+03  0.12499525208E+03 0.  0.
          2    1    1    2  501    0  0.35464946074E+02 -0.39082909040E+02 -0.45606545426E+02  0.69750936658E+02  0.00000000000E+00 0. -1.
          1    1    1    2  502    0 -0.28270240308E+02 -0.27483156566E+02  0.19718261837E+04  0.19722203297E+04  0.00000000000E+00 0. -1.
         22    1    3    3    0    0  0.86171143825E+01  0.83896173181E+02  0.61193625958E+03  0.61772065558E+03  0.00000000000E+00 0.  1.
         22    1    3    3    0    0 -0.15811820148E+02 -0.17330107576E+02  0.22988687349E+02  0.32845487224E+02  0.00000000000E+00 0.  1.
</event>
<event>
 7    1  0.5452757E-006  0.1057306E+03  0.7818608E-02  0.1348541E+00
          2   -1    0    0  502    0  0.00000000000E+00  0.00000000000E+00  0.14812347966E+04  0.14812347966E+04  0.00000000000E+00 0. -1.
          1   -1    0    0  501    0 -0.00000000000E+00 -0.00000000000E+00 -0.60380986446E+02  0.60380986446E+02  0.00000000000E+00 0. -1.
         25    2    1    2    0    0 -0.98588229381E+02  0.56047022682E+02  0.14998196818E+03  0.22578802447E+03  0.12499893395E+03 0.  0.
          2    1    1    2  501    0 -0.72201021052E+01 -0.50599054734E+02  0.11994765165E+02  0.52500177197E+02  0.00000000000E+00 0. -1.
          1    1    1    2  502    0  0.10580833149E+03 -0.54479679487E+01  0.12588770768E+04  0.12633275813E+04  0.00000000000E+00 0. -1.
         22    1    3    3    0    0 -0.11407231839E+02  0.12725136147E+02  0.12380451413E+03  0.12497844513E+03  0.00000000000E+00 0.  1.
         22    1    3    3    0    0 -0.87180997542E+02  0.43321886535E+02  0.26177454048E+02  0.10080957934E+03  0.00000000000E+00 0.  1.
</event>
<event>
 7    1  0.5452757E-006  0.6635568E+02  0.7818608E-02  0.1485841E+00
          2   -1    0    0  502    0  0.00000000000E+00  0.00000000000E+00  0.12712472298E+04  0.12712472298E+04  0.00000000000E+00 0. -1.
          1   -1    0    0  501    0 -0.00000000000E+00 -0.00000000000E+00 -0.63770617666E+02  0.63770617666E+02  0.00000000000E+00 0. -1.
         25    2    1    2    0    0  0.55581439383E+02  0.17066808764E+02  0.55033449485E+03  0.56733832539E+03  0.12499658743E+03 0.  0.
          2    1    1    2  501    0 -0.49787635599E+02 -0.44600549156E+02 -0.34667182556E+02  0.75298281453E+02  0.00000000000E+00 0. -1.
          1    1    1    2  502    0 -0.57938037844E+01  0.27533740392E+02  0.69180929988E+03  0.69238124066E+03  0.00000000000E+00 0. -1.
         22    1    3    3    0    0  0.91846748767E+02 -0.33102025012E+01  0.43825864405E+03  0.44779171697E+03  0.00000000000E+00 0. -1.
         22    1    3    3    0    0 -0.36265309384E+02  0.20377011265E+02  0.11207585080E+03  0.11954660843E+03  0.00000000000E+00 0. -1.
</event>
<event>
 7    1  0.5452757E-006  0.1182642E+03  0.7818608E-02  0.1295896E+00
          2   -1    0    0  502    0  0.00000000000E+00  0.00000000000E+00  0.85030442185E+03  0.85030442185E+03  0.00000000000E+00 0. -1.
          1   -1    0    0  501    0 -0.00000000000E+00 -0.00000000000E+00 -0.78371329018E+02  0.78371329018E+02  0.00000000000E+00 0. -1.
         25    2    1    2    0    0  0.15249561989E+03 -0.29245070287E+00  0.44936243043E+03  0.49072145736E+03  0.12500382081E+03 0.  0.
          2    1    1    2  501    0 -0.55013336489E+02  0.48031329056E+02 -0.22336909264E+02  0.76370238169E+02  0.00000000000E+00 0. -1.
          1    1    1    2  502    0 -0.97482283403E+02 -0.47738878353E+02  0.34490757167E+03  0.36158405535E+03  0.00000000000E+00 0. -1.
         22    1    3    3    0    0  0.58813170762E+02 -0.49691032314E+02  0.10344120231E+03  0.12895064980E+03  0.00000000000E+00 0.  1.
         22    1    3    3    0    0  0.93682449130E+02  0.49398581611E+02  0.34592122812E+03  0.36177080756E+03  0.00000000000E+00 0.  1.
</event>
<event>
 7    1  0.5452757E-006  0.2837439E+02  0.7818608E-02  0.1627947E+00
          2   -1    0    0  502    0  0.00000000000E+00  0.00000000000E+00  0.38022244599E+03  0.38022244599E+03  0.00000000000E+00 0. -1.
          1   -1    0    0  501    0 -0.00000000000E+00 -0.00000000000E+00 -0.32527060416E+02  0.32527060416E+02  0.00000000000E+00 0. -1.
         25    2    1    2    0    0  0.36060905785E+02  0.18011141781E+02  0.15013443392E+03  0.19946082410E+03  0.12497792585E+03 0.  0.
          2    1    1    2  501    0 -0.87084449408E+01 -0.25114853139E+02  0.19419809085E+02  0.32919930838E+02  0.00000000000E+00 0. -1.
          1    1    1    2  502    0 -0.27352460844E+02  0.71037113582E+01  0.17814114257E+03  0.18036875147E+03  0.00000000000E+00 0. -1.
         22    1    3    3    0    0  0.61190023325E+02  0.25336579637E+02  0.15866367486E+03  0.17193115757E+03  0.00000000000E+00 0.  1.
         22    1    3    3    0    0 -0.25129117540E+02 -0.73254378559E+01 -0.85292409459E+01  0.27529666530E+02  0.00000000000E+00 0.  1.
</event>
<event>
 7    1  0.5452757E-006  0.4897533E+02  0.7818608E-02  0.1532221E+00
          2   -1    0    0  502    0  0.00000000000E+00  0.00000000000E+00  0.14702892980E+03  0.14702892980E+03  0.00000000000E+00 0. -1.
          1   -1    0    0  501    0 -0.00000000000E+00 -0.00000000000E+00 -0.64959176437E+03  0.64959176437E+03  0.00000000000E+00 0. -1.
         25    2    1    2    0    0 -0.21768094027E+02 -0.93490696437E+01 -0.28015622796E+02  0.13028012977E+03  0.12500712808E+03 0.  0.
          2    1    1    2  501    0 -0.27393962367E+02 -0.48797844557E+01 -0.56324728241E+03  0.56393416514E+03  0.00000000000E+00 0. -1.
          1    1    1    2  502    0  0.49162056394E+02  0.14228854099E+02  0.88700070643E+02  0.10240639926E+03  0.00000000000E+00 0. -1.
         22    1    3    3    0    0  0.50060803468E+02  0.21854082619E-01 -0.28964727295E+02  0.57836320325E+02  0.00000000000E+00 0. -1.
         22    1    3    3    0    0 -0.71828897496E+02 -0.93709237263E+01  0.94910449928E+00  0.72443809441E+02  0.00000000000E+00 0. -1.
</event>
<event>
 7    1  0.5452757E-006  0.3040746E+02  0.7818608E-02  0.1625748E+00
          2   -1    0    0  502    0  0.00000000000E+00  0.00000000000E+00  0.10373599042E+04  0.10373599042E+04  0.00000000000E+00 0. -1.
          1   -1    0    0  501    0 -0.00000000000E+00 -0.00000000000E+00 -0.98885400083E+01  0.98885400083E+01  0.00000000000E+00 0. -1.
         25    2    1    2    0    0 -0.14408467242E+02  0.30468009793E+02  0.87060825945E+03  0.88018120534E+03  0.12499723703E+03 0.  0.
          2    1    1    2  501    0 -0.10672130680E+02 -0.28997639633E+02  0.67434955848E+02  0.74177023044E+02  0.00000000000E+00 0. -1.
          1    1    1    2  502    0  0.25080597922E+02 -0.14703701594E+01  0.89428148848E+02  0.92890215776E+02  0.00000000000E+00 0. -1.
         22    1    3    3    0    0 -0.30960941718E+02  0.74927110069E+02  0.49619821604E+03  0.50277760624E+03  0.00000000000E+00 0.  1.
         22    1    3    3    0    0  0.16552474476E+02 -0.44459100276E+02  0.37441004341E+03  0.37740359910E+03  0.00000000000E+00 0.  1.
</event>
<event>
 7    1  0.5452757E-006  0.9325356E+02  0.7818608E-02  0.1396403E+00
          2   -1    0    0  502    0  0.00000000000E+00  0.00000000000E+00  0.67248485804E+03  0.67248485804E+03  0.00000000000E+00 0. -1.
          1   -1    0    0  501    0 -0.00000000000E+00 -0.00000000000E+00 -0.10716160783E+04  0.10716160783E+04  0.00000000000E+00 0. -1.
         25    2    1    2    0    0  0.10270899589E+03 -0.13709865974E+02 -0.24526490975E+03  0.29413996076E+03  0.12500536910E+03 0.  0.
          2    1    1    2  501    0 -0.80690319664E+02  0.45954505332E+02 -0.79863290502E+03  0.80401322205E+03  0.00000000000E+00 0. -1.
          1    1    1    2  502    0 -0.22018676227E+02 -0.32244639358E+02  0.64476659452E+03  0.64594775352E+03  0.00000000000E+00 0. -1.
         22    1    3    3    0    0  0.77194538644E+02 -0.27753371368E+02 -0.48636613825E+02  0.95366485849E+02  0.00000000000E+00 0. -1.
         22    1    3    3    0    0  0.25514457247E+02  0.14043505394E+02 -0.19662829592E+03  0.19877347492E+03  0.00000000000E+00 0. -1.
</event>
<event>
 7    1  0.5452757E-006  0.3377422E+02  0.7818608E-02  0.1609589E+00
          2   -1    0    0  502    0  0.00000000000E+00  0.00000000000E+00  0.24427034468E+03  0.24427034468E+03  0.00000000000E+00 0. -1.
          1   -1    0    0  501    0 -0.00000000000E+00 -0.00000000000E+00 -0.88483336740E+03  0.88483336740E+03  0.00000000000E+00 0. -1.
         25    2    1    2    0    0 -0.46606586803E+02 -0.86983332870E+01 -0.22602736878E+03  0.26260739227E+03  0.12500574427E+03 0.  0.
          2    1    1    2  501    0  0.14813161233E+02  0.19982834188E+02 -0.63901352083E+03  0.63949747710E+03  0.00000000000E+00 0. -1.
          1    1    1    2  502    0  0.31793425571E+02 -0.11284500901E+02  0.22447786690E+03  0.22699884272E+03  0.00000000000E+00 0. -1.
         22    1    3    3    0    0 -0.30052373848E+02 -0.14645847818E+02 -0.23863514531E+03  0.24096551332E+03  0.00000000000E+00 0.  1.
         22    1    3    3    0    0 -0.16554212956E+02  0.59475145309E+01  0.12607776524E+02  0.21641878951E+02  0.00000000000E+00 0.  1.
</event>
<event>
 7    1  0.5452757E-006  0.6791421E+02  0.7818608E-02  0.1380569E+00
          2   -1    0    0  502    0  0.00000000000E+00  0.00000000000E+00  0.29485946660E+03  0.29485946660E+03  0.00000000000E+00 0. -1.
          1   -1    0    0  501    0 -0.00000000000E+00 -0.00000000000E+00 -0.74669259597E+03  0.74669259597E+03  0.00000000000E+00 0. -1.
         25    2    1    2    0    0  0.26661543828E+02 -0.10044955312E+02  0.15096927624E+02  0.12908476989E+03  0.12499288599E+03 0.  0.
          2    1    1    2  501    0 -0.97059749199E+01  0.68542499713E+02 -0.68375513218E+03  0.68725058094E+03  0.00000000000E+00 0. -1.
          1    1    1    2  502    0 -0.16955568908E+02 -0.58497544401E+02  0.21682507518E+03  0.22521671174E+03  0.00000000000E+00 0. -1.
         22    1    3    3    0    0 -0.31132062877E+02 -0.48063426712E+02 -0.37445192463E+01  0.57387452903E+02  0.00000000000E+00 0.  1.
         22    1    3    3    0    0  0.57793606705E+02  0.38018471400E+02  0.18841446871E+02  0.71697316991E+02  0.00000000000E+00 0.  1.
</event>
<event>
 7    1  0.5452757E-006  0.3135175E+03  0.7818608E-02  0.1311095E+00
          2   -1    0    0  502    0  0.00000000000E+00  0.00000000000E+00  0.28816775839E+04  0.28816775839E+04  0.00000000000E+00 0. -1.
          1   -1    0    0  501    0 -0.00000000000E+00 -0.00000000000E+00 -0.42911479030E+03  0.42911479030E+03  0.00000000000E+00 0. -1.
         25    2    1    2    0    0  0.10560681250E+03  0.27206079751E+03 -0.45422123502E+02  0.32071621868E+03  0.12500338891E+03 0.  0.
          2    1    1    2  501    0  0.15486922440E+02  0.18289018921E+02 -0.23642131519E+03  0.23763284970E+03  0.00000000000E+00 0. -1.
          1    1    1    2  502    0 -0.12109373494E+03 -0.29034981643E+03  0.27344062323E+04  0.27524433058E+04  0.00000000000E+00 0. -1.
         22    1    3    3    0    0 -0.13415224152E+02  0.28942501588E+02  0.25557216837E+02  0.40875517974E+02  0.00000000000E+00 0.  1.
         22    1    3    3    0    0  0.11902203665E+03  0.24311829592E+03 -0.70979340339E+02  0.27984070071E+03  0.00000000000E+00 0.  1.
</event>
<event>
 7    1  0.5452757E-006  0.4181877E+02  0.7818608E-02  0.1552253E+00
          2   -1    0    0  502    0  0.00000000000E+00  0.00000000000E+00  0.36859655689E+03  0.36859655689E+03  0.00000000000E+00 0. -1.
          1   -1    0    0  501    0 -0.00000000000E+00 -0.00000000000E+00 -0.16424824074E+03  0.16424824074E+03  0.00000000000E+00 0. -1.
         25    2    1    2    0    0  0.42228089532E+02  0.50192655248E+02  0.59889736589E+02  0.15334215786E+03  0.12499809055E+03 0.  0.
          2    1    1    2  501    0 -0.80014548065E+01 -0.27472802710E+02 -0.11413450210E+03  0.11766674440E+03  0.00000000000E+00 0. -1.
          1    1    1    2  502    0 -0.34226634726E+02 -0.22719852538E+02  0.25859308166E+03  0.26183589538E+03  0.00000000000E+00 0. -1.
         22    1    3    3    0    0  0.18749482582E+02  0.41205094975E+02  0.97848359459E+02  0.10781328489E+03  0.00000000000E+00 0.  1.
         22    1    3    3    0    0  0.23478606950E+02  0.89875602733E+01 -0.37958622870E+02  0.45528872973E+02  0.00000000000E+00 0.  1.
</event>
<event>
 7    1  0.5452757E-006  0.7844197E+02  0.7818608E-02  0.1474966E+00
          2   -1    0    0  502    0  0.00000000000E+00  0.00000000000E+00  0.13464700398E+04  0.13464700398E+04  0.00000000000E+00 0. -1.
          1   -1    0    0  501    0 -0.00000000000E+00 -0.00000000000E+00 -0.43544136757E+02  0.43544136757E+02  0.00000000000E+00 0. -1.
         25    2    1    2    0    0  0.42496076107E+02 -0.39460147996E+02  0.31213057587E+03  0.34119452955E+03  0.12500076335E+03 0.  0.
          2    1    1    2  501    0  0.63410831063E+01 -0.24906285733E+02 -0.21376073575E+02  0.33428564514E+02  0.00000000000E+00 0. -1.
          1    1    1    2  502    0 -0.48837159213E+02  0.64366433729E+02  0.10121714007E+04  0.10153910825E+04  0.00000000000E+00 0. -1.
         22    1    3    3    0    0 -0.12129926332E+02  0.31258328736E+01  0.24304027760E+03  0.24336286176E+03  0.00000000000E+00 0.  1.
         22    1    3    3    0    0  0.54626002438E+02 -0.42585980870E+02  0.69090298265E+02  0.97831667794E+02  0.00000000000E+00 0.  1.
</event>
<event>
 7    1  0.5452757E-006  0.6847259E+02  0.7818608E-02  0.1418528E+00
          2   -1    0    0  502    0  0.00000000000E+00  0.00000000000E+00  0.16659965012E+04  0.16659965012E+04  0.00000000000E+00 0. -1.
          1   -1    0    0  501    0 -0.00000000000E+00 -0.00000000000E+00 -0.27213360031E+02  0.27213360031E+02  0.00000000000E+00 0. -1.
         25    2    1    2    0    0  0.38001280007E+01  0.60379522056E+02  0.71938294532E+03  0.73266450139E+03  0.12500128769E+03 0.  0.
          2    1    1    2  501    0 -0.47644816228E+02 -0.51597094536E+02  0.41639461438E+02  0.81646392613E+02  0.00000000000E+00 0. -1.
          1    1    1    2  502    0  0.43844688227E+02 -0.87824275205E+01  0.87776073438E+03  0.87889896720E+03  0.00000000000E+00 0. -1.
         22    1    3    3    0    0 -0.14447399876E+02  0.93842115191E+02  0.59640494197E+03  0.60391549471E+03  0.00000000000E+00 0.  1.
         22    1    3    3    0    0  0.18247527877E+02 -0.33462593134E+02  0.12297800335E+03  0.12874900668E+03  0.00000000000E+00 0.  1.
</event>
<event>
 7    1  0.5452757E-006  0.5640775E+02  0.7818608E-02  0.1425286E+00
          2   -1    0    0  502    0  0.00000000000E+00  0.00000000000E+00  0.19178518431E+03  0.19178518431E+03  0.00000000000E+00 0. -1.
          1   -1    0    0  501    0 -0.00000000000E+00 -0.00000000000E+00 -0.10877386034E+04  0.10877386034E+04  0.00000000000E+00 0. -1.
         25    2    1    2    0    0 -0.42660485555E+02 -0.34087515222E+02 -0.27862868134E+03  0.31022632957E+03  0.12499823107E+03 0.  0.
          2    1    1    2  501    0 -0.30404146297E+01  0.57912001355E+02 -0.78844994505E+03  0.79057976187E+03  0.00000000000E+00 0. -1.
          1    1    1    2  502    0  0.45700900185E+02 -0.23824486133E+02  0.17112520725E+03  0.17871769631E+03  0.00000000000E+00 0. -1.
         22    1    3    3    0    0 -0.68020165231E+02 -0.12559214743E+01 -0.70381035715E+02  0.97886722312E+02  0.00000000000E+00 0.  1.
         22    1    3    3    0    0  0.25359679675E+02 -0.32831593748E+02 -0.20824764563E+03  0.21233960726E+03  0.00000000000E+00 0.  1.
</event>
<event>
 7    1  0.5452757E-006  0.7124188E+02  0.7818608E-02  0.1474904E+00
          2   -1    0    0  502    0  0.00000000000E+00  0.00000000000E+00  0.33458699033E+03  0.33458699033E+03  0.00000000000E+00 0. -1.
          1   -1    0    0  501    0 -0.00000000000E+00 -0.00000000000E+00 -0.17694700686E+03  0.17694700686E+03  0.00000000000E+00 0. -1.
         25    2    1    2    0    0 -0.47821320110E+02 -0.22232819786E+02  0.39028147849E+01  0.13572398478E+03  0.12499836458E+03 0.  0.
          2    1    1    2  501    0 -0.50932826075E+01 -0.27848918002E+02 -0.10409787515E+03  0.10787896631E+03  0.00000000000E+00 0. -1.
          1    1    1    2  502    0  0.52914602717E+02  0.50081737789E+02  0.25783504383E+03  0.26793104610E+03  0.00000000000E+00 0. -1.
         22    1    3    3    0    0 -0.24757943065E+01  0.48822564648E+02 -0.11044226415E+02  0.50117335458E+02  0.00000000000E+00 0.  1.
         22    1    3    3    0    0 -0.45345525803E+02 -0.71055384434E+02  0.14947041200E+02  0.85606649322E+02  0.00000000000E+00 0.  1.
</event>
<event>
 7    1  0.5452757E-006  0.1613573E+03  0.7818608E-02  0.1400322E+00
          2   -1    0    0  502    0  0.00000000000E+00  0.00000000000E+00  0.26600675547E+03  0.26600675547E+03  0.00000000000E+00 0. -1.
          1   -1    0    0  501    0 -0.00000000000E+00 -0.00000000000E+00 -0.35332939511E+03  0.35332939511E+03  0.00000000000E+00 0. -1.
         25    2    1    2    0    0 -0.17980038346E+03  0.95573000435E+01 -0.22424824156E+03  0.31358003131E+03  0.12500256923E+03 0.  0.
          2    1    1    2  501    0  0.20452015826E+02 -0.77596367508E+01 -0.53292303098E+02  0.57607000298E+02  0.00000000000E+00 0. -1.
          1    1    1    2  502    0  0.15934836764E+03 -0.17976632927E+01  0.19021790501E+03  0.24814911897E+03  0.00000000000E+00 0. -1.
         22    1    3    3    0    0 -0.15173394041E+03  0.46358439236E+02 -0.11812152707E+03  0.19780037593E+03  0.00000000000E+00 0. -1.
         22    1    3    3    0    0 -0.28066443053E+02 -0.36801139193E+02 -0.10612671448E+03  0.11577965537E+03  0.00000000000E+00 0. -1.
</event>
<event>
 7    1  0.5452757E-006  0.2329354E+03  0.7818608E-02  0.1182472E+00
          2   -1    0    0  502    0  0.00000000000E+00  0.00000000000E+00  0.40216076780E+03  0.40216076780E+03  0.00000000000E+00 0. -1.
          1   -1    0    0  501    0 -0.00000000000E+00 -0.00000000000E+00 -0.14061670774E+04  0.14061670774E+04  0.00000000000E+00 0. -1.
         25    2    1    2    0    0  0.12788173546E+03  0.75030823608E+02 -0.33093227944E+03  0.38356745013E+03  0.12499780983E+03 0.  0.
          2    1    1    2  501    0  0.11229168215E+03 -0.35555393679E+02 -0.10057107892E+04  0.10125847122E+04  0.00000000000E+00 0. -1.
          1    1    1    2  502    0 -0.24017341760E+03 -0.39475429930E+02  0.33263675903E+03  0.41217568287E+03  0.00000000000E+00 0. -1.
         22    1    3    3    0    0  0.97891719756E+02  0.10964778822E+03 -0.26899755694E+03  0.30653729283E+03  0.00000000000E+00 0. -1.
         22    1    3    3    0    0  0.29990015703E+02 -0.34616964612E+02 -0.61934722507E+02  0.77030157295E+02  0.00000000000E+00 0. -1.
</event>
<event>
 7    1  0.5452757E-006  0.5827248E+02  0.7818608E-02  0.1464900E+00
          2   -1    0    0  502    0  0.00000000000E+00  0.00000000000E+00  0.24586342097E+03  0.24586342097E+03  0.00000000000E+00 0. -1.
          1   -1    0    0  501    0 -0.00000000000E+00 -0.00000000000E+00 -0.14697460272E+04  0.14697460272E+04  0.00000000000E+00 0. -1.
         25    2    1    2    0    0 -0.23173734741E+02  0.56662332885E+02 -0.67433455509E+02  0.15465069943E+03  0.12498770324E+03 0.  0.
          2    1    1    2  501    0  0.49721416498E+02 -0.30627251043E+02 -0.13563613610E+04  0.13576179100E+04  0.00000000000E+00 0. -1.
          1    1    1    2  502    0 -0.26547681757E+02 -0.26035081842E+02  0.19991221030E+03  0.20334083879E+03  0.00000000000E+00 0. -1.
         22    1    3    3    0    0 -0.17740275263E+02  0.85896368787E+01  0.35674294709E+02  0.40757263538E+02  0.00000000000E+00 0.  1.
         22    1    3    3    0    0 -0.54334594778E+01  0.48072696007E+02 -0.10310775022E+03  0.11389343589E+03  0.00000000000E+00 0.  1.
</event>
<event>
 7    1  0.5452757E-006  0.3334256E+02  0.7818608E-02  0.1580428E+00
          2   -1    0    0  502    0  0.00000000000E+00  0.00000000000E+00  0.95030249633E+03  0.95030249633E+03  0.00000000000E+00 0. -1.
          1   -1    0    0  501    0 -0.00000000000E+00 -0.00000000000E+00 -0.12138012182E+03  0.12138012182E+03  0.00000000000E+00 0. -1.
         25    2    1    2    0    0  0.11981223086E+02  0.95704689956E+01  0.73018536751E+03  0.74096644782E+03  0.12500184914E+03 0.  0.
          2    1    1    2  501    0  0.28900018659E+02 -0.82817245003E+01 -0.11204208568E+03  0.11600528868E+03  0.00000000000E+00 0. -1.
          1    1    1    2  502    0 -0.40881241745E+02 -0.12887444953E+01  0.21077909268E+03  0.21471088165E+03  0.00000000000E+00 0. -1.
         22    1    3    3    0    0 -0.15774733746E+02 -0.46116477419E+02  0.15643144482E+03  0.16384861501E+03  0.00000000000E+00 0.  1.
         22    1    3    3    0    0  0.27755956832E+02  0.55686946414E+02  0.57375392269E+03  0.57711783280E+03  0.00000000000E+00 0.  1.
</event>
<event>
 7    1  0.5452757E-006  0.2243708E+03  0.7818608E-02  0.1212835E+00
          2   -1    0    0  502    0  0.00000000000E+00  0.00000000000E+00  0.24891890764E+04  0.24891890764E+04  0.00000000000E+00 0. -1.
          1   -1    0    0  501    0 -0.00000000000E+00 -0.00000000000E+00 -0.15584826410E+04  0.15584826410E+04  0.00000000000E+00 0. -1.
         25    2    1    2    0    0  0.13916275293E+03  0.27315639439E+03  0.25561348336E+03  0.41826247053E+03  0.12499821512E+03 0.  0.
          2    1    1    2  501    0 -0.39403759517E+02 -0.78478071650E+02 -0.14702864025E+04  0.14729065039E+04  0.00000000000E+00 0. -1.
          1    1    1    2  502    0 -0.99758993415E+02 -0.19467832274E+03  0.21453793545E+04  0.21565027430E+04  0.00000000000E+00 0. -1.
         22    1    3    3    0    0  0.15391939734E+03  0.19171177618E+03  0.21236180489E+03  0.32487247065E+03  0.00000000000E+00 0. -1.
         22    1    3    3    0    0 -0.14756644412E+02  0.81444618206E+02  0.43251678462E+02  0.93389999887E+02  0.00000000000E+00 0. -1.
</event>
<event>
 7    1  0.5452757E-006  0.5785224E+02  0.7818608E-02  0.1428868E+00
          2   -1    0    0  502    0  0.00000000000E+00  0.00000000000E+00  0.11784257776E+04  0.11784257776E+04  0.00000000000E+00 0. -1.
          1   -1    0    0  501    0 -0.00000000000E+00 -0.00000000000E+00 -0.51158797470E+02  0.51158797470E+02  0.00000000000E+00 0. -1.
         25    2    1    2    0    0 -0.41853676389E+02 -0.69410700809E+02  0.22889466489E+03  0.27310741999E+03  0.12500127850E+03 0.  0.
          2    1    1    2  501    0 -0.11356252866E+02  0.47562700804E+02 -0.68957818546E+01  0.49383466811E+02  0.00000000000E+00 0. -1.
          1    1    1    2  502    0  0.53209929256E+02  0.21848000005E+02  0.90526809712E+03  0.90709368829E+03  0.00000000000E+00 0. -1.
         22    1    3    3    0    0 -0.81440138782E+02 -0.65418788898E+02  0.13179701222E+03  0.16817421496E+03  0.00000000000E+00 0.  1.
         22    1    3    3    0    0  0.39586462392E+02 -0.39919119113E+01  0.97097652668E+02  0.10493320504E+03  0.00000000000E+00 0.  1.
</event>
<event>
 7    1  0.5452757E-006  0.4487550E+02  0.7818608E-02  0.1534924E+00
          2   -1    0    0  502    0  0.00000000000E+00  0.00000000000E+00  0.57937395437E+02  0.57937395437E+02  0.00000000000E+00 0. -1.
          1   -1    0    0  501    0 -0.00000000000E+00 -0.00000000000E+00 -0.79820716002E+03  0.79820716002E+03  0.00000000000E+00 0. -1.
         25    2    1    2    0    0  0.21226219673E+02 -0.26060309683E+02 -0.51224036577E+03  0.52834127525E+03  0.12499847466E+03 0.  0.
          2    1    1    2  501    0 -0.27307174349E+01  0.49468301731E+02 -0.27100016676E+03  0.27549166971E+03  0.00000000000E+00 0. -1.
          1    1    1    2  502    0 -0.18495502238E+02 -0.23407992048E+02  0.42970767948E+02  0.52311610497E+02  0.00000000000E+00 0. -1.
         22    1    3    3    0    0  0.41069027531E+02 -0.69858350497E+02 -0.30323894661E+03  0.31388009319E+03  0.00000000000E+00 0.  1.
         22    1    3    3    0    0 -0.19842807858E+02  0.43798040814E+02 -0.20900141915E+03  0.21446118206E+03  0.00000000000E+00 0.  1.
</event>
<event>
 7    1  0.5452757E-006  0.5015577E+02  0.7818608E-02  0.1445497E+00
          2   -1    0    0  502    0  0.00000000000E+00  0.00000000000E+00  0.27836284381E+04  0.27836284381E+04  0.00000000000E+00 0. -1.
          1   -1    0    0  501    0 -0.00000000000E+00 -0.00000000000E+00 -0.10042915814E+04  0.10042915814E+04  0.00000000000E+00 0. -1.
         25    2    1    2    0    0 -0.33537984055E+02  0.18606804101E+02  0.16617329691E+03  0.21145032103E+03  0.12500665632E+03 0.  0.
          2    1    1    2  501    0 -0.65659239216E+01 -0.49352342520E+02 -0.98077554795E+03  0.98203841092E+03  0.00000000000E+00 0. -1.
          1    1    1    2  502    0  0.40103907977E+02  0.30745538419E+02  0.25939391077E+04  0.25944312876E+04  0.00000000000E+00 0. -1.
         22    1    3    3    0    0 -0.17994011643E+02  0.25978680297E+02  0.18398959063E+03  0.18668381222E+03  0.00000000000E+00 0. -1.
         22    1    3    3    0    0 -0.15543972412E+02 -0.73718761962E+01 -0.17816293717E+02  0.24766508814E+02  0.00000000000E+00 0. -1.
</event>
<event>
 7    1  0.5452757E-006  0.6725103E+02  0.7818608E-02  0.1526659E+00
          2   -1    0    0  502    0  0.00000000000E+00  0.00000000000E+00  0.18372017523E+04  0.18372017523E+04  0.00000000000E+00 0. -1.
          1   -1    0    0  501    0 -0.00000000000E+00 -0.00000000000E+00 -0.85884947044E+02  0.85884947044E+02  0.00000000000E+00 0. -1.
         25    2    1    2    0    0  0.62716274110E+02  0.26512252613E+01  0.37488121127E+03  0.40012637138E+03  0.12499932190E+03 0.  0.
          2    1    1    2  501    0 -0.65042115062E+02  0.18241119308E+02 -0.57597458701E+02  0.88773207750E+02  0.00000000000E+00 0. -1.
          1    1    1    2  502    0  0.23258409525E+01 -0.20892344569E+02  0.14340330527E+04  0.14341871202E+04  0.00000000000E+00 0. -1.
         22    1    3    3    0    0  0.20486442294E+02 -0.38719580499E+02  0.30700651187E+03  0.31011594374E+03  0.00000000000E+00 0. -1.
         22    1    3    3    0    0  0.42229831815E+02  0.41370805760E+02  0.67874699399E+02  0.90010427634E+02  0.00000000000E+00 0. -1.
</event>
<event>
 7    1  0.5452757E-006  0.6858178E+02  0.7818608E-02  0.1487536E+00
          2   -1    0    0  502    0  0.00000000000E+00  0.00000000000E+00  0.95200479944E+03  0.95200479944E+03  0.00000000000E+00 0. -1.
          1   -1    0    0  501    0 -0.00000000000E+00 -0.00000000000E+00 -0.18200478137E+04  0.18200478137E+04  0.00000000000E+00 0. -1.
         25    2    1    2    0    0 -0.90503453268E+02 -0.18171567852E+02  0.35959634281E+03  0.39173345059E+03  0.12499794244E+03 0.  0.
          2    1    1    2  501    0  0.64226370278E+02  0.23938864184E+02 -0.18030137763E+04  0.18043161512E+04  0.00000000000E+00 0. -1.
          1    1    1    2  502    0  0.26277082989E+02 -0.57672963314E+01  0.57537441923E+03  0.57600301136E+03  0.00000000000E+00 0. -1.
         22    1    3    3    0    0  0.19820441229E+02  0.34390320875E+01  0.64507000244E+01  0.21125538171E+02  0.00000000000E+00 0.  1.
         22    1    3    3    0    0 -0.11032389450E+03 -0.21610599940E+02  0.35314564279E+03  0.37060791242E+03  0.00000000000E+00 0.  1.
</event>
<event>
 7    1  0.5452757E-006  0.3936914E+02  0.7818608E-02  0.1559196E+00
          2   -1    0    0  502    0  0.00000000000E+00  0.00000000000E+00  0.15168223485E+02  0.15168223485E+02  0.00000000000E+00 0. -1.
          1   -1    0    0  501    0 -0.00000000000E+00 -0.00000000000E+00 -0.11955433691E+04  0.11955433691E+04  0.00000000000E+00 0. -1.
         25    2    1    2    0    0 -0.18217405230E+02 -0.58364870262E+01 -0.90526493432E+03  0.91405405760E+03  0.12499712187E+03 0.  0.
          2    1    1    2  501    0 -0.18866142890E+02  0.22128072093E+02 -0.24362756935E+03  0.24535683294E+03  0.00000000000E+00 0. -1.
          1    1    1    2  502    0  0.37083548120E+02 -0.16291585067E+02 -0.31482641914E+02  0.51300702013E+02  0.00000000000E+00 0. -1.
         22    1    3    3    0    0  0.37710408419E+02  0.59276116478E+01 -0.69831364266E+03  0.69935624327E+03  0.00000000000E+00 0.  1.
         22    1    3    3    0    0 -0.55927813649E+02 -0.11764098674E+02 -0.20695129166E+03  0.21469781433E+03  0.00000000000E+00 0.  1.
</event>
<event>
 7    1  0.5452757E-006  0.1924942E+03  0.7818608E-02  0.1161893E+00
          2   -1    0    0  502    0  0.00000000000E+00  0.00000000000E+00  0.17861161125E+04  0.17861161125E+04  0.00000000000E+00 0. -1.
          1   -1    0    0  501    0 -0.00000000000E+00 -0.00000000000E+00 -0.46276595166E+03  0.46276595166E+03  0.00000000000E+00 0. -1.
         25    2    1    2    0    0  0.25337687357E+02 -0.55987901321E+02  0.10094874211E+03  0.17202299859E+03  0.12499848006E+03 0.  0.
          2    1    1    2  501    0 -0.82597148556E+02 -0.16015238098E+03 -0.40021397410E+03  0.43891035434E+03  0.00000000000E+00 0. -1.
          1    1    1    2  502    0  0.57259461199E+02  0.21614028230E+03  0.16226153929E+04  0.16379487112E+04  0.00000000000E+00 0. -1.
         22    1    3    3    0    0  0.47185923863E+02 -0.17181671605E+02 -0.11117190963E+02  0.51432608187E+02  0.00000000000E+00 0. -1.
         22    1    3    3    0    0 -0.21848236506E+02 -0.38806229716E+02  0.11206593307E+03  0.12059039040E+03  0.00000000000E+00 0. -1.
</event>
<event>
 7    1  0.5452757E-006  0.6825941E+02  0.7818608E-02  0.1451775E+00
          2   -1    0    0  502    0  0.00000000000E+00  0.00000000000E+00  0.15858503359E+04  0.15858503359E+04  0.00000000000E+00 0. -1.
          1   -1    0    0  501    0 -0.00000000000E+00 -0.00000000000E+00 -0.16004220212E+03  0.16004220212E+03  0.00000000000E+00 0. -1.
         25    2    1    2    0    0  0.84383978466E+02  0.11812722231E+01  0.36311143963E+03  0.39318702464E+03  0.12499627005E+03 0.  0.
          2    1    1    2  501    0 -0.21931504382E+02 -0.27181894178E+02 -0.14193844682E+03  0.14617239460E+03  0.00000000000E+00 0. -1.
          1    1    1    2  502    0 -0.62452474084E+02  0.26000621955E+02  0.12046351410E+04  0.12065331188E+04  0.00000000000E+00 0. -1.
         22    1    3    3    0    0  0.31369459532E+02 -0.49104206666E+01  0.62537086784E+01  0.32361460021E+02  0.00000000000E+00 0. -1.
         22    1    3    3    0    0  0.53014518934E+02  0.60916928897E+01  0.35685773096E+03  0.36082556462E+03  0.00000000000E+00 0. -1.
</event>
<event>
 7    1  0.5452757E-006  0.7746688E+02  0.7818608E-02  0.1392581E+00
          2   -1    0    0  502    0  0.00000000000E+00  0.00000000000E+00  0.10715964493E+04  0.10715964493E+04  0.00000000000E+00 0. -1.
          1   -1    0    0  501    0 -0.00000000000E+00 -0.00000000000E+00 -0.13083998756E+03  0.13083998756E+03  0.00000000000E+00 0. -1.
         25    2    1    2    0    0  0.14240582788E+02  0.40013854396E+02  0.16515301502E+02  0.13304629678E+03  0.12499863664E+03 0.  0.
          2    1    1    2  501    0  0.47744992545E+02  0.82840783510E+01 -0.62746036095E+02  0.79279728259E+02  0.00000000000E+00 0. -1.
          1    1    1    2  502    0 -0.61985575332E+02 -0.48297932747E+02  0.98698719630E+03  0.99011041178E+03  0.00000000000E+00 0. -1.
         22    1    3    3    0    0 -0.28281580831E+02  0.52297929097E+02  0.49888811099E+02  0.77613237756E+02  0.00000000000E+00 0. -1.
         22    1    3    3    0    0  0.42522163619E+02 -0.12284074701E+02 -0.33373509596E+02  0.55433059025E+02  0.00000000000E+00 0. -1.
</event>
<event>
 7    1  0.5452757E-006  0.4257899E+02  0.7818608E-02  0.1494177E+00
          2   -1    0    0  502    0  0.00000000000E+00  0.00000000000E+00  0.38354950118E+03  0.38354950118E+03  0.00000000000E+00 0. -1.
          1   -1    0    0  501    0 -0.00000000000E+00 -0.00000000000E+00 -0.26684143226E+03  0.26684143226E+03  0.00000000000E+00 0. -1.
         25    2    1    2    0    0 -0.61483203969E+02  0.13253671985E+02  0.74015456719E+02  0.15828592924E+03  0.12498121207E+03 0.  0.
          2    1    1    2  501    0  0.25621475179E+02 -0.33889450844E+02 -0.22107084213E+03  0.22511613027E+03  0.00000000000E+00 0. -1.
          1    1    1    2  502    0  0.35861728789E+02  0.20635778859E+02  0.26376345433E+03  0.26698887393E+03  0.00000000000E+00 0. -1.
         22    1    3    3    0    0  0.32090632973E+02 -0.66098073806E+01  0.49796751009E+02  0.59608847408E+02  0.00000000000E+00 0. -1.
         22    1    3    3    0    0 -0.93573836941E+02  0.19863479366E+02  0.24218705710E+02  0.98677081831E+02  0.00000000000E+00 0. -1.
</event>
<event>
 7    1  0.5724095E-006  0.1903087E+03  0.7818608E-02  0.1168653E+00
          2   -1    0    0  502    0  0.00000000000E+00  0.00000000000E+00  0.25939588402E+04  0.25939588402E+04  0.00000000000E+00 0. -1.
          1   -1    0    0  501    0 -0.00000000000E+00 -0.00000000000E+00 -0.15200246333E+04  0.15200246333E+04  0.00000000000E+00 0. -1.
         25    2    1    2    0    0  0.31022303592E+02 -0.55090106330E-01 -0.63312328788E+02  0.14350687299E+03  0.12499354089E+03 0.  0.
          2    1    1    2  501    0  0.14683335947E+03 -0.82854589595E+02 -0.14078083853E+04  0.14178678952E+04  0.00000000000E+00 0. -1.
          1    1    1    2  502    0 -0.17785566306E+03  0.82909679701E+02  0.25450549210E+04  0.25526087053E+04  0.00000000000E+00 0. -1.
         22    1    3    3    0    0  0.97300365732E+01  0.22892542240E+02  0.33519401632E+02  0.41740776079E+02  0.00000000000E+00 0. -1.
         22    1    3    3    0    0  0.21292267019E+02 -0.22947632346E+02 -0.96831730420E+02  0.10176609691E+03  0.00000000000E+00 0. -1.
</event>
<event>
 7    1  0.5452757E-006  0.4700932E+02  0.7818608E-02  0.1474063E+00
          2   -1    0    0  502    0  0.00000000000E+00  0.00000000000E+00  0.32177737928E+04  0.32177737928E+04  0.00000000000E+00 0. -1.
          1   -1    0    0  501    0 -0.00000000000E+00 -0.00000000000E+00 -0.33100438695E+03  0.33100438695E+03  0.00000000000E+00 0. -1.
         25    2    1    2    0    0 -0.13357507404E+01  0.37129758795E+02  0.10856474454E+03  0.16968017675E+03  0.12499862162E+03 0.  0.
          2    1    1    2  501    0  0.41397899666E+02 -0.12214527079E+02 -0.29871473003E+03  0.30181694900E+03  0.00000000000E+00 0. -1.
          1    1    1    2  502    0 -0.40062148926E+02 -0.24915231716E+02  0.30769193913E+04  0.30772810540E+04  0.00000000000E+00 0. -1.
         22    1    3    3    0    0 -0.51158203893E+02 -0.19406247513E+02  0.51682992907E+02  0.75265503545E+02  0.00000000000E+00 0.  1.
         22    1    3    3    0    0  0.49822453153E+02  0.56536006308E+02  0.56881751636E+02  0.94414673206E+02  0.00000000000E+00 0.  1.
</event>
<event>
 7    1  0.5452757E-006  0.4675497E+02  0.7818608E-02  0.1552127E+00
          2   -1    0    0  502    0  0.00000000000E+00  0.00000000000E+00  0.57603573074E+02  0.57603573074E+02  0.00000000000E+00 0. -1.
          1   -1    0    0  501    0 -0.00000000000E+00 -0.00000000000E+00 -0.31358966184E+03  0.31358966184E+03  0.00000000000E+00 0. -1.
         25    2    1    2    0    0  0.12084328359E+02  0.57061051178E+02 -0.13551420103E+03  0.19336911009E+03  0.12500207800E+03 0.  0.
          2    1    1    2  501    0  0.10349086925E+02 -0.44699116023E+02 -0.13889231156E+03  0.14627436133E+03  0.00000000000E+00 0. -1.
          1    1    1    2  502    0 -0.22433415284E+02 -0.12361935155E+02  0.18420423824E+02  0.31549763485E+02  0.00000000000E+00 0. -1.
         22    1    3    3    0    0  0.35998975950E+01  0.58522072861E+02 -0.10627685760E+01  0.58642320483E+02  0.00000000000E+00 0. -1.
         22    1    3    3    0    0  0.84844307641E+01 -0.14610216822E+01 -0.13445143245E+03  0.13472678961E+03  0.00000000000E+00 0. -1.
</event>
<event>
 7    1  0.5452757E-006  0.4978119E+02  0.7818608E-02  0.1454802E+00
          2   -1    0    0  502    0  0.00000000000E+00  0.00000000000E+00  0.38371983261E+03  0.38371983261E+03  0.00000000000E+00 0. -1.
          1   -1    0    0  501    0 -0.00000000000E+00 -0.00000000000E+00 -0.21277405106E+03  0.21277405106E+03  0.00000000000E+00 0. -1.
         25    2    1    2    0    0 -0.77662674543E+02  0.29456093791E+02  0.96100244968E+02  0.17821170738E+03  0.12500001234E+03 0.  0.
          2    1    1    2  501    0  0.31558336461E+02 -0.37720681009E+02 -0.16589282842E+03  0.17302950297E+03  0.00000000000E+00 0. -1.
          1    1    1    2  502    0  0.46104338082E+02  0.82645872179E+01  0.24073836500E+03  0.24525267332E+03  0.00000000000E+00 0. -1.
         22    1    3    3    0    0 -0.63288106793E+02  0.58879374314E+02  0.11226829149E+03  0.14169098226E+03  0.00000000000E+00 0.  1.
         22    1    3    3    0    0 -0.14374567750E+02 -0.29423280522E+02 -0.16168046519E+02  0.36520725115E+02  0.00000000000E+00 0.  1.
</event>
<event>
 7    1  0.5452757E-006  0.1050891E+03  0.7818608E-02  0.1416212E+00
          2   -1    0    0  502    0  0.00000000000E+00  0.00000000000E+00  0.10479522381E+04  0.10479522381E+04  0.00000000000E+00 0. -1.
          1   -1    0    0  501    0 -0.00000000000E+00 -0.00000000000E+00 -0.41552940605E+03  0.41552940605E+03  0.00000000000E+00 0. -1.
         25    2    1    2    0    0  0.95917669014E+02 -0.61674478550E+02  0.22626909013E+02  0.17070487357E+03  0.12499694523E+03 0.  0.
          2    1    1    2  501    0 -0.25145908455E+02 -0.15730816375E+02 -0.33794799466E+03  0.33924714057E+03  0.00000000000E+00 0. -1.
          1    1    1    2  502    0 -0.70771760559E+02  0.77405294925E+02  0.94774391771E+03  0.95352963003E+03  0.00000000000E+00 0. -1.
         22    1    3    3    0    0  0.40373285292E+02 -0.45288952300E+02 -0.49431694618E+02  0.78259720154E+02  0.00000000000E+00 0. -1.
         22    1    3    3    0    0  0.55544383722E+02 -0.16385526250E+02  0.72058603631E+02  0.92445153420E+02  0.00000000000E+00 0. -1.
</event>
<event>
 7    1  0.5452757E-006  0.2781489E+03  0.7818608E-02  0.1136004E+00
          2   -1    0    0  502    0  0.00000000000E+00  0.00000000000E+00  0.16376926427E+04  0.16376926427E+04  0.00000000000E+00 0. -1.
          1   -1    0    0  501    0 -0.00000000000E+00 -0.00000000000E+00 -0.13295679716E+04  0.13295679716E+04  0.00000000000E+00 0. -1.
         25    2    1    2    0    0  0.97042172114E+02 -0.15457408209E+03  0.12396560530E+03  0.25359392162E+03  0.12502829985E+03 0.  0.
          2    1    1    2  501    0 -0.75790588643E+02 -0.15169288863E+03 -0.12426683086E+04  0.12541847834E+04  0.00000000000E+00 0. -1.
          1    1    1    2  502    0 -0.21251583471E+02  0.30626697072E+03  0.14268273744E+04  0.14594819092E+04  0.00000000000E+00 0. -1.
         22    1    3    3    0    0  0.57823018419E+01 -0.11705083482E+03  0.94697665430E+02  0.15067176505E+03  0.00000000000E+00 0.  1.
         22    1    3    3    0    0  0.91259870272E+02 -0.37523247270E+02  0.29267939866E+02  0.10292215656E+03  0.00000000000E+00 0.  1.
</event>
<event>
 7    1  0.5452757E-006  0.7884519E+02  0.7818608E-02  0.1412597E+00
          2   -1    0    0  502    0  0.00000000000E+00  0.00000000000E+00  0.16353783097E+04  0.16353783097E+04  0.00000000000E+00 0. -1.
          1   -1    0    0  501    0 -0.00000000000E+00 -0.00000000000E+00 -0.15466420055E+03  0.15466420055E+03  0.00000000000E+00 0. -1.
         25    2    1    2    0    0  0.88855411638E+01 -0.40551145680E+02 -0.71083997812E+02  0.14967033657E+03  0.12499970659E+03 0.  0.
          2    1    1    2  501    0  0.27886653373E+02 -0.29586344670E+02 -0.33754561645E+02  0.52843047406E+02  0.00000000000E+00 0. -1.
          1    1    1    2  502    0 -0.36772194537E+02  0.70137490350E+02  0.15855526686E+04  0.15875291262E+04  0.00000000000E+00 0. -1.
         22    1    3    3    0    0 -0.33541063520E+02 -0.47477550626E+02 -0.86314301473E+02  0.10406382366E+03  0.00000000000E+00 0. -1.
         22    1    3    3    0    0  0.42426604684E+02  0.69264049458E+01  0.15230303661E+02  0.45606512913E+02  0.00000000000E+00 0. -1.
</event>
<event>
 7    1  0.5452757E-006  0.9810752E+02  0.7818608E-02  0.1353161E+00
          2   -1    0    0  502    0  0.00000000000E+00  0.00000000000E+00  0.16402571115E+03  0.16402571115E+03  0.00000000000E+00 0. -1.
          1   -1    0    0  501    0 -0.00000000000E+00 -0.00000000000E+00 -0.15338633983E+04  0.15338633983E+04  0.00000000000E+00 0. -1.
         25    2    1    2    0    0 -0.69968112024E+02  0.13068313404E+03 -0.14430645203E+03  0.24170775453E+03  0.12499867312E+03 0.  0.
          2    1    1    2  501    0  0.37812254613E+02 -0.88606899098E+02 -0.13329454781E+04  0.13364223123E+04  0.00000000000E+00 0. -1.
          1    1    1    2  502    0  0.32155857411E+02 -0.42076234944E+02  0.10741424295E+03  0.11975904267E+03  0.00000000000E+00 0. -1.
         22    1    3    3    0    0 -0.15579626912E+02  0.47046669323E+02 -0.13223212912E+03  0.14121419844E+03  0.00000000000E+00 0.  1.
         22    1    3    3    0    0 -0.54388485112E+02  0.83636464719E+02 -0.12074322911E+02  0.10049355610E+03  0.00000000000E+00 0.  1.
</event>
<event>
 7    1  0.5452757E-006  0.6925108E+02  0.7818608E-02  0.1429331E+00
          2   -1    0    0  502    0  0.00000000000E+00  0.00000000000E+00  0.65079347994E+02  0.65079347994E+02  0.00000000000E+00 0. -1.
          1   -1    0    0  501    0 -0.00000000000E+00 -0.00000000000E+00 -0.32727980352E+04  0.32727980352E+04  0.00000000000E+00 0. -1.
         25    2    1    2    0    0 -0.28477052447E+02  0.10052328018E+02 -0.76937789063E+03  0.78005035354E+03  0.12499689458E+03 0.  0.
          2    1    1    2  501    0 -0.33532035361E+02  0.23080395555E+02 -0.24771746377E+04  0.24775090893E+04  0.00000000000E+00 0. -1.
          1    1    1    2  502    0  0.62009087808E+02 -0.33132723574E+02  0.38833841035E+02  0.80317940410E+02  0.00000000000E+00 0. -1.
         22    1    3    3    0    0 -0.60625402265E+02  0.12024653659E+02 -0.70837831926E+03  0.71106952888E+03  0.00000000000E+00 0. -1.
         22    1    3    3    0    0  0.32148349818E+02 -0.19723256402E+01 -0.60999571363E+02  0.68980824661E+02  0.00000000000E+00 0. -1.
</event>
<event>
 7    1  0.5452757E-006  0.1588261E+03  0.7818608E-02  0.1318496E+00
          2   -1    0    0  502    0  0.00000000000E+00  0.00000000000E+00  0.69695646543E+03  0.69695646543E+03  0.00000000000E+00 0. -1.
          1   -1    0    0  501    0 -0.00000000000E+00 -0.00000000000E+00 -0.90273628442E+03  0.90273628442E+03  0.00000000000E+00 0. -1.
         25    2    1    2    0    0 -0.46570127331E+02 -0.14748161489E+03  0.20865839252E+03  0.28824132725E+03  0.12500053790E+03 0.  0.
          2    1    1    2  501    0  0.41842587182E+02 -0.14415841815E+02 -0.84772626617E+03  0.84888069889E+03  0.00000000000E+00 0. -1.
          1    1    1    2  502    0  0.47275401492E+01  0.16189745671E+03  0.43328805465E+03  0.46257072371E+03  0.00000000000E+00 0. -1.
         22    1    3    3    0    0  0.37806717281E+02 -0.20717477931E+02  0.70459091179E+02  0.82601726938E+02  0.00000000000E+00 0.  1.
         22    1    3    3    0    0 -0.84376844612E+02 -0.12676413696E+03  0.13819930134E+03  0.20563960032E+03  0.00000000000E+00 0.  1.
</event>
<event>
 7    1  0.5452757E-006  0.5266362E+02  0.7818608E-02  0.1465599E+00
          2   -1    0    0  502    0  0.00000000000E+00  0.00000000000E+00  0.10715798683E+04  0.10715798683E+04  0.00000000000E+00 0. -1.
          1   -1    0    0  501    0 -0.00000000000E+00 -0.00000000000E+00 -0.12584846320E+03  0.12584846320E+03  0.00000000000E+00 0. -1.
         25    2    1    2    0    0  0.34214698419E+02  0.19808408534E+02  0.86095105808E+03  0.87087576588E+03  0.12499942620E+03 0.  0.
          2    1    1    2  501    0  0.74658372754E+01  0.40250045903E+02 -0.11060563503E+03  0.11793816779E+03  0.00000000000E+00 0. -1.
          1    1    1    2  502    0 -0.41680535695E+02 -0.60058454436E+02  0.19538598208E+03  0.20861439787E+03  0.00000000000E+00 0. -1.
         22    1    3    3    0    0  0.48842208652E+00  0.61190465941E+02  0.24162723324E+03  0.24925535404E+03  0.00000000000E+00 0. -1.
         22    1    3    3    0    0  0.33726276333E+02 -0.41382057407E+02  0.61932382485E+03  0.62162041184E+03  0.00000000000E+00 0. -1.
</event>
<event>
 7    1  0.5452757E-006  0.5716582E+02  0.7818608E-02  0.1442013E+00
          2   -1    0    0  502    0  0.00000000000E+00  0.00000000000E+00  0.16899002846E+04  0.16899002846E+04  0.00000000000E+00 0. -1.
          1   -1    0    0  501    0 -0.00000000000E+00 -0.00000000000E+00 -0.96562992731E+02  0.96562992731E+02  0.00000000000E+00 0. -1.
         25    2    1    2    0    0  0.23538721970E+02 -0.61726314027E+02  0.92860733833E+02  0.16915059049E+03  0.12499838839E+03 0.  0.
          2    1    1    2  501    0  0.27375881851E+02  0.35498112319E+02 -0.49210598504E+02  0.66567543822E+02  0.00000000000E+00 0. -1.
          1    1    1    2  502    0 -0.50914603821E+02  0.26228201707E+02  0.15496871565E+04  0.15507451430E+04  0.00000000000E+00 0. -1.
         22    1    3    3    0    0 -0.72882585009E+01 -0.92472354268E+02  0.83083383113E+02  0.12452752132E+03  0.00000000000E+00 0. -1.
         22    1    3    3    0    0  0.30826980471E+02  0.30746040242E+02  0.97773507191E+01  0.44623069175E+02  0.00000000000E+00 0. -1.
</event>
<event>
 7    1  0.5452757E-006  0.7401837E+02  0.7818608E-02  0.1391593E+00
          2   -1    0    0  502    0  0.00000000000E+00  0.00000000000E+00  0.19601868764E+04  0.19601868764E+04  0.00000000000E+00 0. -1.
          1   -1    0    0  501    0 -0.00000000000E+00 -0.00000000000E+00 -0.16703742802E+04  0.16703742802E+04  0.00000000000E+00 0. -1.
         25    2    1    2    0    0 -0.24806517919E+02 -0.78159125847E+01  0.16159867857E+03  0.20595141665E+03  0.12500160512E+03 0.  0.
          2    1    1    2  501    0 -0.39150799638E+02 -0.32869208891E+02 -0.16469925413E+04  0.16477856660E+04  0.00000000000E+00 0. -1.
          1    1    1    2  502    0  0.63957317557E+02  0.40685121476E+02  0.17752064590E+04  0.17768240739E+04  0.00000000000E+00 0. -1.
         22    1    3    3    0    0 -0.58328114494E+02 -0.40815578339E+02  0.13312778057E+03  0.15096716972E+03  0.00000000000E+00 0. -1.
         22    1    3    3    0    0  0.33521596575E+02  0.32999665754E+02  0.28470898004E+02  0.54984246925E+02  0.00000000000E+00 0. -1.
</event>
<event>
 7    1  0.5452757E-006  0.1407630E+03  0.7818608E-02  0.1247791E+00
          2   -1    0    0  502    0  0.00000000000E+00  0.00000000000E+00  0.47786935678E+03  0.47786935678E+03  0.00000000000E+00 0. -1.
          1   -1    0    0  501    0 -0.00000000000E+00 -0.00000000000E+00 -0.14962107190E+04  0.14962107190E+04  0.00000000000E+00 0. -1.
         25    2    1    2    0    0 -0.22774352646E+02 -0.53577686685E+02 -0.12254683644E+03  0.18447590075E+03  0.12499756472E+03 0.  0.
          2    1    1    2  501    0  0.21300554345E+02  0.15114570058E+03 -0.13329649760E+04  0.13416759533E+04  0.00000000000E+00 0. -1.
          1    1    1    2  502    0  0.14737983015E+01 -0.97568013890E+02  0.43717045015E+03  0.44792822182E+03  0.00000000000E+00 0. -1.
         22    1    3    3    0    0  0.27563142305E+02 -0.73115826995E+02 -0.45591648957E+02  0.90466841580E+02  0.00000000000E+00 0.  1.
         22    1    3    3    0    0 -0.50337494952E+02  0.19538140310E+02 -0.76955187486E+02  0.94009059169E+02  0.00000000000E+00 0.  1.
</event>
<event>
 7    1  0.5452757E-006  0.1391669E+03  0.7818608E-02  0.1338607E+00
          2   -1    0    0  502    0  0.00000000000E+00  0.00000000000E+00  0.75971246869E+03  0.75971246869E+03  0.00000000000E+00 0. -1.
          1   -1    0    0  501    0 -0.00000000000E+00 -0.00000000000E+00 -0.53327878538E+03  0.53327878538E+03  0.00000000000E+00 0. -1.
         25    2    1    2    0    0  0.16394411159E+03 -0.12007249758E+02 -0.25666327265E+03  0.32942716787E+03  0.12499751050E+03 0.  0.
          2    1    1    2  501    0 -0.26815430896E+02  0.32715957000E+02 -0.23165321216E+03  0.23548378263E+03  0.00000000000E+00 0. -1.
          1    1    1    2  502    0 -0.13712868069E+03 -0.20708707242E+02  0.71475016812E+03  0.72808030358E+03  0.00000000000E+00 0. -1.
         22    1    3    3    0    0  0.10231192236E+03 -0.63767285633E+02 -0.11563519358E+03  0.16704937644E+03  0.00000000000E+00 0. -1.
         22    1    3    3    0    0  0.61632189226E+02  0.51760035876E+02 -0.14102807907E+03  0.16237779143E+03  0.00000000000E+00 0. -1.
</event>
<event>
 7    1  0.5452757E-006  0.9464884E+02  0.7818608E-02  0.1446785E+00
          2   -1    0    0  502    0  0.00000000000E+00  0.00000000000E+00  0.73495898549E+03  0.73495898549E+03  0.00000000000E+00 0. -1.
          1   -1    0    0  501    0 -0.00000000000E+00 -0.00000000000E+00 -0.70630900170E+02  0.70630900170E+02  0.00000000000E+00 0. -1.
         25    2    1    2    0    0  0.17490034581E+00 -0.98440034773E+02  0.21903555723E+03  0.27072744215E+03  0.12500520615E+03 0.  0.
          2    1    1    2  501    0 -0.25236613052E+02  0.91036064001E+02  0.58571421899E+01  0.94650714217E+02  0.00000000000E+00 0. -1.
          1    1    1    2  502    0  0.25061712706E+02  0.74039707716E+01  0.43943538589E+03  0.44021172929E+03  0.00000000000E+00 0. -1.
         22    1    3    3    0    0  0.50908559312E+02 -0.73387906128E+02  0.18303229500E+03  0.20366218890E+03  0.00000000000E+00 0.  1.
         22    1    3    3    0    0 -0.50733658966E+02 -0.25052128645E+02  0.36003262237E+02  0.67065253249E+02  0.00000000000E+00 0.  1.
</event>
<event>
 7    1  0.5452757E-006  0.5606595E+02  0.7818608E-02  0.1505441E+00
          2   -1    0    0  502    0  0.00000000000E+00  0.00000000000E+00  0.60443164469E+03  0.60443164469E+03  0.00000000000E+00 0. -1.
          1   -1    0    0  501    0 -0.00000000000E+00 -0.00000000000E+00 -0.14113134117E+04  0.14113134117E+04  0.00000000000E+00 0. -1.
         25    2    1    2    0    0  0.94880553425E+01  0.73136343030E+02  0.21895900046E+02  0.14677662895E+03  0.12500000200E+03 0.  0.
          2    1    1    2  501    0  0.16610104750E+02 -0.23870719114E+02 -0.13472216189E+04  0.13475354531E+04  0.00000000000E+00 0. -1.
          1    1    1    2  502    0 -0.26098160093E+02 -0.49265623916E+02  0.51844395181E+03  0.52143297443E+03  0.00000000000E+00 0. -1.
         22    1    3    3    0    0  0.75663612787E+01 -0.32039657301E+02 -0.13793303535E+02  0.35693762556E+02  0.00000000000E+00 0.  1.
         22    1    3    3    0    0  0.19216940638E+01  0.10517600033E+03  0.35689203580E+02  0.11108286639E+03  0.00000000000E+00 0.  1.
</event>
<event>
 7    1  0.5452757E-006  0.1232421E+03  0.7818608E-02  0.1247728E+00
          2   -1    0    0  502    0  0.00000000000E+00  0.00000000000E+00  0.20863567389E+04  0.20863567389E+04  0.00000000000E+00 0. -1.
          1   -1    0    0  501    0 -0.00000000000E+00 -0.00000000000E+00 -0.42676098481E+03  0.42676098481E+03  0.00000000000E+00 0. -1.
         25    2    1    2    0    0 -0.12764961533E+00  0.51800471949E+01  0.23933538178E+02  0.12736934184E+03  0.12499314304E+03 0.  0.
          2    1    1    2  501    0  0.90864638907E+02 -0.88579186509E+02 -0.36235594001E+03  0.38393291360E+03  0.00000000000E+00 0. -1.
          1    1    1    2  502    0 -0.90736989292E+02  0.83399139314E+02  0.19980181559E+04  0.20018154682E+04  0.00000000000E+00 0. -1.
         22    1    3    3    0    0  0.28638530748E+02 -0.38484014465E+02  0.49702544042E+02  0.69076245533E+02  0.00000000000E+00 0. -1.
         22    1    3    3    0    0 -0.28766180363E+02  0.43664061660E+02 -0.25769005864E+02  0.58293096302E+02  0.00000000000E+00 0. -1.
</event>
<event>
 7    1  0.5452757E-006  0.9042136E+02  0.7818608E-02  0.1367261E+00
          2   -1    0    0  502    0  0.00000000000E+00  0.00000000000E+00  0.18414649708E+04  0.18414649708E+04  0.00000000000E+00 0. -1.
          1   -1    0    0  501    0 -0.00000000000E+00 -0.00000000000E+00 -0.65605657320E+03  0.65605657320E+03  0.00000000000E+00 0. -1.
         25    2    1    2    0    0 -0.42749079299E+02 -0.25132330098E+02  0.45510434628E+02  0.14197578470E+03  0.12500722373E+03 0.  0.
          2    1    1    2  501    0  0.53380933575E+02  0.75052826929E+02 -0.60395950627E+03  0.61094151611E+03  0.00000000000E+00 0. -1.
          1    1    1    2  502    0 -0.10631854276E+02 -0.49920496831E+02  0.17438574693E+04  0.17446042432E+04  0.00000000000E+00 0. -1.
         22    1    3    3    0    0 -0.96796862073E+01 -0.66676405890E+02  0.56288218190E+02  0.87794093961E+02  0.00000000000E+00 0. -1.
         22    1    3    3    0    0 -0.33069393092E+02  0.41544075791E+02 -0.10777783562E+02  0.54181690739E+02  0.00000000000E+00 0. -1.
</event>
<event>
 7    1  0.5452757E-006  0.8302660E+02  0.7818608E-02  0.1357782E+00
          2   -1    0    0  502    0  0.00000000000E+00  0.00000000000E+00  0.13109109053E+04  0.13109109053E+04  0.00000000000E+00 0. -1.
          1   -1    0    0  501    0 -0.00000000000E+00 -0.00000000000E+00 -0.31131953569E+03  0.31131953569E+03  0.00000000000E+00 0. -1.
         25    2    1    2    0    0 -0.16448347235E+02 -0.11774918141E+03  0.93708225005E+01  0.17276883807E+03  0.12500336493E+03 0.  0.
          2    1    1    2  501    0  0.47197099257E+02  0.66021722959E+02 -0.22167958635E+03  0.23606836527E+03  0.00000000000E+00 0. -1.
          1    1    1    2  502    0 -0.30748752022E+02  0.51727458452E+02  0.12119001335E+04  0.12133932377E+04  0.00000000000E+00 0. -1.
         22    1    3    3    0    0 -0.39846437985E+02 -0.11155810252E+03  0.47481404412E+02  0.12762222621E+03  0.00000000000E+00 0. -1.
         22    1    3    3    0    0  0.23398090750E+02 -0.61910788859E+01 -0.38110581911E+02  0.45146611857E+02  0.00000000000E+00 0. -1.
</event>
<event>
 7    1  0.5452757E-006  0.3602615E+02  0.7818608E-02  0.1546623E+00
          2   -1    0    0  502    0  0.00000000000E+00  0.00000000000E+00  0.12274078953E+04  0.12274078953E+04  0.00000000000E+00 0. -1.
          1   -1    0    0  501    0 -0.00000000000E+00 -0.00000000000E+00 -0.24824180411E+03  0.24824180411E+03  0.00000000000E+00 0. -1.
         25    2    1    2    0    0  0.10926191038E+02  0.83140597383E+01  0.16248703911E+01  0.12576186653E+03  0.12499960652E+03 0.  0.
          2    1    1    2  501    0 -0.31443845431E+02  0.19345912257E+02 -0.18408533723E+03  0.18775087515E+03  0.00000000000E+00 0. -1.
          1    1    1    2  502    0  0.20517654393E+02 -0.27659971995E+02  0.11616265580E+04  0.11621369577E+04  0.00000000000E+00 0. -1.
         22    1    3    3    0    0 -0.41105654962E+02 -0.17233468017E+02 -0.35452856246E+02  0.56952368745E+02  0.00000000000E+00 0. -1.
         22    1    3    3    0    0  0.52031845999E+02  0.25547527755E+02  0.37077726637E+02  0.68809497783E+02  0.00000000000E+00 0. -1.
</event>
<event>
 7    1  0.5452757E-006  0.8282955E+02  0.7818608E-02  0.1327982E+00
          2   -1    0    0  502    0  0.00000000000E+00  0.00000000000E+00  0.22408700151E+04  0.22408700151E+04  0.00000000000E+00 0. -1.
          1   -1    0    0  501    0 -0.00000000000E+00 -0.00000000000E+00 -0.56689910641E+02  0.56689910641E+02  0.00000000000E+00 0. -1.
         25    2    1    2    0    0  0.22118117479E+02  0.30769267672E+02  0.62696818244E+03  0.64042932473E+03  0.12499863691E+03 0.  0.
          2    1    1    2  501    0 -0.85593342649E+02  0.14560385852E+02 -0.10521401896E+02  0.87458133069E+02  0.00000000000E+00 0. -1.
          1    1    1    2  502    0  0.63475225170E+02 -0.45329653523E+02  0.15677333239E+04  0.15696724679E+04  0.00000000000E+00 0. -1.
         22    1    3    3    0    0  0.73800121536E+02  0.19336865744E+02  0.32305197028E+03  0.33193816866E+03  0.00000000000E+00 0.  1.
         22    1    3    3    0    0 -0.51682004056E+02  0.11432401928E+02  0.30391621217E+03  0.30849115607E+03  0.00000000000E+00 0.  1.
</event>
<event>
 7    1  0.5452757E-006  0.8132266E+02  0.7818608E-02  0.1369688E+00
          2   -1    0    0  502    0  0.00000000000E+00  0.00000000000E+00  0.26724270099E+03  0.26724270099E+03  0.00000000000E+00 0. -1.
          1   -1    0    0  501    0 -0.00000000000E+00 -0.00000000000E+00 -0.15051534293E+04  0.15051534293E+04  0.00000000000E+00 0. -1.
         25    2    1    2    0    0  0.12444883047E+03 -0.41489292166E+02 -0.39955915881E+03  0.43872666108E+03  0.12499875593E+03 0.  0.
          2    1    1    2  501    0 -0.55617308387E+02 -0.42917712969E+00 -0.10787187106E+04  0.10801516217E+04  0.00000000000E+00 0. -1.
          1    1    1    2  502    0 -0.68831522079E+02  0.41918469295E+02  0.24036714111E+03  0.25351784754E+03  0.00000000000E+00 0. -1.
         22    1    3    3    0    0  0.13303234376E+03 -0.69903408333E+02 -0.31272866877E+03  0.34696298254E+03  0.00000000000E+00 0.  1.
         22    1    3    3    0    0 -0.85835132952E+01  0.28414116167E+02 -0.86830490041E+02  0.91763678538E+02  0.00000000000E+00 0.  1.
</event>
<event>
 7    1  0.5452757E-006  0.7407387E+02  0.7818608E-02  0.1390335E+00
          2   -1    0    0  502    0  0.00000000000E+00  0.00000000000E+00  0.65926165824E+03  0.65926165824E+03  0.00000000000E+00 0. -1.
          1   -1    0    0  501    0 -0.00000000000E+00 -0.00000000000E+00 -0.14248686819E+04  0.14248686819E+04  0.00000000000E+00 0. -1.
         25    2    1    2    0    0  0.26305688204E+01  0.96042514480E+02 -0.15744670795E+03  0.22280557706E+03  0.12498709872E+03 0.  0.
          2    1    1    2  501    0 -0.40903653323E+02 -0.61435755270E+02 -0.12325744649E+04  0.12347822774E+04  0.00000000000E+00 0. -1.
          1    1    1    2  502    0  0.38273084502E+02 -0.34606759210E+02  0.62441414917E+03  0.62654248577E+03  0.00000000000E+00 0. -1.
         22    1    3    3    0    0 -0.34917490109E+02  0.81341145363E+02 -0.15951412959E+03  0.18242908371E+03  0.00000000000E+00 0.  1.
         22    1    3    3    0    0  0.37548058930E+02  0.14701369117E+02  0.20674216396E+01  0.40376493354E+02  0.00000000000E+00 0.  1.
</event>
<event>
 7    1  0.5452757E-006  0.4320087E+02  0.7818608E-02  0.1503728E+00
          2   -1    0    0  502    0  0.00000000000E+00  0.00000000000E+00  0.44464216080E+03  0.44464216080E+03  0.00000000000E+00 0. -1.
          1   -1    0    0  501    0 -0.00000000000E+00 -0.00000000000E+00 -0.85406250577E+02  0.85406250577E+02  0.00000000000E+00 0. -1.
         25    2    1    2    0    0 -0.35256214904E+02  0.27472833152E+02  0.31008198324E+03  0.33730161411E+03  0.12499514112E+03 0.  0.
          2    1    1    2  501    0  0.60412313797E+00 -0.43515406918E+02 -0.61697972061E+02  0.75502287120E+02  0.00000000000E+00 0. -1.
          1    1    1    2  502    0  0.34652091766E+02  0.16042573766E+02  0.11085189905E+03  0.11724451015E+03  0.00000000000E+00 0. -1.
         22    1    3    3    0    0 -0.38643790442E+02  0.97520658596E+01  0.31585441838E+03  0.31835900952E+03  0.00000000000E+00 0. -1.
         22    1    3    3    0    0  0.33875755388E+01  0.17720767292E+02 -0.57724351435E+01  0.18942604598E+02  0.00000000000E+00 0. -1.
</event>
<event>
 7    1  0.5452757E-006  0.1852398E+03  0.7818608E-02  0.1295027E+00
          2   -1    0    0  502    0  0.00000000000E+00  0.00000000000E+00  0.66480641391E+03  0.66480641391E+03  0.00000000000E+00 0. -1.
          1   -1    0    0  501    0 -0.00000000000E+00 -0.00000000000E+00 -0.41598245089E+03  0.41598245089E+03  0.00000000000E+00 0. -1.
         25    2    1    2    0    0  0.16858247616E+03  0.76888042309E+02  0.97435649020E+02  0.24384414627E+03  0.12503775291E+03 0.  0.
          2    1    1    2  501    0 -0.18319091601E+03 -0.32212775703E+02 -0.31628066494E+03  0.36691965556E+03  0.00000000000E+00 0. -1.
          1    1    1    2  502    0  0.14608439849E+02 -0.44675266607E+02  0.46766897893E+03  0.47002506297E+03  0.00000000000E+00 0. -1.
         22    1    3    3    0    0  0.21683061696E+02  0.56225349132E+02 -0.94566988817E+01  0.60998968871E+02  0.00000000000E+00 0.  1.
         22    1    3    3    0    0  0.14689941446E+03  0.20662693177E+02  0.10689234790E+03  0.18284517740E+03  0.00000000000E+00 0.  1.
</event>
<event>
 7    1  0.5452757E-006  0.6597923E+02  0.7818608E-02  0.1398984E+00
          2   -1    0    0  502    0  0.00000000000E+00  0.00000000000E+00  0.28415408954E+03  0.28415408954E+03  0.00000000000E+00 0. -1.
          1   -1    0    0  501    0 -0.00000000000E+00 -0.00000000000E+00 -0.22463288589E+03  0.22463288589E+03  0.00000000000E+00 0. -1.
         25    2    1    2    0    0  0.14919985887E+02  0.29688239724E+02  0.52137232325E+01  0.12943311055E+03  0.12498699788E+03 0.  0.
          2    1    1    2  501    0 -0.68124503712E+02 -0.20075675341E+02 -0.15109543827E+03  0.16695452139E+03  0.00000000000E+00 0. -1.
          1    1    1    2  502    0  0.53204517825E+02 -0.96125643828E+01  0.20540291869E+03  0.21239934349E+03  0.00000000000E+00 0. -1.
         22    1    3    3    0    0  0.56210603791E+02  0.19614840904E+02 -0.36539581823E+02  0.69853525338E+02  0.00000000000E+00 0. -1.
         22    1    3    3    0    0 -0.41290617905E+02  0.10073398820E+02  0.41753305056E+02  0.59579585210E+02  0.00000000000E+00 0. -1.
</event>
<event>
 7    1  0.5452757E-006  0.5993260E+02  0.7818608E-02  0.1507510E+00
          2   -1    0    0  502    0  0.00000000000E+00  0.00000000000E+00  0.75712293247E+03  0.75712293247E+03  0.00000000000E+00 0. -1.
          1   -1    0    0  501    0 -0.00000000000E+00 -0.00000000000E+00 -0.22727214636E+02  0.22727214636E+02  0.00000000000E+00 0. -1.
         25    2    1    2    0    0  0.11808731945E+02 -0.59585132027E+02  0.61985141966E+03  0.63524055150E+03  0.12499976684E+03 0.  0.
          2    1    1    2  501    0  0.14998058743E+02  0.58619558280E+02  0.69179111756E+02  0.91907256962E+02  0.00000000000E+00 0. -1.
          1    1    1    2  502    0 -0.26806790688E+02  0.96557374755E+00  0.45365186427E+02  0.52702338650E+02  0.00000000000E+00 0. -1.
         22    1    3    3    0    0  0.16373782488E+02 -0.13822735168E+02  0.55672993095E+03  0.55714215850E+03  0.00000000000E+00 0.  1.
         22    1    3    3    0    0 -0.45650505437E+01 -0.45762396859E+02  0.63121488703E+02  0.78098392997E+02  0.00000000000E+00 0.  1.
</event>
<event>
 7    1  0.5452757E-006  0.9020981E+02  0.7818608E-02  0.1403772E+00
          2   -1    0    0  502    0  0.00000000000E+00  0.00000000000E+00  0.14270146975E+03  0.14270146975E+03  0.00000000000E+00 0. -1.
          1   -1    0    0  501    0 -0.00000000000E+00 -0.00000000000E+00 -0.14686052090E+04  0.14686052090E+04  0.00000000000E+00 0. -1.
         25    2    1    2    0    0 -0.56477554130E+02 -0.63002694049E+01 -0.31719050648E+03  0.34563593747E+03  0.12499990542E+03 0.  0.
          2    1    1    2  501    0  0.94020108571E+02  0.12648880405E+02 -0.11323432585E+04  0.11363102701E+04  0.00000000000E+00 0. -1.
          1    1    1    2  502    0 -0.37542554441E+02 -0.63486109999E+01  0.12363002568E+03  0.12936047118E+03  0.00000000000E+00 0. -1.
         22    1    3    3    0    0  0.20630582727E+02  0.38585774311E+02 -0.14839173190E+03  0.15470807677E+03  0.00000000000E+00 0. -1.
         22    1    3    3    0    0 -0.77108136857E+02 -0.44886043716E+02 -0.16879877459E+03  0.19092786070E+03  0.00000000000E+00 0. -1.
</event>
<event>
 7    1  0.5452757E-006  0.1499385E+03  0.7818608E-02  0.1245314E+00
          2   -1    0    0  502    0  0.00000000000E+00  0.00000000000E+00  0.85438617530E+03  0.85438617530E+03  0.00000000000E+00 0. -1.
          1   -1    0    0  501    0 -0.00000000000E+00 -0.00000000000E+00 -0.40744778462E+03  0.40744778462E+03  0.00000000000E+00 0. -1.
         25    2    1    2    0    0  0.18594932163E+03 -0.39214353025E+02  0.38694822259E+02  0.23074590158E+03  0.12502586184E+03 0.  0.
          2    1    1    2  501    0 -0.73807425688E+02 -0.58074441086E+02 -0.29642666124E+03  0.31094845600E+03  0.00000000000E+00 0. -1.
          1    1    1    2  502    0 -0.11214189594E+03  0.97288794111E+02  0.70467022967E+03  0.72013960234E+03  0.00000000000E+00 0. -1.
         22    1    3    3    0    0 -0.14501943401E+02 -0.73879347499E+01  0.21627719601E+02  0.27067437954E+02  0.00000000000E+00 0. -1.
         22    1    3    3    0    0  0.20045126503E+03 -0.31826418275E+02  0.17067102658E+02  0.20367846362E+03  0.00000000000E+00 0. -1.
</event>
<event>
 7    1  0.5452757E-006  0.1030504E+03  0.7818608E-02  0.1279651E+00
          2   -1    0    0  502    0  0.00000000000E+00  0.00000000000E+00  0.72783644092E+03  0.72783644092E+03  0.00000000000E+00 0. -1.
          1   -1    0    0  501    0 -0.00000000000E+00 -0.00000000000E+00 -0.12182744643E+04  0.12182744643E+04  0.00000000000E+00 0. -1.
         25    2    1    2    0    0  0.10510878011E+03  0.14647996601E+03  0.20772630646E+02  0.22036404899E+03  0.12499830322E+03 0.  0.
          2    1    1    2  501    0 -0.88615973574E+02 -0.50245871025E+02 -0.11122113629E+04  0.11168668470E+04  0.00000000000E+00 0. -1.
          1    1    1    2  502    0 -0.16492806537E+02 -0.96234094981E+02  0.60100070878E+03  0.60888000924E+03  0.00000000000E+00 0. -1.
         22    1    3    3    0    0  0.12186395397E+03  0.15742943373E+03  0.22080166529E+02  0.20030572542E+03  0.00000000000E+00 0. -1.
         22    1    3    3    0    0 -0.16755173863E+02 -0.10949467721E+02 -0.13075358827E+01  0.20058323575E+02  0.00000000000E+00 0. -1.
</event>
<event>
 7    1  0.5452757E-006  0.8413305E+02  0.7818608E-02  0.1363314E+00
          2   -1    0    0  502    0  0.00000000000E+00  0.00000000000E+00  0.38428763668E+03  0.38428763668E+03  0.00000000000E+00 0. -1.
          1   -1    0    0  501    0 -0.00000000000E+00 -0.00000000000E+00 -0.13823331558E+04  0.13823331558E+04  0.00000000000E+00 0. -1.
         25    2    1    2    0    0  0.40381322480E+02  0.33928490613E+02 -0.57176837320E+02  0.14723050540E+03  0.12500334921E+03 0.  0.
          2    1    1    2  501    0 -0.14379990864E+02 -0.84303777940E+02 -0.12763202488E+04  0.12791822734E+04  0.00000000000E+00 0. -1.
          1    1    1    2  502    0 -0.26001331616E+02  0.50375287328E+02  0.33545156696E+03  0.34020801372E+03  0.00000000000E+00 0. -1.
         22    1    3    3    0    0 -0.32530631615E+02  0.28682628957E+02 -0.60049731723E+02  0.74073649007E+02  0.00000000000E+00 0.  1.
         22    1    3    3    0    0  0.72911954095E+02  0.52458616560E+01  0.28728944033E+01  0.73156856389E+02  0.00000000000E+00 0.  1.
</event>
<event>
 7    1  0.5452757E-006  0.5237096E+02  0.7818608E-02  0.1475101E+00
          2   -1    0    0  502    0  0.00000000000E+00  0.00000000000E+00  0.11916437140E+04  0.11916437140E+04  0.00000000000E+00 0. -1.
          1   -1    0    0  501    0 -0.00000000000E+00 -0.00000000000E+00 -0.49263581689E+02  0.49263581689E+02  0.00000000000E+00 0. -1.
         25    2    1    2    0    0 -0.51938129862E+02 -0.69467572252E+02  0.77451881722E+03  0.78932102791E+03  0.12499989577E+03 0.  0.
          2    1    1    2  501    0  0.20351844230E+02  0.47528255313E+02 -0.24592126553E+02  0.57252993852E+02  0.00000000000E+00 0. -1.
          1    1    1    2  502    0  0.31586285632E+02  0.21939316939E+02  0.39245344164E+03  0.39433327392E+03  0.00000000000E+00 0. -1.
         22    1    3    3    0    0 -0.85170028997E+02 -0.74036579214E+02  0.67320939465E+03  0.68260254757E+03  0.00000000000E+00 0.  1.
         22    1    3    3    0    0  0.33231899135E+02  0.45690069616E+01  0.10130942257E+03  0.10671848034E+03  0.00000000000E+00 0.  1.
</event>
<event>
 7    1  0.5452757E-006  0.1420604E+03  0.7818608E-02  0.1239636E+00
          2   -1    0    0  502    0  0.00000000000E+00  0.00000000000E+00  0.12939676945E+03  0.12939676945E+03  0.00000000000E+00 0. -1.
          1   -1    0    0  501    0 -0.00000000000E+00 -0.00000000000E+00 -0.12119019611E+04  0.12119019611E+04  0.00000000000E+00 0. -1.
         25    2    1    2    0    0 -0.79917277606E+02  0.11727357925E+02 -0.30949290111E+03  0.34340722678E+03  0.12497345871E+03 0.  0.
          2    1    1    2  501    0 -0.25972449688E+02  0.10171936037E+03 -0.82695880437E+03  0.83359598160E+03  0.00000000000E+00 0. -1.
          1    1    1    2  502    0  0.10588972729E+03 -0.11344671830E+03  0.53946513852E+02  0.16429552214E+03  0.00000000000E+00 0. -1.
         22    1    3    3    0    0 -0.86700540402E+02  0.90603614930E+01 -0.95549823787E+02  0.12934002738E+03  0.00000000000E+00 0. -1.
         22    1    3    3    0    0  0.67832627956E+01  0.26669964322E+01 -0.21394307732E+03  0.21406719940E+03  0.00000000000E+00 0. -1.
</event>
<event>
 7    1  0.5452757E-006  0.8405865E+02  0.7818608E-02  0.1445687E+00
          2   -1    0    0  502    0  0.00000000000E+00  0.00000000000E+00  0.96782611475E+03  0.96782611475E+03  0.00000000000E+00 0. -1.
          1   -1    0    0  501    0 -0.00000000000E+00 -0.00000000000E+00 -0.60349973587E+02  0.60349973587E+02  0.00000000000E+00 0. -1.
         25    2    1    2    0    0  0.47025402939E+02 -0.47108759624E+02  0.34824480260E+03  0.37594762517E+03  0.12502619957E+03 0.  0.
          2    1    1    2  501    0 -0.76022473087E+02  0.40848847306E+02 -0.57269617894E+01  0.86491865697E+02  0.00000000000E+00 0. -1.
          1    1    1    2  502    0  0.28997070148E+02  0.62599123188E+01  0.56495830035E+03  0.56573659747E+03  0.00000000000E+00 0. -1.
         22    1    3    3    0    0  0.80852109190E+01 -0.71886186349E+02  0.30225665019E+03  0.31079265919E+03  0.00000000000E+00 0. -1.
         22    1    3    3    0    0  0.38940192020E+02  0.24777426725E+02  0.45988152414E+02  0.65154965982E+02  0.00000000000E+00 0. -1.
</event>
<event>
 7    1  0.5452757E-006  0.9484094E+02  0.7818608E-02  0.1420262E+00
          2   -1    0    0  502    0  0.00000000000E+00  0.00000000000E+00  0.75321617800E+03  0.75321617800E+03  0.00000000000E+00 0. -1.
          1   -1    0    0  501    0 -0.00000000000E+00 -0.00000000000E+00 -0.26165249313E+03  0.26165249313E+03  0.00000000000E+00 0. -1.
         25    2    1    2    0    0 -0.10497062186E+03  0.59295447908E+02  0.41384339328E+03  0.44880586977E+03  0.12500229192E+03 0.  0.
          2    1    1    2  501    0  0.88790167651E+02 -0.31855280378E+02 -0.23421884782E+03  0.25250132957E+03  0.00000000000E+00 0. -1.
          1    1    1    2  502    0  0.16180454206E+02 -0.27440167530E+02  0.31193913941E+03  0.31356147179E+03  0.00000000000E+00 0. -1.
         22    1    3    3    0    0 -0.48265756344E+01  0.11408241841E+02  0.25341732797E+03  0.25371989660E+03  0.00000000000E+00 0.  1.
         22    1    3    3    0    0 -0.10014404622E+03  0.47887206067E+02  0.16042606531E+03  0.19508597317E+03  0.00000000000E+00 0.  1.
</event>
<event>
 7    1  0.5452757E-006  0.4806737E+02  0.7818608E-02  0.1493270E+00
          2   -1    0    0  502    0  0.00000000000E+00  0.00000000000E+00  0.30260805280E+03  0.30260805280E+03  0.00000000000E+00 0. -1.
          1   -1    0    0  501    0 -0.00000000000E+00 -0.00000000000E+00 -0.68000115501E+03  0.68000115501E+03  0.00000000000E+00 0. -1.
         25    2    1    2    0    0  0.42031204450E+02  0.41253952304E+01  0.58161938856E+02  0.14419659139E+03  0.12500481912E+03 0.  0.
          2    1    1    2  501    0 -0.28934420393E+02 -0.38603670610E+02 -0.63437193008E+03  0.63620373288E+03  0.00000000000E+00 0. -1.
          1    1    1    2  502    0 -0.13096784058E+02  0.34478275380E+02  0.19881688901E+03  0.20220888354E+03  0.00000000000E+00 0. -1.
         22    1    3    3    0    0  0.71024383362E+01 -0.33230304776E+02  0.81261418736E+02  0.88080167807E+02  0.00000000000E+00 0. -1.
         22    1    3    3    0    0  0.34928766114E+02  0.37355700006E+02 -0.23099479880E+02  0.56116423585E+02  0.00000000000E+00 0. -1.
</event>
<event>
 7    1  0.5452757E-006  0.1154794E+03  0.7818608E-02  0.1268785E+00
          2   -1    0    0  502    0  0.00000000000E+00  0.00000000000E+00  0.67243482393E+03  0.67243482393E+03  0.00000000000E+00 0. -1.
          1   -1    0    0  501    0 -0.00000000000E+00 -0.00000000000E+00 -0.84954316290E+03  0.84954316290E+03  0.00000000000E+00 0. -1.
         25    2    1    2    0    0 -0.34134172760E+02  0.49260532161E+02  0.35091055657E+02  0.14299105711E+03  0.12499327361E+03 0.  0.
          2    1    1    2  501    0 -0.89940996319E+02 -0.35553509536E+02 -0.78591738156E+03  0.79184567025E+03  0.00000000000E+00 0. -1.
          1    1    1    2  502    0  0.12407516908E+03 -0.13707022625E+02  0.57371798693E+03  0.58714125947E+03  0.00000000000E+00 0. -1.
         22    1    3    3    0    0 -0.38257410171E+02 -0.26556043139E+02 -0.18440592266E+02  0.50089003816E+02  0.00000000000E+00 0. -1.
         22    1    3    3    0    0  0.41232374106E+01  0.75816575300E+02  0.53531647923E+02  0.92902053294E+02  0.00000000000E+00 0. -1.
</event>
<event>
 7    1  0.5452757E-006  0.6160847E+02  0.7818608E-02  0.1401509E+00
          2   -1    0    0  502    0  0.00000000000E+00  0.00000000000E+00  0.32214057670E+03  0.32214057670E+03  0.00000000000E+00 0. -1.
          1   -1    0    0  501    0 -0.00000000000E+00 -0.00000000000E+00 -0.11636359303E+04  0.11636359303E+04  0.00000000000E+00 0. -1.
         25    2    1    2    0    0 -0.57800259530E+02  0.79214163326E+02  0.68102457323E+02  0.17285288978E+03  0.12499769254E+03 0.  0.
          2    1    1    2  501    0  0.53201711084E+02 -0.19768405050E+02 -0.11061101470E+04  0.11075652889E+04  0.00000000000E+00 0. -1.
          1    1    1    2  502    0  0.45985484458E+01 -0.59445758276E+02  0.19651233602E+03  0.20535832837E+03  0.00000000000E+00 0. -1.
         22    1    3    3    0    0  0.55017188066E+01  0.37165432259E+02  0.86808165070E+02  0.94589617759E+02  0.00000000000E+00 0. -1.
         22    1    3    3    0    0 -0.63301978337E+02  0.42048731067E+02 -0.18705707747E+02  0.78263272024E+02  0.00000000000E+00 0. -1.
</event>
<event>
 7    1  0.5452757E-006  0.6555504E+02  0.7818608E-02  0.1471504E+00
          2   -1    0    0  502    0  0.00000000000E+00  0.00000000000E+00  0.16779533069E+04  0.16779533069E+04  0.00000000000E+00 0. -1.
          1   -1    0    0  501    0 -0.00000000000E+00 -0.00000000000E+00 -0.28664217228E+02  0.28664217228E+02  0.00000000000E+00 0. -1.
         25    2    1    2    0    0  0.40904476370E+01  0.65524344093E+02  0.13159098826E+04  0.13234632811E+04  0.12500426371E+03 0.  0.
          2    1    1    2  501    0  0.30928072905E+02 -0.60882491705E+01 -0.98783804077E+01  0.33033238882E+02  0.00000000000E+00 0. -1.
          1    1    1    2  502    0 -0.35018520542E+02 -0.59436094923E+02  0.34325758747E+03  0.35012100411E+03  0.00000000000E+00 0. -1.
         22    1    3    3    0    0 -0.17877695411E+02 -0.31586061553E+01  0.26989177073E+02  0.32526980572E+02  0.00000000000E+00 0.  1.
         22    1    3    3    0    0  0.21968143048E+02  0.68682950249E+02  0.12889207055E+04  0.12909363006E+04  0.00000000000E+00 0.  1.
</event>
<event>
 7    1  0.5452757E-006  0.7464655E+02  0.7818608E-02  0.1439838E+00
          2   -1    0    0  502    0  0.00000000000E+00  0.00000000000E+00  0.43256805957E+03  0.43256805957E+03  0.00000000000E+00 0. -1.
          1   -1    0    0  501    0 -0.00000000000E+00 -0.00000000000E+00 -0.48629083497E+03  0.48629083497E+03  0.00000000000E+00 0. -1.
         25    2    1    2    0    0  0.26433602203E+02 -0.32761258871E+02  0.32619476107E+01  0.13194111728E+03  0.12500313083E+03 0.  0.
          2    1    1    2  501    0  0.16861838745E+02 -0.30547239151E+02 -0.41718544728E+03  0.41864203426E+03  0.00000000000E+00 0. -1.
          1    1    1    2  502    0 -0.43295440948E+02  0.63308498022E+02  0.36020072427E+03  0.36827574301E+03  0.00000000000E+00 0. -1.
         22    1    3    3    0    0 -0.17337257142E+02  0.18270809918E+02  0.45880127624E+02  0.52339173580E+02  0.00000000000E+00 0.  1.
         22    1    3    3    0    0  0.43770859345E+02 -0.51032068789E+02 -0.42618180013E+02  0.79601943697E+02  0.00000000000E+00 0.  1.
</event>
<event>
 7    1  0.5452757E-006  0.7222838E+02  0.7818608E-02  0.1448737E+00
          2   -1    0    0  502    0  0.00000000000E+00  0.00000000000E+00  0.53454129688E+03  0.53454129688E+03  0.00000000000E+00 0. -1.
          1   -1    0    0  501    0 -0.00000000000E+00 -0.00000000000E+00 -0.13432824368E+04  0.13432824368E+04  0.00000000000E+00 0. -1.
         25    2    1    2    0    0  0.26840153027E+02 -0.89102183261E+02 -0.24382125703E+03  0.28936958243E+03  0.12500542781E+03 0.  0.
          2    1    1    2  501    0  0.14853652388E+02  0.30309958074E+02 -0.10738828060E+04  0.10744131448E+04  0.00000000000E+00 0. -1.
          1    1    1    2  502    0 -0.41693805415E+02  0.58792225187E+02  0.50896292318E+03  0.51404100646E+03  0.00000000000E+00 0. -1.
         22    1    3    3    0    0  0.88928235431E+01  0.23219318057E+02 -0.57490560269E+01  0.25520005619E+02  0.00000000000E+00 0.  1.
         22    1    3    3    0    0  0.17947329484E+02 -0.11232150132E+03 -0.23807220100E+03  0.26384957681E+03  0.00000000000E+00 0.  1.
</event>
<event>
 7    1  0.5452757E-006  0.3869139E+02  0.7818608E-02  0.1544463E+00
          2   -1    0    0  502    0  0.00000000000E+00  0.00000000000E+00  0.12470269980E+04  0.12470269980E+04  0.00000000000E+00 0. -1.
          1   -1    0    0  501    0 -0.00000000000E+00 -0.00000000000E+00 -0.32924613611E+03  0.32924613611E+03  0.00000000000E+00 0. -1.
         25    2    1    2    0    0  0.38658362394E+02 -0.28751578350E+02  0.50064365653E+02  0.14304040962E+03  0.12503197925E+03 0.  0.
          2    1    1    2  501    0 -0.74838814943E+01  0.38000331687E+02 -0.28120074514E+03  0.28385540819E+03  0.00000000000E+00 0. -1.
          1    1    1    2  502    0 -0.31174480900E+02 -0.92487533368E+01  0.11489172414E+04  0.11493773163E+04  0.00000000000E+00 0. -1.
         22    1    3    3    0    0 -0.15474142734E+02  0.38389594543E+02 -0.34613156150E+01  0.41535415832E+02  0.00000000000E+00 0.  1.
         22    1    3    3    0    0  0.54132505129E+02 -0.67141172893E+02  0.53525681268E+02  0.10150499379E+03  0.00000000000E+00 0.  1.
</event>
<event>
 7    1  0.5452757E-006  0.1004009E+03  0.7818608E-02  0.1380372E+00
          2   -1    0    0  502    0  0.00000000000E+00  0.00000000000E+00  0.14101524695E+04  0.14101524695E+04  0.00000000000E+00 0. -1.
          1   -1    0    0  501    0 -0.00000000000E+00 -0.00000000000E+00 -0.30545948266E+02  0.30545948266E+02  0.00000000000E+00 0. -1.
         25    2    1    2    0    0 -0.58576571134E+02 -0.38686420593E+02  0.45075427970E+03  0.47300294087E+03  0.12499803030E+03 0.  0.
          2    1    1    2  501    0  0.96194044474E+02  0.55647816363E+02  0.14466067785E+03  0.18241898304E+03  0.00000000000E+00 0. -1.
          1    1    1    2  502    0 -0.37617473340E+02 -0.16961395771E+02  0.78419156365E+03  0.78527649382E+03  0.00000000000E+00 0. -1.
         22    1    3    3    0    0 -0.95780338548E+02 -0.15711251505E+02  0.26630233104E+03  0.28343896732E+03  0.00000000000E+00 0. -1.
         22    1    3    3    0    0  0.37203767414E+02 -0.22975169087E+02  0.18445194866E+03  0.18956397356E+03  0.00000000000E+00 0. -1.
</event>
<event>
 7    1  0.5452757E-006  0.4125842E+02  0.7818608E-02  0.1566008E+00
          2   -1    0    0  502    0  0.00000000000E+00  0.00000000000E+00  0.87543761961E+03  0.87543761961E+03  0.00000000000E+00 0. -1.
          1   -1    0    0  501    0 -0.00000000000E+00 -0.00000000000E+00 -0.80424037930E+03  0.80424037930E+03  0.00000000000E+00 0. -1.
         25    2    1    2    0    0  0.11178274587E+02 -0.17163679400E+02 -0.51621031085E+02  0.13678332994E+03  0.12500161113E+03 0.  0.
          2    1    1    2  501    0 -0.71074434498E+00  0.41594251462E+02 -0.70921648457E+03  0.71043550651E+03  0.00000000000E+00 0. -1.
          1    1    1    2  502    0 -0.10467530242E+02 -0.24430572062E+02  0.83203475597E+03  0.83245916247E+03  0.00000000000E+00 0. -1.
         22    1    3    3    0    0  0.43213297765E+02  0.26326386762E+02  0.13309982521E+02  0.52322302877E+02  0.00000000000E+00 0.  1.
         22    1    3    3    0    0 -0.32035023178E+02 -0.43490066162E+02 -0.64931013606E+02  0.84461027064E+02  0.00000000000E+00 0.  1.
</event>
<event>
 7    1  0.5452757E-006  0.7715148E+02  0.7818608E-02  0.1352288E+00
          2   -1    0    0  502    0  0.00000000000E+00  0.00000000000E+00  0.17839135848E+04  0.17839135848E+04  0.00000000000E+00 0. -1.
          1   -1    0    0  501    0 -0.00000000000E+00 -0.00000000000E+00 -0.28919661064E+03  0.28919661064E+03  0.00000000000E+00 0. -1.
         25    2    1    2    0    0  0.14924742667E+02 -0.22432981461E+02  0.15034032996E+03  0.19737171693E+03  0.12500957255E+03 0.  0.
          2    1    1    2  501    0 -0.79255886080E+02  0.89028757849E+00 -0.25903611429E+03  0.27089111576E+03  0.00000000000E+00 0. -1.
          1    1    1    2  502    0  0.64331143413E+02  0.21542693883E+02  0.16034127584E+04  0.16048473627E+04  0.00000000000E+00 0. -1.
         22    1    3    3    0    0  0.28503800432E+02 -0.12753482827E+01  0.16554853137E+03  0.16798931332E+03  0.00000000000E+00 0. -1.
         22    1    3    3    0    0 -0.13579057765E+02 -0.21157633178E+02 -0.15208201410E+02  0.29382403605E+02  0.00000000000E+00 0. -1.
</event>
<event>
 7    1  0.5452757E-006  0.4071588E+02  0.7818608E-02  0.1560195E+00
          2   -1    0    0  502    0  0.00000000000E+00  0.00000000000E+00  0.12838049859E+04  0.12838049859E+04  0.00000000000E+00 0. -1.
          1   -1    0    0  501    0 -0.00000000000E+00 -0.00000000000E+00 -0.28298186744E+03  0.28298186744E+03  0.00000000000E+00 0. -1.
         25    2    1    2    0    0 -0.26738017063E+02 -0.55528405632E+02 -0.11453824123E+03  0.18039810449E+03  0.12500456797E+03 0.  0.
          2    1    1    2  501    0  0.42468264662E+01  0.38952649460E+02 -0.13252160280E+03  0.13819305208E+03  0.00000000000E+00 0. -1.
          1    1    1    2  502    0  0.22491190597E+02  0.16575756172E+02  0.12478829625E+04  0.12481956967E+04  0.00000000000E+00 0. -1.
         22    1    3    3    0    0  0.45622657983E+02 -0.23287558389E+02 -0.15380778743E+02  0.53481825435E+02  0.00000000000E+00 0. -1.
         22    1    3    3    0    0 -0.72360675046E+02 -0.32240847243E+02 -0.99157462483E+02  0.12691627906E+03  0.00000000000E+00 0. -1.
</event>
<event>
 7    1  0.5452757E-006  0.7019380E+02  0.7818608E-02  0.1389344E+00
          2   -1    0    0  502    0  0.00000000000E+00  0.00000000000E+00  0.15908291536E+03  0.15908291536E+03  0.00000000000E+00 0. -1.
          1   -1    0    0  501    0 -0.00000000000E+00 -0.00000000000E+00 -0.12439641213E+04  0.12439641213E+04  0.00000000000E+00 0. -1.
         25    2    1    2    0    0  0.42098046969E+02  0.63544954694E+02 -0.49862902505E+03  0.51968182887E+03  0.12501236662E+03 0.  0.
          2    1    1    2  501    0  0.12257240829E+02 -0.71162924840E+02 -0.72789076911E+03  0.73146385665E+03  0.00000000000E+00 0. -1.
          1    1    1    2  502    0 -0.54355287798E+02  0.76179701458E+01  0.14163858826E+03  0.15190135110E+03  0.00000000000E+00 0. -1.
         22    1    3    3    0    0  0.32055384559E+02  0.10145109788E+03 -0.38731774922E+03  0.40166517375E+03  0.00000000000E+00 0. -1.
         22    1    3    3    0    0  0.10042662410E+02 -0.37906143181E+02 -0.11131127583E+03  0.11801665512E+03  0.00000000000E+00 0. -1.
</event>
<event>
 7    1  0.5452757E-006  0.6266233E+02  0.7818608E-02  0.1399223E+00
          2   -1    0    0  502    0  0.00000000000E+00  0.00000000000E+00  0.20831921675E+03  0.20831921675E+03  0.00000000000E+00 0. -1.
          1   -1    0    0  501    0 -0.00000000000E+00 -0.00000000000E+00 -0.18182373072E+03  0.18182373072E+03  0.00000000000E+00 0. -1.
         25    2    1    2    0    0  0.35768445984E+02 -0.69999195885E+02  0.11558578655E+03  0.18752332388E+03  0.12500261514E+03 0.  0.
          2    1    1    2  501    0 -0.55697842919E+02  0.11237238471E+02 -0.12038828409E+03  0.13312349222E+03  0.00000000000E+00 0. -1.
          1    1    1    2  502    0  0.19929396935E+02  0.58761957414E+02  0.31297983568E+02  0.69496131379E+02  0.00000000000E+00 0. -1.
         22    1    3    3    0    0  0.78862944414E+02 -0.47372035668E+02  0.46686162011E+02  0.10316526299E+03  0.00000000000E+00 0.  1.
         22    1    3    3    0    0 -0.43094498430E+02 -0.22627160217E+02  0.68899624538E+02  0.84358060883E+02  0.00000000000E+00 0.  1.
</event>
<event>
 7    1  0.5452757E-006  0.6575347E+02  0.7818608E-02  0.1377779E+00
          2   -1    0    0  502    0  0.00000000000E+00  0.00000000000E+00  0.37352601884E+03  0.37352601884E+03  0.00000000000E+00 0. -1.
          1   -1    0    0  501    0 -0.00000000000E+00 -0.00000000000E+00 -0.98316420218E+03  0.98316420218E+03  0.00000000000E+00 0. -1.
         25    2    1    2    0    0  0.32808735224E+02  0.10572269929E+02 -0.13915362517E+03  0.19020226576E+03  0.12499993801E+03 0.  0.
          2    1    1    2  501    0 -0.38873308650E+02  0.54900924266E+02 -0.81398037720E+03  0.81675534897E+03  0.00000000000E+00 0. -1.
          1    1    1    2  502    0  0.60645734252E+01 -0.65473194195E+02  0.34349581903E+03  0.34973260629E+03  0.00000000000E+00 0. -1.
         22    1    3    3    0    0  0.92335439664E+01  0.60014406234E+02 -0.29235358362E+02  0.67392087580E+02  0.00000000000E+00 0.  1.
         22    1    3    3    0    0  0.23575191258E+02 -0.49442136306E+02 -0.10991826681E+03  0.12281017818E+03  0.00000000000E+00 0.  1.
</event>
<event>
 7    1  0.5452757E-006  0.2007393E+03  0.7818608E-02  0.1227644E+00
          2   -1    0    0  502    0  0.00000000000E+00  0.00000000000E+00  0.21894393666E+04  0.21894393666E+04  0.00000000000E+00 0. -1.
          1   -1    0    0  501    0 -0.00000000000E+00 -0.00000000000E+00 -0.32908126011E+03  0.32908126011E+03  0.00000000000E+00 0. -1.
         25    2    1    2    0    0  0.65581028533E+01 -0.13714363422E+03  0.80831504404E+02  0.20250927205E+03  0.12499955216E+03 0.  0.
          2    1    1    2  501    0 -0.15263927211E+02  0.22071607187E+03 -0.22159058266E+03  0.31313089623E+03  0.00000000000E+00 0. -1.
          1    1    1    2  502    0  0.87058243581E+01 -0.83572437646E+02  0.20011171848E+04  0.20028804584E+04  0.00000000000E+00 0. -1.
         22    1    3    3    0    0  0.18807356638E+02 -0.82020291696E+02 -0.20406485151E+02  0.86587929585E+02  0.00000000000E+00 0. -1.
         22    1    3    3    0    0 -0.12249253785E+02 -0.55123342525E+02  0.10123798956E+03  0.11592134246E+03  0.00000000000E+00 0. -1.
</event>
<event>
 7    1  0.5452757E-006  0.1142585E+03  0.7818608E-02  0.1376168E+00
          2   -1    0    0  502    0  0.00000000000E+00  0.00000000000E+00  0.69310485500E+03  0.69310485500E+03  0.00000000000E+00 0. -1.
          1   -1    0    0  501    0 -0.00000000000E+00 -0.00000000000E+00 -0.21730498709E+03  0.21730498709E+03  0.00000000000E+00 0. -1.
         25    2    1    2    0    0 -0.26760433286E+01  0.10283730071E+03  0.16465111907E+03  0.23090584045E+03  0.12499937807E+03 0.  0.
          2    1    1    2  501    0  0.39737490942E+02 -0.10873514537E+03 -0.16517418661E+03  0.20170501221E+03  0.00000000000E+00 0. -1.
          1    1    1    2  502    0 -0.37061447613E+02  0.58978446571E+01  0.47632293546E+03  0.47779898944E+03  0.00000000000E+00 0. -1.
         22    1    3    3    0    0 -0.42290401225E+02  0.10078022146E+02  0.10518897749E+03  0.11381900347E+03  0.00000000000E+00 0. -1.
         22    1    3    3    0    0  0.39614357897E+02  0.92759278568E+02  0.59462141581E+02  0.11708683698E+03  0.00000000000E+00 0. -1.
</event>
<event>
 7    1  0.5452757E-006  0.1009641E+03  0.7818608E-02  0.1354000E+00
          2   -1    0    0  502    0  0.00000000000E+00  0.00000000000E+00  0.81616949980E+03  0.81616949980E+03  0.00000000000E+00 0. -1.
          1   -1    0    0  501    0 -0.00000000000E+00 -0.00000000000E+00 -0.39609988837E+03  0.39609988837E+03  0.00000000000E+00 0. -1.
         25    2    1    2    0    0  0.12373355921E+03 -0.77898684679E+02  0.15049347862E+03  0.24423688473E+03  0.12500068002E+03 0.  0.
          2    1    1    2  501    0 -0.48466211319E+02  0.16173499082E+02 -0.34349886442E+03  0.34727802345E+03  0.00000000000E+00 0. -1.
          1    1    1    2  502    0 -0.75267347894E+02  0.61725185597E+02  0.61307499723E+03  0.62075447999E+03  0.00000000000E+00 0. -1.
         22    1    3    3    0    0  0.10912037182E+03 -0.41692826470E+02  0.16536003889E+03  0.20245861253E+03  0.00000000000E+00 0.  1.
         22    1    3    3    0    0  0.14613187388E+02 -0.36205858208E+02 -0.14866560265E+02  0.41778272204E+02  0.00000000000E+00 0.  1.
</event>
<event>
 7    1  0.5452757E-006  0.1167905E+03  0.7818608E-02  0.1333989E+00
          2   -1    0    0  502    0  0.00000000000E+00  0.00000000000E+00  0.97621084415E+03  0.97621084415E+03  0.00000000000E+00 0. -1.
          1   -1    0    0  501    0 -0.00000000000E+00 -0.00000000000E+00 -0.49998001633E+02  0.49998001633E+02  0.00000000000E+00 0. -1.
         25    2    1    2    0    0 -0.80303364768E+02 -0.15618114050E+01  0.29650531129E+03  0.33164975093E+03  0.12500035208E+03 0.  0.
          2    1    1    2  501    0 -0.49233394658E+02 -0.18157562271E+02  0.11478630941E+01  0.52487539539E+02  0.00000000000E+00 0. -1.
          1    1    1    2  502    0  0.12953675943E+03  0.19719373676E+02  0.62855966813E+03  0.64207155531E+03  0.00000000000E+00 0. -1.
         22    1    3    3    0    0 -0.74558514007E+01 -0.56039759853E+02  0.94715076544E+02  0.11030408029E+03  0.00000000000E+00 0.  1.
         22    1    3    3    0    0 -0.72847513368E+02  0.54477948448E+02  0.20179023475E+03  0.22134567064E+03  0.00000000000E+00 0.  1.
</event>
<event>
 7    1  0.5452757E-006  0.4382125E+02  0.7818608E-02  0.1521883E+00
          2   -1    0    0  502    0  0.00000000000E+00  0.00000000000E+00  0.20818503473E+04  0.20818503473E+04  0.00000000000E+00 0. -1.
          1   -1    0    0  501    0 -0.00000000000E+00 -0.00000000000E+00 -0.37003092580E+02  0.37003092580E+02  0.00000000000E+00 0. -1.
         25    2    1    2    0    0 -0.60525160344E+02  0.26418729246E+02  0.49669911580E+03  0.51642602692E+03  0.12499834141E+03 0.  0.
          2    1    1    2  501    0  0.27898746836E+02 -0.33091189590E+02 -0.95910273574E+01  0.44332321271E+02  0.00000000000E+00 0. -1.
          1    1    1    2  502    0  0.32626413508E+02  0.66724603443E+01  0.15577391662E+04  0.15580950917E+04  0.00000000000E+00 0. -1.
         22    1    3    3    0    0 -0.88868173267E+02  0.45075982032E+02  0.43228143931E+03  0.44361767227E+03  0.00000000000E+00 0. -1.
         22    1    3    3    0    0  0.28343012923E+02 -0.18657252786E+02  0.64417676485E+02  0.72808354650E+02  0.00000000000E+00 0. -1.
</event>
<event>
 7    1  0.5452757E-006  0.6480638E+02  0.7818608E-02  0.1387478E+00
          2   -1    0    0  502    0  0.00000000000E+00  0.00000000000E+00  0.13368434617E+03  0.13368434617E+03  0.00000000000E+00 0. -1.
          1   -1    0    0  501    0 -0.00000000000E+00 -0.00000000000E+00 -0.74548373684E+03  0.74548373684E+03  0.00000000000E+00 0. -1.
         25    2    1    2    0    0  0.92154755859E+02 -0.77717480924E+02 -0.48515347437E+03  0.51529798549E+03  0.12500245712E+03 0.  0.
          2    1    1    2  501    0 -0.54350245421E+02  0.26232717579E+02 -0.23251807204E+03  0.24022231053E+03  0.00000000000E+00 0. -1.
          1    1    1    2  502    0 -0.37804510438E+02  0.51484763345E+02  0.10587215574E+03  0.12364778699E+03  0.00000000000E+00 0. -1.
         22    1    3    3    0    0  0.79015378889E+02 -0.10388236008E+03 -0.45466416029E+03  0.47302692681E+03  0.00000000000E+00 0. -1.
         22    1    3    3    0    0  0.13139376970E+02  0.26164879156E+02 -0.30489314078E+02  0.42271058673E+02  0.00000000000E+00 0. -1.
</event>
<event>
 7    1  0.5452757E-006  0.8198979E+02  0.7818608E-02  0.1394389E+00
          2   -1    0    0  502    0  0.00000000000E+00  0.00000000000E+00  0.17380137603E+04  0.17380137603E+04  0.00000000000E+00 0. -1.
          1   -1    0    0  501    0 -0.00000000000E+00 -0.00000000000E+00 -0.26896065989E+03  0.26896065989E+03  0.00000000000E+00 0. -1.
         25    2    1    2    0    0  0.20319408313E+02  0.65593163393E+02 -0.15196809399E+03  0.20843721713E+03  0.12504571347E+03 0.  0.
          2    1    1    2  501    0  0.11449325353E+02 -0.97644955342E+02 -0.61137592077E+02  0.11577318135E+03  0.00000000000E+00 0. -1.
          1    1    1    2  502    0 -0.31768733665E+02  0.32051791949E+02  0.16821587865E+04  0.16827640217E+04  0.00000000000E+00 0. -1.
         22    1    3    3    0    0 -0.26596464599E+02  0.72819206456E+02 -0.13911691256E+03  0.15925929838E+03  0.00000000000E+00 0. -1.
         22    1    3    3    0    0  0.46915872912E+02 -0.72260430631E+01 -0.12851181426E+02  0.49177918760E+02  0.00000000000E+00 0. -1.
</event>
<event>
 7    1  0.5452757E-006  0.9253111E+02  0.7818608E-02  0.1466884E+00
          2   -1    0    0  502    0  0.00000000000E+00  0.00000000000E+00  0.67060820844E+02  0.67060820844E+02  0.00000000000E+00 0. -1.
          1   -1    0    0  501    0 -0.00000000000E+00 -0.00000000000E+00 -0.23936526832E+04  0.23936526832E+04  0.00000000000E+00 0. -1.
         25    2    1    2    0    0 -0.28346987539E+02 -0.10200921704E+03 -0.70625951601E+03  0.72500939441E+03  0.12500674368E+03 0.  0.
          2    1    1    2  501    0  0.20609310547E+02  0.10399092998E+02 -0.16412547934E+04  0.16414171261E+04  0.00000000000E+00 0. -1.
          1    1    1    2  502    0  0.77376769922E+01  0.91610124039E+02  0.20922447105E+02  0.94286983537E+02  0.00000000000E+00 0. -1.
         22    1    3    3    0    0 -0.23989043748E+02 -0.90848672132E+02 -0.70679771123E+03  0.71301610084E+03  0.00000000000E+00 0.  1.
         22    1    3    3    0    0 -0.43579437907E+01 -0.11160544905E+02  0.53819522170E+00  0.11993293574E+02  0.00000000000E+00 0.  1.
</event>
<event>
 7    1  0.5452757E-006  0.1451929E+03  0.7818608E-02  0.1221520E+00
          2   -1    0    0  502    0  0.00000000000E+00  0.00000000000E+00  0.20423538665E+04  0.20423538665E+04  0.00000000000E+00 0. -1.
          1   -1    0    0  501    0 -0.00000000000E+00 -0.00000000000E+00 -0.13925329262E+03  0.13925329262E+03  0.00000000000E+00 0. -1.
         25    2    1    2    0    0  0.18322415899E+02  0.62692921587E+02  0.20855372308E+03  0.25176587315E+03  0.12500114451E+03 0.  0.
          2    1    1    2  501    0  0.58643343704E+02 -0.15969097686E+03 -0.52791344975E+02  0.17812123949E+03  0.00000000000E+00 0. -1.
          1    1    1    2  502    0 -0.76965759603E+02  0.96998055275E+02  0.17473381958E+04  0.17517200465E+04  0.00000000000E+00 0. -1.
         22    1    3    3    0    0 -0.10324683386E+01 -0.90961641142E+01 -0.14219930586E+02  0.16911907590E+02  0.00000000000E+00 0. -1.
         22    1    3    3    0    0  0.19354884238E+02  0.71789085701E+02  0.22277365367E+03  0.23485396556E+03  0.00000000000E+00 0. -1.
</event>
<event>
 7    1  0.5452757E-006  0.1522524E+03  0.7818608E-02  0.1269551E+00
          2   -1    0    0  502    0  0.00000000000E+00  0.00000000000E+00  0.15938808117E+04  0.15938808117E+04  0.00000000000E+00 0. -1.
          1   -1    0    0  501    0 -0.00000000000E+00 -0.00000000000E+00 -0.14465578636E+03  0.14465578636E+03  0.00000000000E+00 0. -1.
         25    2    1    2    0    0 -0.42531283704E+02 -0.13290317666E+03  0.40877963176E+03  0.44966413860E+03  0.12499954293E+03 0.  0.
          2    1    1    2  501    0 -0.27465770017E+02  0.15295211294E+03 -0.73952872644E+02  0.17209806724E+03  0.00000000000E+00 0. -1.
          1    1    1    2  502    0  0.69997053721E+02 -0.20048936277E+02  0.11143982662E+04  0.11167743922E+04  0.00000000000E+00 0. -1.
         22    1    3    3    0    0 -0.77668777022E+02 -0.47969200633E+02  0.15672229544E+03  0.18137078326E+03  0.00000000000E+00 0. -1.
         22    1    3    3    0    0  0.35137493318E+02 -0.84933976031E+02  0.25205733633E+03  0.26829335533E+03  0.00000000000E+00 0. -1.
</event>
<event>
 7    1  0.5452757E-006  0.4201433E+02  0.7818608E-02  0.1500539E+00
          2   -1    0    0  502    0  0.00000000000E+00  0.00000000000E+00  0.53335564399E+03  0.53335564399E+03  0.00000000000E+00 0. -1.
          1   -1    0    0  501    0 -0.00000000000E+00 -0.00000000000E+00 -0.87679428948E+03  0.87679428948E+03  0.00000000000E+00 0. -1.
         25    2    1    2    0    0  0.18022610093E+02  0.78087155075E+02 -0.26927729286E+03  0.30749992753E+03  0.12499410674E+03 0.  0.
          2    1    1    2  501    0 -0.41825464573E+01 -0.40418141487E+02 -0.58691920369E+03  0.58832412114E+03  0.00000000000E+00 0. -1.
          1    1    1    2  502    0 -0.13840063636E+02 -0.37669013588E+02  0.51275785106E+03  0.51432588480E+03  0.00000000000E+00 0. -1.
         22    1    3    3    0    0  0.21086052065E+02 -0.23109226581E+02 -0.13916833109E+03  0.14264109620E+03  0.00000000000E+00 0. -1.
         22    1    3    3    0    0 -0.30634419716E+01  0.10119638166E+03 -0.13010896177E+03  0.16485883133E+03  0.00000000000E+00 0. -1.
</event>
<event>
 7    1  0.5452757E-006  0.2077258E+03  0.7818608E-02  0.1318283E+00
          2   -1    0    0  502    0  0.00000000000E+00  0.00000000000E+00  0.24965614032E+03  0.24965614032E+03  0.00000000000E+00 0. -1.
          1   -1    0    0  501    0 -0.00000000000E+00 -0.00000000000E+00 -0.17264307724E+04  0.17264307724E+04  0.00000000000E+00 0. -1.
         25    2    1    2    0    0 -0.11318465881E+03 -0.20027898286E+03 -0.15657998168E+03  0.30506539714E+03  0.12500067161E+03 0.  0.
          2    1    1    2  501    0  0.29916291797E+02  0.15950417943E+02 -0.14370355925E+04  0.14374354575E+04  0.00000000000E+00 0. -1.
          1    1    1    2  502    0  0.83268367016E+02  0.18432856491E+03  0.11684094210E+03  0.23358605810E+03  0.00000000000E+00 0. -1.
         22    1    3    3    0    0 -0.29447441666E+01  0.17350967163E+02 -0.14075501602E+02  0.22535468157E+02  0.00000000000E+00 0.  1.
         22    1    3    3    0    0 -0.11023991465E+03 -0.21762995002E+03 -0.14250448008E+03  0.28252992898E+03  0.00000000000E+00 0.  1.
</event>
<event>
 7    1  0.5452757E-006  0.7131376E+02  0.7818608E-02  0.1504364E+00
          2   -1    0    0  502    0  0.00000000000E+00  0.00000000000E+00  0.20043375671E+02  0.20043375671E+02  0.00000000000E+00 0. -1.
          1   -1    0    0  501    0 -0.00000000000E+00 -0.00000000000E+00 -0.13631843212E+04  0.13631843212E+04  0.00000000000E+00 0. -1.
         25    2    1    2    0    0 -0.40787564424E+02  0.39389063192E+02 -0.44564653865E+03  0.46630646460E+03  0.12500303117E+03 0.  0.
          2    1    1    2  501    0  0.63699565668E+02 -0.37041337362E+02 -0.88949161033E+03  0.89253852588E+03  0.00000000000E+00 0. -1.
          1    1    1    2  502    0 -0.22912001243E+02 -0.23477258306E+01 -0.80027965219E+01  0.24382706366E+02  0.00000000000E+00 0. -1.
         22    1    3    3    0    0 -0.76799461492E+02  0.12964732211E+02 -0.37285695694E+03  0.38090491189E+03  0.00000000000E+00 0. -1.
         22    1    3    3    0    0  0.36011897068E+02  0.26424330981E+02 -0.72789581718E+02  0.85401552708E+02  0.00000000000E+00 0. -1.
</event>
<event>
 7    1  0.5452757E-006  0.3372974E+02  0.7818608E-02  0.1604903E+00
          2   -1    0    0  502    0  0.00000000000E+00  0.00000000000E+00  0.98888439239E+03  0.98888439239E+03  0.00000000000E+00 0. -1.
          1   -1    0    0  501    0 -0.00000000000E+00 -0.00000000000E+00 -0.33954847824E+03  0.33954847824E+03  0.00000000000E+00 0. -1.
         25    2    1    2    0    0 -0.20006140903E+02 -0.21975272949E+02  0.63941329152E+02  0.14351817947E+03  0.12500326383E+03 0.  0.
          2    1    1    2  501    0  0.33850455561E+02  0.42643576549E+00 -0.29861818382E+03  0.30053095497E+03  0.00000000000E+00 0. -1.
          1    1    1    2  502    0 -0.13844314658E+02  0.21548837183E+02  0.88401276881E+03  0.88438373620E+03  0.00000000000E+00 0. -1.
         22    1    3    3    0    0  0.45901904502E+02 -0.27736244231E+02  0.32361490177E+01  0.53728546802E+02  0.00000000000E+00 0.  1.
         22    1    3    3    0    0 -0.65908045405E+02  0.57609712826E+01  0.60705180134E+02  0.89789632667E+02  0.00000000000E+00 0.  1.
</event>
<event>
 7    1  0.5452757E-006  0.8522168E+02  0.7818608E-02  0.1319349E+00
          2   -1    0    0  502    0  0.00000000000E+00  0.00000000000E+00  0.81424328958E+02  0.81424328958E+02  0.00000000000E+00 0. -1.
          1   -1    0    0  501    0 -0.00000000000E+00 -0.00000000000E+00 -0.69012793572E+03  0.69012793572E+03  0.00000000000E+00 0. -1.
         25    2    1    2    0    0 -0.61150916874E+01 -0.23447380288E+02 -0.46359270687E+03  0.48076291197E+03  0.12501042228E+03 0.  0.
          2    1    1    2  501    0  0.83936187513E+02 -0.14746233818E+02 -0.17857349648E+03  0.19786669409E+03  0.00000000000E+00 0. -1.
          1    1    1    2  502    0 -0.77821095825E+02  0.38193614106E+02  0.33462596583E+02  0.92922658615E+02  0.00000000000E+00 0. -1.
         22    1    3    3    0    0  0.32468340644E+02 -0.21559109840E+02 -0.41596286100E+02  0.57002099774E+02  0.00000000000E+00 0.  1.
         22    1    3    3    0    0 -0.38583432332E+02 -0.18882704479E+01 -0.42199642077E+03  0.42376081220E+03  0.00000000000E+00 0.  1.
</event>
<event>
 7    1  0.5452757E-006  0.1503439E+03  0.7818608E-02  0.1386620E+00
          2   -1    0    0  502    0  0.00000000000E+00  0.00000000000E+00  0.39981615655E+03  0.39981615655E+03  0.00000000000E+00 0. -1.
          1   -1    0    0  501    0 -0.00000000000E+00 -0.00000000000E+00 -0.12756574823E+03  0.12756574823E+03  0.00000000000E+00 0. -1.
         25    2    1    2    0    0  0.50643559384E+02 -0.13726556109E+03  0.54805288578E+01  0.19251416817E+03  0.12500025752E+03 0.  0.
          2    1    1    2  501    0 -0.32468556443E+02  0.15612917797E+03  0.16375398188E+03  0.22857360730E+03  0.00000000000E+00 0. -1.
          1    1    1    2  502    0 -0.18175002941E+02 -0.18863616882E+02  0.10301589758E+03  0.10629412932E+03  0.00000000000E+00 0. -1.
         22    1    3    3    0    0  0.28895190204E+02 -0.10792851663E+03  0.60056063788E+02  0.12684726058E+03  0.00000000000E+00 0.  1.
         22    1    3    3    0    0  0.21748369180E+02 -0.29337044460E+02 -0.54575534930E+02  0.65666907591E+02  0.00000000000E+00 0.  1.
</event>
<event>
 7    1  0.5452757E-006  0.1049838E+03  0.7818608E-02  0.1352026E+00
          2   -1    0    0  502    0  0.00000000000E+00  0.00000000000E+00  0.47946126247E+02  0.47946126247E+02  0.00000000000E+00 0. -1.
          1   -1    0    0  501    0 -0.00000000000E+00 -0.00000000000E+00 -0.23506956144E+04  0.23506956144E+04  0.00000000000E+00 0. -1.
         25    2    1    2    0    0 -0.11243792378E+03 -0.61295766379E+02 -0.18342408377E+04  0.18429496864E+04  0.12499855187E+03 0.  0.
          2    1    1    2  501    0  0.86532970511E+01  0.49212653633E+02 -0.44602441150E+03  0.44881459477E+03  0.00000000000E+00 0. -1.
          1    1    1    2  502    0  0.10378462673E+03  0.12083112746E+02 -0.22484238958E+02  0.10687745955E+03  0.00000000000E+00 0. -1.
         22    1    3    3    0    0  0.19989685058E+02 -0.41654046445E+01 -0.72658173108E+02  0.75472831032E+02  0.00000000000E+00 0. -1.
         22    1    3    3    0    0 -0.13242760884E+03 -0.57130361734E+02 -0.17615826646E+04  0.17674768553E+04  0.00000000000E+00 0. -1.
</event>
<event>
 7    1  0.5452757E-006  0.6616975E+02  0.7818608E-02  0.1385552E+00
          2   -1    0    0  502    0  0.00000000000E+00  0.00000000000E+00  0.28679463429E+04  0.28679463429E+04  0.00000000000E+00 0. -1.
          1   -1    0    0  501    0 -0.00000000000E+00 -0.00000000000E+00 -0.26583126724E+03  0.26583126724E+03  0.00000000000E+00 0. -1.
         25    2    1    2    0    0 -0.43921978332E+02  0.11505381246E+03  0.17573683817E+02  0.17635346758E+03  0.12500076489E+03 0.  0.
          2    1    1    2  501    0  0.33170650440E+02 -0.50036590933E+02 -0.18120612663E+03  0.19089162583E+03  0.00000000000E+00 0. -1.
          1    1    1    2  502    0  0.10751327893E+02 -0.65017221524E+02  0.27657475184E+04  0.27665325167E+04  0.00000000000E+00 0. -1.
         22    1    3    3    0    0  0.17362303099E+02 -0.20179390215E+02  0.68915770506E+01  0.27498203443E+02  0.00000000000E+00 0. -1.
         22    1    3    3    0    0 -0.61284281431E+02  0.13523320267E+03  0.10682106767E+02  0.14885526413E+03  0.00000000000E+00 0. -1.
</event>
<event>
 7    1  0.5452757E-006  0.3772122E+02  0.7818608E-02  0.1587855E+00
          2   -1    0    0  502    0  0.00000000000E+00  0.00000000000E+00  0.54988108198E+03  0.54988108198E+03  0.00000000000E+00 0. -1.
          1   -1    0    0  501    0 -0.00000000000E+00 -0.00000000000E+00 -0.12784443658E+03  0.12784443658E+03  0.00000000000E+00 0. -1.
         25    2    1    2    0    0  0.74027340596E+01  0.26284497789E+02 -0.87289179775E+01  0.12824292995E+03  0.12499751909E+03 0.  0.
          2    1    1    2  501    0  0.15993681447E+02 -0.36143176605E+02 -0.52408872885E+02  0.65641579951E+02  0.00000000000E+00 0. -1.
          1    1    1    2  502    0 -0.23396415507E+02  0.98586788156E+01  0.48317443626E+03  0.48384100866E+03  0.00000000000E+00 0. -1.
         22    1    3    3    0    0  0.38640790365E+02 -0.88336269200E+01 -0.51299444695E+02  0.64828825924E+02  0.00000000000E+00 0.  1.
         22    1    3    3    0    0 -0.31238056306E+02  0.35118124709E+02  0.42570526718E+02  0.63414104030E+02  0.00000000000E+00 0.  1.
</event>
<event>
 7    1  0.5452757E-006  0.5397065E+02  0.7818608E-02  0.1467504E+00
          2   -1    0    0  502    0  0.00000000000E+00  0.00000000000E+00  0.17566673339E+04  0.17566673339E+04  0.00000000000E+00 0. -1.
          1   -1    0    0  501    0 -0.00000000000E+00 -0.00000000000E+00 -0.87045044041E+02  0.87045044041E+02  0.00000000000E+00 0. -1.
         25    2    1    2    0    0  0.51033587576E+02 -0.27092394416E+02  0.53696654388E+03  0.55434305429E+03  0.12499891081E+03 0.  0.
          2    1    1    2  501    0 -0.19382058116E+02  0.50558007406E+02 -0.68641147753E+02  0.87426445967E+02  0.00000000000E+00 0. -1.
          1    1    1    2  502    0 -0.31651529461E+02 -0.23465612990E+02  0.12012968937E+04  0.12019428777E+04  0.00000000000E+00 0. -1.
         22    1    3    3    0    0  0.23011879598E+02 -0.77057194206E+02  0.31450487574E+03  0.32462389722E+03  0.00000000000E+00 0. -1.
         22    1    3    3    0    0  0.28021707979E+02  0.49964799790E+02  0.22246166814E+03  0.22971915707E+03  0.00000000000E+00 0. -1.
</event>
<event>
 7    1  0.5452757E-006  0.8936557E+02  0.7818608E-02  0.1403822E+00
          2   -1    0    0  502    0  0.00000000000E+00  0.00000000000E+00  0.69276643747E+03  0.69276643747E+03  0.00000000000E+00 0. -1.
          1   -1    0    0  501    0 -0.00000000000E+00 -0.00000000000E+00 -0.26871685132E+03  0.26871685132E+03  0.00000000000E+00 0. -1.
         25    2    1    2    0    0  0.37795648582E+02  0.11936759568E+03  0.17961457414E+03  0.25211834130E+03  0.12500051532E+03 0.  0.
          2    1    1    2  501    0 -0.18818437844E+02 -0.85961468037E+02 -0.22332144907E+03  0.24003328354E+03  0.00000000000E+00 0. -1.
          1    1    1    2  502    0 -0.18977210738E+02 -0.33406127643E+02  0.46775646109E+03  0.46933166395E+03  0.00000000000E+00 0. -1.
         22    1    3    3    0    0 -0.37876753621E+02  0.45343942580E+02  0.23688789576E+02  0.63654381979E+02  0.00000000000E+00 0.  1.
         22    1    3    3    0    0  0.75672402204E+02  0.74023653101E+02  0.15592578456E+03  0.18846395933E+03  0.00000000000E+00 0.  1.
</event>
<event>
 7    1  0.5452757E-006  0.7529269E+02  0.7818608E-02  0.1476102E+00
          2   -1    0    0  502    0  0.00000000000E+00  0.00000000000E+00  0.38576660897E+03  0.38576660897E+03  0.00000000000E+00 0. -1.
          1   -1    0    0  501    0 -0.00000000000E+00 -0.00000000000E+00 -0.20478468487E+04  0.20478468487E+04  0.00000000000E+00 0. -1.
         25    2    1    2    0    0  0.10057583083E+03  0.11463870958E+02 -0.15400724579E+03  0.22268871424E+03  0.12500045443E+03 0.  0.
          2    1    1    2  501    0 -0.26531026335E+02 -0.12506126630E+01 -0.18554282625E+04  0.18556183597E+04  0.00000000000E+00 0. -1.
          1    1    1    2  502    0 -0.74044804494E+02 -0.10213258295E+02  0.34735526859E+03  0.35530638375E+03  0.00000000000E+00 0. -1.
         22    1    3    3    0    0  0.31263320352E+02  0.28818396863E+02 -0.14447707042E+03  0.15060384814E+03  0.00000000000E+00 0.  1.
         22    1    3    3    0    0  0.69312510477E+02 -0.17354525905E+02 -0.95301753756E+01  0.72084866100E+02  0.00000000000E+00 0.  1.
</event>
<event>
 7    1  0.5452757E-006  0.3212360E+02  0.7818608E-02  0.1577040E+00
          2   -1    0    0  502    0  0.00000000000E+00  0.00000000000E+00  0.12111528215E+04  0.12111528215E+04  0.00000000000E+00 0. -1.
          1   -1    0    0  501    0 -0.00000000000E+00 -0.00000000000E+00 -0.34306795582E+03  0.34306795582E+03  0.00000000000E+00 0. -1.
         25    2    1    2    0    0 -0.39358374682E+02 -0.25188463428E+02  0.23979347057E+03  0.27442833272E+03  0.12500584355E+03 0.  0.
          2    1    1    2  501    0  0.31603761995E+02 -0.57182253034E+01 -0.32469195841E+03  0.32627651422E+03  0.00000000000E+00 0. -1.
          1    1    1    2  502    0  0.77546126877E+01  0.30906688731E+02  0.95298335347E+03  0.95351593035E+03  0.00000000000E+00 0. -1.
         22    1    3    3    0    0 -0.80117955221E+02  0.61595790553E+01  0.16674838695E+03  0.18509957243E+03  0.00000000000E+00 0.  1.
         22    1    3    3    0    0  0.40759580539E+02 -0.31348042483E+02  0.73045083619E+02  0.89328760285E+02  0.00000000000E+00 0.  1.
</event>
<event>
 7    1  0.5452757E-006  0.6783121E+02  0.7818608E-02  0.1419896E+00
          2   -1    0    0  502    0  0.00000000000E+00  0.00000000000E+00  0.10810269344E+03  0.10810269344E+03  0.00000000000E+00 0. -1.
          1   -1    0    0  501    0 -0.00000000000E+00 -0.00000000000E+00 -0.10916980269E+04  0.10916980269E+04  0.00000000000E+00 0. -1.
         25    2    1    2    0    0  0.48629920661E+02  0.56668577897E+02 -0.28363634592E+03  0.31882670239E+03  0.12499877011E+03 0.  0.
          2    1    1    2  501    0 -0.43227282012E+02  0.11243758688E+02 -0.77691342155E+03  0.77819630211E+03  0.00000000000E+00 0. -1.
          1    1    1    2  502    0 -0.54026386485E+01 -0.67912336585E+02  0.76954433997E+02  0.10277771586E+03  0.00000000000E+00 0. -1.
         22    1    3    3    0    0 -0.26618772360E+02  0.59305082653E+02 -0.89627804005E+02  0.11071944328E+03  0.00000000000E+00 0. -1.
         22    1    3    3    0    0  0.75248693021E+02 -0.26365047558E+01 -0.19400854191E+03  0.20810725911E+03  0.00000000000E+00 0. -1.
</event>
<event>
 7    1  0.5452757E-006  0.1117547E+03  0.7818608E-02  0.1375702E+00
          2   -1    0    0  502    0  0.00000000000E+00  0.00000000000E+00  0.75197342487E+03  0.75197342487E+03  0.00000000000E+00 0. -1.
          1   -1    0    0  501    0 -0.00000000000E+00 -0.00000000000E+00 -0.27264945344E+03  0.27264945344E+03  0.00000000000E+00 0. -1.
         25    2    1    2    0    0 -0.77934028121E+02  0.86798000961E+02  0.69985554340E+02  0.18474686176E+03  0.12500327757E+03 0.  0.
          2    1    1    2  501    0  0.43098373255E+02 -0.10322774885E+03 -0.20008736065E+03  0.22923435563E+03  0.00000000000E+00 0. -1.
          1    1    1    2  502    0  0.34835654866E+02  0.16429747889E+02  0.60942577775E+03  0.61064166092E+03  0.00000000000E+00 0. -1.
         22    1    3    3    0    0  0.10511027336E+02 -0.25500098686E+02  0.64958034281E+01  0.28336058138E+02  0.00000000000E+00 0. -1.
         22    1    3    3    0    0 -0.88445055457E+02  0.11229809965E+03  0.63489750911E+02  0.15641080362E+03  0.00000000000E+00 0. -1.
</event>
<event>
 7    1  0.5452757E-006  0.7141231E+02  0.7818608E-02  0.1429980E+00
          2   -1    0    0  502    0  0.00000000000E+00  0.00000000000E+00  0.22657626873E+04  0.22657626873E+04  0.00000000000E+00 0. -1.
          1   -1    0    0  501    0 -0.00000000000E+00 -0.00000000000E+00 -0.19272711120E+03  0.19272711120E+03  0.00000000000E+00 0. -1.
         25    2    1    2    0    0 -0.39102144974E+02  0.48794957822E+02  0.19924456688E+03  0.24337893156E+03  0.12499992498E+03 0.  0.
          2    1    1    2  501    0 -0.29224935924E+02 -0.26247778037E+02 -0.16775734358E+03  0.17229500589E+03  0.00000000000E+00 0. -1.
          1    1    1    2  502    0  0.68327080898E+02 -0.22547179785E+02  0.20415483528E+04  0.20428158610E+04  0.00000000000E+00 0. -1.
         22    1    3    3    0    0  0.19984116616E+02 -0.33165403859E+02  0.54014805068E+02  0.66459823176E+02  0.00000000000E+00 0. -1.
         22    1    3    3    0    0 -0.59086261590E+02  0.81960361681E+02  0.14522976182E+03  0.17691910839E+03  0.00000000000E+00 0. -1.
</event>
<event>
 7    1  0.5452757E-006  0.2086372E+03  0.7818608E-02  0.1317540E+00
          2   -1    0    0  502    0  0.00000000000E+00  0.00000000000E+00  0.26577106792E+04  0.26577106792E+04  0.00000000000E+00 0. -1.
          1   -1    0    0  501    0 -0.00000000000E+00 -0.00000000000E+00 -0.41841363382E+03  0.41841363382E+03  0.00000000000E+00 0. -1.
         25    2    1    2    0    0  0.21073400898E+03  0.21459630076E+02  0.28006549704E+03  0.37273472529E+03  0.12500061817E+03 0.  0.
          2    1    1    2  501    0 -0.93158331218E+01  0.32678189148E+02 -0.36662700703E+03  0.36819833117E+03  0.00000000000E+00 0. -1.
          1    1    1    2  502    0 -0.20141817585E+03 -0.54137819224E+02  0.23258585554E+04  0.23351912566E+04  0.00000000000E+00 0. -1.
         22    1    3    3    0    0  0.89011684751E+02 -0.46889418230E+02  0.78794369796E+02  0.12778986766E+03  0.00000000000E+00 0.  1.
         22    1    3    3    0    0  0.12172232423E+03  0.68349048306E+02  0.20127112724E+03  0.24494485763E+03  0.00000000000E+00 0.  1.
</event>
<event>
 7    1  0.5452757E-006  0.7735926E+02  0.7818608E-02  0.1375544E+00
          2   -1    0    0  502    0  0.00000000000E+00  0.00000000000E+00  0.51049907455E+03  0.51049907455E+03  0.00000000000E+00 0. -1.
          1   -1    0    0  501    0 -0.00000000000E+00 -0.00000000000E+00 -0.11390807945E+04  0.11390807945E+04  0.00000000000E+00 0. -1.
         25    2    1    2    0    0  0.45384540085E+02  0.60629636443E+02  0.12286454124E+03  0.19093475060E+03  0.12499869679E+03 0.  0.
          2    1    1    2  501    0 -0.76228261774E+02 -0.14233840897E+02 -0.11014795429E+04  0.11042058384E+04  0.00000000000E+00 0. -1.
          1    1    1    2  502    0  0.30843721688E+02 -0.46395795545E+02  0.35003328166E+03  0.35443928011E+03  0.00000000000E+00 0. -1.
         22    1    3    3    0    0 -0.41948591159E+02  0.36347909533E+02  0.46401359938E+02  0.72345981449E+02  0.00000000000E+00 0. -1.
         22    1    3    3    0    0  0.87333131245E+02  0.24281726909E+02  0.76463181300E+02  0.11858876915E+03  0.00000000000E+00 0. -1.
</event>
<event>
 7    1  0.5452757E-006  0.4576323E+02  0.7818608E-02  0.1510531E+00
          2   -1    0    0  502    0  0.00000000000E+00  0.00000000000E+00  0.47439772426E+03  0.47439772426E+03  0.00000000000E+00 0. -1.
          1   -1    0    0  501    0 -0.00000000000E+00 -0.00000000000E+00 -0.16188104666E+04  0.16188104666E+04  0.00000000000E+00 0. -1.
         25    2    1    2    0    0 -0.53405180807E+02 -0.59613802385E+02 -0.25803073860E+03  0.29766810530E+03  0.12498207903E+03 0.  0.
          2    1    1    2  501    0  0.23152126439E+02  0.25465357908E+02 -0.13395948023E+04  0.13400368427E+04  0.00000000000E+00 0. -1.
          1    1    1    2  502    0  0.30253054367E+02  0.34148444478E+02  0.45321279852E+03  0.45550324291E+03  0.00000000000E+00 0. -1.
         22    1    3    3    0    0 -0.66017030831E+02 -0.44871187837E+02 -0.63038186896E+02  0.10171275665E+03  0.00000000000E+00 0.  1.
         22    1    3    3    0    0  0.12611850025E+02 -0.14742614548E+02 -0.19499255171E+03  0.19595534865E+03  0.00000000000E+00 0.  1.
</event>
<event>
 7    1  0.5452757E-006  0.1694166E+03  0.7818608E-02  0.1329093E+00
          2   -1    0    0  502    0  0.00000000000E+00  0.00000000000E+00  0.23361098703E+04  0.23361098703E+04  0.00000000000E+00 0. -1.
          1   -1    0    0  501    0 -0.00000000000E+00 -0.00000000000E+00 -0.67968585484E+02  0.67968585484E+02  0.00000000000E+00 0. -1.
         25    2    1    2    0    0  0.24198530599E+02  0.15509491602E+03  0.11752485669E+04  0.11922560710E+04  0.12500137140E+03 0.  0.
          2    1    1    2  501    0 -0.61698013924E+02 -0.15954591065E+03  0.64623342639E+02  0.18285983414E+03  0.00000000000E+00 0. -1.
          1    1    1    2  502    0  0.37499483326E+02  0.44509946272E+01  0.10282693753E+04  0.10289625507E+04  0.00000000000E+00 0. -1.
         22    1    3    3    0    0 -0.38796309704E+02  0.82906413927E+02  0.78944074256E+03  0.79472971074E+03  0.00000000000E+00 0.  1.
         22    1    3    3    0    0  0.62994840302E+02  0.72188502097E+02  0.38580782436E+03  0.39752636023E+03  0.00000000000E+00 0.  1.
</event>
<event>
 7    1  0.5452757E-006  0.1096502E+03  0.7818608E-02  0.1358369E+00
          2   -1    0    0  502    0  0.00000000000E+00  0.00000000000E+00  0.23252487227E+03  0.23252487227E+03  0.00000000000E+00 0. -1.
          1   -1    0    0  501    0 -0.00000000000E+00 -0.00000000000E+00 -0.40793847617E+03  0.40793847617E+03  0.00000000000E+00 0. -1.
         25    2    1    2    0    0  0.77039823819E+02 -0.98221129749E+01 -0.17559311348E+03  0.22910757301E+03  0.12500292057E+03 0.  0.
          2    1    1    2  501    0  0.24630937372E+02 -0.38066797673E+02 -0.18733402488E+03  0.19274283654E+03  0.00000000000E+00 0. -1.
          1    1    1    2  502    0 -0.10167076119E+03  0.47888910648E+02  0.18751353446E+03  0.21861293889E+03  0.00000000000E+00 0. -1.
         22    1    3    3    0    0  0.55375613191E+02 -0.14613206048E+01 -0.19254608414E+03  0.20035615417E+03  0.00000000000E+00 0.  1.
         22    1    3    3    0    0  0.21664210628E+02 -0.83607923700E+01  0.16952970662E+02  0.28751418843E+02  0.00000000000E+00 0.  1.
</event>
<event>
 7    1  0.5452757E-006  0.8101192E+02  0.7818608E-02  0.1329485E+00
          2   -1    0    0  502    0  0.00000000000E+00  0.00000000000E+00  0.18945454483E+04  0.18945454483E+04  0.00000000000E+00 0. -1.
          1   -1    0    0  501    0 -0.00000000000E+00 -0.00000000000E+00 -0.50352642299E+03  0.50352642299E+03  0.00000000000E+00 0. -1.
         25    2    1    2    0    0 -0.57668469198E+02  0.26879648946E+02  0.21446622768E+03  0.25626741555E+03  0.12501622930E+03 0.  0.
          2    1    1    2  501    0 -0.29086969615E+01 -0.80959688487E+02 -0.47822356022E+03  0.48503680812E+03  0.00000000000E+00 0. -1.
          1    1    1    2  502    0  0.60577166159E+02  0.54080039541E+02  0.16547763578E+04  0.16567676476E+04  0.00000000000E+00 0. -1.
         22    1    3    3    0    0 -0.76646007961E+02  0.14498809377E+02  0.21959243210E+03  0.23303575315E+03  0.00000000000E+00 0.  1.
         22    1    3    3    0    0  0.18977538763E+02  0.12380839569E+02 -0.51262044199E+01  0.23231662396E+02  0.00000000000E+00 0.  1.
</event>
<event>
 7    1  0.5452757E-006  0.5554620E+02  0.7818608E-02  0.1491163E+00
          2   -1    0    0  502    0  0.00000000000E+00  0.00000000000E+00  0.14053467714E+04  0.14053467714E+04  0.00000000000E+00 0. -1.
          1   -1    0    0  501    0 -0.00000000000E+00 -0.00000000000E+00 -0.40257552452E+03  0.40257552452E+03  0.00000000000E+00 0. -1.
         25    2    1    2    0    0  0.59470239917E+02 -0.54561471487E+02 -0.28845383198E+03  0.32455968480E+03  0.12497884703E+03 0.  0.
          2    1    1    2  501    0 -0.91852650001E+01  0.31056600346E+02 -0.92767031562E+02  0.98257842755E+02  0.00000000000E+00 0. -1.
          1    1    1    2  502    0 -0.50284974917E+02  0.23504871141E+02  0.13839921104E+04  0.13851047683E+04  0.00000000000E+00 0. -1.
         22    1    3    3    0    0  0.37078282454E+02 -0.82117685967E+02 -0.10801470693E+03  0.14066019441E+03  0.00000000000E+00 0. -1.
         22    1    3    3    0    0  0.22391957462E+02  0.27556214481E+02 -0.18043912505E+03  0.18389949039E+03  0.00000000000E+00 0. -1.
</event>
<event>
 7    1  0.5452757E-006  0.6184099E+02  0.7818608E-02  0.1429767E+00
          2   -1    0    0  502    0  0.00000000000E+00  0.00000000000E+00  0.16491942917E+03  0.16491942917E+03  0.00000000000E+00 0. -1.
          1   -1    0    0  501    0 -0.00000000000E+00 -0.00000000000E+00 -0.86450706756E+03  0.86450706756E+03  0.00000000000E+00 0. -1.
         25    2    1    2    0    0  0.86042992247E+02 -0.24334151215E+02 -0.48924079258E+01  0.15376842386E+03  0.12500098036E+03 0.  0.
          2    1    1    2  501    0 -0.44440152854E+02  0.42596187140E+02 -0.77817985482E+03  0.78061081775E+03  0.00000000000E+00 0. -1.
          1    1    1    2  502    0 -0.41602839393E+02 -0.18262035924E+02  0.83484624353E+02  0.95047255116E+02  0.00000000000E+00 0. -1.
         22    1    3    3    0    0  0.35015501079E+02  0.13393172368E+02 -0.59314352697E+02  0.70168759556E+02  0.00000000000E+00 0. -1.
         22    1    3    3    0    0  0.51027491168E+02 -0.37727323583E+02  0.54421944771E+02  0.83599664307E+02  0.00000000000E+00 0. -1.
</event>
<event>
 7    1  0.5452757E-006  0.5480279E+02  0.7818608E-02  0.1454640E+00
          2   -1    0    0  502    0  0.00000000000E+00  0.00000000000E+00  0.14848413417E+02  0.14848413417E+02  0.00000000000E+00 0. -1.
          1   -1    0    0  501    0 -0.00000000000E+00 -0.00000000000E+00 -0.15096903892E+04  0.15096903892E+04  0.00000000000E+00 0. -1.
         25    2    1    2    0    0 -0.12689431934E+02  0.25174787032E+02 -0.76678675542E+03  0.77741949719E+03  0.12499741892E+03 0.  0.
          2    1    1    2  501    0  0.28321693239E+02  0.31818962767E+02 -0.63789763146E+03  0.63931835022E+03  0.00000000000E+00 0. -1.
          1    1    1    2  502    0 -0.15632261305E+02 -0.56993749799E+02 -0.90157588950E+02  0.10780095526E+03  0.00000000000E+00 0. -1.
         22    1    3    3    0    0  0.46434550287E+02  0.36143772771E+02 -0.52413778920E+03  0.52743052798E+03  0.00000000000E+00 0.  1.
         22    1    3    3    0    0 -0.59123982221E+02 -0.10968985739E+02 -0.24264896621E+03  0.24998896921E+03  0.00000000000E+00 0.  1.
</event>
<event>
 7    1  0.5452757E-006  0.1232769E+03  0.7818608E-02  0.1363387E+00
          2   -1    0    0  502    0  0.00000000000E+00  0.00000000000E+00  0.14822648645E+04  0.14822648645E+04  0.00000000000E+00 0. -1.
          1   -1    0    0  501    0 -0.00000000000E+00 -0.00000000000E+00 -0.11184303889E+03  0.11184303889E+03  0.00000000000E+00 0. -1.
         25    2    1    2    0    0 -0.13002374032E+03  0.24493423710E+02  0.16836791161E+03  0.24794913351E+03  0.12499967319E+03 0.  0.
          2    1    1    2  501    0  0.12142882700E+03  0.13204864022E+02 -0.19760413870E+02  0.12373278634E+03  0.00000000000E+00 0. -1.
          1    1    1    2  502    0  0.85949133266E+01 -0.37698287732E+02  0.12218143278E+04  0.12224259835E+04  0.00000000000E+00 0. -1.
         22    1    3    3    0    0 -0.63113574050E+02 -0.44204187452E+02  0.11433741226E+03  0.13787812466E+03  0.00000000000E+00 0. -1.
         22    1    3    3    0    0 -0.66910166272E+02  0.68697611162E+02  0.54030499352E+02  0.11007100885E+03  0.00000000000E+00 0. -1.
</event>
<event>
 7    1  0.5452757E-006  0.5836604E+02  0.7818608E-02  0.1469171E+00
          2   -1    0    0  502    0  0.00000000000E+00  0.00000000000E+00  0.17080500676E+03  0.17080500676E+03  0.00000000000E+00 0. -1.
          1   -1    0    0  501    0 -0.00000000000E+00 -0.00000000000E+00 -0.91818199515E+03  0.91818199515E+03  0.00000000000E+00 0. -1.
         25    2    1    2    0    0  0.36859929457E+02  0.85294233699E+02 -0.46673408709E+03  0.49203622656E+03  0.12500071797E+03 0.  0.
          2    1    1    2  501    0 -0.77099439003E+01 -0.35165215478E+02 -0.43270864063E+03  0.43420364265E+03  0.00000000000E+00 0. -1.
          1    1    1    2  502    0 -0.29149985556E+02 -0.50129018221E+02  0.15206573933E+03  0.16274713271E+03  0.00000000000E+00 0. -1.
         22    1    3    3    0    0  0.62825289812E+02 -0.16094937266E+01 -0.15162013021E+03  0.16412882561E+03  0.00000000000E+00 0.  1.
         22    1    3    3    0    0 -0.25965360356E+02  0.86903727426E+02 -0.31511395688E+03  0.32790740095E+03  0.00000000000E+00 0.  1.
</event>
<event>
 7    1  0.5452757E-006  0.6129031E+02  0.7818608E-02  0.1398696E+00
          2   -1    0    0  502    0  0.00000000000E+00  0.00000000000E+00  0.10766366199E+04  0.10766366199E+04  0.00000000000E+00 0. -1.
          1   -1    0    0  501    0 -0.00000000000E+00 -0.00000000000E+00 -0.14197653374E+03  0.14197653374E+03  0.00000000000E+00 0. -1.
         25    2    1    2    0    0  0.57968581357E+02 -0.29795860865E+02  0.69446527798E+03  0.70862922623E+03  0.12500083277E+03 0.  0.
          2    1    1    2  501    0 -0.54561568767E+02 -0.28439631894E+02 -0.12544390879E+03  0.13972097803E+03  0.00000000000E+00 0. -1.
          1    1    1    2  502    0 -0.34070125897E+01  0.58235492760E+02  0.36563871701E+03  0.37026294944E+03  0.00000000000E+00 0. -1.
         22    1    3    3    0    0  0.73862079531E+01 -0.33283507306E+02  0.41544876332E+02  0.53743136083E+02  0.00000000000E+00 0. -1.
         22    1    3    3    0    0  0.50582373403E+02  0.34876464408E+01  0.65292040165E+03  0.65488609014E+03  0.00000000000E+00 0. -1.
</event>
<event>
 7    1  0.5452757E-006  0.6271729E+02  0.7818608E-02  0.1416518E+00
          2   -1    0    0  502    0  0.00000000000E+00  0.00000000000E+00  0.28730717840E+03  0.28730717840E+03  0.00000000000E+00 0. -1.
          1   -1    0    0  501    0 -0.00000000000E+00 -0.00000000000E+00 -0.74701651210E+03  0.74701651210E+03  0.00000000000E+00 0. -1.
         25    2    1    2    0    0 -0.34715170682E+02  0.66256315648E+02 -0.11909292866E+03  0.18815528506E+03  0.12499697276E+03 0.  0.
          2    1    1    2  501    0 -0.23872069684E+02 -0.43457451059E+02 -0.58842471910E+03  0.59051001330E+03  0.00000000000E+00 0. -1.
          1    1    1    2  502    0  0.58587240366E+02 -0.22798864589E+02  0.24780831406E+03  0.25565839215E+03  0.00000000000E+00 0. -1.
         22    1    3    3    0    0  0.35284408558E+02  0.60233114947E+02 -0.33527674541E+02  0.77441091054E+02  0.00000000000E+00 0.  1.
         22    1    3    3    0    0 -0.69999579240E+02  0.60232007010E+01 -0.85565254122E+02  0.11071419400E+03  0.00000000000E+00 0.  1.
</event>
<event>
 7    1  0.5452757E-006  0.1004165E+03  0.7818608E-02  0.1418512E+00
          2   -1    0    0  502    0  0.00000000000E+00  0.00000000000E+00  0.21290216766E+04  0.21290216766E+04  0.00000000000E+00 0. -1.
          1   -1    0    0  501    0 -0.00000000000E+00 -0.00000000000E+00 -0.34632456515E+03  0.34632456515E+03  0.00000000000E+00 0. -1.
         25    2    1    2    0    0 -0.77696435169E+02 -0.98517408368E+01  0.42051412033E+03  0.44563542076E+03  0.12500004000E+03 0.  0.
          2    1    1    2  501    0  0.94449203812E+02  0.35332652609E+02 -0.32600612371E+03  0.34124630567E+03  0.00000000000E+00 0. -1.
          1    1    1    2  502    0 -0.16752768643E+02 -0.25480911772E+02  0.16881891148E+04  0.16884645153E+04  0.00000000000E+00 0. -1.
         22    1    3    3    0    0 -0.56899035609E+02  0.52132289186E+02  0.16939697667E+03  0.18614674731E+03  0.00000000000E+00 0. -1.
         22    1    3    3    0    0 -0.20797399559E+02 -0.61984030023E+02  0.25111714366E+03  0.25948867344E+03  0.00000000000E+00 0. -1.
</event>
<event>
 7    1  0.5452757E-006  0.2200525E+03  0.7818608E-02  0.1269092E+00
          2   -1    0    0  502    0  0.00000000000E+00  0.00000000000E+00  0.21381629766E+03  0.21381629766E+03  0.00000000000E+00 0. -1.
          1   -1    0    0  501    0 -0.00000000000E+00 -0.00000000000E+00 -0.18338737425E+04  0.18338737425E+04  0.00000000000E+00 0. -1.
         25    2    1    2    0    0 -0.18066086512E+03  0.51772501511E+01 -0.34440315678E+03  0.40853885461E+03  0.12500123686E+03 0.  0.
          2    1    1    2  501    0  0.23125112293E+03 -0.62933859010E+01 -0.14444890816E+04  0.14628962353E+04  0.00000000000E+00 0. -1.
          1    1    1    2  502    0 -0.50590257816E+02  0.11161357499E+01  0.16883479357E+03  0.17625495018E+03  0.00000000000E+00 0. -1.
         22    1    3    3    0    0 -0.19666961405E+03  0.14868834017E+02 -0.28759374524E+03  0.34872651407E+03  0.00000000000E+00 0.  1.
         22    1    3    3    0    0  0.16008748933E+02 -0.96915838661E+01 -0.56809411541E+02  0.59812340532E+02  0.00000000000E+00 0.  1.
</event>
<event>
 7    1  0.5452757E-006  0.4788519E+02  0.7818608E-02  0.1498482E+00
          2   -1    0    0  502    0  0.00000000000E+00  0.00000000000E+00  0.33779223932E+03  0.33779223932E+03  0.00000000000E+00 0. -1.
          1   -1    0    0  501    0 -0.00000000000E+00 -0.00000000000E+00 -0.40420195424E+02  0.40420195424E+02  0.00000000000E+00 0. -1.
         25    2    1    2    0    0 -0.22853945485E+02 -0.16470342535E+02  0.15974042372E+03  0.20478108450E+03  0.12499885837E+03 0.  0.
          2    1    1    2  501    0  0.54587956274E+02  0.89574946224E-01  0.35200717636E+02  0.64953394953E+02  0.00000000000E+00 0. -1.
          1    1    1    2  502    0 -0.31734010788E+02  0.16380767589E+02  0.10243090255E+03  0.10847795529E+03  0.00000000000E+00 0. -1.
         22    1    3    3    0    0  0.33327440810E+02 -0.14464114211E+02  0.14087274370E+03  0.14548215983E+03  0.00000000000E+00 0.  1.
         22    1    3    3    0    0 -0.56181386295E+02 -0.20062283236E+01  0.18867680011E+02  0.59298924671E+02  0.00000000000E+00 0.  1.
</event>
<event>
 7    1  0.5452757E-006  0.6344172E+02  0.7818608E-02  0.1397155E+00
          2   -1    0    0  502    0  0.00000000000E+00  0.00000000000E+00  0.26327934761E+04  0.26327934761E+04  0.00000000000E+00 0. -1.
          1   -1    0    0  501    0 -0.00000000000E+00 -0.00000000000E+00 -0.16183123140E+03  0.16183123140E+03  0.00000000000E+00 0. -1.
         25    2    1    2    0    0 -0.21704010896E+01 -0.93040199894E+01  0.11789372358E+04  0.11855828046E+04  0.12498922056E+03 0.  0.
          2    1    1    2  501    0  0.52518898549E+02  0.36133521366E+02 -0.15151257577E+03  0.16437739105E+03  0.00000000000E+00 0. -1.
          1    1    1    2  502    0 -0.50348497459E+02 -0.26829501377E+02  0.14435375847E+04  0.14446645118E+04  0.00000000000E+00 0. -1.
         22    1    3    3    0    0  0.24593470275E+02 -0.17432793492E+02  0.11193634751E+04  0.11197693202E+04  0.00000000000E+00 0. -1.
         22    1    3    3    0    0 -0.26763871364E+02  0.81287735031E+01  0.59573760667E+02  0.65813484402E+02  0.00000000000E+00 0. -1.
</event>
<event>
 7    1  0.5452757E-006  0.1026961E+03  0.7818608E-02  0.1375754E+00
          2   -1    0    0  502    0  0.00000000000E+00  0.00000000000E+00  0.12385502658E+04  0.12385502658E+04  0.00000000000E+00 0. -1.
          1   -1    0    0  501    0 -0.00000000000E+00 -0.00000000000E+00 -0.13890167358E+03  0.13890167358E+03  0.00000000000E+00 0. -1.
         25    2    1    2    0    0  0.33510049999E+02 -0.57557627182E+02  0.14675603976E+03  0.20395688125E+03  0.12500108122E+03 0.  0.
          2    1    1    2  501    0 -0.59874258494E+02  0.90117364091E+02 -0.83243674284E+02  0.13651218059E+03  0.00000000000E+00 0. -1.
          1    1    1    2  502    0  0.26364208495E+02 -0.32559736909E+02  0.10361362267E+04  0.10369828775E+04  0.00000000000E+00 0. -1.
         22    1    3    3    0    0  0.75382821261E+02 -0.37289405315E+02  0.12934984955E+03  0.15428691801E+03  0.00000000000E+00 0.  1.
         22    1    3    3    0    0 -0.41872771262E+02 -0.20268221867E+02  0.17406190208E+02  0.49669963241E+02  0.00000000000E+00 0.  1.
</event>
<event>
 7    1  0.5452757E-006  0.5975073E+02  0.7818608E-02  0.1418427E+00
          2   -1    0    0  502    0  0.00000000000E+00  0.00000000000E+00  0.18462359320E+04  0.18462359320E+04  0.00000000000E+00 0. -1.
          1   -1    0    0  501    0 -0.00000000000E+00 -0.00000000000E+00 -0.31718257977E+02  0.31718257977E+02  0.00000000000E+00 0. -1.
         25    2    1    2    0    0 -0.10302270143E+03  0.26264624678E+02  0.71748449232E+03  0.73601231568E+03  0.12500649819E+03 0.  0.
          2    1    1    2  501    0  0.51758124933E+02 -0.24888759732E+02  0.15898032555E+02  0.59591117599E+02  0.00000000000E+00 0. -1.
          1    1    1    2  502    0  0.51264576497E+02 -0.13758649463E+01  0.10811351491E+04  0.10823507567E+04  0.00000000000E+00 0. -1.
         22    1    3    3    0    0 -0.11265435776E+01  0.41338311038E+02  0.77992049559E+02  0.88277317893E+02  0.00000000000E+00 0. -1.
         22    1    3    3    0    0 -0.10189615785E+03 -0.15073686360E+02  0.63949244276E+03  0.64773499778E+03  0.00000000000E+00 0. -1.
</event>
<event>
 7    1  0.5452757E-006  0.6743422E+02  0.7818608E-02  0.1447824E+00
          2   -1    0    0  502    0  0.00000000000E+00  0.00000000000E+00  0.87310664193E+03  0.87310664193E+03  0.00000000000E+00 0. -1.
          1   -1    0    0  501    0 -0.00000000000E+00 -0.00000000000E+00 -0.22550712298E+04  0.22550712298E+04  0.00000000000E+00 0. -1.
         25    2    1    2    0    0 -0.35662115168E+02  0.96706486912E+02  0.40079649671E+03  0.43230282122E+03  0.12499586549E+03 0.  0.
          2    1    1    2  501    0  0.28678434115E+02 -0.60984700839E+02 -0.22380846289E+04  0.22390990136E+04  0.00000000000E+00 0. -1.
          1    1    1    2  502    0  0.69836810527E+01 -0.35721786073E+02  0.45532354439E+03  0.45677603689E+03  0.00000000000E+00 0. -1.
         22    1    3    3    0    0 -0.52955308515E+02 -0.36558866770E+01  0.82415750097E+02  0.98030536423E+02  0.00000000000E+00 0. -1.
         22    1    3    3    0    0  0.17293193347E+02  0.10036237359E+03  0.31838074662E+03  0.33427228480E+03  0.00000000000E+00 0. -1.
</event>
<event>
 7    1  0.5452757E-006  0.3409657E+03  0.7818608E-02  0.1165477E+00
          2   -1    0    0  502    0  0.00000000000E+00  0.00000000000E+00  0.32625240449E+04  0.32625240449E+04  0.00000000000E+00 0. -1.
          1   -1    0    0  501    0 -0.00000000000E+00 -0.00000000000E+00 -0.14500281615E+04  0.14500281615E+04  0.00000000000E+00 0. -1.
         25    2    1    2    0    0  0.25152546119E+03 -0.22261425306E+03  0.10870059783E+04  0.11445650939E+04  0.12500037669E+03 0.  0.
          2    1    1    2  501    0 -0.18057096835E+03  0.28963212675E+03 -0.13996211426E+04  0.14406359659E+04  0.00000000000E+00 0. -1.
          1    1    1    2  502    0 -0.70954492840E+02 -0.67017873694E+02  0.21251110478E+04  0.21273511466E+04  0.00000000000E+00 0. -1.
         22    1    3    3    0    0  0.20329717251E+03 -0.20719664625E+03  0.75789042397E+03  0.81157752884E+03  0.00000000000E+00 0.  1.
         22    1    3    3    0    0  0.48228288675E+02 -0.15417606807E+02  0.32911555428E+03  0.33298756508E+03  0.00000000000E+00 0.  1.
</event>
<event>
 7    1  0.5452757E-006  0.1060020E+03  0.7818608E-02  0.1397101E+00
          2   -1    0    0  502    0  0.00000000000E+00  0.00000000000E+00  0.12067251051E+04  0.12067251051E+04  0.00000000000E+00 0. -1.
          1   -1    0    0  501    0 -0.00000000000E+00 -0.00000000000E+00 -0.91409296941E+03  0.91409296941E+03  0.00000000000E+00 0. -1.
         25    2    1    2    0    0 -0.61752019202E+02 -0.12515134304E+03  0.26172696608E+03  0.32187291949E+03  0.12500000395E+03 0.  0.
          2    1    1    2  501    0  0.49886037532E+02  0.93119007379E+02 -0.88054293133E+03  0.88685715884E+03  0.00000000000E+00 0. -1.
          1    1    1    2  502    0  0.11865981670E+02  0.32032335665E+02  0.91144810097E+03  0.91208799620E+03  0.00000000000E+00 0. -1.
         22    1    3    3    0    0 -0.34431743746E+02 -0.25821367614E+01  0.14956411100E+03  0.15349799904E+03  0.00000000000E+00 0. -1.
         22    1    3    3    0    0 -0.27320275456E+02 -0.12256920628E+03  0.11216285508E+03  0.16837492046E+03  0.00000000000E+00 0. -1.
</event>
<event>
 7    1  0.5452757E-006  0.8150454E+02  0.7818608E-02  0.1480573E+00
          2   -1    0    0  502    0  0.00000000000E+00  0.00000000000E+00  0.20122077745E+03  0.20122077745E+03  0.00000000000E+00 0. -1.
          1   -1    0    0  501    0 -0.00000000000E+00 -0.00000000000E+00 -0.16642556568E+03  0.16642556568E+03  0.00000000000E+00 0. -1.
         25    2    1    2    0    0 -0.91469202765E+02  0.29445223558E+02  0.41741345598E+02  0.16309669280E+03  0.12499822009E+03 0.  0.
          2    1    1    2  501    0  0.69551987612E+02 -0.38650067618E+02 -0.88846803031E+02  0.11926886063E+03  0.00000000000E+00 0. -1.
          1    1    1    2  502    0  0.21917215153E+02  0.92048440594E+01  0.81900669212E+02  0.85280789699E+02  0.00000000000E+00 0. -1.
         22    1    3    3    0    0 -0.30162847169E+02 -0.35203994770E+02 -0.24160660072E+02  0.52276726105E+02  0.00000000000E+00 0. -1.
         22    1    3    3    0    0 -0.61306355596E+02  0.64649218328E+02  0.65902005670E+02  0.11081996669E+03  0.00000000000E+00 0. -1.
</event>
<event>
 7    1  0.5452757E-006  0.1082040E+03  0.7818608E-02  0.1307044E+00
          2   -1    0    0  502    0  0.00000000000E+00  0.00000000000E+00  0.11152399049E+04  0.11152399049E+04  0.00000000000E+00 0. -1.
          1   -1    0    0  501    0 -0.00000000000E+00 -0.00000000000E+00 -0.24169501041E+03  0.24169501041E+03  0.00000000000E+00 0. -1.
         25    2    1    2    0    0  0.74981288673E+02  0.36976320698E+02 -0.15533258974E+03  0.21620049071E+03  0.12499998722E+03 0.  0.
          2    1    1    2  501    0  0.30116470309E+02 -0.65445712782E+02 -0.28712839182E+02  0.77553660387E+02  0.00000000000E+00 0. -1.
          1    1    1    2  502    0 -0.10509775898E+03  0.28469392084E+02  0.10575903235E+04  0.10631807643E+04  0.00000000000E+00 0. -1.
         22    1    3    3    0    0 -0.59122518063E+01  0.31702014933E+02 -0.12588870846E+03  0.12995360475E+03  0.00000000000E+00 0. -1.
         22    1    3    3    0    0  0.80893540479E+02  0.52743057654E+01 -0.29443881285E+02  0.86246885959E+02  0.00000000000E+00 0. -1.
</event>
<event>
 7    1  0.5452757E-006  0.9706981E+02  0.7818608E-02  0.1362866E+00
          2   -1    0    0  502    0  0.00000000000E+00  0.00000000000E+00  0.16212447118E+04  0.16212447118E+04  0.00000000000E+00 0. -1.
          1   -1    0    0  501    0 -0.00000000000E+00 -0.00000000000E+00 -0.91963252815E+03  0.91963252815E+03  0.00000000000E+00 0. -1.
         25    2    1    2    0    0 -0.29527299746E+02 -0.27851871580E+02  0.13158475270E+04  0.13223943907E+04  0.12499848888E+03 0.  0.
          2    1    1    2  501    0 -0.73677086038E+02  0.63199960147E+02 -0.90382735476E+03  0.90902499151E+03  0.00000000000E+00 0. -1.
          1    1    1    2  502    0  0.10320438578E+03 -0.35348088568E+02  0.28959201143E+03  0.30945785770E+03  0.00000000000E+00 0. -1.
         22    1    3    3    0    0  0.63293513441E+01  0.36754084492E+02  0.16434286398E+03  0.16852151303E+03  0.00000000000E+00 0.  1.
         22    1    3    3    0    0 -0.35856651090E+02 -0.64605956072E+02  0.11515046630E+04  0.11538728777E+04  0.00000000000E+00 0.  1.
</event>
<event>
 7    1  0.5452757E-006  0.7328176E+02  0.7818608E-02  0.1368760E+00
          2   -1    0    0  502    0  0.00000000000E+00  0.00000000000E+00  0.11598547611E+04  0.11598547611E+04  0.00000000000E+00 0. -1.
          1   -1    0    0  501    0 -0.00000000000E+00 -0.00000000000E+00 -0.39500888156E+03  0.39500888156E+03  0.00000000000E+00 0. -1.
         25    2    1    2    0    0  0.12826532326E+03 -0.95219942255E+01  0.78048180818E+01  0.17952907099E+03  0.12500844220E+03 0.  0.
          2    1    1    2  501    0 -0.69971783983E+02 -0.12168966171E+02 -0.30414501432E+03  0.31232727071E+03  0.00000000000E+00 0. -1.
          1    1    1    2  502    0 -0.58293539279E+02  0.21690960397E+02  0.10611860758E+04  0.10630073010E+04  0.00000000000E+00 0. -1.
         22    1    3    3    0    0 -0.49708966186E+01  0.37672688652E+02  0.25100665990E+01  0.38082039307E+02  0.00000000000E+00 0. -1.
         22    1    3    3    0    0  0.13323621988E+03 -0.47194682877E+02  0.52947514828E+01  0.14144703169E+03  0.00000000000E+00 0. -1.
</event>
<event>
 7    1  0.5452757E-006  0.6713030E+02  0.7818608E-02  0.1439813E+00
          2   -1    0    0  502    0  0.00000000000E+00  0.00000000000E+00  0.11574514866E+03  0.11574514866E+03  0.00000000000E+00 0. -1.
          1   -1    0    0  501    0 -0.00000000000E+00 -0.00000000000E+00 -0.55554628350E+03  0.55554628350E+03  0.00000000000E+00 0. -1.
         25    2    1    2    0    0 -0.47710378936E+02 -0.16357503380E+02 -0.83981822274E+02  0.15881403909E+03  0.12500041745E+03 0.  0.
          2    1    1    2  501    0  0.41950545923E+02  0.54733430571E+02 -0.42639559408E+03  0.43193610567E+03  0.00000000000E+00 0. -1.
          1    1    1    2  502    0  0.57598330129E+01 -0.38375927191E+02  0.70576281512E+02  0.80541287401E+02  0.00000000000E+00 0. -1.
         22    1    3    3    0    0  0.16121871874E+02  0.35097945864E+02 -0.63469747679E+02  0.74297977274E+02  0.00000000000E+00 0.  1.
         22    1    3    3    0    0 -0.63832250810E+02 -0.51455449244E+02 -0.20512074596E+02  0.84516061814E+02  0.00000000000E+00 0.  1.
</event>
<event>
 7    1  0.5452757E-006  0.6129442E+02  0.7818608E-02  0.1400546E+00
          2   -1    0    0  502    0  0.00000000000E+00  0.00000000000E+00  0.84597872951E+03  0.84597872951E+03  0.00000000000E+00 0. -1.
          1   -1    0    0  501    0 -0.00000000000E+00 -0.00000000000E+00 -0.22935953612E+03  0.22935953612E+03  0.00000000000E+00 0. -1.
         25    2    1    2    0    0 -0.82673250733E+01 -0.27688788666E+02 -0.79548957232E+02  0.15095859160E+03  0.12500176838E+03 0.  0.
          2    1    1    2  501    0 -0.53250438291E+02  0.21648186581E+02 -0.10560039695E+03  0.12023184685E+03  0.00000000000E+00 0. -1.
          1    1    1    2  502    0  0.61517763364E+02  0.60406020845E+01  0.80176854758E+03  0.80414782718E+03  0.00000000000E+00 0. -1.
         22    1    3    3    0    0 -0.21744086077E+02 -0.30576274675E+02  0.25270954417E+02  0.45236434314E+02  0.00000000000E+00 0.  1.
         22    1    3    3    0    0  0.13476761004E+02  0.28874860093E+01 -0.10481991165E+03  0.10572215728E+03  0.00000000000E+00 0.  1.
</event>
<event>
 7    1  0.5452757E-006  0.8189156E+02  0.7818608E-02  0.1341250E+00
          2   -1    0    0  502    0  0.00000000000E+00  0.00000000000E+00  0.25752076434E+03  0.25752076434E+03  0.00000000000E+00 0. -1.
          1   -1    0    0  501    0 -0.00000000000E+00 -0.00000000000E+00 -0.23885282509E+04  0.23885282509E+04  0.00000000000E+00 0. -1.
         25    2    1    2    0    0  0.85727584494E+02  0.98837266359E+02  0.23308805506E+02  0.18244246449E+03  0.12499571380E+03 0.  0.
          2    1    1    2  501    0 -0.14536555874E+02 -0.68739448310E+02 -0.22987333856E+04  0.22998068618E+04  0.00000000000E+00 0. -1.
          1    1    1    2  502    0 -0.71191028620E+02 -0.30097818049E+02  0.14441709355E+03  0.16379968900E+03  0.00000000000E+00 0. -1.
         22    1    3    3    0    0  0.77892887135E+02  0.11286462753E+03  0.54332526860E+02  0.14750508292E+03  0.00000000000E+00 0.  1.
         22    1    3    3    0    0  0.78346973590E+01 -0.14027361166E+02 -0.31023721354E+02  0.34937381565E+02  0.00000000000E+00 0.  1.
</event>
<event>
 7    1  0.5452757E-006  0.1155872E+03  0.7818608E-02  0.1283369E+00
          2   -1    0    0  502    0  0.00000000000E+00  0.00000000000E+00  0.37579095810E+04  0.37579095810E+04  0.00000000000E+00 0. -1.
          1   -1    0    0  501    0 -0.00000000000E+00 -0.00000000000E+00 -0.45281755774E+02  0.45281755774E+02  0.00000000000E+00 0. -1.
         25    2    1    2    0    0 -0.27682421231E+01  0.11678420970E+03  0.40963048306E+03  0.44392330087E+03  0.12499819840E+03 0.  0.
          2    1    1    2  501    0 -0.77849795405E+02 -0.31625631982E+02  0.38095086119E+02  0.92260537768E+02  0.00000000000E+00 0. -1.
          1    1    1    2  502    0  0.80618037528E+02 -0.85158577720E+02  0.32649022561E+04  0.32670074982E+04  0.00000000000E+00 0. -1.
         22    1    3    3    0    0 -0.46804673196E+02  0.10632948236E+03  0.21803472699E+03  0.24705420139E+03  0.00000000000E+00 0.  1.
         22    1    3    3    0    0  0.44036431073E+02  0.10454727344E+02  0.19159575607E+03  0.19686909948E+03  0.00000000000E+00 0.  1.
</event>
<event>
 7    1  0.5452757E-006  0.5004965E+02  0.7818608E-02  0.1551450E+00
          2   -1    0    0  502    0  0.00000000000E+00  0.00000000000E+00  0.22673894616E+04  0.22673894616E+04  0.00000000000E+00 0. -1.
          1   -1    0    0  501    0 -0.00000000000E+00 -0.00000000000E+00 -0.11763605331E+03  0.11763605331E+03  0.00000000000E+00 0. -1.
         25    2    1    2    0    0  0.18886474729E+02  0.45636040668E+02 -0.17689944034E+02  0.13556489326E+03  0.12500223610E+03 0.  0.
          2    1    1    2  501    0  0.19715340883E+02 -0.13741756800E+02 -0.37178978674E+02  0.44269707491E+02  0.00000000000E+00 0. -1.
          1    1    1    2  502    0 -0.38601815613E+02 -0.31894283867E+02  0.22046223310E+04  0.22051909141E+04  0.00000000000E+00 0. -1.
         22    1    3    3    0    0  0.53983691717E+02  0.43127749982E+02 -0.51955740761E+02  0.86450221445E+02  0.00000000000E+00 0.  1.
         22    1    3    3    0    0 -0.35097216988E+02  0.25082906854E+01  0.34265796727E+02  0.49114671818E+02  0.00000000000E+00 0.  1.
</event>
<event>
 7    1  0.5452757E-006  0.1007000E+03  0.7818608E-02  0.1347210E+00
          2   -1    0    0  502    0  0.00000000000E+00  0.00000000000E+00  0.78794815241E+03  0.78794815241E+03  0.00000000000E+00 0. -1.
          1   -1    0    0  501    0 -0.00000000000E+00 -0.00000000000E+00 -0.17637537868E+03  0.17637537868E+03  0.00000000000E+00 0. -1.
         25    2    1    2    0    0  0.14474470536E+03 -0.76492470552E+01  0.16694592975E+03  0.25397853784E+03  0.12499845406E+03 0.  0.
          2    1    1    2  501    0 -0.93650770403E+02  0.25971916192E+02 -0.11359220203E+03  0.14949312891E+03  0.00000000000E+00 0. -1.
          1    1    1    2  502    0 -0.51093934953E+02 -0.18322669137E+02  0.55821904602E+03  0.56085186434E+03  0.00000000000E+00 0. -1.
         22    1    3    3    0    0 -0.20109423294E+02 -0.11187648975E+02  0.65095441528E+01  0.23914986094E+02  0.00000000000E+00 0.  1.
         22    1    3    3    0    0  0.16485412865E+03  0.35384019194E+01  0.16043638559E+03  0.23006355175E+03  0.00000000000E+00 0.  1.
</event>
<event>
 7    1  0.5452757E-006  0.6972192E+02  0.7818608E-02  0.1472810E+00
          2   -1    0    0  502    0  0.00000000000E+00  0.00000000000E+00  0.13909094901E+03  0.13909094901E+03  0.00000000000E+00 0. -1.
          1   -1    0    0  501    0 -0.00000000000E+00 -0.00000000000E+00 -0.85033408486E+03  0.85033408486E+03  0.00000000000E+00 0. -1.
         25    2    1    2    0    0 -0.36616972505E+02  0.87067324955E+02 -0.55669448666E+03  0.57832310486E+03  0.12500936120E+03 0.  0.
          2    1    1    2  501    0 -0.17488695035E+01 -0.29310565473E+02 -0.27260901566E+03  0.27418578230E+03  0.00000000000E+00 0. -1.
          1    1    1    2  502    0  0.38365842009E+02 -0.57756759482E+02  0.11806036647E+03  0.13691614671E+03  0.00000000000E+00 0. -1.
         22    1    3    3    0    0 -0.16704611450E+02  0.55686878859E+02 -0.73559231755E+02  0.93760509262E+02  0.00000000000E+00 0.  1.
         22    1    3    3    0    0 -0.19912361056E+02  0.31380446096E+02 -0.48313525490E+03  0.48456259559E+03  0.00000000000E+00 0.  1.
</event>
<event>
 7    1  0.5452757E-006  0.6043168E+02  0.7818608E-02  0.1437806E+00
          2   -1    0    0  502    0  0.00000000000E+00  0.00000000000E+00  0.71273044307E+03  0.71273044307E+03  0.00000000000E+00 0. -1.
          1   -1    0    0  501    0 -0.00000000000E+00 -0.00000000000E+00 -0.51275016765E+03  0.51275016765E+03  0.00000000000E+00 0. -1.
         25    2    1    2    0    0 -0.92208359056E+02 -0.29159339037E+02 -0.75567860727E+02  0.17518148561E+03  0.12500161116E+03 0.  0.
          2    1    1    2  501    0  0.58964948967E+02  0.70230616975E+00 -0.38440250082E+03  0.38889926854E+03  0.00000000000E+00 0. -1.
          1    1    1    2  502    0  0.33243410090E+02  0.28457032867E+02  0.65995063697E+03  0.66139985657E+03  0.00000000000E+00 0. -1.
         22    1    3    3    0    0 -0.47721567261E+02  0.13953506883E+02 -0.97515034525E+02  0.10945880638E+03  0.00000000000E+00 0.  1.
         22    1    3    3    0    0 -0.44486791795E+02 -0.43112845920E+02  0.21947173798E+02  0.65722679230E+02  0.00000000000E+00 0.  1.
</event>
<event>
 7    1  0.5452757E-006  0.7126612E+02  0.7818608E-02  0.1484402E+00
          2   -1    0    0  502    0  0.00000000000E+00  0.00000000000E+00  0.15857432924E+03  0.15857432924E+03  0.00000000000E+00 0. -1.
          1   -1    0    0  501    0 -0.00000000000E+00 -0.00000000000E+00 -0.52752395157E+03  0.52752395157E+03  0.00000000000E+00 0. -1.
         25    2    1    2    0    0 -0.46392525564E+02  0.49415931599E+02 -0.38137170295E+02  0.14721957525E+03  0.12499983542E+03 0.  0.
          2    1    1    2  501    0 -0.18958241089E+02 -0.18464084250E+02 -0.42181554649E+03  0.42264487762E+03  0.00000000000E+00 0. -1.
          1    1    1    2  502    0  0.65350766653E+02 -0.30951847349E+02  0.91003094462E+02  0.11623382794E+03  0.00000000000E+00 0. -1.
         22    1    3    3    0    0 -0.44888745442E+02 -0.25647401245E+02 -0.49154763140E+02  0.71337082905E+02  0.00000000000E+00 0.  1.
         22    1    3    3    0    0 -0.15037801217E+01  0.75063332844E+02  0.11017592845E+02  0.75882492344E+02  0.00000000000E+00 0.  1.
</event>
<event>
 7    1  0.5452757E-006  0.1008430E+03  0.7818608E-02  0.1438950E+00
          2   -1    0    0  502    0  0.00000000000E+00  0.00000000000E+00  0.13580824112E+04  0.13580824112E+04  0.00000000000E+00 0. -1.
          1   -1    0    0  501    0 -0.00000000000E+00 -0.00000000000E+00 -0.12496271767E+03  0.12496271767E+03  0.00000000000E+00 0. -1.
         25    2    1    2    0    0 -0.55212257117E+02  0.58948331433E+02  0.34680533118E+03  0.37738978569E+03  0.12500325395E+03 0.  0.
          2    1    1    2  501    0 -0.70367503023E+01  0.25029622733E+02 -0.10534274192E+03  0.10850387617E+03  0.00000000000E+00 0. -1.
          1    1    1    2  502    0  0.62249007420E+02 -0.83977954166E+02  0.99165710425E+03  0.99715146699E+03  0.00000000000E+00 0. -1.
         22    1    3    3    0    0  0.33192123161E+02  0.29626128289E+01  0.34265026481E+02  0.47797344639E+02  0.00000000000E+00 0.  1.
         22    1    3    3    0    0 -0.88404380279E+02  0.55985718604E+02  0.31254030470E+03  0.32959244105E+03  0.00000000000E+00 0.  1.
</event>
<event>
 7    1  0.5452757E-006  0.1886112E+03  0.7818608E-02  0.1273898E+00
          2   -1    0    0  502    0  0.00000000000E+00  0.00000000000E+00  0.70290860326E+03  0.70290860326E+03  0.00000000000E+00 0. -1.
          1   -1    0    0  501    0 -0.00000000000E+00 -0.00000000000E+00 -0.21338207672E+03  0.21338207672E+03  0.00000000000E+00 0. -1.
         25    2    1    2    0    0 -0.13682463683E+03 -0.13921237936E+03  0.26452753816E+02  0.23329438789E+03  0.12500182168E+03 0.  0.
          2    1    1    2  501    0  0.49019591148E+02 -0.27818942652E+02 -0.85762335832E+02  0.10262549456E+03  0.00000000000E+00 0. -1.
          1    1    1    2  502    0  0.87805045686E+02  0.16703132201E+03  0.54883610855E+03  0.58037079753E+03  0.00000000000E+00 0. -1.
         22    1    3    3    0    0 -0.15933246568E+03 -0.13183538935E+03  0.31183519628E+02  0.20914066176E+03  0.00000000000E+00 0.  1.
         22    1    3    3    0    0  0.22507828842E+02 -0.73769900012E+01 -0.47307658122E+01  0.24153726127E+02  0.00000000000E+00 0.  1.
</event>
<event>
 7    1  0.5452757E-006  0.1828957E+03  0.7818608E-02  0.1216012E+00
          2   -1    0    0  502    0  0.00000000000E+00  0.00000000000E+00  0.27462593858E+04  0.27462593858E+04  0.00000000000E+00 0. -1.
          1   -1    0    0  501    0 -0.00000000000E+00 -0.00000000000E+00 -0.25682800898E+03  0.25682800898E+03  0.00000000000E+00 0. -1.
         25    2    1    2    0    0 -0.17094232757E+03 -0.83143936767E+02  0.40781034612E+03  0.46697746197E+03  0.12499791203E+03 0.  0.
          2    1    1    2  501    0  0.97347051106E+02  0.15685644102E+03 -0.18835897411E+03  0.26374134029E+03  0.00000000000E+00 0. -1.
          1    1    1    2  502    0  0.73595276460E+02 -0.73712504254E+02  0.22699800048E+04  0.22723685925E+04  0.00000000000E+00 0. -1.
         22    1    3    3    0    0  0.16663732544E+02  0.34055296307E+01  0.60637757032E+02  0.62977894473E+02  0.00000000000E+00 0.  1.
         22    1    3    3    0    0 -0.18760606011E+03 -0.86549466398E+02  0.34717258908E+03  0.40399956749E+03  0.00000000000E+00 0.  1.
</event>
<event>
 7    1  0.5452757E-006  0.1321887E+03  0.7818608E-02  0.1301212E+00
          2   -1    0    0  502    0  0.00000000000E+00  0.00000000000E+00  0.24020965479E+04  0.24020965479E+04  0.00000000000E+00 0. -1.
          1   -1    0    0  501    0 -0.00000000000E+00 -0.00000000000E+00 -0.85914021970E+02  0.85914021970E+02  0.00000000000E+00 0. -1.
         25    2    1    2    0    0 -0.98756313975E+02  0.48784439137E+02  0.40313496528E+03  0.43620629343E+03  0.12500159657E+03 0.  0.
          2    1    1    2  501    0  0.15902438169E+02  0.60139097952E+02 -0.52560150245E+02  0.81438123971E+02  0.00000000000E+00 0. -1.
          1    1    1    2  502    0  0.82853875806E+02 -0.10892353709E+03  0.19656077109E+04  0.19703661525E+04  0.00000000000E+00 0. -1.
         22    1    3    3    0    0  0.90322251904E+01 -0.30939635447E+02  0.89087288095E+02  0.94738519271E+02  0.00000000000E+00 0. -1.
         22    1    3    3    0    0 -0.10778853917E+03  0.79724074584E+02  0.31404767719E+03  0.34146777416E+03  0.00000000000E+00 0. -1.
</event>
<event>
 7    1  0.5452757E-006  0.4547865E+02  0.7818608E-02  0.1509532E+00
          2   -1    0    0  502    0  0.00000000000E+00  0.00000000000E+00  0.81715871832E+03  0.81715871832E+03  0.00000000000E+00 0. -1.
          1   -1    0    0  501    0 -0.00000000000E+00 -0.00000000000E+00 -0.20555912214E+04  0.20555912214E+04  0.00000000000E+00 0. -1.
         25    2    1    2    0    0 -0.40902513153E+01 -0.12379244450E+02  0.58745359490E+03  0.60074639912E+03  0.12499813617E+03 0.  0.
          2    1    1    2  501    0 -0.41909743238E+02  0.17660164972E+02 -0.20462866066E+04  0.20467919250E+04  0.00000000000E+00 0. -1.
          1    1    1    2  502    0  0.45999994553E+02 -0.52809205218E+01  0.22040050858E+03  0.22521161560E+03  0.00000000000E+00 0. -1.
         22    1    3    3    0    0 -0.41962847043E+02  0.28071655721E+02  0.44564492826E+03  0.44849559694E+03  0.00000000000E+00 0.  1.
         22    1    3    3    0    0  0.37872595727E+02 -0.40450900171E+02  0.14180866664E+03  0.15225080219E+03  0.00000000000E+00 0.  1.
</event>
<event>
 7    1  0.5452757E-006  0.1075608E+03  0.7818608E-02  0.1286574E+00
          2   -1    0    0  502    0  0.00000000000E+00  0.00000000000E+00  0.74842121014E+03  0.74842121014E+03  0.00000000000E+00 0. -1.
          1   -1    0    0  501    0 -0.00000000000E+00 -0.00000000000E+00 -0.18957179576E+03  0.18957179576E+03  0.00000000000E+00 0. -1.
         25    2    1    2    0    0 -0.16084725878E+02 -0.43545910043E+02  0.20527755085E+03  0.24478230035E+03  0.12499814797E+03 0.  0.
          2    1    1    2  501    0 -0.47744673522E+02  0.10355383645E+03 -0.14642939374E+03  0.18559234425E+03  0.00000000000E+00 0. -1.
          1    1    1    2  502    0  0.63829399400E+02 -0.60007926404E+02  0.50000125727E+03  0.50761836130E+03  0.00000000000E+00 0. -1.
         22    1    3    3    0    0 -0.47128879926E+02  0.63207175082E+01  0.16941056575E+03  0.17595744536E+03  0.00000000000E+00 0. -1.
         22    1    3    3    0    0  0.31044154048E+02 -0.49866627551E+02  0.35866985100E+02  0.68824854987E+02  0.00000000000E+00 0. -1.
</event>
<event>
 7    1  0.5452757E-006  0.8026959E+02  0.7818608E-02  0.1366503E+00
          2   -1    0    0  502    0  0.00000000000E+00  0.00000000000E+00  0.24694134603E+03  0.24694134603E+03  0.00000000000E+00 0. -1.
          1   -1    0    0  501    0 -0.00000000000E+00 -0.00000000000E+00 -0.49880326680E+03  0.49880326680E+03  0.00000000000E+00 0. -1.
         25    2    1    2    0    0 -0.97672209840E+02  0.92174016040E+02 -0.10059319192E+03  0.20923055953E+03  0.12499010751E+03 0.  0.
          2    1    1    2  501    0  0.35739911196E+02 -0.45500501638E+02 -0.33349275894E+03  0.33847460343E+03  0.00000000000E+00 0. -1.
          1    1    1    2  502    0  0.61932298644E+02 -0.46673514402E+02  0.18222403009E+03  0.19803944987E+03  0.00000000000E+00 0. -1.
         22    1    3    3    0    0 -0.98747164772E+02  0.15214610522E+02 -0.83916112316E+02  0.13047758746E+03  0.00000000000E+00 0. -1.
         22    1    3    3    0    0  0.10749549321E+01  0.76959405518E+02 -0.16677079599E+02  0.78752972069E+02  0.00000000000E+00 0. -1.
</event>
<event>
 7    1  0.5452757E-006  0.5245768E+02  0.7818608E-02  0.1527986E+00
          2   -1    0    0  502    0  0.00000000000E+00  0.00000000000E+00  0.42293253226E+03  0.42293253226E+03  0.00000000000E+00 0. -1.
          1   -1    0    0  501    0 -0.00000000000E+00 -0.00000000000E+00 -0.59180762392E+03  0.59180762392E+03  0.00000000000E+00 0. -1.
         25    2    1    2    0    0 -0.16055840596E+02  0.22989148203E+02  0.11736336252E+01  0.12810768268E+03  0.12499563989E+03 0.  0.
          2    1    1    2  501    0  0.40110255088E+02 -0.34608882651E+02 -0.52651151712E+03  0.52917009079E+03  0.00000000000E+00 0. -1.
          1    1    1    2  502    0 -0.24054414492E+02  0.11619734448E+02  0.35646279184E+03  0.35746238271E+03  0.00000000000E+00 0. -1.
         22    1    3    3    0    0 -0.34831134877E+02  0.60748379779E+02 -0.29476028508E+02  0.75976376981E+02  0.00000000000E+00 0.  1.
         22    1    3    3    0    0  0.18775294281E+02 -0.37759231576E+02  0.30649662133E+02  0.52131305694E+02  0.00000000000E+00 0.  1.
</event>
<event>
 7    1  0.5452757E-006  0.6509125E+02  0.7818608E-02  0.1469324E+00
          2   -1    0    0  502    0  0.00000000000E+00  0.00000000000E+00  0.10557507279E+03  0.10557507279E+03  0.00000000000E+00 0. -1.
          1   -1    0    0  501    0 -0.00000000000E+00 -0.00000000000E+00 -0.44963205361E+03  0.44963205361E+03  0.00000000000E+00 0. -1.
         25    2    1    2    0    0  0.88359254806E+02 -0.63058145029E+01 -0.25613787723E+03  0.29845829744E+03  0.12499448768E+03 0.  0.
          2    1    1    2  501    0 -0.59119313373E+02 -0.72884880376E+01 -0.16380321979E+03  0.17429776271E+03  0.00000000000E+00 0. -1.
          1    1    1    2  502    0 -0.29239941433E+02  0.13594302540E+02  0.75884116200E+02  0.82451066263E+02  0.00000000000E+00 0. -1.
         22    1    3    3    0    0  0.78095448340E+02  0.31017688588E+02 -0.24373091083E+03  0.25780952843E+03  0.00000000000E+00 0.  1.
         22    1    3    3    0    0  0.10263806466E+02 -0.37323503091E+02 -0.12406966397E+02  0.40648769002E+02  0.00000000000E+00 0.  1.
</event>
<event>
 7    1  0.5452757E-006  0.9375732E+02  0.7818608E-02  0.1417190E+00
          2   -1    0    0  502    0  0.00000000000E+00  0.00000000000E+00  0.59726908114E+03  0.59726908114E+03  0.00000000000E+00 0. -1.
          1   -1    0    0  501    0 -0.00000000000E+00 -0.00000000000E+00 -0.12962732495E+03  0.12962732495E+03  0.00000000000E+00 0. -1.
         25    2    1    2    0    0  0.66512537808E+02 -0.13414408805E+02  0.15213857236E+03  0.20827665197E+03  0.12501661693E+03 0.  0.
          2    1    1    2  501    0 -0.97254729465E+02  0.14303106534E+01 -0.77418735484E+02  0.12431487761E+03  0.00000000000E+00 0. -1.
          1    1    1    2  502    0  0.30742191657E+02  0.11984098152E+02  0.39292191932E+03  0.39430487651E+03  0.00000000000E+00 0. -1.
         22    1    3    3    0    0  0.13962411754E+02  0.37837366663E+01 -0.21574807871E+02  0.25975718274E+02  0.00000000000E+00 0. -1.
         22    1    3    3    0    0  0.52550126054E+02 -0.17198145472E+02  0.17371338023E+03  0.18230093370E+03  0.00000000000E+00 0. -1.
</event>
<event>
 7    1  0.5452757E-006  0.1194656E+03  0.7818608E-02  0.1316152E+00
          2   -1    0    0  502    0  0.00000000000E+00  0.00000000000E+00  0.21522774786E+03  0.21522774786E+03  0.00000000000E+00 0. -1.
          1   -1    0    0  501    0 -0.00000000000E+00 -0.00000000000E+00 -0.17158384029E+04  0.17158384029E+04  0.00000000000E+00 0. -1.
         25    2    1    2    0    0 -0.11655018084E+03  0.15721255279E+02 -0.24212385442E+03  0.29678239136E+03  0.12499889769E+03 0.  0.
          2    1    1    2  501    0  0.43359827375E+01 -0.59931012313E+02 -0.14263331116E+04  0.14275982181E+04  0.00000000000E+00 0. -1.
          1    1    1    2  502    0  0.11221419810E+03  0.44209757034E+02  0.16784631099E+03  0.20668554131E+03  0.00000000000E+00 0. -1.
         22    1    3    3    0    0  0.54057629796E+00 -0.11112822218E+02  0.11590745874E+02  0.16066500250E+02  0.00000000000E+00 0.  1.
         22    1    3    3    0    0 -0.11709075714E+03  0.26834077497E+02 -0.25371460029E+03  0.28071589111E+03  0.00000000000E+00 0.  1.
</event>
<event>
 7    1  0.5452757E-006  0.1902820E+03  0.7818608E-02  0.1220805E+00
          2   -1    0    0  502    0  0.00000000000E+00  0.00000000000E+00  0.14372002988E+03  0.14372002988E+03  0.00000000000E+00 0. -1.
          1   -1    0    0  501    0 -0.00000000000E+00 -0.00000000000E+00 -0.12482572527E+04  0.12482572527E+04  0.00000000000E+00 0. -1.
         25    2    1    2    0    0  0.11346563768E+03 -0.53795250399E+02 -0.25601630916E+03  0.31133547494E+03  0.12496818595E+03 0.  0.
          2    1    1    2  501    0 -0.19495138114E+03  0.10300533029E+03 -0.92972895667E+03  0.95551665184E+03  0.00000000000E+00 0. -1.
          1    1    1    2  502    0  0.81485743460E+02 -0.49210079895E+02  0.81208043048E+02  0.12512515577E+03  0.00000000000E+00 0. -1.
         22    1    3    3    0    0  0.26254431946E+02 -0.21167212377E+02 -0.19967292397E+03  0.20250092011E+03  0.00000000000E+00 0. -1.
         22    1    3    3    0    0  0.87211205736E+02 -0.32628038022E+02 -0.56343385190E+02  0.10883455483E+03  0.00000000000E+00 0. -1.
</event>
<event>
 7    1  0.5452757E-006  0.9437647E+02  0.7818608E-02  0.1463762E+00
          2   -1    0    0  502    0  0.00000000000E+00  0.00000000000E+00  0.14455094660E+04  0.14455094660E+04  0.00000000000E+00 0. -1.
          1   -1    0    0  501    0 -0.00000000000E+00 -0.00000000000E+00 -0.15647323253E+02  0.15647323253E+02  0.00000000000E+00 0. -1.
         25    2    1    2    0    0  0.68212053858E+02  0.50166652742E+02  0.74346293196E+03  0.75863818916E+03  0.12500077406E+03 0.  0.
          2    1    1    2  501    0 -0.66598600500E+02 -0.73258405010E+02  0.31039284016E+03  0.32580037250E+03  0.00000000000E+00 0. -1.
          1    1    1    2  502    0 -0.16134533586E+01  0.23091752268E+02  0.37600637062E+03  0.37671822759E+03  0.00000000000E+00 0. -1.
         22    1    3    3    0    0 -0.13196151299E+02  0.57138985750E+02  0.45711701867E+03  0.46086328869E+03  0.00000000000E+00 0.  1.
         22    1    3    3    0    0  0.81408205158E+02 -0.69723330073E+01  0.28634591329E+03  0.29777490047E+03  0.00000000000E+00 0.  1.
</event>
<event>
 7    1  0.5452757E-006  0.4919296E+02  0.7818608E-02  0.1520942E+00
          2   -1    0    0  502    0  0.00000000000E+00  0.00000000000E+00  0.39008665960E+03  0.39008665960E+03  0.00000000000E+00 0. -1.
          1   -1    0    0  501    0 -0.00000000000E+00 -0.00000000000E+00 -0.59229429648E+03  0.59229429648E+03  0.00000000000E+00 0. -1.
         25    2    1    2    0    0  0.77233744615E+02  0.13508367637E+02 -0.76169208826E+02  0.16605218290E+03  0.12499620702E+03 0.  0.
          2    1    1    2  501    0 -0.28772025442E+02 -0.79574865103E+01 -0.46898322186E+03  0.46993234984E+03  0.00000000000E+00 0. -1.
          1    1    1    2  502    0 -0.48461719173E+02 -0.55508811268E+01  0.34294479380E+03  0.34639642334E+03  0.00000000000E+00 0. -1.
         22    1    3    3    0    0  0.10690703188E+03 -0.50254059783E+01 -0.36310074919E+02  0.11301676739E+03  0.00000000000E+00 0.  1.
         22    1    3    3    0    0 -0.29673287270E+02  0.18533773615E+02 -0.39859133907E+02  0.53035415504E+02  0.00000000000E+00 0.  1.
</event>
<event>
 7    1  0.5452757E-006  0.4995031E+02  0.7818608E-02  0.1447662E+00
          2   -1    0    0  502    0  0.00000000000E+00  0.00000000000E+00  0.62315789883E+03  0.62315789883E+03  0.00000000000E+00 0. -1.
          1   -1    0    0  501    0 -0.00000000000E+00 -0.00000000000E+00 -0.47173739413E+03  0.47173739413E+03  0.00000000000E+00 0. -1.
         25    2    1    2    0    0  0.89449323714E+01  0.36577063303E+02 -0.67733686830E+02  0.14707288603E+03  0.12499875239E+03 0.  0.
          2    1    1    2  501    0 -0.50468649748E+02 -0.10192770304E+02 -0.36146957277E+03  0.36511810310E+03  0.00000000000E+00 0. -1.
          1    1    1    2  502    0  0.41523717376E+02 -0.26384292999E+02  0.58062376430E+03  0.58270430383E+03  0.00000000000E+00 0. -1.
         22    1    3    3    0    0 -0.14407212465E+01  0.68043414542E+02  0.38752858143E+01  0.68168906258E+02  0.00000000000E+00 0.  1.
         22    1    3    3    0    0  0.10385653618E+02 -0.31466351239E+02 -0.71608972645E+02  0.78903979777E+02  0.00000000000E+00 0.  1.
</event>
<event>
 7    1  0.5452757E-006  0.6360925E+02  0.7818608E-02  0.1402048E+00
          2   -1    0    0  502    0  0.00000000000E+00  0.00000000000E+00  0.25307994324E+03  0.25307994324E+03  0.00000000000E+00 0. -1.
          1   -1    0    0  501    0 -0.00000000000E+00 -0.00000000000E+00 -0.40473896077E+03  0.40473896077E+03  0.00000000000E+00 0. -1.
         25    2    1    2    0    0 -0.41690590852E+02 -0.26833368997E+02 -0.29410511058E+03  0.32338789615E+03  0.12499512092E+03 0.  0.
          2    1    1    2  501    0 -0.17319767149E+02  0.51924851409E+02 -0.83344317387E+02  0.99711783500E+02  0.00000000000E+00 0. -1.
          1    1    1    2  502    0  0.59010358001E+02 -0.25091482412E+02  0.22579041043E+03  0.23471922436E+03  0.00000000000E+00 0. -1.
         22    1    3    3    0    0  0.32023271233E+02 -0.42135349933E+02 -0.17181949281E+03  0.17978547140E+03  0.00000000000E+00 0. -1.
         22    1    3    3    0    0 -0.73713862085E+02  0.15301980935E+02 -0.12228561776E+03  0.14360242475E+03  0.00000000000E+00 0. -1.
</event>
<event>
 7    1  0.5452757E-006  0.1740126E+03  0.7818608E-02  0.1292492E+00
          2   -1    0    0  502    0  0.00000000000E+00  0.00000000000E+00  0.27177827891E+04  0.27177827891E+04  0.00000000000E+00 0. -1.
          1   -1    0    0  501    0 -0.00000000000E+00 -0.00000000000E+00 -0.53223632776E+03  0.53223632776E+03  0.00000000000E+00 0. -1.
         25    2    1    2    0    0 -0.71448129939E+02  0.15287474525E+03 -0.79664138135E+02  0.22460575631E+03  0.12500339138E+03 0.  0.
          2    1    1    2  501    0 -0.45445044779E+02 -0.23649965215E+02 -0.37549060476E+03  0.37896934865E+03  0.00000000000E+00 0. -1.
          1    1    1    2  502    0  0.11689317472E+03 -0.12922478003E+03  0.26407012043E+04  0.26464440119E+04  0.00000000000E+00 0. -1.
         22    1    3    3    0    0  0.20646503993E+02  0.17470142849E+01  0.13375393486E+02  0.24662346542E+02  0.00000000000E+00 0.  1.
         22    1    3    3    0    0 -0.92094633933E+02  0.15112773096E+03 -0.93039531620E+02  0.19994340977E+03  0.00000000000E+00 0.  1.
</event>
<event>
 7    1  0.5452757E-006  0.1238287E+03  0.7818608E-02  0.1379261E+00
          2   -1    0    0  502    0  0.00000000000E+00  0.00000000000E+00  0.60845926358E+02  0.60845926358E+02  0.00000000000E+00 0. -1.
          1   -1    0    0  501    0 -0.00000000000E+00 -0.00000000000E+00 -0.21867158447E+04  0.21867158447E+04  0.00000000000E+00 0. -1.
         25    2    1    2    0    0 -0.64489904391E+02  0.12071728353E+03 -0.16047706415E+04  0.16154402745E+04  0.12500743297E+03 0.  0.
          2    1    1    2  501    0  0.33995889778E+02 -0.10622622827E+03 -0.56547103162E+03  0.57636552612E+03  0.00000000000E+00 0. -1.
          1    1    1    2  502    0  0.30494014612E+02 -0.14491055262E+02  0.44371754826E+02  0.55755970408E+02  0.00000000000E+00 0. -1.
         22    1    3    3    0    0 -0.37188774229E+02  0.14337556557E+03 -0.11971280978E+04  0.12062567058E+04  0.00000000000E+00 0.  1.
         22    1    3    3    0    0 -0.27301130162E+02 -0.22658282036E+02 -0.40764254372E+03  0.40918356871E+03  0.00000000000E+00 0.  1.
</event>
<event>
 7    1  0.5452757E-006  0.1788978E+03  0.7818608E-02  0.1292434E+00
          2   -1    0    0  502    0  0.00000000000E+00  0.00000000000E+00  0.17145289676E+03  0.17145289676E+03  0.00000000000E+00 0. -1.
          1   -1    0    0  501    0 -0.00000000000E+00 -0.00000000000E+00 -0.25969379033E+04  0.25969379033E+04  0.00000000000E+00 0. -1.
         25    2    1    2    0    0 -0.18342409051E+03  0.98173558232E+02 -0.25711970005E+03  0.35357830589E+03  0.12499853489E+03 0.  0.
          2    1    1    2  501    0  0.13597415990E+03 -0.11348329631E+03 -0.22829712792E+04  0.22898308436E+04  0.00000000000E+00 0. -1.
          1    1    1    2  502    0  0.47449930605E+02  0.15309738078E+02  0.11460597272E+03  0.12498165056E+03  0.00000000000E+00 0. -1.
         22    1    3    3    0    0 -0.43109432274E+02  0.80844749296E+02 -0.54810853700E+02  0.10676388117E+03  0.00000000000E+00 0.  1.
         22    1    3    3    0    0 -0.14031465823E+03  0.17328808936E+02 -0.20230884635E+03  0.24681442471E+03  0.00000000000E+00 0.  1.
</event>
<event>
 7    1  0.5452757E-006  0.1262908E+03  0.7818608E-02  0.1290791E+00
          2   -1    0    0  502    0  0.00000000000E+00  0.00000000000E+00  0.36972530948E+03  0.36972530948E+03  0.00000000000E+00 0. -1.
          1   -1    0    0  501    0 -0.00000000000E+00 -0.00000000000E+00 -0.99725255247E+03  0.99725255247E+03  0.00000000000E+00 0. -1.
         25    2    1    2    0    0 -0.10494825919E+03 -0.16272215255E+03 -0.23738553620E+03  0.33086714073E+03  0.12501414314E+03 0.  0.
          2    1    1    2  501    0  0.48428430276E+02  0.52900419546E+02 -0.69941692888E+03  0.70308449538E+03  0.00000000000E+00 0. -1.
          1    1    1    2  502    0  0.56519828911E+02  0.10982173301E+03  0.30927522208E+03  0.33302622584E+03  0.00000000000E+00 0. -1.
         22    1    3    3    0    0 -0.18437970699E+02 -0.53570378934E+02 -0.11917561734E+01  0.56667138144E+02  0.00000000000E+00 0.  1.
         22    1    3    3    0    0 -0.86510288487E+02 -0.10915177362E+03 -0.23619378002E+03  0.27420000259E+03  0.00000000000E+00 0.  1.
</event>
<event>
 7    1  0.5452757E-006  0.4973519E+02  0.7818608E-02  0.1511051E+00
          2   -1    0    0  502    0  0.00000000000E+00  0.00000000000E+00  0.37224025760E+03  0.37224025760E+03  0.00000000000E+00 0. -1.
          1   -1    0    0  501    0 -0.00000000000E+00 -0.00000000000E+00 -0.59926641027E+03  0.59926641027E+03  0.00000000000E+00 0. -1.
         25    2    1    2    0    0  0.33685191322E+01 -0.68042914646E+02 -0.71363585951E+02  0.15924545577E+03  0.12500067451E+03 0.  0.
          2    1    1    2  501    0 -0.23276754034E+02  0.43558358622E+02 -0.48193866795E+03  0.48446260696E+03  0.00000000000E+00 0. -1.
          1    1    1    2  502    0  0.19908234902E+02  0.24484556023E+02  0.32627610123E+03  0.32779860514E+03  0.00000000000E+00 0. -1.
         22    1    3    3    0    0 -0.70668465850E+01 -0.44293588295E+02  0.30427775449E+02  0.54200662390E+02  0.00000000000E+00 0. -1.
         22    1    3    3    0    0  0.10435365717E+02 -0.23749326350E+02 -0.10179136140E+03  0.10504479338E+03  0.00000000000E+00 0. -1.
</event>
<event>
 7    1  0.5452757E-006  0.6115253E+02  0.7818608E-02  0.1472718E+00
          2   -1    0    0  502    0  0.00000000000E+00  0.00000000000E+00  0.10000856329E+03  0.10000856329E+03  0.00000000000E+00 0. -1.
          1   -1    0    0  501    0 -0.00000000000E+00 -0.00000000000E+00 -0.53955001087E+03  0.53955001087E+03  0.00000000000E+00 0. -1.
         25    2    1    2    0    0 -0.64580680076E+02  0.16141661522E+01 -0.98358173644E+02  0.17167545261E+03  0.12499944374E+03 0.  0.
          2    1    1    2  501    0  0.12323520517E+02  0.31150241520E+02 -0.38862678986E+03  0.39006792806E+03  0.00000000000E+00 0. -1.
          1    1    1    2  502    0  0.52257159559E+02 -0.32764407672E+02  0.47443515922E+02  0.77815193493E+02  0.00000000000E+00 0. -1.
         22    1    3    3    0    0 -0.10254994429E+03  0.42682672641E+01 -0.71094230581E+02  0.12485631262E+03  0.00000000000E+00 0.  1.
         22    1    3    3    0    0  0.37969264216E+02 -0.26541011119E+01 -0.27263943063E+02  0.46819139987E+02  0.00000000000E+00 0.  1.
</event>
<event>
 7    1  0.5452757E-006  0.2705875E+02  0.7818608E-02  0.1634362E+00
          2   -1    0    0  502    0  0.00000000000E+00  0.00000000000E+00  0.15328130835E+04  0.15328130835E+04  0.00000000000E+00 0. -1.
          1   -1    0    0  501    0 -0.00000000000E+00 -0.00000000000E+00 -0.12517314247E+02  0.12517314247E+02  0.00000000000E+00 0. -1.
         25    2    1    2    0    0 -0.38536458329E+01  0.51937029163E+01  0.31816229695E+03  0.34189722799E+03  0.12499856868E+03 0.  0.
          2    1    1    2  501    0  0.21614943025E+02  0.15944131318E+02  0.45723918882E+03  0.45802739752E+03  0.00000000000E+00 0. -1.
          1    1    1    2  502    0 -0.17761297192E+02 -0.21137834235E+02  0.74489428353E+03  0.74540577229E+03  0.00000000000E+00 0. -1.
         22    1    3    3    0    0 -0.50998832182E+02  0.61971994493E+01  0.26866622030E+03  0.27353395419E+03  0.00000000000E+00 0. -1.
         22    1    3    3    0    0  0.47145186349E+02 -0.10034965329E+01  0.49496076647E+02  0.68363273800E+02  0.00000000000E+00 0. -1.
</event>
<event>
 7    1  0.5452757E-006  0.4471916E+02  0.7818608E-02  0.1519865E+00
          2   -1    0    0  502    0  0.00000000000E+00  0.00000000000E+00  0.20879805481E+04  0.20879805481E+04  0.00000000000E+00 0. -1.
          1   -1    0    0  501    0 -0.00000000000E+00 -0.00000000000E+00 -0.68906765712E+02  0.68906765712E+02  0.00000000000E+00 0. -1.
         25    2    1    2    0    0  0.19911154009E+02  0.23270168345E+02  0.15757092395E+02  0.12964476310E+03  0.12498609463E+03 0.  0.
          2    1    1    2  501    0  0.24889725940E+02 -0.21783295480E+02  0.11644094694E+02  0.35065586557E+02  0.00000000000E+00 0. -1.
          1    1    1    2  502    0 -0.44800879949E+02 -0.14868728649E+01  0.19916725953E+04  0.19921769641E+04  0.00000000000E+00 0. -1.
         22    1    3    3    0    0  0.72776027167E+02  0.63182925962E+01  0.62068999415E+01  0.73313004020E+02  0.00000000000E+00 0.  1.
         22    1    3    3    0    0 -0.52864873158E+02  0.16951875749E+02  0.95501924532E+01  0.56331759082E+02  0.00000000000E+00 0.  1.
</event>
<event>
 7    1  0.5452757E-006  0.6210552E+02  0.7818608E-02  0.1435076E+00
          2   -1    0    0  502    0  0.00000000000E+00  0.00000000000E+00  0.68930387660E+03  0.68930387660E+03  0.00000000000E+00 0. -1.
          1   -1    0    0  501    0 -0.00000000000E+00 -0.00000000000E+00 -0.17346633654E+03  0.17346633654E+03  0.00000000000E+00 0. -1.
         25    2    1    2    0    0  0.73564327285E+01 -0.18825490621E+02  0.37260780073E+00  0.12662153658E+03  0.12499743393E+03 0.  0.
          2    1    1    2  501    0  0.45334766061E+01 -0.43225374361E+02 -0.10439306519E+03  0.11307916456E+03  0.00000000000E+00 0. -1.
          1    1    1    2  502    0 -0.11889909335E+02  0.62050864982E+02  0.61985799745E+03  0.62306951200E+03  0.00000000000E+00 0. -1.
         22    1    3    3    0    0  0.66151046987E+02 -0.14048077721E+02  0.83148925866E+00  0.67631360178E+02  0.00000000000E+00 0.  1.
         22    1    3    3    0    0 -0.58794614258E+02 -0.47774128995E+01 -0.45888145793E+00  0.58990176402E+02  0.00000000000E+00 0.  1.
</event>
<event>
 7    1  0.5452757E-006  0.3836670E+02  0.7818608E-02  0.1533475E+00
          2   -1    0    0  502    0  0.00000000000E+00  0.00000000000E+00  0.66147167546E+03  0.66147167546E+03  0.00000000000E+00 0. -1.
          1   -1    0    0  501    0 -0.00000000000E+00 -0.00000000000E+00 -0.75554002237E+02  0.75554002237E+02  0.00000000000E+00 0. -1.
         25    2    1    2    0    0 -0.67729985567E+02 -0.27619017184E+02  0.43858337077E+02  0.15132246357E+03  0.12499909277E+03 0.  0.
          2    1    1    2  501    0  0.32242897251E+02  0.14190517285E+02 -0.65094077720E+01  0.35823841132E+02  0.00000000000E+00 0. -1.
          1    1    1    2  502    0  0.35487088316E+02  0.13428499899E+02  0.54856874391E+03  0.54987937300E+03  0.00000000000E+00 0. -1.
         22    1    3    3    0    0 -0.41970808001E+02 -0.54589052421E+01 -0.41606661703E+02  0.59350338405E+02  0.00000000000E+00 0.  1.
         22    1    3    3    0    0 -0.25759177566E+02 -0.22160111941E+02  0.85464998780E+02  0.91972125161E+02  0.00000000000E+00 0.  1.
</event>
<event>
 7    1  0.5452757E-006  0.1140738E+03  0.7818608E-02  0.1268684E+00
          2   -1    0    0  502    0  0.00000000000E+00  0.00000000000E+00  0.80642389773E+03  0.80642389773E+03  0.00000000000E+00 0. -1.
          1   -1    0    0  501    0 -0.00000000000E+00 -0.00000000000E+00 -0.91238784515E+03  0.91238784515E+03  0.00000000000E+00 0. -1.
         25    2    1    2    0    0  0.13819056735E+03  0.84111156382E+02  0.19758336958E+03  0.28431334981E+03  0.12499429353E+03 0.  0.
          2    1    1    2  501    0 -0.42566964772E+02 -0.10556208953E+03 -0.86100315810E+03  0.86849394903E+03  0.00000000000E+00 0. -1.
          1    1    1    2  502    0 -0.95623602573E+02  0.21450933144E+02  0.55745584111E+03  0.56600444405E+03  0.00000000000E+00 0. -1.
         22    1    3    3    0    0  0.67754404604E+02 -0.26886914774E+02  0.66611319727E+02  0.98745295813E+02  0.00000000000E+00 0.  1.
         22    1    3    3    0    0  0.70436162741E+02  0.11099807116E+03  0.13097204985E+03  0.18556805400E+03  0.00000000000E+00 0.  1.
</event>
<event>
 7    1  0.5452757E-006  0.1240718E+03  0.7818608E-02  0.1238140E+00
          2   -1    0    0  502    0  0.00000000000E+00  0.00000000000E+00  0.14858790959E+03  0.14858790959E+03  0.00000000000E+00 0. -1.
          1   -1    0    0  501    0 -0.00000000000E+00 -0.00000000000E+00 -0.18845466471E+04  0.18845466471E+04  0.00000000000E+00 0. -1.
         25    2    1    2    0    0 -0.80306031290E+02  0.18267130942E+02 -0.72004418490E+03  0.73543968282E+03  0.12500060849E+03 0.  0.
          2    1    1    2  501    0  0.63890975090E+02  0.10635669263E+03 -0.11246604431E+04  0.11314835019E+04  0.00000000000E+00 0. -1.
          1    1    1    2  502    0  0.16415056200E+02 -0.12462382358E+03  0.10874589050E+03  0.16621137197E+03  0.00000000000E+00 0. -1.
         22    1    3    3    0    0 -0.94624593202E+02 -0.25486197381E+02 -0.38633860350E+03  0.39857355212E+03  0.00000000000E+00 0. -1.
         22    1    3    3    0    0  0.14318561912E+02  0.43753328323E+02 -0.33370558139E+03  0.33686613069E+03  0.00000000000E+00 0. -1.
</event>
<event>
 7    1  0.5452757E-006  0.7508795E+02  0.7818608E-02  0.1427420E+00
          2   -1    0    0  502    0  0.00000000000E+00  0.00000000000E+00  0.15473259880E+04  0.15473259880E+04  0.00000000000E+00 0. -1.
          1   -1    0    0  501    0 -0.00000000000E+00 -0.00000000000E+00 -0.18189783036E+03  0.18189783036E+03  0.00000000000E+00 0. -1.
         25    2    1    2    0    0  0.75321492918E+02  0.23121555239E+02  0.45506346907E+03  0.47845250899E+03  0.12500443540E+03 0.  0.
          2    1    1    2  501    0 -0.22334383846E+02  0.30857653394E+02 -0.16672893222E+03  0.17102501664E+03  0.00000000000E+00 0. -1.
          1    1    1    2  502    0 -0.52987109072E+02 -0.53979208632E+02  0.10770936208E+04  0.10797462927E+04  0.00000000000E+00 0. -1.
         22    1    3    3    0    0 -0.16462882258E+02 -0.17379183577E+02  0.23943109163E+03  0.24062483279E+03  0.00000000000E+00 0. -1.
         22    1    3    3    0    0  0.91784375176E+02  0.40500738815E+02  0.21563237744E+03  0.23782767621E+03  0.00000000000E+00 0. -1.
</event>
<event>
 7    1  0.5452757E-006  0.5325279E+02  0.7818608E-02  0.1481404E+00
          2   -1    0    0  502    0  0.00000000000E+00  0.00000000000E+00  0.23739350097E+04  0.23739350097E+04  0.00000000000E+00 0. -1.
          1   -1    0    0  501    0 -0.00000000000E+00 -0.00000000000E+00 -0.26374317118E+03  0.26374317118E+03  0.00000000000E+00 0. -1.
         25    2    1    2    0    0  0.25788749278E+02  0.28693893678E+00  0.85115807621E+03  0.86067450008E+03  0.12500152986E+03 0.  0.
          2    1    1    2  501    0 -0.42368435037E+02 -0.32433648609E+02 -0.25601856036E+03  0.26151965337E+03  0.00000000000E+00 0. -1.
          1    1    1    2  502    0  0.16579685759E+02  0.32146709673E+02  0.15150523227E+04  0.15154840274E+04  0.00000000000E+00 0. -1.
         22    1    3    3    0    0  0.67140018645E+02 -0.58797664185E+00  0.27671333200E+03  0.28474268371E+03  0.00000000000E+00 0. -1.
         22    1    3    3    0    0 -0.41351269367E+02  0.87491557864E+00  0.57444474421E+03  0.57593181637E+03  0.00000000000E+00 0. -1.
</event>
<event>
 7    1  0.5452757E-006  0.6904057E+02  0.7818608E-02  0.1419008E+00
          2   -1    0    0  502    0  0.00000000000E+00  0.00000000000E+00  0.20006738131E+03  0.20006738131E+03  0.00000000000E+00 0. -1.
          1   -1    0    0  501    0 -0.00000000000E+00 -0.00000000000E+00 -0.12718692758E+04  0.12718692758E+04  0.00000000000E+00 0. -1.
         25    2    1    2    0    0  0.21798930870E+02  0.58489767203E+02  0.33832097290E+02  0.14375475992E+03  0.12499829574E+03 0.  0.
          2    1    1    2  501    0 -0.59503976273E+02 -0.35455375815E+02 -0.12114932055E+04  0.12134717112E+04  0.00000000000E+00 0. -1.
          1    1    1    2  502    0  0.37705045403E+02 -0.23034391388E+02  0.10585921374E+03  0.11471018599E+03  0.00000000000E+00 0. -1.
         22    1    3    3    0    0  0.62639493088E+01  0.91898316654E+02 -0.23141756611E+01  0.92140615766E+02  0.00000000000E+00 0.  1.
         22    1    3    3    0    0  0.15534981561E+02 -0.33408549451E+02  0.36146272951E+02  0.51614144154E+02  0.00000000000E+00 0.  1.
</event>
<event>
 7    1  0.5452757E-006  0.9170915E+02  0.7818608E-02  0.1298972E+00
          2   -1    0    0  502    0  0.00000000000E+00  0.00000000000E+00  0.95493410076E+03  0.95493410076E+03  0.00000000000E+00 0. -1.
          1   -1    0    0  501    0 -0.00000000000E+00 -0.00000000000E+00 -0.16261920833E+04  0.16261920833E+04  0.00000000000E+00 0. -1.
         25    2    1    2    0    0 -0.38187634762E+02 -0.63954287693E+02 -0.11020123868E+03  0.18253221251E+03  0.12500099692E+03 0.  0.
          2    1    1    2  501    0 -0.53724603871E+02  0.74325202335E+02 -0.14760706752E+04  0.14789169033E+04  0.00000000000E+00 0. -1.
          1    1    1    2  502    0  0.91912238633E+02 -0.10370914643E+02  0.91501393129E+03  0.91967706829E+03  0.00000000000E+00 0. -1.
         22    1    3    3    0    0 -0.55246220127E+02 -0.19811394710E+02  0.40872675208E+01  0.58833170529E+02  0.00000000000E+00 0. -1.
         22    1    3    3    0    0  0.17058585365E+02 -0.44142892983E+02 -0.11428850620E+03  0.12369904198E+03  0.00000000000E+00 0. -1.
</event>
<event>
 7    1  0.5452757E-006  0.1076799E+03  0.7818608E-02  0.1356651E+00
          2   -1    0    0  502    0  0.00000000000E+00  0.00000000000E+00  0.15243771939E+04  0.15243771939E+04  0.00000000000E+00 0. -1.
          1   -1    0    0  501    0 -0.00000000000E+00 -0.00000000000E+00 -0.52087612507E+03  0.52087612507E+03  0.00000000000E+00 0. -1.
         25    2    1    2    0    0  0.95874944811E+02  0.34547336383E+02  0.12795995413E+03  0.20587655442E+03  0.12500352918E+03 0.  0.
          2    1    1    2  501    0  0.12123603439E+02 -0.45248012747E+02 -0.47860333333E+03  0.48089033582E+03  0.00000000000E+00 0. -1.
          1    1    1    2  502    0 -0.10799854825E+03  0.10700676365E+02  0.13541444480E+04  0.13584864287E+04  0.00000000000E+00 0. -1.
         22    1    3    3    0    0  0.84859950146E+02 -0.24232494144E+02  0.34156405955E+02  0.94631310775E+02  0.00000000000E+00 0. -1.
         22    1    3    3    0    0  0.11014994665E+02  0.58779830527E+02  0.93803548176E+02  0.11124524365E+03  0.00000000000E+00 0. -1.
</event>
<event>
 7    1  0.5452757E-006  0.5281155E+02  0.7818608E-02  0.1449789E+00
          2   -1    0    0  502    0  0.00000000000E+00  0.00000000000E+00  0.61137705415E+03  0.61137705415E+03  0.00000000000E+00 0. -1.
          1   -1    0    0  501    0 -0.00000000000E+00 -0.00000000000E+00 -0.86410439212E+02  0.86410439212E+02  0.00000000000E+00 0. -1.
         25    2    1    2    0    0  0.56111056876E+01  0.12609984727E+02  0.69594499938E+02  0.14372820013E+03  0.12499561940E+03 0.  0.
          2    1    1    2  501    0 -0.29024892553E+02 -0.51981161914E+02 -0.29905510851E+02  0.66624508711E+02  0.00000000000E+00 0. -1.
          1    1    1    2  502    0  0.23413786866E+02  0.39371177188E+02  0.48527762585E+03  0.48743478452E+03  0.00000000000E+00 0. -1.
         22    1    3    3    0    0 -0.13303479667E+02  0.47425999544E+02 -0.14009748209E+02  0.51210165484E+02  0.00000000000E+00 0. -1.
         22    1    3    3    0    0  0.18914585354E+02 -0.34816014818E+02  0.83604248147E+02  0.92518034649E+02  0.00000000000E+00 0. -1.
</event>
<event>
 7    1  0.5452757E-006  0.5011196E+02  0.7818608E-02  0.1486822E+00
          2   -1    0    0  502    0  0.00000000000E+00  0.00000000000E+00  0.42201077705E+03  0.42201077705E+03  0.00000000000E+00 0. -1.
          1   -1    0    0  501    0 -0.00000000000E+00 -0.00000000000E+00 -0.10331210388E+03  0.10331210388E+03  0.00000000000E+00 0. -1.
         25    2    1    2    0    0 -0.10795970319E+02  0.12437811753E+02  0.12204772078E+03  0.17549184385E+03  0.12502195397E+03 0.  0.
          2    1    1    2  501    0 -0.23040324142E+02  0.28953662032E+02 -0.69299961195E+02  0.78559886095E+02  0.00000000000E+00 0. -1.
          1    1    1    2  502    0  0.33836294461E+02 -0.41391473785E+02  0.26595091358E+03  0.27127115099E+03  0.00000000000E+00 0. -1.
         22    1    3    3    0    0 -0.28693128811E+02 -0.42526310544E+02  0.10223815643E+03  0.11438716431E+03  0.00000000000E+00 0.  1.
         22    1    3    3    0    0  0.17897158492E+02  0.54964122296E+02  0.19809564357E+02  0.61104679542E+02  0.00000000000E+00 0.  1.
</event>
<event>
 7    1  0.5452757E-006  0.4109104E+02  0.7818608E-02  0.1590978E+00
          2   -1    0    0  502    0  0.00000000000E+00  0.00000000000E+00  0.65277523008E+02  0.65277523008E+02  0.00000000000E+00 0. -1.
          1   -1    0    0  501    0 -0.00000000000E+00 -0.00000000000E+00 -0.16671382677E+04  0.16671382677E+04  0.00000000000E+00 0. -1.
         25    2    1    2    0    0 -0.15029013706E+01 -0.18470589973E+02 -0.14534632340E+03  0.19259720041E+03  0.12499882588E+03 0.  0.
          2    1    1    2  501    0  0.52060412269E+01  0.41035560892E+02 -0.14947202297E+04  0.14952924748E+04  0.00000000000E+00 0. -1.
          1    1    1    2  502    0 -0.37031398563E+01 -0.22564970920E+02  0.38205808457E+02  0.44526115452E+02  0.00000000000E+00 0. -1.
         22    1    3    3    0    0 -0.15326824626E+02 -0.12101645768E+02 -0.16588667218E+03  0.16703218071E+03  0.00000000000E+00 0. -1.
         22    1    3    3    0    0  0.13823923256E+02 -0.63689442046E+01  0.20540348779E+02  0.25565019703E+02  0.00000000000E+00 0. -1.
</event>
<event>
 7    1  0.5452757E-006  0.1118751E+03  0.7818608E-02  0.1390694E+00
          2   -1    0    0  502    0  0.00000000000E+00  0.00000000000E+00  0.12158442973E+04  0.12158442973E+04  0.00000000000E+00 0. -1.
          1   -1    0    0  501    0 -0.00000000000E+00 -0.00000000000E+00 -0.10078539604E+04  0.10078539604E+04  0.00000000000E+00 0. -1.
         25    2    1    2    0    0 -0.13209101173E+03  0.54765403495E+01  0.20144548106E+03  0.27145773699E+03  0.12502397075E+03 0.  0.
          2    1    1    2  501    0  0.10978758134E+03  0.20273382951E+02 -0.96934660089E+03  0.97575465960E+03  0.00000000000E+00 0. -1.
          1    1    1    2  502    0  0.22303430388E+02 -0.25749923300E+02  0.97589145677E+03  0.97648586111E+03  0.00000000000E+00 0. -1.
         22    1    3    3    0    0 -0.63908593931E+01 -0.45593810544E+02  0.57241192834E+02  0.73458783006E+02  0.00000000000E+00 0. -1.
         22    1    3    3    0    0 -0.12570015233E+03  0.51070350894E+02  0.14420428822E+03  0.19799895399E+03  0.00000000000E+00 0. -1.
</event>
<event>
 7    1  0.5452757E-006  0.4105951E+02  0.7818608E-02  0.1601977E+00
          2   -1    0    0  502    0  0.00000000000E+00  0.00000000000E+00  0.32538176445E+03  0.32538176445E+03  0.00000000000E+00 0. -1.
          1   -1    0    0  501    0 -0.00000000000E+00 -0.00000000000E+00 -0.12890198553E+03  0.12890198553E+03  0.00000000000E+00 0. -1.
         25    2    1    2    0    0  0.28204033622E+02  0.50474095795E+02  0.21089377009E+02  0.13932906943E+03  0.12499890362E+03 0.  0.
          2    1    1    2  501    0  0.19522596928E+00 -0.21411664136E+02 -0.66403342003E+02  0.69770346878E+02  0.00000000000E+00 0. -1.
          1    1    1    2  502    0 -0.28399259591E+02 -0.29062431659E+02  0.24179374391E+03  0.24518433366E+03  0.00000000000E+00 0. -1.
         22    1    3    3    0    0  0.47616648297E+02  0.37297293568E+02 -0.40921921442E+02  0.73027645156E+02  0.00000000000E+00 0. -1.
         22    1    3    3    0    0 -0.19412614675E+02  0.13176802226E+02  0.62011298452E+02  0.66301424276E+02  0.00000000000E+00 0. -1.
</event>
<event>
 7    1  0.5452757E-006  0.2408006E+03  0.7818608E-02  0.1285065E+00
          2   -1    0    0  502    0  0.00000000000E+00  0.00000000000E+00  0.85590955588E+03  0.85590955588E+03  0.00000000000E+00 0. -1.
          1   -1    0    0  501    0 -0.00000000000E+00 -0.00000000000E+00 -0.11155854291E+04  0.11155854291E+04  0.00000000000E+00 0. -1.
         25    2    1    2    0    0  0.11488829009E+03  0.23356983207E+03 -0.17814313135E+03  0.33928385155E+03  0.12499748407E+03 0.  0.
          2    1    1    2  501    0  0.18949574932E+02 -0.34878096360E+02 -0.83788575817E+03  0.83882543580E+03  0.00000000000E+00 0. -1.
          1    1    1    2  502    0 -0.13383786502E+03 -0.19869173571E+03  0.75635301630E+03  0.79338569764E+03  0.00000000000E+00 0. -1.
         22    1    3    3    0    0 -0.11293204869E+02  0.54238310013E+02  0.20932656282E+01  0.55441072413E+02  0.00000000000E+00 0. -1.
         22    1    3    3    0    0  0.12618149496E+03  0.17933152205E+03 -0.18023639698E+03  0.28384277913E+03  0.00000000000E+00 0. -1.
</event>
<event>
 7    1  0.5452757E-006  0.1118169E+03  0.7818608E-02  0.1339561E+00
          2   -1    0    0  502    0  0.00000000000E+00  0.00000000000E+00  0.11444037542E+04  0.11444037542E+04  0.00000000000E+00 0. -1.
          1   -1    0    0  501    0 -0.00000000000E+00 -0.00000000000E+00 -0.11330541800E+04  0.11330541800E+04  0.00000000000E+00 0. -1.
         25    2    1    2    0    0  0.48848803386E+02  0.14773895754E+03  0.23375174040E+03  0.30737219897E+03  0.12499914957E+03 0.  0.
          2    1    1    2  501    0 -0.32340349433E+02 -0.40993014090E+02 -0.10922800129E+04  0.10935272982E+04  0.00000000000E+00 0. -1.
          1    1    1    2  502    0 -0.16508453953E+02 -0.10674594345E+03  0.86987784659E+03  0.87655843701E+03  0.00000000000E+00 0. -1.
         22    1    3    3    0    0  0.45473540346E+02  0.90721151818E+02  0.46543352476E+02  0.11164431879E+03  0.00000000000E+00 0. -1.
         22    1    3    3    0    0  0.33752630402E+01  0.57017805723E+02  0.18720838793E+03  0.19572788018E+03  0.00000000000E+00 0. -1.
</event>
<event>
 7    1  0.5452757E-006  0.3593370E+02  0.7818608E-02  0.1575038E+00
          2   -1    0    0  502    0  0.00000000000E+00  0.00000000000E+00  0.50789656361E+03  0.50789656361E+03  0.00000000000E+00 0. -1.
          1   -1    0    0  501    0 -0.00000000000E+00 -0.00000000000E+00 -0.25637239154E+03  0.25637239154E+03  0.00000000000E+00 0. -1.
         25    2    1    2    0    0 -0.42866545755E+01  0.41823016950E+02 -0.10088018155E+03  0.16603718637E+03  0.12499598423E+03 0.  0.
          2    1    1    2  501    0 -0.22589155099E+02 -0.17933307639E+02 -0.12052974446E+03  0.12393261374E+03  0.00000000000E+00 0. -1.
          1    1    1    2  502    0  0.26875809675E+02 -0.23889709312E+02  0.47293409807E+03  0.47429915505E+03  0.00000000000E+00 0. -1.
         22    1    3    3    0    0  0.22109917215E+02  0.33397189393E+01 -0.11510045075E+03  0.11725235999E+03  0.00000000000E+00 0. -1.
         22    1    3    3    0    0 -0.26396571791E+02  0.38483298011E+02  0.14220269198E+02  0.48784826373E+02  0.00000000000E+00 0. -1.
</event>
<event>
 7    1  0.5452757E-006  0.1105291E+03  0.7818608E-02  0.1370263E+00
          2   -1    0    0  502    0  0.00000000000E+00  0.00000000000E+00  0.11290906847E+04  0.11290906847E+04  0.00000000000E+00 0. -1.
          1   -1    0    0  501    0 -0.00000000000E+00 -0.00000000000E+00 -0.43709212693E+03  0.43709212693E+03  0.00000000000E+00 0. -1.
         25    2    1    2    0    0 -0.10397855799E+03 -0.10692682144E+03 -0.18312471267E+03  0.26721505617E+03  0.12499736074E+03 0.  0.
          2    1    1    2  501    0  0.34592304086E+02  0.21497075625E+02 -0.20714855472E+03  0.21111436589E+03  0.00000000000E+00 0. -1.
          1    1    1    2  502    0  0.69386253908E+02  0.85429745810E+02  0.10822718252E+04  0.10878533896E+04  0.00000000000E+00 0. -1.
         22    1    3    3    0    0 -0.12848321883E+03 -0.80021136883E+02 -0.11542177586E+03  0.19035100790E+03  0.00000000000E+00 0. -1.
         22    1    3    3    0    0  0.24504660832E+02 -0.26905684552E+02 -0.67702936810E+02  0.76864048269E+02  0.00000000000E+00 0. -1.
</event>
<event>
 7    1  0.5452757E-006  0.4925938E+02  0.7818608E-02  0.1469318E+00
          2   -1    0    0  502    0  0.00000000000E+00  0.00000000000E+00  0.39011120047E+03  0.39011120047E+03  0.00000000000E+00 0. -1.
          1   -1    0    0  501    0 -0.00000000000E+00 -0.00000000000E+00 -0.10177322089E+03  0.10177322089E+03  0.00000000000E+00 0. -1.
         25    2    1    2    0    0  0.14410619925E+02  0.21168699575E+02  0.36741828084E+02  0.13277944583E+03  0.12499855798E+03 0.  0.
          2    1    1    2  501    0  0.14141796806E+02 -0.52798877614E+02 -0.37884333072E+02  0.66505147068E+02  0.00000000000E+00 0. -1.
          1    1    1    2  502    0 -0.28552416731E+02  0.31630178039E+02  0.28948048457E+03  0.29259982845E+03  0.00000000000E+00 0. -1.
         22    1    3    3    0    0  0.68294408690E+02  0.99870103387E+01  0.35770166573E+02  0.77739124323E+02  0.00000000000E+00 0. -1.
         22    1    3    3    0    0 -0.53883788766E+02  0.11181689236E+02  0.97166151056E+00  0.55040321511E+02  0.00000000000E+00 0. -1.
</event>
<event>
 7    1  0.5452757E-006  0.1581094E+03  0.7818608E-02  0.1387290E+00
          2   -1    0    0  502    0  0.00000000000E+00  0.00000000000E+00  0.10129495174E+04  0.10129495174E+04  0.00000000000E+00 0. -1.
          1   -1    0    0  501    0 -0.00000000000E+00 -0.00000000000E+00 -0.11944559778E+04  0.11944559778E+04  0.00000000000E+00 0. -1.
         25    2    1    2    0    0 -0.61447553838E+02  0.12448201335E+03  0.31049203294E+03  0.36235633100E+03  0.12500093830E+03 0.  0.
          2    1    1    2  501    0  0.55273020826E+02 -0.14847410338E+03 -0.11629242107E+04  0.11736662158E+04  0.00000000000E+00 0. -1.
          1    1    1    2  502    0  0.61745330126E+01  0.23992090033E+02  0.67092571735E+03  0.67138294843E+03  0.00000000000E+00 0. -1.
         22    1    3    3    0    0 -0.27695927825E+02  0.13447675001E+03  0.29183021407E+03  0.32251501446E+03  0.00000000000E+00 0.  1.
         22    1    3    3    0    0 -0.33751626013E+02 -0.99947366679E+01  0.18661818875E+02  0.39841316536E+02  0.00000000000E+00 0.  1.
</event>
<event>
 7    1  0.5452757E-006  0.1035094E+03  0.7818608E-02  0.1301114E+00
          2   -1    0    0  502    0  0.00000000000E+00  0.00000000000E+00  0.15260811772E+04  0.15260811772E+04  0.00000000000E+00 0. -1.
          1   -1    0    0  501    0 -0.00000000000E+00 -0.00000000000E+00 -0.22285492514E+04  0.22285492514E+04  0.00000000000E+00 0. -1.
         25    2    1    2    0    0 -0.15367588426E+03 -0.34901673926E+02  0.27614645777E+03  0.34163803383E+03  0.12500110311E+03 0.  0.
          2    1    1    2  501    0  0.80175028454E+02  0.65232935526E+02 -0.21932865456E+04  0.21957206658E+04  0.00000000000E+00 0. -1.
          1    1    1    2  502    0  0.73500855804E+02 -0.30331261600E+02  0.12146720137E+04  0.12172717290E+04  0.00000000000E+00 0. -1.
         22    1    3    3    0    0 -0.11677178784E+03  0.29701773726E+02  0.20986887561E+03  0.24199750153E+03  0.00000000000E+00 0.  1.
         22    1    3    3    0    0 -0.36904096415E+02 -0.64603447651E+02  0.66277582157E+02  0.99640532301E+02  0.00000000000E+00 0.  1.
</event>
<event>
 7    1  0.5452757E-006  0.3449903E+02  0.7818608E-02  0.1565123E+00
          2   -1    0    0  502    0  0.00000000000E+00  0.00000000000E+00  0.28148767200E+03  0.28148767200E+03  0.00000000000E+00 0. -1.
          1   -1    0    0  501    0 -0.00000000000E+00 -0.00000000000E+00 -0.12149522202E+04  0.12149522202E+04  0.00000000000E+00 0. -1.
         25    2    1    2    0    0  0.71888731377E+01  0.63679160780E+02 -0.14392893821E+03  0.20111751729E+03  0.12500400430E+03 0.  0.
          2    1    1    2  501    0  0.45000126423E+01 -0.33929339189E+02 -0.10411366601E+04  0.10416990905E+04  0.00000000000E+00 0. -1.
          1    1    1    2  502    0 -0.11688885780E+02 -0.29749821591E+02  0.25160105015E+03  0.25362328437E+03  0.00000000000E+00 0. -1.
         22    1    3    3    0    0 -0.41934328536E+02  0.96607373348E+01 -0.11463508900E+03  0.12244599375E+03  0.00000000000E+00 0. -1.
         22    1    3    3    0    0  0.49123201674E+02  0.54018423445E+02 -0.29293849213E+02  0.78671523539E+02  0.00000000000E+00 0. -1.
</event>
<event>
 7    1  0.5452757E-006  0.3142593E+02  0.7818608E-02  0.1630863E+00
          2   -1    0    0  502    0  0.00000000000E+00  0.00000000000E+00  0.25582942887E+02  0.25582942887E+02  0.00000000000E+00 0. -1.
          1   -1    0    0  501    0 -0.00000000000E+00 -0.00000000000E+00 -0.13552525729E+04  0.13552525729E+04  0.00000000000E+00 0. -1.
         25    2    1    2    0    0 -0.47254344251E+02  0.71728379792E+01 -0.10040248784E+04  0.10129041901E+04  0.12499807682E+03 0.  0.
          2    1    1    2  501    0  0.25149582860E+02 -0.15435494647E+02 -0.33935740765E+03  0.34063793996E+03  0.00000000000E+00 0. -1.
          1    1    1    2  502    0  0.22104761391E+02  0.82626566674E+01  0.13712656011E+02  0.27293385760E+02  0.00000000000E+00 0. -1.
         22    1    3    3    0    0 -0.78491124555E+02 -0.21142092516E+02 -0.82439684234E+03  0.82839483241E+03  0.00000000000E+00 0. -1.
         22    1    3    3    0    0  0.31236780303E+02  0.28314930495E+02 -0.17962803607E+03  0.18450935769E+03  0.00000000000E+00 0. -1.
</event>
<event>
 7    1  0.5452757E-006  0.5886330E+02  0.7818608E-02  0.1448454E+00
          2   -1    0    0  502    0  0.00000000000E+00  0.00000000000E+00  0.54584552924E+03  0.54584552924E+03  0.00000000000E+00 0. -1.
          1   -1    0    0  501    0 -0.00000000000E+00 -0.00000000000E+00 -0.55954027132E+02  0.55954027132E+02  0.00000000000E+00 0. -1.
         25    2    1    2    0    0  0.18405859889E+02  0.19975587601E+02  0.60542964991E+02  0.14152253381E+03  0.12500150874E+03 0.  0.
          2    1    1    2  501    0 -0.98854797968E+01  0.40309719749E+02  0.19368933651E+02  0.45801220593E+02  0.00000000000E+00 0. -1.
          1    1    1    2  502    0 -0.85203800922E+01 -0.60285307350E+02  0.40997960347E+03  0.41447580197E+03  0.00000000000E+00 0. -1.
         22    1    3    3    0    0 -0.17079377991E+02  0.54611439693E+01  0.90880439704E+02  0.92632518949E+02  0.00000000000E+00 0. -1.
         22    1    3    3    0    0  0.35485237880E+02  0.14514443632E+02 -0.30337474713E+02  0.48890014863E+02  0.00000000000E+00 0. -1.
</event>
<event>
 7    1  0.5452757E-006  0.6287733E+02  0.7818608E-02  0.1453589E+00
          2   -1    0    0  502    0  0.00000000000E+00  0.00000000000E+00  0.12574350058E+04  0.12574350058E+04  0.00000000000E+00 0. -1.
          1   -1    0    0  501    0 -0.00000000000E+00 -0.00000000000E+00 -0.21408930143E+03  0.21408930143E+03  0.00000000000E+00 0. -1.
         25    2    1    2    0    0 -0.36952591634E+02  0.52108813626E+02  0.14708451648E+03  0.20332082365E+03  0.12499871941E+03 0.  0.
          2    1    1    2  501    0  0.12092337945E+01 -0.63165322938E+02 -0.18027126395E+03  0.19102106919E+03  0.00000000000E+00 0. -1.
          1    1    1    2  502    0  0.35743357839E+02  0.11056509312E+02  0.10765324519E+04  0.10771824144E+04  0.00000000000E+00 0. -1.
         22    1    3    3    0    0 -0.20849696598E+02  0.91991262583E+02  0.11943275091E+03  0.15218831831E+03  0.00000000000E+00 0. -1.
         22    1    3    3    0    0 -0.16102895036E+02 -0.39882448957E+02  0.27651765576E+02  0.51132505345E+02  0.00000000000E+00 0. -1.
</event>
<event>
 7    1  0.5452757E-006  0.6381753E+02  0.7818608E-02  0.1477913E+00
          2   -1    0    0  502    0  0.00000000000E+00  0.00000000000E+00  0.72118833115E+03  0.72118833115E+03  0.00000000000E+00 0. -1.
          1   -1    0    0  501    0 -0.00000000000E+00 -0.00000000000E+00 -0.20581419171E+03  0.20581419171E+03  0.00000000000E+00 0. -1.
         25    2    1    2    0    0  0.69487824991E+02 -0.59492653831E+02  0.77464317317E+02  0.17318905195E+03  0.12500317427E+03 0.  0.
          2    1    1    2  501    0 -0.15932011604E+02  0.26518606613E+02 -0.15475703985E+03  0.15781890531E+03  0.00000000000E+00 0. -1.
          1    1    1    2  502    0 -0.53555813386E+02  0.32974047218E+02  0.59266686198E+03  0.59599456560E+03  0.00000000000E+00 0. -1.
         22    1    3    3    0    0  0.71481911510E+02  0.17152571117E+01  0.85461920192E+02  0.11142865692E+03  0.00000000000E+00 0.  1.
         22    1    3    3    0    0 -0.19940865188E+01 -0.61207910942E+02 -0.79976028745E+01  0.61760395034E+02  0.00000000000E+00 0.  1.
</event>
<event>
 7    1  0.5452757E-006  0.8407065E+02  0.7818608E-02  0.1367929E+00
          2   -1    0    0  502    0  0.00000000000E+00  0.00000000000E+00  0.51977230486E+03  0.51977230486E+03  0.00000000000E+00 0. -1.
          1   -1    0    0  501    0 -0.00000000000E+00 -0.00000000000E+00 -0.14334954017E+04  0.14334954017E+04  0.00000000000E+00 0. -1.
         25    2    1    2    0    0  0.63690157825E+02  0.11122161351E+03  0.11472884951E+03  0.21263677735E+03  0.12500002661E+03 0.  0.
          2    1    1    2  501    0 -0.17643791400E+02 -0.81895873905E+02 -0.13811724211E+04  0.13837107698E+04  0.00000000000E+00 0. -1.
          1    1    1    2  502    0 -0.46046366425E+02 -0.29325739608E+02  0.35272047479E+03  0.35692015942E+03  0.00000000000E+00 0. -1.
         22    1    3    3    0    0  0.83528864872E-01  0.76366585562E+02  0.11740557106E+03  0.14005688303E+03  0.00000000000E+00 0.  1.
         22    1    3    3    0    0  0.63606628960E+02  0.34855027951E+02 -0.26767215475E+01  0.72579894319E+02  0.00000000000E+00 0.  1.
</event>
<event>
 7    1  0.5452757E-006  0.3985628E+02  0.7818608E-02  0.1527464E+00
          2   -1    0    0  502    0  0.00000000000E+00  0.00000000000E+00  0.14460409953E+04  0.14460409953E+04  0.00000000000E+00 0. -1.
          1   -1    0    0  501    0 -0.00000000000E+00 -0.00000000000E+00 -0.21126171155E+02  0.21126171155E+02  0.00000000000E+00 0. -1.
         25    2    1    2    0    0  0.22148417170E+02 -0.35262026471E+02  0.42752516598E+03  0.44736693038E+03  0.12500175981E+03 0.  0.
          2    1    1    2  501    0  0.17959347704E+02  0.30368597907E+02  0.18056029503E+02  0.39633446863E+02  0.00000000000E+00 0. -1.
          1    1    1    2  502    0 -0.40107764874E+02  0.48934285642E+01  0.97933362869E+03  0.98016678924E+03  0.00000000000E+00 0. -1.
         22    1    3    3    0    0  0.70272762710E+02 -0.38607935673E+02  0.21575639813E+03  0.23017310271E+03  0.00000000000E+00 0. -1.
         22    1    3    3    0    0 -0.48124345540E+02  0.33459092014E+01  0.21176876785E+03  0.21719382767E+03  0.00000000000E+00 0. -1.
</event>
<event>
 7    1  0.5452757E-006  0.5022968E+02  0.7818608E-02  0.1567826E+00
          2   -1    0    0  502    0  0.00000000000E+00  0.00000000000E+00  0.10258156085E+04  0.10258156085E+04  0.00000000000E+00 0. -1.
          1   -1    0    0  501    0 -0.00000000000E+00 -0.00000000000E+00 -0.33272369160E+03  0.33272369160E+03  0.00000000000E+00 0. -1.
         25    2    1    2    0    0  0.18615183615E+02  0.22919915595E+02  0.14877449245E+03  0.19654222451E+03  0.12499259506E+03 0.  0.
          2    1    1    2  501    0  0.10237287806E+02  0.19001413892E+02 -0.30770255284E+03  0.30845861443E+03  0.00000000000E+00 0. -1.
          1    1    1    2  502    0 -0.28852471421E+02 -0.41921329487E+02  0.85201997725E+03  0.85353846112E+03  0.00000000000E+00 0. -1.
         22    1    3    3    0    0  0.81935743650E+01 -0.46583273420E+02  0.23300252461E+02  0.52726063651E+02  0.00000000000E+00 0. -1.
         22    1    3    3    0    0  0.10421609250E+02  0.69503189015E+02  0.12547423999E+03  0.14381616086E+03  0.00000000000E+00 0. -1.
</event>
<event>
 7    1  0.5452757E-006  0.3372634E+02  0.7818608E-02  0.1579416E+00
          2   -1    0    0  502    0  0.00000000000E+00  0.00000000000E+00  0.88830257906E+02  0.88830257906E+02  0.00000000000E+00 0. -1.
          1   -1    0    0  501    0 -0.00000000000E+00 -0.00000000000E+00 -0.41316684435E+03  0.41316684435E+03  0.00000000000E+00 0. -1.
         25    2    1    2    0    0 -0.13019101996E+02  0.44447707622E+01 -0.14730004899E+03  0.19367643375E+03  0.12499601416E+03 0.  0.
          2    1    1    2  501    0  0.60556441915E+01  0.29287862071E+02 -0.23715547465E+03  0.23903382364E+03  0.00000000000E+00 0. -1.
          1    1    1    2  502    0  0.69634578044E+01 -0.33732632833E+02  0.60118937188E+02  0.69286844863E+02  0.00000000000E+00 0. -1.
         22    1    3    3    0    0 -0.24298097691E+02  0.60530785502E+02 -0.10026938099E+03  0.11961739970E+03  0.00000000000E+00 0.  1.
         22    1    3    3    0    0  0.11278995695E+02 -0.56086014740E+02 -0.47030667993E+02  0.74059034055E+02  0.00000000000E+00 0.  1.
</event>
<event>
 7    1  0.5452757E-006  0.1489288E+03  0.7818608E-02  0.1375161E+00
          2   -1    0    0  502    0  0.00000000000E+00  0.00000000000E+00  0.48558713113E+03  0.48558713113E+03  0.00000000000E+00 0. -1.
          1   -1    0    0  501    0 -0.00000000000E+00 -0.00000000000E+00 -0.10178410025E+04  0.10178410025E+04  0.00000000000E+00 0. -1.
         25    2    1    2    0    0 -0.14376581428E+03 -0.72935318011E+02 -0.76069877820E+03  0.78757593664E+03  0.12500021940E+03 0.  0.
          2    1    1    2  501    0  0.11638629210E+03  0.63284987271E+02 -0.22520113473E+03  0.26127822275E+03  0.00000000000E+00 0. -1.
          1    1    1    2  502    0  0.27379522181E+02  0.96503307399E+01  0.45364604151E+03  0.45457397428E+03  0.00000000000E+00 0. -1.
         22    1    3    3    0    0 -0.16272030956E+03 -0.57804791761E+02 -0.71796486421E+03  0.73843946220E+03  0.00000000000E+00 0. -1.
         22    1    3    3    0    0  0.18954495273E+02 -0.15130526250E+02 -0.42733913993E+02  0.49136474445E+02  0.00000000000E+00 0. -1.
</event>
<event>
 7    1  0.5452757E-006  0.2444143E+03  0.7818608E-02  0.1221490E+00
          2   -1    0    0  502    0  0.00000000000E+00  0.00000000000E+00  0.80735053097E+03  0.80735053097E+03  0.00000000000E+00 0. -1.
          1   -1    0    0  501    0 -0.00000000000E+00 -0.00000000000E+00 -0.73394585899E+03  0.73394585899E+03  0.00000000000E+00 0. -1.
         25    2    1    2    0    0  0.20210391725E+03 -0.85324614881E+02  0.20252675222E+03  0.32367975994E+03  0.12500087345E+03 0.  0.
          2    1    1    2  501    0 -0.19033198282E+03  0.15795609010E+03 -0.64797305439E+03  0.69357441511E+03  0.00000000000E+00 0. -1.
          1    1    1    2  502    0 -0.11771934433E+02 -0.72631475218E+02  0.51885097414E+03  0.52404221490E+03  0.00000000000E+00 0. -1.
         22    1    3    3    0    0  0.29198913020E+02  0.31647683802E+02  0.26059858502E+02  0.50331586869E+02  0.00000000000E+00 0.  1.
         22    1    3    3    0    0  0.17290500423E+03 -0.11697229868E+03  0.17646689371E+03  0.27334817308E+03  0.00000000000E+00 0.  1.
</event>
<event>
 7    1  0.5452757E-006  0.3864092E+02  0.7818608E-02  0.1518510E+00
          2   -1    0    0  502    0  0.00000000000E+00  0.00000000000E+00  0.35943683874E+03  0.35943683874E+03  0.00000000000E+00 0. -1.
          1   -1    0    0  501    0 -0.00000000000E+00 -0.00000000000E+00 -0.42481894256E+03  0.42481894256E+03  0.00000000000E+00 0. -1.
         25    2    1    2    0    0  0.43394998364E+01  0.45443855843E+02  0.64959523175E+02  0.14808528351E+03  0.12500214497E+03 0.  0.
          2    1    1    2  501    0  0.29134409887E+02 -0.25383194564E+02 -0.38076701005E+03  0.38272266244E+03  0.00000000000E+00 0. -1.
          1    1    1    2  502    0 -0.33473909723E+02 -0.20060661279E+02  0.25042538305E+03  0.25344783534E+03  0.00000000000E+00 0. -1.
         22    1    3    3    0    0 -0.43245655979E+02 -0.22014362260E+02  0.36656623396E+02  0.60815515665E+02  0.00000000000E+00 0. -1.
         22    1    3    3    0    0  0.47585155815E+02  0.67458218103E+02  0.28302899778E+02  0.87269767844E+02  0.00000000000E+00 0. -1.
</event>
<event>
 7    1  0.5452757E-006  0.1039252E+03  0.7818608E-02  0.1452711E+00
          2   -1    0    0  502    0  0.00000000000E+00  0.00000000000E+00  0.36149757557E+03  0.36149757557E+03  0.00000000000E+00 0. -1.
          1   -1    0    0  501    0 -0.00000000000E+00 -0.00000000000E+00 -0.10700886754E+04  0.10700886754E+04  0.00000000000E+00 0. -1.
         25    2    1    2    0    0  0.18591763087E+02 -0.12019947569E+03 -0.64972990375E+03  0.67273231681E+03  0.12500501851E+03 0.  0.
          2    1    1    2  501    0  0.99784564379E+01  0.20481376070E+02 -0.40084122376E+03  0.40148816050E+03  0.00000000000E+00 0. -1.
          1    1    1    2  502    0 -0.28570219525E+02  0.99718099616E+02  0.34198002769E+03  0.35736577364E+03  0.00000000000E+00 0. -1.
         22    1    3    3    0    0  0.56284225107E+02 -0.46607520744E+02 -0.46000481088E+03  0.46577312183E+03  0.00000000000E+00 0.  1.
         22    1    3    3    0    0 -0.37692462020E+02 -0.73591954941E+02 -0.18972509287E+03  0.20695919498E+03  0.00000000000E+00 0.  1.
</event>
<event>
 7    1  0.5531962E-006  0.1231723E+03  0.7818608E-02  0.1260641E+00
          2   -1    0    0  502    0  0.00000000000E+00  0.00000000000E+00  0.14570403468E+04  0.14570403468E+04  0.00000000000E+00 0. -1.
          1   -1    0    0  501    0 -0.00000000000E+00 -0.00000000000E+00 -0.88215325672E+03  0.88215325672E+03  0.00000000000E+00 0. -1.
         25    2    1    2    0    0 -0.58295462839E+00  0.51301209447E+02 -0.68478599032E+02  0.15148005913E+03  0.12499894344E+03 0.  0.
          2    1    1    2  501    0 -0.78472947193E+02 -0.10949950313E+03 -0.76457613855E+03  0.77635353819E+03  0.00000000000E+00 0. -1.
          1    1    1    2  502    0  0.79055901822E+02  0.58198293679E+02  0.14079418276E+04  0.14113600062E+04  0.00000000000E+00 0. -1.
         22    1    3    3    0    0 -0.58152859657E+02  0.51028557867E+02 -0.43119449328E+02  0.88571754610E+02  0.00000000000E+00 0. -1.
         22    1    3    3    0    0  0.57569905029E+02  0.27265157954E+00 -0.25359149704E+02  0.62908304520E+02  0.00000000000E+00 0. -1.
</event>
<event>
 7    1  0.5452757E-006  0.1988526E+03  0.7818608E-02  0.1254245E+00
          2   -1    0    0  502    0  0.00000000000E+00  0.00000000000E+00  0.28989234926E+03  0.28989234926E+03  0.00000000000E+00 0. -1.
          1   -1    0    0  501    0 -0.00000000000E+00 -0.00000000000E+00 -0.98072029034E+03  0.98072029034E+03  0.00000000000E+00 0. -1.
         25    2    1    2    0    0 -0.18689926867E+03 -0.55084809980E+02 -0.33096969778E+03  0.40389393169E+03  0.12499477704E+03 0.  0.
          2    1    1    2  501    0  0.16726238105E+03  0.11680471724E+03 -0.59176148919E+03  0.62594065707E+03  0.00000000000E+00 0. -1.
          1    1    1    2  502    0  0.19636887624E+02 -0.61719907262E+02  0.23190324589E+03  0.24077805083E+03  0.00000000000E+00 0. -1.
         22    1    3    3    0    0 -0.16981064612E+03 -0.68224326265E+02 -0.19971372278E+03  0.27087965095E+03  0.00000000000E+00 0.  1.
         22    1    3    3    0    0 -0.17088622554E+02  0.13139516285E+02 -0.13125597500E+03  0.13301428075E+03  0.00000000000E+00 0.  1.
</event>
<event>
 7    1  0.5452757E-006  0.8378126E+02  0.7818608E-02  0.1478559E+00
          2   -1    0    0  502    0  0.00000000000E+00  0.00000000000E+00  0.34997288705E+04  0.34997288705E+04  0.00000000000E+00 0. -1.
          1   -1    0    0  501    0 -0.00000000000E+00 -0.00000000000E+00 -0.22737494027E+02  0.22737494027E+02  0.00000000000E+00 0. -1.
         25    2    1    2    0    0 -0.43187395379E+02 -0.59938438277E+02  0.22315973655E+04  0.22363160859E+04  0.12500026695E+03 0.  0.
          2    1    1    2  501    0  0.48226715162E+01 -0.22956112734E+02 -0.11372573126E+02  0.26068691795E+02  0.00000000000E+00 0. -1.
          1    1    1    2  502    0  0.38364723862E+02  0.82894551011E+02  0.12567665841E+04  0.12600815869E+04  0.00000000000E+00 0. -1.
         22    1    3    3    0    0 -0.41008241644E+02 -0.52637175167E+02  0.22256506323E+04  0.22266506428E+04  0.00000000000E+00 0. -1.
         22    1    3    3    0    0 -0.21791537343E+01 -0.73012631096E+01  0.59467332252E+01  0.96654430858E+01  0.00000000000E+00 0. -1.
</event>
<event>
 7    1  0.5452757E-006  0.5605923E+02  0.7818608E-02  0.1430700E+00
          2   -1    0    0  502    0  0.00000000000E+00  0.00000000000E+00  0.10590681934E+04  0.10590681934E+04  0.00000000000E+00 0. -1.
          1   -1    0    0  501    0 -0.00000000000E+00 -0.00000000000E+00 -0.31970532096E+03  0.31970532096E+03  0.00000000000E+00 0. -1.
         25    2    1    2    0    0  0.16791405861E+02 -0.45206263475E+02 -0.16641762226E+03  0.21364816978E+03  0.12500063154E+03 0.  0.
          2    1    1    2  501    0 -0.60035722993E+02  0.20574165382E+02 -0.12126871365E+03  0.13687105328E+03  0.00000000000E+00 0. -1.
          1    1    1    2  502    0  0.43244317133E+02  0.24632098093E+02  0.10270492083E+04  0.10282542913E+04  0.00000000000E+00 0. -1.
         22    1    3    3    0    0 -0.37870779257E+02 -0.59217002753E+02 -0.12585201329E+03  0.14415123512E+03  0.00000000000E+00 0. -1.
         22    1    3    3    0    0  0.54662185117E+02  0.14010739278E+02 -0.40565608967E+02  0.69496934665E+02  0.00000000000E+00 0. -1.
</event>
<event>
 7    1  0.5452757E-006  0.4087942E+02  0.7818608E-02  0.1550368E+00
          2   -1    0    0  502    0  0.00000000000E+00  0.00000000000E+00  0.88849175988E+02  0.88849175988E+02  0.00000000000E+00 0. -1.
          1   -1    0    0  501    0 -0.00000000000E+00 -0.00000000000E+00 -0.67236036936E+03  0.67236036936E+03  0.00000000000E+00 0. -1.
         25    2    1    2    0    0  0.29070043783E+01  0.38552608726E+02 -0.25790524946E+03  0.28920028226E+03  0.12500772475E+03 0.  0.
          2    1    1    2  501    0 -0.28875513885E+02 -0.66335105697E+01 -0.39242209784E+03  0.39353894552E+03  0.00000000000E+00 0. -1.
          1    1    1    2  502    0  0.25968509506E+02 -0.31919098156E+02  0.66816153929E+02  0.78470317567E+02  0.00000000000E+00 0. -1.
         22    1    3    3    0    0  0.17433678102E+02  0.16057446309E+02 -0.26115280060E+03  0.26222616188E+03  0.00000000000E+00 0. -1.
         22    1    3    3    0    0 -0.14526673723E+02  0.22495162417E+02  0.32475511457E+01  0.26974120376E+02  0.00000000000E+00 0. -1.
</event>
<event>
 7    1  0.5452757E-006  0.1150826E+03  0.7818608E-02  0.1319658E+00
          2   -1    0    0  502    0  0.00000000000E+00  0.00000000000E+00  0.43862221367E+03  0.43862221367E+03  0.00000000000E+00 0. -1.
          1   -1    0    0  501    0 -0.00000000000E+00 -0.00000000000E+00 -0.38931466834E+03  0.38931466834E+03  0.00000000000E+00 0. -1.
         25    2    1    2    0    0  0.58542511280E+02 -0.48800501960E+02  0.11646602539E+03  0.18707666325E+03  0.12499851296E+03 0.  0.
          2    1    1    2  501    0  0.59087471187E+02 -0.12744986720E+02 -0.33580453250E+03  0.34120147712E+03  0.00000000000E+00 0. -1.
          1    1    1    2  502    0 -0.11762998247E+03  0.61545488681E+02  0.26864605245E+03  0.29965874165E+03  0.00000000000E+00 0. -1.
         22    1    3    3    0    0  0.79492773902E+02 -0.35999592815E+02  0.13184357329E+03  0.15810692459E+03  0.00000000000E+00 0.  1.
         22    1    3    3    0    0 -0.20950262621E+02 -0.12800909146E+02 -0.15377547895E+02  0.28969738662E+02  0.00000000000E+00 0.  1.
</event>
<event>
 7    1  0.5452757E-006  0.1194876E+03  0.7818608E-02  0.1307174E+00
          2   -1    0    0  502    0  0.00000000000E+00  0.00000000000E+00  0.91829938556E+03  0.91829938556E+03  0.00000000000E+00 0. -1.
          1   -1    0    0  501    0 -0.00000000000E+00 -0.00000000000E+00 -0.30338306928E+04  0.30338306928E+04  0.00000000000E+00 0. -1.
         25    2    1    2    0    0  0.13140384070E+03 -0.47625415572E+02  0.33032700155E+01  0.18754051326E+03  0.12500153183E+03 0.  0.
          2    1    1    2  501    0 -0.80462087709E+02  0.88258702542E+02 -0.29392074131E+04  0.29416328736E+04  0.00000000000E+00 0. -1.
          1    1    1    2  502    0 -0.50941752992E+02 -0.40633286971E+02  0.82037283584E+03  0.82295669145E+03  0.00000000000E+00 0. -1.
         22    1    3    3    0    0  0.95100854006E+02 -0.13432445219E+01  0.54448728178E+02  0.10959306884E+03  0.00000000000E+00 0. -1.
         22    1    3    3    0    0  0.36302986695E+02 -0.46282171050E+02 -0.51145458162E+02  0.77947444414E+02  0.00000000000E+00 0. -1.
</event>
<event>
 7    1  0.5452757E-006  0.7139607E+02  0.7818608E-02  0.1405830E+00
          2   -1    0    0  502    0  0.00000000000E+00  0.00000000000E+00  0.44019429637E+02  0.44019429637E+02  0.00000000000E+00 0. -1.
          1   -1    0    0  501    0 -0.00000000000E+00 -0.00000000000E+00 -0.99369355221E+03  0.99369355221E+03  0.00000000000E+00 0. -1.
         25    2    1    2    0    0 -0.39264845577E+02  0.10120144420E+03 -0.21055933864E+03  0.26785131225E+03  0.12500251990E+03 0.  0.
          2    1    1    2  501    0  0.14376452414E+02 -0.45101010247E+02 -0.68900681597E+03  0.69063099841E+03  0.00000000000E+00 0. -1.
          1    1    1    2  502    0  0.24888393163E+02 -0.56100433949E+02 -0.50107967964E+02  0.79230671189E+02  0.00000000000E+00 0. -1.
         22    1    3    3    0    0 -0.27874711436E+02 -0.21530380214E+02 -0.84493280294E+02  0.91540544158E+02  0.00000000000E+00 0. -1.
         22    1    3    3    0    0 -0.11390134141E+02  0.12273182441E+03 -0.12606605835E+03  0.17631076809E+03  0.00000000000E+00 0. -1.
</event>
<event>
 7    1  0.5452757E-006  0.7971636E+02  0.7818608E-02  0.1370505E+00
          2   -1    0    0  502    0  0.00000000000E+00  0.00000000000E+00  0.68594462170E+03  0.68594462170E+03  0.00000000000E+00 0. -1.
          1   -1    0    0  501    0 -0.00000000000E+00 -0.00000000000E+00 -0.27934444948E+03  0.27934444948E+03  0.00000000000E+00 0. -1.
         25    2    1    2    0    0 -0.44335455832E+02  0.11857962031E+03  0.11438224805E+03  0.21151450783E+03  0.12501331672E+03 0.  0.
          2    1    1    2  501    0 -0.13480868094E+01 -0.56341390549E+02 -0.22442594598E+03  0.23139398190E+03  0.00000000000E+00 0. -1.
          1    1    1    2  502    0  0.45683542641E+02 -0.62238229758E+02  0.51664387016E+03  0.52238058146E+03  0.00000000000E+00 0. -1.
         22    1    3    3    0    0  0.12958875008E+01 -0.20755343710E+02  0.44449475214E+02  0.49073612703E+02  0.00000000000E+00 0.  1.
         22    1    3    3    0    0 -0.45631343333E+02  0.13933496402E+03  0.69932772832E+02  0.16244089512E+03  0.00000000000E+00 0.  1.
</event>
<event>
 7    1  0.5452757E-006  0.5557655E+02  0.7818608E-02  0.1462041E+00
          2   -1    0    0  502    0  0.00000000000E+00  0.00000000000E+00  0.15099953992E+03  0.15099953992E+03  0.00000000000E+00 0. -1.
          1   -1    0    0  501    0 -0.00000000000E+00 -0.00000000000E+00 -0.77574873348E+03  0.77574873348E+03  0.00000000000E+00 0. -1.
         25    2    1    2    0    0 -0.97580726859E+01 -0.32321601344E+02 -0.34135066505E+03  0.36509315318E+03  0.12503130838E+03 0.  0.
          2    1    1    2  501    0  0.35828714181E+02 -0.17333084681E+02 -0.41588613387E+03  0.41778631970E+03  0.00000000000E+00 0. -1.
          1    1    1    2  502    0 -0.26070641495E+02  0.49654686026E+02  0.13248760535E+03  0.14386880053E+03  0.00000000000E+00 0. -1.
         22    1    3    3    0    0  0.44065492058E+02 -0.54043393403E+02 -0.15620029292E+03  0.17105843291E+03  0.00000000000E+00 0.  1.
         22    1    3    3    0    0 -0.53823564744E+02  0.21721792058E+02 -0.18515037212E+03  0.19403472027E+03  0.00000000000E+00 0.  1.
</event>
<event>
 7    1  0.5452757E-006  0.4586018E+02  0.7818608E-02  0.1479795E+00
          2   -1    0    0  502    0  0.00000000000E+00  0.00000000000E+00  0.74998777623E+02  0.74998777623E+02  0.00000000000E+00 0. -1.
          1   -1    0    0  501    0 -0.00000000000E+00 -0.00000000000E+00 -0.22807424577E+03  0.22807424577E+03  0.00000000000E+00 0. -1.
         25    2    1    2    0    0 -0.37499190609E+02  0.17662042099E+02 -0.34218107481E+02  0.13606441103E+03  0.12499803215E+03 0.  0.
          2    1    1    2  501    0 -0.25636303603E+01 -0.45788473831E+02 -0.10733329295E+03  0.11672014527E+03  0.00000000000E+00 0. -1.
          1    1    1    2  502    0  0.40062820969E+02  0.28126431733E+02 -0.11524067717E+02  0.50288467095E+02  0.00000000000E+00 0. -1.
         22    1    3    3    0    0 -0.94569005323E+01  0.32136954483E+02  0.41910808907E+02  0.53653822924E+02  0.00000000000E+00 0. -1.
         22    1    3    3    0    0 -0.28042290076E+02 -0.14474912384E+02 -0.76128916389E+02  0.82410588105E+02  0.00000000000E+00 0. -1.
</event>
<event>
 7    1  0.5452757E-006  0.9897040E+02  0.7818608E-02  0.1335436E+00
          2   -1    0    0  502    0  0.00000000000E+00  0.00000000000E+00  0.74019729387E+02  0.74019729387E+02  0.00000000000E+00 0. -1.
          1   -1    0    0  501    0 -0.00000000000E+00 -0.00000000000E+00 -0.96637983511E+03  0.96637983511E+03  0.00000000000E+00 0. -1.
         25    2    1    2    0    0 -0.92050163663E+02 -0.90972893415E+02 -0.27772632394E+03  0.33091718299E+03  0.12499988410E+03 0.  0.
          2    1    1    2  501    0  0.61145173732E+02  0.28109087068E+00 -0.61052715124E+03  0.61358146458E+03  0.00000000000E+00 0. -1.
          1    1    1    2  502    0  0.30904989931E+02  0.90691802545E+02 -0.41066305465E+01  0.95900916919E+02  0.00000000000E+00 0. -1.
         22    1    3    3    0    0 -0.44378294665E+02  0.27031544717E+02 -0.67766944485E+02  0.85396113565E+02  0.00000000000E+00 0. -1.
         22    1    3    3    0    0 -0.47671868998E+02 -0.11800443813E+03 -0.20995937945E+03  0.24552106943E+03  0.00000000000E+00 0. -1.
</event>
<event>
 7    1  0.5452757E-006  0.6313885E+02  0.7818608E-02  0.1457199E+00
          2   -1    0    0  502    0  0.00000000000E+00  0.00000000000E+00  0.83043645970E+03  0.83043645970E+03  0.00000000000E+00 0. -1.
          1   -1    0    0  501    0 -0.00000000000E+00 -0.00000000000E+00 -0.12385375445E+04  0.12385375445E+04  0.00000000000E+00 0. -1.
         25    2    1    2    0    0  0.18186400417E+02  0.97401860221E+02  0.31475897953E+02  0.16258386327E+03  0.12499965164E+03 0.  0.
          2    1    1    2  501    0 -0.12702060493E+02 -0.61529798740E+02 -0.11716925453E+04  0.11733757621E+04  0.00000000000E+00 0. -1.
          1    1    1    2  502    0 -0.54843399240E+01 -0.35872061481E+02  0.73211556248E+03  0.73301437885E+03  0.00000000000E+00 0. -1.
         22    1    3    3    0    0  0.40654997709E+02  0.17748408495E+02  0.60376611243E+02  0.74921092010E+02  0.00000000000E+00 0. -1.
         22    1    3    3    0    0 -0.22468597292E+02  0.79653451726E+02 -0.28900713290E+02  0.87662771259E+02  0.00000000000E+00 0. -1.
</event>
<event>
 7    1  0.5452757E-006  0.6692190E+02  0.7818608E-02  0.1454958E+00
          2   -1    0    0  502    0  0.00000000000E+00  0.00000000000E+00  0.23701929942E+03  0.23701929942E+03  0.00000000000E+00 0. -1.
          1   -1    0    0  501    0 -0.00000000000E+00 -0.00000000000E+00 -0.18270540730E+03  0.18270540730E+03  0.00000000000E+00 0. -1.
         25    2    1    2    0    0  0.94967119990E+02 -0.46125623782E+01  0.56835710211E+02  0.16701129042E+03  0.12498977383E+03 0.  0.
          2    1    1    2  501    0 -0.62590453913E+02  0.17378309814E+02 -0.11658431344E+03  0.13345962953E+03  0.00000000000E+00 0. -1.
          1    1    1    2  502    0 -0.32376666078E+02 -0.12765747435E+02  0.11406249534E+03  0.11925378677E+03  0.00000000000E+00 0. -1.
         22    1    3    3    0    0  0.60524745586E+02  0.90779007806E+01 -0.33213193394E+02  0.69633105103E+02  0.00000000000E+00 0. -1.
         22    1    3    3    0    0  0.34442374404E+02 -0.13690463159E+02  0.90048903605E+02  0.97378185322E+02  0.00000000000E+00 0. -1.
</event>
<event>
 7    1  0.5452757E-006  0.7718631E+02  0.7818608E-02  0.1372909E+00
          2   -1    0    0  502    0  0.00000000000E+00  0.00000000000E+00  0.17956110735E+04  0.17956110735E+04  0.00000000000E+00 0. -1.
          1   -1    0    0  501    0 -0.00000000000E+00 -0.00000000000E+00 -0.85970198067E+02  0.85970198067E+02  0.00000000000E+00 0. -1.
         25    2    1    2    0    0 -0.39596705192E+00  0.68232490755E+02  0.40641991773E+03  0.43064805539E+03  0.12499907400E+03 0.  0.
          2    1    1    2  501    0 -0.55307804586E+02 -0.55861976830E+02 -0.52167031101E+02  0.94344649225E+02  0.00000000000E+00 0. -1.
          1    1    1    2  502    0  0.55703771638E+02 -0.12370513925E+02  0.13553879888E+04  0.13565885670E+04  0.00000000000E+00 0. -1.
         22    1    3    3    0    0 -0.97032252721E+01 -0.25109195014E+01  0.31268353465E+03  0.31284413074E+03  0.00000000000E+00 0. -1.
         22    1    3    3    0    0  0.93072582202E+01  0.70743410257E+02  0.93736383082E+02  0.11780392465E+03  0.00000000000E+00 0. -1.
</event>
<event>
 7    1  0.5452757E-006  0.7859613E+02  0.7818608E-02  0.1337855E+00
          2   -1    0    0  502    0  0.00000000000E+00  0.00000000000E+00  0.18668081919E+04  0.18668081919E+04  0.00000000000E+00 0. -1.
          1   -1    0    0  501    0 -0.00000000000E+00 -0.00000000000E+00 -0.31938887411E+02  0.31938887411E+02  0.00000000000E+00 0. -1.
         25    2    1    2    0    0  0.13433479926E+02 -0.11616180714E+02  0.85264173906E+03  0.86193861832E+03  0.12499941009E+03 0.  0.
          2    1    1    2  501    0 -0.81390114441E+02 -0.21030657538E+02  0.42746998730E+02  0.94307715408E+02  0.00000000000E+00 0. -1.
          1    1    1    2  502    0  0.67956634515E+02  0.32646838253E+02  0.93948056670E+03  0.94250074559E+03  0.00000000000E+00 0. -1.
         22    1    3    3    0    0  0.47864781173E+02  0.34348132836E+02  0.26357191619E+03  0.27007589028E+03  0.00000000000E+00 0. -1.
         22    1    3    3    0    0 -0.34431301247E+02 -0.45964313550E+02  0.58906982287E+03  0.59186272804E+03  0.00000000000E+00 0. -1.
</event>
<event>
 7    1  0.5452757E-006  0.5247565E+02  0.7818608E-02  0.1527354E+00
          2   -1    0    0  502    0  0.00000000000E+00  0.00000000000E+00  0.10381213360E+04  0.10381213360E+04  0.00000000000E+00 0. -1.
          1   -1    0    0  501    0 -0.00000000000E+00 -0.00000000000E+00 -0.76451192911E+02  0.76451192911E+02  0.00000000000E+00 0. -1.
         25    2    1    2    0    0  0.31711735052E+02  0.63287028174E+02  0.10240348889E+03  0.17641534393E+03  0.12500006785E+03 0.  0.
          2    1    1    2  501    0 -0.34932859867E+02 -0.36664562798E+02 -0.22902985588E+02  0.55580046892E+02  0.00000000000E+00 0. -1.
          1    1    1    2  502    0  0.32211248148E+01 -0.26622465376E+02  0.88216963976E+03  0.88257713806E+03  0.00000000000E+00 0. -1.
         22    1    3    3    0    0  0.31406012899E+02  0.98507182138E+02  0.54265584898E+02  0.11676795915E+03  0.00000000000E+00 0.  1.
         22    1    3    3    0    0  0.30572215334E+00 -0.35220153963E+02  0.48137903989E+02  0.59647384785E+02  0.00000000000E+00 0.  1.
</event>
<event>
 7    1  0.5452757E-006  0.1518275E+03  0.7818608E-02  0.1215519E+00
          2   -1    0    0  502    0  0.00000000000E+00  0.00000000000E+00  0.73592971275E+03  0.73592971275E+03  0.00000000000E+00 0. -1.
          1   -1    0    0  501    0 -0.00000000000E+00 -0.00000000000E+00 -0.30801267034E+03  0.30801267034E+03  0.00000000000E+00 0. -1.
         25    2    1    2    0    0  0.56361223344E+02 -0.11172655502E+03  0.42511535462E+03  0.46044240343E+03  0.12499892619E+03 0.  0.
          2    1    1    2  501    0  0.11514058181E+03 -0.51497665449E+02 -0.22308219655E+03  0.25627139821E+03  0.00000000000E+00 0. -1.
          1    1    1    2  502    0 -0.17150180515E+03  0.16322422046E+03  0.22588388434E+03  0.32722858145E+03  0.00000000000E+00 0. -1.
         22    1    3    3    0    0  0.70648129323E+02 -0.24584076191E+02  0.10881363568E+03  0.13204522820E+03  0.00000000000E+00 0. -1.
         22    1    3    3    0    0 -0.14286905979E+02 -0.87142478825E+02  0.31630171894E+03  0.32839717523E+03  0.00000000000E+00 0. -1.
</event>
<event>
 7    1  0.5452757E-006  0.4139377E+02  0.7818608E-02  0.1570155E+00
          2   -1    0    0  502    0  0.00000000000E+00  0.00000000000E+00  0.70976955709E+03  0.70976955709E+03  0.00000000000E+00 0. -1.
          1   -1    0    0  501    0 -0.00000000000E+00 -0.00000000000E+00 -0.22619880188E+03  0.22619880188E+03  0.00000000000E+00 0. -1.
         25    2    1    2    0    0  0.20533179638E+02 -0.27053922521E+02  0.20527243616E+03  0.24272697594E+03  0.12500434236E+03 0.  0.
          2    1    1    2  501    0  0.20125229831E+02  0.16162300926E+02 -0.20575183388E+03  0.20736456301E+03  0.00000000000E+00 0. -1.
          1    1    1    2  502    0 -0.40658409469E+02  0.10891621595E+02  0.48405015293E+03  0.48587682002E+03  0.00000000000E+00 0. -1.
         22    1    3    3    0    0  0.34269061479E+02  0.44325669858E+02  0.10303069382E+03  0.11727939910E+03  0.00000000000E+00 0. -1.
         22    1    3    3    0    0 -0.13735881841E+02 -0.71379592379E+02  0.10224174234E+03  0.12544757684E+03  0.00000000000E+00 0. -1.
</event>
<event>
 7    1  0.5452757E-006  0.4781445E+02  0.7818608E-02  0.1529710E+00
          2   -1    0    0  502    0  0.00000000000E+00  0.00000000000E+00  0.10488565569E+04  0.10488565569E+04  0.00000000000E+00 0. -1.
          1   -1    0    0  501    0 -0.00000000000E+00 -0.00000000000E+00 -0.10160982489E+03  0.10160982489E+03  0.00000000000E+00 0. -1.
         25    2    1    2    0    0 -0.19261893025E+02  0.39416157439E+01  0.25495080169E+03  0.28462700246E+03  0.12500424948E+03 0.  0.
          2    1    1    2  501    0  0.48178046717E+02 -0.58033143637E+01 -0.79694128217E+02  0.93305716413E+02  0.00000000000E+00 0. -1.
          1    1    1    2  502    0 -0.28916153692E+02  0.18616986198E+01  0.77199005850E+03  0.77253366288E+03  0.00000000000E+00 0. -1.
         22    1    3    3    0    0 -0.61128681367E+02  0.38414097674E+02  0.15147292778E+03  0.16779870809E+03  0.00000000000E+00 0.  1.
         22    1    3    3    0    0  0.41866788342E+02 -0.34472481930E+02  0.10347787391E+03  0.11682829437E+03  0.00000000000E+00 0.  1.
</event>
<event>
 7    1  0.5452757E-006  0.6051663E+02  0.7818608E-02  0.1448414E+00
          2   -1    0    0  502    0  0.00000000000E+00  0.00000000000E+00  0.30947488392E+04  0.30947488392E+04  0.00000000000E+00 0. -1.
          1   -1    0    0  501    0 -0.00000000000E+00 -0.00000000000E+00 -0.68336226186E+03  0.68336226186E+03  0.00000000000E+00 0. -1.
         25    2    1    2    0    0 -0.84100751000E+02  0.91397169995E+01  0.19115383288E+03  0.24355937816E+03  0.12499964847E+03 0.  0.
          2    1    1    2  501    0  0.33115671244E+02  0.23110172184E+02 -0.65622253435E+03  0.65746387150E+03  0.00000000000E+00 0. -1.
          1    1    1    2  502    0  0.50985079756E+02 -0.32249889183E+02  0.28764552788E+04  0.28770878514E+04  0.00000000000E+00 0. -1.
         22    1    3    3    0    0 -0.10139537666E+03 -0.25168892088E+01  0.19727668215E+03  0.22182300706E+03  0.00000000000E+00 0.  1.
         22    1    3    3    0    0  0.17294625664E+02  0.11656606208E+02 -0.61228492733E+01  0.21736371095E+02  0.00000000000E+00 0.  1.
</event>
<event>
 7    1  0.6215481E-006  0.1427526E+03  0.7818608E-02  0.1340831E+00
          2   -1    0    0  502    0  0.00000000000E+00  0.00000000000E+00  0.13030971532E+04  0.13030971532E+04  0.00000000000E+00 0. -1.
          1   -1    0    0  501    0 -0.00000000000E+00 -0.00000000000E+00 -0.11284151683E+04  0.11284151683E+04  0.00000000000E+00 0. -1.
         25    2    1    2    0    0 -0.52600163131E+02 -0.88528228029E+02 -0.24348095177E+03  0.29242745301E+03  0.12500726812E+03 0.  0.
          2    1    1    2  501    0 -0.18063957125E+02 -0.36194241130E+02 -0.85596399287E+03  0.85691930001E+03  0.00000000000E+00 0. -1.
          1    1    1    2  502    0  0.70664120256E+02  0.12472246916E+03  0.12741269296E+04  0.12821655684E+04  0.00000000000E+00 0. -1.
         22    1    3    3    0    0 -0.93431932984E+02 -0.54576306032E+02 -0.15066617752E+03  0.18549500351E+03  0.00000000000E+00 0.  1.
         22    1    3    3    0    0  0.40831769852E+02 -0.33951921997E+02 -0.92814774252E+02  0.10693244950E+03  0.00000000000E+00 0.  1.
</event>
<event>
 7    1  0.5452757E-006  0.8535968E+02  0.7818608E-02  0.1375118E+00
          2   -1    0    0  502    0  0.00000000000E+00  0.00000000000E+00  0.30485984959E+04  0.30485984959E+04  0.00000000000E+00 0. -1.
          1   -1    0    0  501    0 -0.00000000000E+00 -0.00000000000E+00 -0.57610906547E+02  0.57610906547E+02  0.00000000000E+00 0. -1.
         25    2    1    2    0    0  0.24805854284E+02  0.10678961116E+03  0.33774752137E+03  0.37645259113E+03  0.12499525478E+03 0.  0.
          2    1    1    2  501    0 -0.52879708333E+02 -0.64610285053E+02  0.78253932495E+01  0.83856957181E+02  0.00000000000E+00 0. -1.
          1    1    1    2  502    0  0.28073854049E+02 -0.42179326103E+02  0.26454146747E+04  0.26458998541E+04  0.00000000000E+00 0. -1.
         22    1    3    3    0    0 -0.16334585503E+01  0.29079633449E+02  0.26552729105E+03  0.26711988986E+03  0.00000000000E+00 0.  1.
         22    1    3    3    0    0  0.26439312834E+02  0.77709977708E+02  0.72220230318E+02  0.10933270126E+03  0.00000000000E+00 0.  1.
</event>
<event>
 7    1  0.5452757E-006  0.1471202E+03  0.7818608E-02  0.1324832E+00
          2   -1    0    0  502    0  0.00000000000E+00  0.00000000000E+00  0.10815503357E+04  0.10815503357E+04  0.00000000000E+00 0. -1.
          1   -1    0    0  501    0 -0.00000000000E+00 -0.00000000000E+00 -0.20265738626E+04  0.20265738626E+04  0.00000000000E+00 0. -1.
         25    2    1    2    0    0  0.12615930344E+03 -0.13728040844E+03  0.11976994031E+03  0.25442527009E+03  0.12500119627E+03 0.  0.
          2    1    1    2  501    0 -0.19662541275E+02  0.40649123373E+02 -0.19532037313E+04  0.19537256160E+04  0.00000000000E+00 0. -1.
          1    1    1    2  502    0 -0.10649676217E+03  0.96631285070E+02  0.88841026404E+03  0.89997331231E+03  0.00000000000E+00 0. -1.
         22    1    3    3    0    0  0.69656734342E+02 -0.54756504781E+02 -0.11555241140E+02  0.89352442904E+02  0.00000000000E+00 0.  1.
         22    1    3    3    0    0  0.56502569098E+02 -0.82523903662E+02  0.13132518145E+03  0.16507282718E+03  0.00000000000E+00 0.  1.
</event>
<event>
 7    1  0.5452757E-006  0.1279781E+03  0.7818608E-02  0.1346502E+00
          2   -1    0    0  502    0  0.00000000000E+00  0.00000000000E+00  0.71842135818E+03  0.71842135818E+03  0.00000000000E+00 0. -1.
          1   -1    0    0  501    0 -0.00000000000E+00 -0.00000000000E+00 -0.30393751471E+03  0.30393751471E+03  0.00000000000E+00 0. -1.
         25    2    1    2    0    0  0.91460661245E+02 -0.17184838656E+01  0.43089098977E+02  0.16078031756E+03  0.12500253726E+03 0.  0.
          2    1    1    2  501    0  0.39797955108E+02 -0.16203695329E+02 -0.23601256346E+03  0.23989240731E+03  0.00000000000E+00 0. -1.
          1    1    1    2  502    0 -0.13125861635E+03  0.17922179194E+02  0.60740730796E+03  0.62168614802E+03  0.00000000000E+00 0. -1.
         22    1    3    3    0    0  0.60499826242E+02  0.60368204228E+02  0.21670758242E+02  0.88171258467E+02  0.00000000000E+00 0.  1.
         22    1    3    3    0    0  0.30960835003E+02 -0.62086688093E+02  0.21418340735E+02  0.72609059093E+02  0.00000000000E+00 0.  1.
</event>
<event>
 7    1  0.5452757E-006  0.9649798E+02  0.7818608E-02  0.1317147E+00
          2   -1    0    0  502    0  0.00000000000E+00  0.00000000000E+00  0.14064955835E+04  0.14064955835E+04  0.00000000000E+00 0. -1.
          1   -1    0    0  501    0 -0.00000000000E+00 -0.00000000000E+00 -0.36539384433E+03  0.36539384433E+03  0.00000000000E+00 0. -1.
         25    2    1    2    0    0  0.12330110725E+03  0.11265246156E+03  0.14355851023E+03  0.25322369516E+03  0.12497781317E+03 0.  0.
          2    1    1    2  501    0 -0.74257316007E+02 -0.57602722013E+02 -0.30229382614E+03  0.31656560123E+03  0.00000000000E+00 0. -1.
          1    1    1    2  502    0 -0.49043791240E+02 -0.55049739550E+02  0.11998370551E+04  0.12021001315E+04  0.00000000000E+00 0. -1.
         22    1    3    3    0    0  0.19015469589E+02  0.10196822353E+03  0.73894731985E+02  0.12735595043E+03  0.00000000000E+00 0.  1.
         22    1    3    3    0    0  0.10428563766E+03  0.10684238030E+02  0.69663778248E+02  0.12586774473E+03  0.00000000000E+00 0.  1.
</event>
<event>
 7    1  0.5452757E-006  0.6531560E+02  0.7818608E-02  0.1377890E+00
          2   -1    0    0  502    0  0.00000000000E+00  0.00000000000E+00  0.29434677152E+03  0.29434677152E+03  0.00000000000E+00 0. -1.
          1   -1    0    0  501    0 -0.00000000000E+00 -0.00000000000E+00 -0.25639536602E+03  0.25639536602E+03  0.00000000000E+00 0. -1.
         25    2    1    2    0    0 -0.54596349013E+02 -0.92813480453E+01 -0.10254683748E+03  0.17089945358E+03  0.12499545835E+03 0.  0.
          2    1    1    2  501    0  0.31369093356E+02  0.69699653490E+02 -0.10278865244E+03  0.12809203248E+03  0.00000000000E+00 0. -1.
          1    1    1    2  502    0  0.23227255657E+02 -0.60418305445E+02  0.24328689542E+03  0.25175065148E+03  0.00000000000E+00 0. -1.
         22    1    3    3    0    0  0.14333347550E+02  0.13433913370E+02  0.20278976952E+02  0.28233876578E+02  0.00000000000E+00 0. -1.
         22    1    3    3    0    0 -0.68929696563E+02 -0.22715261415E+02 -0.12282581443E+03  0.14266557700E+03  0.00000000000E+00 0. -1.
</event>
<event>
 7    1  0.5452757E-006  0.1959178E+03  0.7818608E-02  0.1318118E+00
          2   -1    0    0  502    0  0.00000000000E+00  0.00000000000E+00  0.20548331122E+04  0.20548331122E+04  0.00000000000E+00 0. -1.
          1   -1    0    0  501    0 -0.00000000000E+00 -0.00000000000E+00 -0.12524560204E+04  0.12524560204E+04  0.00000000000E+00 0. -1.
         25    2    1    2    0    0 -0.14836047765E+03  0.11845034382E+03 -0.79196317539E+01  0.22743332053E+03  0.12498751714E+03 0.  0.
          2    1    1    2  501    0  0.12872509960E+03 -0.14862295401E+03 -0.11260941519E+04  0.11431303393E+04  0.00000000000E+00 0. -1.
          1    1    1    2  502    0  0.19635378048E+02  0.30172610193E+02  0.19363908754E+04  0.19367254728E+04  0.00000000000E+00 0. -1.
         22    1    3    3    0    0 -0.47026294925E+02 -0.22553064784E+02  0.91715829882E+01  0.52954991077E+02  0.00000000000E+00 0. -1.
         22    1    3    3    0    0 -0.10133418272E+03  0.14100340861E+03 -0.17091214742E+02  0.17447832945E+03  0.00000000000E+00 0. -1.
</event>
<event>
 7    1  0.5452757E-006  0.5188223E+02  0.7818608E-02  0.1493537E+00
          2   -1    0    0  502    0  0.00000000000E+00  0.00000000000E+00  0.70524121609E+02  0.70524121609E+02  0.00000000000E+00 0. -1.
          1   -1    0    0  501    0 -0.00000000000E+00 -0.00000000000E+00 -0.24239266652E+03  0.24239266652E+03  0.00000000000E+00 0. -1.
         25    2    1    2    0    0  0.43330561485E+00  0.35526718855E+02 -0.14039776771E+03  0.19130935421E+03  0.12500160128E+03 0.  0.
          2    1    1    2  501    0  0.25870584072E+02 -0.57238040712E+02 -0.52220099764E+02  0.81684877696E+02  0.00000000000E+00 0. -1.
          1    1    1    2  502    0 -0.26303889687E+02  0.21711321857E+02  0.20749322559E+02  0.39922556232E+02  0.00000000000E+00 0. -1.
         22    1    3    3    0    0  0.26711907774E+02  0.30428203560E+02  0.73542912404E+01  0.41152001026E+02  0.00000000000E+00 0.  1.
         22    1    3    3    0    0 -0.26278602159E+02  0.50985152957E+01 -0.14775205895E+03  0.15015735318E+03  0.00000000000E+00 0.  1.
</event>
<event>
 7    1  0.5452757E-006  0.1433672E+03  0.7818608E-02  0.1328273E+00
          2   -1    0    0  502    0  0.00000000000E+00  0.00000000000E+00  0.35952948481E+03  0.35952948481E+03  0.00000000000E+00 0. -1.
          1   -1    0    0  501    0 -0.00000000000E+00 -0.00000000000E+00 -0.19307890715E+04  0.19307890715E+04  0.00000000000E+00 0. -1.
         25    2    1    2    0    0 -0.12120661102E+03  0.57876039741E+02 -0.52588130926E+03  0.55696998030E+03  0.12499491586E+03 0.  0.
          2    1    1    2  501    0 -0.21417264890E+02 -0.39517404283E+02 -0.13739511311E+04  0.13746861587E+04  0.00000000000E+00 0. -1.
          1    1    1    2  502    0  0.14262387591E+03 -0.18358635458E+02  0.32857285360E+03  0.35866241732E+03  0.00000000000E+00 0. -1.
         22    1    3    3    0    0 -0.86884669876E+02  0.79848237264E+02 -0.48536623073E+03  0.49950481958E+03  0.00000000000E+00 0. -1.
         22    1    3    3    0    0 -0.34321941140E+02 -0.21972197523E+02 -0.40515078536E+02  0.57465160718E+02  0.00000000000E+00 0. -1.
</event>
<event>
 7    1  0.5452757E-006  0.6962898E+02  0.7818608E-02  0.1431745E+00
          2   -1    0    0  502    0  0.00000000000E+00  0.00000000000E+00  0.92900562462E+03  0.92900562462E+03  0.00000000000E+00 0. -1.
          1   -1    0    0  501    0 -0.00000000000E+00 -0.00000000000E+00 -0.21859790957E+04  0.21859790957E+04  0.00000000000E+00 0. -1.
         25    2    1    2    0    0 -0.51780456246E+02 -0.81523798654E+02  0.34667084885E+03  0.38095817006E+03  0.12498441700E+03 0.  0.
          2    1    1    2  501    0 -0.63857670144E+00  0.39747745837E+02 -0.21666650897E+04  0.21670297419E+04  0.00000000000E+00 0. -1.
          1    1    1    2  502    0  0.52419032947E+02  0.41776052817E+02  0.56302076976E+03  0.56699680844E+03  0.00000000000E+00 0. -1.
         22    1    3    3    0    0 -0.88967797964E+02 -0.81465346593E+02  0.25821307936E+03  0.28500151951E+03  0.00000000000E+00 0.  1.
         22    1    3    3    0    0  0.37187341719E+02 -0.58452061206E-01  0.88457769494E+02  0.95956650549E+02  0.00000000000E+00 0.  1.
</event>
<event>
 7    1  0.5452757E-006  0.9880001E+02  0.7818608E-02  0.1323330E+00
          2   -1    0    0  502    0  0.00000000000E+00  0.00000000000E+00  0.41408213637E+03  0.41408213637E+03  0.00000000000E+00 0. -1.
          1   -1    0    0  501    0 -0.00000000000E+00 -0.00000000000E+00 -0.87952266708E+03  0.87952266708E+03  0.00000000000E+00 0. -1.
         25    2    1    2    0    0  0.29334728272E+02 -0.14053834924E+03 -0.20578100972E+03  0.28032083626E+03  0.12498957313E+03 0.  0.
          2    1    1    2  501    0 -0.51132583026E+02  0.45040732004E+02 -0.62823227808E+03  0.63191692793E+03  0.00000000000E+00 0. -1.
          1    1    1    2  502    0  0.21797854754E+02  0.95497617234E+02  0.36857275708E+03  0.38136703926E+03  0.00000000000E+00 0. -1.
         22    1    3    3    0    0 -0.34743059832E+02 -0.11665264679E+03 -0.12477604193E+03  0.17431001362E+03  0.00000000000E+00 0.  1.
         22    1    3    3    0    0  0.64077788104E+02 -0.23885702450E+02 -0.81004967789E+02  0.10601082264E+03  0.00000000000E+00 0.  1.
</event>
<event>
 7    1  0.5452757E-006  0.7034677E+02  0.7818608E-02  0.1426229E+00
          2   -1    0    0  502    0  0.00000000000E+00  0.00000000000E+00  0.13777875689E+04  0.13777875689E+04  0.00000000000E+00 0. -1.
          1   -1    0    0  501    0 -0.00000000000E+00 -0.00000000000E+00 -0.17567627959E+02  0.17567627959E+02  0.00000000000E+00 0. -1.
         25    2    1    2    0    0  0.24290765234E+02 -0.56285953124E+02  0.59927772347E+03  0.61524192068E+03  0.12502272324E+03 0.  0.
          2    1    1    2  501    0  0.38070864130E+02  0.15299328298E+02  0.47450654073E+02  0.62729775338E+02  0.00000000000E+00 0. -1.
          1    1    1    2  502    0 -0.62361629363E+02  0.40986624826E+02  0.71349156343E+03  0.71738350087E+03  0.00000000000E+00 0. -1.
         22    1    3    3    0    0 -0.39683312765E+01 -0.13916418937E+02  0.68584197505E+00  0.14487399641E+02  0.00000000000E+00 0. -1.
         22    1    3    3    0    0  0.28259096510E+02 -0.42369534187E+02  0.59859188149E+03  0.60075452104E+03  0.00000000000E+00 0. -1.
</event>
<event>
 7    1  0.5452757E-006  0.4987086E+02  0.7818608E-02  0.1461476E+00
          2   -1    0    0  502    0  0.00000000000E+00  0.00000000000E+00  0.10431241100E+04  0.10431241100E+04  0.00000000000E+00 0. -1.
          1   -1    0    0  501    0 -0.00000000000E+00 -0.00000000000E+00 -0.19905308993E+04  0.19905308993E+04  0.00000000000E+00 0. -1.
         25    2    1    2    0    0  0.45820866437E+02 -0.12487720321E+02  0.48833862467E+02  0.14235665950E+03  0.12500070968E+03 0.  0.
          2    1    1    2  501    0 -0.67815586576E+01  0.44017417348E+02 -0.19428497120E+04  0.19433601123E+04  0.00000000000E+00 0. -1.
          1    1    1    2  502    0 -0.39039307779E+02 -0.31529697026E+02  0.94660906021E+03  0.94793823755E+03  0.00000000000E+00 0. -1.
         22    1    3    3    0    0  0.35464740917E+02  0.11576710268E+02  0.87803002439E+02  0.95399870578E+02  0.00000000000E+00 0. -1.
         22    1    3    3    0    0  0.10356125519E+02 -0.24064430590E+02 -0.38969139972E+02  0.46956788918E+02  0.00000000000E+00 0. -1.
</event>
<event>
 7    1  0.5452757E-006  0.8042433E+02  0.7818608E-02  0.1449998E+00
          2   -1    0    0  502    0  0.00000000000E+00  0.00000000000E+00  0.19105892435E+04  0.19105892435E+04  0.00000000000E+00 0. -1.
          1   -1    0    0  501    0 -0.00000000000E+00 -0.00000000000E+00 -0.19977060449E+03  0.19977060449E+03  0.00000000000E+00 0. -1.
         25    2    1    2    0    0 -0.48086463900E+02 -0.76927802528E+02  0.17308966352E+04  0.17377767039E+04  0.12503805968E+03 0.  0.
          2    1    1    2  501    0  0.18086276238E+02  0.78337909715E+02 -0.18670041543E+03  0.20327564194E+03  0.00000000000E+00 0. -1.
          1    1    1    2  502    0  0.30000187661E+02 -0.14101071875E+01  0.16662241933E+03  0.16930750216E+03  0.00000000000E+00 0. -1.
         22    1    3    3    0    0  0.28639694424E+02 -0.71756243673E+02  0.92347176333E+03  0.92669805669E+03  0.00000000000E+00 0.  1.
         22    1    3    3    0    0 -0.76726158323E+02 -0.51715588554E+01  0.80742487182E+03  0.81107864725E+03  0.00000000000E+00 0.  1.
</event>
<event>
 7    1  0.1417281E-005  0.7279261E+02  0.7818608E-02  0.1362918E+00
          2   -1    0    0  502    0  0.00000000000E+00  0.00000000000E+00  0.23944950030E+04  0.23944950030E+04  0.00000000000E+00 0. -1.
          1   -1    0    0  501    0 -0.00000000000E+00 -0.00000000000E+00 -0.13407365153E+04  0.13407365153E+04  0.00000000000E+00 0. -1.
         25    2    1    2    0    0 -0.67305087887E+02 -0.26596626461E+02 -0.23290700465E+03  0.27406358658E+03  0.12501128461E+03 0.  0.
          2    1    1    2  501    0  0.48927094500E+02 -0.43906299670E+02 -0.10856977347E+04  0.10876861656E+04  0.00000000000E+00 0. -1.
          1    1    1    2  502    0  0.18377993387E+02  0.70502926131E+02  0.23723632270E+04  0.23734817661E+04  0.00000000000E+00 0. -1.
         22    1    3    3    0    0 -0.74286768223E+02  0.32993418923E+02 -0.10501632632E+03  0.13279878922E+03  0.00000000000E+00 0. -1.
         22    1    3    3    0    0  0.69816803357E+01 -0.59590045383E+02 -0.12789067833E+03  0.14126479736E+03  0.00000000000E+00 0. -1.
</event>
<event>
 7    1  0.5452757E-006  0.6852156E+02  0.7818608E-02  0.1380291E+00
          2   -1    0    0  502    0  0.00000000000E+00  0.00000000000E+00  0.92050782645E+03  0.92050782645E+03  0.00000000000E+00 0. -1.
          1   -1    0    0  501    0 -0.00000000000E+00 -0.00000000000E+00 -0.33015993220E+03  0.33015993220E+03  0.00000000000E+00 0. -1.
         25    2    1    2    0    0  0.74131428867E+02  0.77539248369E+02  0.19833200775E+03  0.25781616141E+03  0.12500313597E+03 0.  0.
          2    1    1    2  501    0 -0.14638734864E+02 -0.66530163911E+02 -0.29520986310E+03  0.30296768563E+03  0.00000000000E+00 0. -1.
          1    1    1    2  502    0 -0.59492694003E+02 -0.11009084458E+02  0.68722574960E+03  0.68988391161E+03  0.00000000000E+00 0. -1.
         22    1    3    3    0    0  0.10692086467E+01  0.83191949378E+01  0.14245154580E+03  0.14269826598E+03  0.00000000000E+00 0. -1.
         22    1    3    3    0    0  0.73062220221E+02  0.69220053431E+02  0.55880461942E+02  0.11511789543E+03  0.00000000000E+00 0. -1.
</event>
<event>
 7    1  0.5452757E-006  0.6538914E+02  0.7818608E-02  0.1405324E+00
          2   -1    0    0  502    0  0.00000000000E+00  0.00000000000E+00  0.23023211972E+03  0.23023211972E+03  0.00000000000E+00 0. -1.
          1   -1    0    0  501    0 -0.00000000000E+00 -0.00000000000E+00 -0.23388455166E+03  0.23388455166E+03  0.00000000000E+00 0. -1.
         25    2    1    2    0    0 -0.79790505197E+02 -0.78957451803E+02  0.33722578394E+02  0.17136703044E+03  0.12501457081E+03 0.  0.
          2    1    1    2  501    0  0.37041272183E+02  0.36340251740E+02 -0.15341231760E+03  0.16195063734E+03  0.00000000000E+00 0. -1.
          1    1    1    2  502    0  0.42749233015E+02  0.42617200064E+02  0.11603730727E+03  0.13079900360E+03  0.00000000000E+00 0. -1.
         22    1    3    3    0    0 -0.29074014718E+02 -0.69408606668E+02  0.74274330978E+02  0.10573329302E+03  0.00000000000E+00 0.  1.
         22    1    3    3    0    0 -0.50716490479E+02 -0.95488451353E+01 -0.40551752583E+02  0.65633737418E+02  0.00000000000E+00 0.  1.
</event>
<event>
 7    1  0.5452757E-006  0.6900774E+02  0.7818608E-02  0.1496744E+00
          2   -1    0    0  502    0  0.00000000000E+00  0.00000000000E+00  0.14329587111E+03  0.14329587111E+03  0.00000000000E+00 0. -1.
          1   -1    0    0  501    0 -0.00000000000E+00 -0.00000000000E+00 -0.60620077821E+03  0.60620077821E+03  0.00000000000E+00 0. -1.
         25    2    1    2    0    0 -0.49122363140E+02 -0.25295906017E+02  0.49880937050E+02  0.14547974723E+03  0.12499343803E+03 0.  0.
          2    1    1    2  501    0  0.68708948086E+02  0.96316484157E+01 -0.55261276744E+03  0.55695112796E+03  0.00000000000E+00 0. -1.
          1    1    1    2  502    0 -0.19586584946E+02  0.15664257601E+02  0.39826923287E+02  0.47065774131E+02  0.00000000000E+00 0. -1.
         22    1    3    3    0    0 -0.90166547564E+02 -0.30565967543E+02  0.36949269873E+02  0.10212508612E+03  0.00000000000E+00 0.  1.
         22    1    3    3    0    0  0.41044184424E+02  0.52700615263E+01  0.12931667178E+02  0.43354661105E+02  0.00000000000E+00 0.  1.
</event>
<event>
 7    1  0.5452757E-006  0.8071548E+02  0.7818608E-02  0.1370695E+00
          2   -1    0    0  502    0  0.00000000000E+00  0.00000000000E+00  0.69536004972E+03  0.69536004972E+03  0.00000000000E+00 0. -1.
          1   -1    0    0  501    0 -0.00000000000E+00 -0.00000000000E+00 -0.67730601920E+02  0.67730601920E+02  0.00000000000E+00 0. -1.
         25    2    1    2    0    0  0.37834721662E+02 -0.14695644518E+02  0.25112463154E+02  0.13380204368E+03  0.12499969183E+03 0.  0.
          2    1    1    2  501    0  0.43204607717E+02  0.34952674336E+02  0.65878050438E+02  0.86187267625E+02  0.00000000000E+00 0. -1.
          1    1    1    2  502    0 -0.81039329379E+02 -0.20257029818E+02  0.53663893421E+03  0.54310134033E+03  0.00000000000E+00 0. -1.
         22    1    3    3    0    0  0.23323851548E+01  0.42793898636E+01  0.71908866732E+02  0.72073839309E+02  0.00000000000E+00 0.  1.
         22    1    3    3    0    0  0.35502336507E+02 -0.18975034381E+02 -0.46796403578E+02  0.61728204373E+02  0.00000000000E+00 0.  1.
</event>
<event>
 7    1  0.5452757E-006  0.1391325E+03  0.7818608E-02  0.1326571E+00
          2   -1    0    0  502    0  0.00000000000E+00  0.00000000000E+00  0.98024206751E+03  0.98024206751E+03  0.00000000000E+00 0. -1.
          1   -1    0    0  501    0 -0.00000000000E+00 -0.00000000000E+00 -0.10472086259E+04  0.10472086259E+04  0.00000000000E+00 0. -1.
         25    2    1    2    0    0 -0.12283087795E+03  0.11913788807E+02 -0.13637545781E+03  0.22237595955E+03  0.12499375563E+03 0.  0.
          2    1    1    2  501    0  0.13829043147E+03  0.32489237845E+02 -0.86142232268E+03  0.87305682062E+03  0.00000000000E+00 0. -1.
          1    1    1    2  502    0 -0.15459553510E+02 -0.44403026652E+02  0.93083122210E+03  0.93201791325E+03  0.00000000000E+00 0. -1.
         22    1    3    3    0    0 -0.14160345650E+03 -0.14974645440E+02 -0.11692944601E+03  0.18425057461E+03  0.00000000000E+00 0.  1.
         22    1    3    3    0    0  0.18772578549E+02  0.26888434247E+02 -0.19446011807E+02  0.38125384940E+02  0.00000000000E+00 0.  1.
</event>
<event>
 7    1  0.5452757E-006  0.6964721E+02  0.7818608E-02  0.1381103E+00
          2   -1    0    0  502    0  0.00000000000E+00  0.00000000000E+00  0.15030091459E+04  0.15030091459E+04  0.00000000000E+00 0. -1.
          1   -1    0    0  501    0 -0.00000000000E+00 -0.00000000000E+00 -0.20544913058E+04  0.20544913058E+04  0.00000000000E+00 0. -1.
         25    2    1    2    0    0 -0.10574143315E+03 -0.34319760140E+01  0.32367240128E+03  0.36274200800E+03  0.12499964749E+03 0.  0.
          2    1    1    2  501    0  0.46059240439E+02  0.37082891894E+02 -0.20335144615E+04  0.20343740216E+04  0.00000000000E+00 0. -1.
          1    1    1    2  502    0  0.59682192708E+02 -0.33650915880E+02  0.11583599004E+04  0.11603844221E+04  0.00000000000E+00 0. -1.
         22    1    3    3    0    0  0.19984911593E+02 -0.16885470301E+02  0.17470388922E+02  0.31459979144E+02  0.00000000000E+00 0. -1.
         22    1    3    3    0    0 -0.12572634474E+03  0.13453494287E+02  0.30620201236E+03  0.33128202885E+03  0.00000000000E+00 0. -1.
</event>
<event>
 7    1  0.5452757E-006  0.1743683E+03  0.7818608E-02  0.1382029E+00
          2   -1    0    0  502    0  0.00000000000E+00  0.00000000000E+00  0.79540405489E+03  0.79540405489E+03  0.00000000000E+00 0. -1.
          1   -1    0    0  501    0 -0.00000000000E+00 -0.00000000000E+00 -0.55387835909E+03  0.55387835909E+03  0.00000000000E+00 0. -1.
         25    2    1    2    0    0 -0.19488879904E+02 -0.15183111083E+03  0.12479538440E+03  0.23373701015E+03  0.12500639699E+03 0.  0.
          2    1    1    2  501    0  0.18451871476E+02  0.17524989142E+03 -0.48362676459E+03  0.51473084562E+03  0.00000000000E+00 0. -1.
          1    1    1    2  502    0  0.10370084280E+01 -0.23418780594E+02  0.60035707599E+03  0.60081455822E+03  0.00000000000E+00 0. -1.
         22    1    3    3    0    0  0.17381186201E+02 -0.92529271389E+01  0.76131491337E+02  0.78636672536E+02  0.00000000000E+00 0. -1.
         22    1    3    3    0    0 -0.36870066105E+02 -0.14257818369E+03  0.48663893065E+02  0.15510033761E+03  0.00000000000E+00 0. -1.
</event>
<event>
 7    1  0.5452757E-006  0.8343202E+02  0.7818608E-02  0.1474778E+00
          2   -1    0    0  502    0  0.00000000000E+00  0.00000000000E+00  0.60649854274E+03  0.60649854274E+03  0.00000000000E+00 0. -1.
          1   -1    0    0  501    0 -0.00000000000E+00 -0.00000000000E+00 -0.59886058798E+02  0.59886058798E+02  0.00000000000E+00 0. -1.
         25    2    1    2    0    0 -0.60720979302E+02 -0.15218822577E+02  0.29823335788E+03  0.32937213071E+03  0.12499685934E+03 0.  0.
          2    1    1    2  501    0  0.82069577014E+02  0.26606752956E+02 -0.11802897037E+01  0.86282836404E+02  0.00000000000E+00 0. -1.
          1    1    1    2  502    0 -0.21348597712E+02 -0.11387930379E+02  0.24955941576E+03  0.25072963443E+03  0.00000000000E+00 0. -1.
         22    1    3    3    0    0 -0.87042161981E+02  0.19227337612E+02  0.14576928870E+03  0.17086460723E+03  0.00000000000E+00 0.  1.
         22    1    3    3    0    0  0.26321182679E+02 -0.34446160189E+02  0.15246406918E+03  0.15850752348E+03  0.00000000000E+00 0.  1.
</event>
<event>
 7    1  0.5452757E-006  0.1632365E+03  0.7818608E-02  0.1406515E+00
          2   -1    0    0  502    0  0.00000000000E+00  0.00000000000E+00  0.66347672318E+02  0.66347672318E+02  0.00000000000E+00 0. -1.
          1   -1    0    0  501    0 -0.00000000000E+00 -0.00000000000E+00 -0.18985967596E+04  0.18985967596E+04  0.00000000000E+00 0. -1.
         25    2    1    2    0    0  0.11175953733E+03 -0.10390466414E+03 -0.82060355568E+03  0.84397950601E+03  0.12499935023E+03 0.  0.
          2    1    1    2  501    0  0.20040154952E+02  0.47402247596E+01 -0.94150799410E+03  0.94173317903E+03  0.00000000000E+00 0. -1.
          1    1    1    2  502    0 -0.13179969228E+03  0.99164439376E+02 -0.70137537512E+02  0.17923174688E+03  0.00000000000E+00 0. -1.
         22    1    3    3    0    0  0.13813475543E+03 -0.93904300095E+02 -0.73890390135E+03  0.75754749268E+03  0.00000000000E+00 0. -1.
         22    1    3    3    0    0 -0.26375218103E+02 -0.10000364041E+02 -0.81699654335E+02  0.86432013337E+02  0.00000000000E+00 0. -1.
</event>
<event>
 7    1  0.5452757E-006  0.1008324E+03  0.7818608E-02  0.1347195E+00
          2   -1    0    0  502    0  0.00000000000E+00  0.00000000000E+00  0.28868997767E+04  0.28868997767E+04  0.00000000000E+00 0. -1.
          1   -1    0    0  501    0 -0.00000000000E+00 -0.00000000000E+00 -0.20970901927E+03  0.20970901927E+03  0.00000000000E+00 0. -1.
         25    2    1    2    0    0  0.50791274502E+02  0.82655031882E+02 -0.27154323567E+02  0.16054020736E+03  0.12499677208E+03 0.  0.
          2    1    1    2  501    0 -0.51014523490E+02  0.18352628439E+02 -0.10856301033E+03  0.12134754958E+03  0.00000000000E+00 0. -1.
          1    1    1    2  502    0  0.22324898781E+00 -0.10100766032E+03  0.28129080913E+04  0.28147210390E+04  0.00000000000E+00 0. -1.
         22    1    3    3    0    0  0.40424268675E+02  0.11599530015E+03 -0.15933015872E+02  0.12386642866E+03  0.00000000000E+00 0. -1.
         22    1    3    3    0    0  0.10367005827E+02 -0.33340268266E+02 -0.11221307694E+02  0.36673778701E+02  0.00000000000E+00 0. -1.
</event>
<event>
 7    1  0.5452757E-006  0.5810201E+02  0.7818608E-02  0.1449991E+00
          2   -1    0    0  502    0  0.00000000000E+00  0.00000000000E+00  0.26119081373E+03  0.26119081373E+03  0.00000000000E+00 0. -1.
          1   -1    0    0  501    0 -0.00000000000E+00 -0.00000000000E+00 -0.37048102490E+03  0.37048102490E+03  0.00000000000E+00 0. -1.
         25    2    1    2    0    0 -0.73565528864E+02 -0.45992744959E+01  0.12331179319E+03  0.19043052286E+03  0.12499978134E+03 0.  0.
          2    1    1    2  501    0  0.49935439246E+02 -0.29606497372E+02 -0.33014392537E+03  0.33520904558E+03  0.00000000000E+00 0. -1.
          1    1    1    2  502    0  0.23630089618E+02  0.34205771868E+02  0.97541921013E+02  0.10603227018E+03  0.00000000000E+00 0. -1.
         22    1    3    3    0    0 -0.17923401406E+02 -0.61485955482E+02  0.68674446839E+02  0.93903943944E+02  0.00000000000E+00 0.  1.
         22    1    3    3    0    0 -0.55642127458E+02  0.56886680986E+02  0.54637346350E+02  0.96526578919E+02  0.00000000000E+00 0.  1.
</event>
<event>
 7    1  0.5452757E-006  0.2161083E+03  0.7818608E-02  0.1199547E+00
          2   -1    0    0  502    0  0.00000000000E+00  0.00000000000E+00  0.28766201245E+04  0.28766201245E+04  0.00000000000E+00 0. -1.
          1   -1    0    0  501    0 -0.00000000000E+00 -0.00000000000E+00 -0.25731303152E+03  0.25731303152E+03  0.00000000000E+00 0. -1.
         25    2    1    2    0    0  0.94760541195E+02 -0.26918477525E+03  0.34188462373E+00  0.31155185600E+03  0.12499775478E+03 0.  0.
          2    1    1    2  501    0 -0.57210959365E+02  0.17094951142E+03 -0.19951816121E+02  0.18136952415E+03  0.00000000000E+00 0. -1.
          1    1    1    2  502    0 -0.37549581829E+02  0.98235263834E+02  0.26389170244E+04  0.26410117758E+04  0.00000000000E+00 0. -1.
         22    1    3    3    0    0  0.12473102131E+03 -0.23445763264E+03 -0.26244074509E+01  0.26558444362E+03  0.00000000000E+00 0. -1.
         22    1    3    3    0    0 -0.29970480116E+02 -0.34727142613E+02  0.29662920747E+01  0.45967412382E+02  0.00000000000E+00 0. -1.
</event>
<event>
 7    1  0.5452757E-006  0.1186307E+03  0.7818608E-02  0.1389612E+00
          2   -1    0    0  502    0  0.00000000000E+00  0.00000000000E+00  0.45728950711E+03  0.45728950711E+03  0.00000000000E+00 0. -1.
          1   -1    0    0  501    0 -0.00000000000E+00 -0.00000000000E+00 -0.15517899059E+04  0.15517899059E+04  0.00000000000E+00 0. -1.
         25    2    1    2    0    0 -0.32733424404E+02  0.14671911108E+03 -0.92232656167E+03  0.94281995574E+03  0.12500083178E+03 0.  0.
          2    1    1    2  501    0  0.23434336901E+01 -0.32321712678E+02 -0.61094468033E+03  0.61180355280E+03  0.00000000000E+00 0. -1.
          1    1    1    2  502    0  0.30389990714E+02 -0.11439739840E+03  0.43877084319E+03  0.45445590450E+03  0.00000000000E+00 0. -1.
         22    1    3    3    0    0 -0.44115712208E+01  0.32641422102E+02 -0.36242600989E+02  0.48973978028E+02  0.00000000000E+00 0.  1.
         22    1    3    3    0    0 -0.28321853183E+02  0.11407768897E+03 -0.88608396068E+03  0.89384597771E+03  0.00000000000E+00 0.  1.
</event>
<event>
 7    1  0.5452757E-006  0.1548120E+03  0.7818608E-02  0.1237514E+00
          2   -1    0    0  502    0  0.00000000000E+00  0.00000000000E+00  0.16296419047E+04  0.16296419047E+04  0.00000000000E+00 0. -1.
          1   -1    0    0  501    0 -0.00000000000E+00 -0.00000000000E+00 -0.19229690974E+03  0.19229690974E+03  0.00000000000E+00 0. -1.
         25    2    1    2    0    0  0.24424753419E+03  0.14290703339E+02  0.43604709200E+03  0.51538619828E+03  0.12499913908E+03 0.  0.
          2    1    1    2  501    0 -0.14789917533E+03  0.58881127428E+01 -0.11405637737E+03  0.18686276557E+03  0.00000000000E+00 0. -1.
          1    1    1    2  502    0 -0.96348358858E+02 -0.20178816082E+02  0.11153542803E+04  0.11196898506E+04  0.00000000000E+00 0. -1.
         22    1    3    3    0    0  0.31445548871E+02  0.41623751404E+02  0.43042940001E+02  0.67631752222E+02  0.00000000000E+00 0. -1.
         22    1    3    3    0    0  0.21280198532E+03 -0.27333048065E+02  0.39300415200E+03  0.44775444606E+03  0.00000000000E+00 0. -1.
</event>
<event>
 7    1  0.5452757E-006  0.8755343E+02  0.7818608E-02  0.1382776E+00
          2   -1    0    0  502    0  0.00000000000E+00  0.00000000000E+00  0.11445190724E+04  0.11445190724E+04  0.00000000000E+00 0. -1.
          1   -1    0    0  501    0 -0.00000000000E+00 -0.00000000000E+00 -0.55307494282E+03  0.55307494282E+03  0.00000000000E+00 0. -1.
         25    2    1    2    0    0 -0.18263345696E+02 -0.11510635356E+03 -0.33957178899E+03  0.38015439212E+03  0.12500135817E+03 0.  0.
          2    1    1    2  501    0  0.35864571062E+02  0.29444706808E+02 -0.18869598813E+03  0.19431786885E+03  0.00000000000E+00 0. -1.
          1    1    1    2  502    0 -0.17601225366E+02  0.85661646753E+02  0.11197119067E+04  0.11231217542E+04  0.00000000000E+00 0. -1.
         22    1    3    3    0    0 -0.32128157426E+02  0.15320813019E+02 -0.42639366024E+02  0.55543328547E+02  0.00000000000E+00 0.  1.
         22    1    3    3    0    0  0.13864811730E+02 -0.13042716658E+03 -0.29693242297E+03  0.32461106358E+03  0.00000000000E+00 0.  1.
</event>
<event>
 7    1  0.5452757E-006  0.5335162E+02  0.7818608E-02  0.1442910E+00
          2   -1    0    0  502    0  0.00000000000E+00  0.00000000000E+00  0.75620708731E+03  0.75620708731E+03  0.00000000000E+00 0. -1.
          1   -1    0    0  501    0 -0.00000000000E+00 -0.00000000000E+00 -0.16260454078E+04  0.16260454078E+04  0.00000000000E+00 0. -1.
         25    2    1    2    0    0  0.88839575984E+02  0.18416260917E+02  0.20200638110E+02  0.15576539539E+03  0.12499265455E+03 0.  0.
          2    1    1    2  501    0 -0.37201429418E+02 -0.29876161995E+02 -0.15568502353E+04  0.15575811974E+04  0.00000000000E+00 0. -1.
          1    1    1    2  502    0 -0.51638146566E+02  0.11459901078E+02  0.66681127666E+03  0.66890590235E+03  0.00000000000E+00 0. -1.
         22    1    3    3    0    0 -0.13927350856E+02 -0.35626072506E+02  0.27417614216E+01  0.38349777050E+02  0.00000000000E+00 0.  1.
         22    1    3    3    0    0  0.10276692684E+03  0.54042333423E+02  0.17458876688E+02  0.11741561834E+03  0.00000000000E+00 0.  1.
</event>
<event>
 7    1  0.5452757E-006  0.1152762E+03  0.7818608E-02  0.1289727E+00
          2   -1    0    0  502    0  0.00000000000E+00  0.00000000000E+00  0.24951895615E+04  0.24951895615E+04  0.00000000000E+00 0. -1.
          1   -1    0    0  501    0 -0.00000000000E+00 -0.00000000000E+00 -0.25866474020E+03  0.25866474020E+03  0.00000000000E+00 0. -1.
         25    2    1    2    0    0 -0.55440451555E+02  0.15011667622E+03  0.97871799613E+03  0.99956143522E+03  0.12500194668E+03 0.  0.
          2    1    1    2  501    0  0.67639146656E+02 -0.41506843578E+02 -0.23985801327E+03  0.25264548037E+03  0.00000000000E+00 0. -1.
          1    1    1    2  502    0 -0.12198695100E+02 -0.10860983265E+03  0.14976648384E+04  0.15016473861E+04  0.00000000000E+00 0. -1.
         22    1    3    3    0    0  0.14451689573E+02  0.12885199833E+03  0.59750638690E+03  0.61141276663E+03  0.00000000000E+00 0. -1.
         22    1    3    3    0    0 -0.69892141128E+02  0.21264677891E+02  0.38121160923E+03  0.38814866859E+03  0.00000000000E+00 0. -1.
</event>
<event>
 7    1  0.5452757E-006  0.1432002E+03  0.7818608E-02  0.1409527E+00
          2   -1    0    0  502    0  0.00000000000E+00  0.00000000000E+00  0.22760929607E+03  0.22760929607E+03  0.00000000000E+00 0. -1.
          1   -1    0    0  501    0 -0.00000000000E+00 -0.00000000000E+00 -0.16870258031E+03  0.16870258031E+03  0.00000000000E+00 0. -1.
         25    2    1    2    0    0 -0.49633848466E+02 -0.14181750702E+03 -0.40449250987E+02  0.19959441858E+03  0.12500426317E+03 0.  0.
          2    1    1    2  501    0  0.59549264164E+02  0.12114476091E+03  0.53037488550E+02  0.14503497216E+03  0.00000000000E+00 0. -1.
          1    1    1    2  502    0 -0.99154156981E+01  0.20672746111E+02  0.46318478199E+02  0.51682485649E+02  0.00000000000E+00 0. -1.
         22    1    3    3    0    0 -0.61113453572E+02 -0.25031770990E+02 -0.48549739279E+02  0.81966584353E+02  0.00000000000E+00 0.  1.
         22    1    3    3    0    0  0.11479605106E+02 -0.11678573603E+03  0.81004882925E+01  0.11762783422E+03  0.00000000000E+00 0.  1.
</event>
<event>
 7    1  0.5452757E-006  0.7198222E+02  0.7818608E-02  0.1373340E+00
          2   -1    0    0  502    0  0.00000000000E+00  0.00000000000E+00  0.56865521117E+02  0.56865521117E+02  0.00000000000E+00 0. -1.
          1   -1    0    0  501    0 -0.00000000000E+00 -0.00000000000E+00 -0.96667604096E+03  0.96667604096E+03  0.00000000000E+00 0. -1.
         25    2    1    2    0    0  0.61305476353E+02  0.22079385275E+02 -0.35167264730E+03  0.37887301738E+03  0.12500100703E+03 0.  0.
          2    1    1    2  501    0 -0.36915213814E+02  0.48523196675E+02 -0.56625879415E+03  0.56953161069E+03  0.00000000000E+00 0. -1.
          1    1    1    2  502    0 -0.24390262539E+02 -0.70602581950E+02  0.81209215971E+01  0.75136934009E+02  0.00000000000E+00 0. -1.
         22    1    3    3    0    0  0.63341696330E+02  0.65620291925E+02 -0.18044679284E+03  0.20218614753E+03  0.00000000000E+00 0. -1.
         22    1    3    3    0    0 -0.20362199766E+01 -0.43540906650E+02 -0.17122585446E+03  0.17668686985E+03  0.00000000000E+00 0. -1.
</event>
<event>
 7    1  0.5452757E-006  0.8330641E+02  0.7818608E-02  0.1456204E+00
          2   -1    0    0  502    0  0.00000000000E+00  0.00000000000E+00  0.11669016357E+03  0.11669016357E+03  0.00000000000E+00 0. -1.
          1   -1    0    0  501    0 -0.00000000000E+00 -0.00000000000E+00 -0.89990884190E+03  0.89990884190E+03  0.00000000000E+00 0. -1.
         25    2    1    2    0    0 -0.96311394761E+02  0.47355738649E+02 -0.20817209555E+03  0.26547974107E+03  0.12500168323E+03 0.  0.
          2    1    1    2  501    0  0.27424161478E+02 -0.39285441939E+01 -0.64388978169E+03  0.64448550725E+03  0.00000000000E+00 0. -1.
          1    1    1    2  502    0  0.68887233284E+02 -0.43427194456E+02  0.68843198903E+02  0.10663375715E+03  0.00000000000E+00 0. -1.
         22    1    3    3    0    0 -0.12047798455E+03  0.15868419030E+02 -0.13090420739E+03  0.17861316580E+03  0.00000000000E+00 0.  1.
         22    1    3    3    0    0  0.24166589794E+02  0.31487319619E+02 -0.77267888156E+02  0.86866575270E+02  0.00000000000E+00 0.  1.
</event>
<event>
 7    1  0.5452757E-006  0.7612727E+02  0.7818608E-02  0.1356076E+00
          2   -1    0    0  502    0  0.00000000000E+00  0.00000000000E+00  0.31828788865E+03  0.31828788865E+03  0.00000000000E+00 0. -1.
          1   -1    0    0  501    0 -0.00000000000E+00 -0.00000000000E+00 -0.63288499719E+03  0.63288499719E+03  0.00000000000E+00 0. -1.
         25    2    1    2    0    0  0.59847855016E+02 -0.57025034451E+01 -0.90563742133E+02  0.16565358365E+03  0.12500013637E+03 0.  0.
          2    1    1    2  501    0 -0.51733618555E+02 -0.60383233373E+02 -0.49762743481E+03  0.50394004210E+03  0.00000000000E+00 0. -1.
          1    1    1    2  502    0 -0.81142364613E+01  0.66085736818E+02  0.27359406840E+03  0.28157926008E+03  0.00000000000E+00 0. -1.
         22    1    3    3    0    0 -0.20706317611E+02  0.39554320705E+02 -0.41885149809E+02  0.61218148044E+02  0.00000000000E+00 0. -1.
         22    1    3    3    0    0  0.80554172627E+02 -0.45256824150E+02 -0.48678592324E+02  0.10443543561E+03  0.00000000000E+00 0. -1.
</event>
<event>
 7    1  0.5452757E-006  0.3661956E+02  0.7818608E-02  0.1570841E+00
          2   -1    0    0  502    0  0.00000000000E+00  0.00000000000E+00  0.21041999411E+03  0.21041999411E+03  0.00000000000E+00 0. -1.
          1   -1    0    0  501    0 -0.00000000000E+00 -0.00000000000E+00 -0.47220992237E+03  0.47220992237E+03  0.00000000000E+00 0. -1.
         25    2    1    2    0    0 -0.30305274892E+02  0.26628476932E+02 -0.75353225505E+02  0.15142844030E+03  0.12499991387E+03 0.  0.
          2    1    1    2  501    0  0.27278715162E+02  0.99945435750E+01 -0.35626261181E+03  0.35744519548E+03  0.00000000000E+00 0. -1.
          1    1    1    2  502    0  0.30265597296E+01 -0.36623020507E+02  0.16982590905E+03  0.17375628069E+03  0.00000000000E+00 0. -1.
         22    1    3    3    0    0 -0.36849456935E+02  0.71919868028E+02 -0.66863142921E+02  0.10488579396E+03  0.00000000000E+00 0. -1.
         22    1    3    3    0    0  0.65441820435E+01 -0.45291391096E+02 -0.84900825840E+01  0.46542646340E+02  0.00000000000E+00 0. -1.
</event>
<event>
 7    1  0.5452757E-006  0.8458154E+02  0.7818608E-02  0.1407510E+00
          2   -1    0    0  502    0  0.00000000000E+00  0.00000000000E+00  0.13144593099E+04  0.13144593099E+04  0.00000000000E+00 0. -1.
          1   -1    0    0  501    0 -0.00000000000E+00 -0.00000000000E+00 -0.28523759087E+03  0.28523759087E+03  0.00000000000E+00 0. -1.
         25    2    1    2    0    0  0.10330427810E+03  0.35318770914E+02  0.42571463638E+03  0.45692116460E+03  0.12499923832E+03 0.  0.
          2    1    1    2  501    0 -0.84291746892E+02 -0.77029124905E+00 -0.26258643569E+03  0.27578493097E+03  0.00000000000E+00 0. -1.
          1    1    1    2  502    0 -0.19012531209E+02 -0.34548479665E+02  0.86609351831E+03  0.86699080517E+03  0.00000000000E+00 0. -1.
         22    1    3    3    0    0  0.73846396838E+01  0.18308537082E+02 -0.46737490162E+00  0.19747249749E+02  0.00000000000E+00 0. -1.
         22    1    3    3    0    0  0.95919638417E+02  0.17010233832E+02  0.42618201128E+03  0.43717391486E+03  0.00000000000E+00 0. -1.
</event>
<event>
 7    1  0.5452757E-006  0.4632845E+02  0.7818608E-02  0.1549987E+00
          2   -1    0    0  502    0  0.00000000000E+00  0.00000000000E+00  0.20938482205E+04  0.20938482205E+04  0.00000000000E+00 0. -1.
          1   -1    0    0  501    0 -0.00000000000E+00 -0.00000000000E+00 -0.58163389491E+02  0.58163389491E+02  0.00000000000E+00 0. -1.
         25    2    1    2    0    0  0.60220191562E+02 -0.32582034423E+02  0.51094330692E+03  0.53044938268E+03  0.12500169705E+03 0.  0.
          2    1    1    2  501    0 -0.34076791912E+02  0.30756282549E+02 -0.37393832724E+02  0.59207055230E+02  0.00000000000E+00 0. -1.
          1    1    1    2  502    0 -0.26143399650E+02  0.18257518740E+01  0.15621353568E+04  0.15623551721E+04  0.00000000000E+00 0. -1.
         22    1    3    3    0    0  0.80356179484E+02 -0.59649320549E+02  0.28629242358E+03  0.30327958854E+03  0.00000000000E+00 0. -1.
         22    1    3    3    0    0 -0.20135987922E+02  0.27067286126E+02  0.22465088333E+03  0.22716979414E+03  0.00000000000E+00 0. -1.
</event>
<event>
 7    1  0.5452757E-006  0.7493623E+02  0.7818608E-02  0.1451747E+00
          2   -1    0    0  502    0  0.00000000000E+00  0.00000000000E+00  0.35541002896E+04  0.35541002896E+04  0.00000000000E+00 0. -1.
          1   -1    0    0  501    0 -0.00000000000E+00 -0.00000000000E+00 -0.20169298431E+03  0.20169298431E+03  0.00000000000E+00 0. -1.
         25    2    1    2    0    0 -0.95844252829E+01  0.65706050291E+02  0.67397110395E+03  0.68867474111E+03  0.12500681514E+03 0.  0.
          2    1    1    2  501    0 -0.31755451453E+02 -0.20392891470E+01 -0.19253353254E+03  0.19514540361E+03  0.00000000000E+00 0. -1.
          1    1    1    2  502    0  0.41339876736E+02 -0.63666761144E+02  0.28709697339E+04  0.28719731292E+04  0.00000000000E+00 0. -1.
         22    1    3    3    0    0 -0.50792217229E+02  0.45637938869E+02  0.58121255350E+03  0.58520996500E+03  0.00000000000E+00 0. -1.
         22    1    3    3    0    0  0.41207791946E+02  0.20068111422E+02  0.92758550449E+02  0.10346477610E+03  0.00000000000E+00 0. -1.
</event>
<event>
 7    1  0.5452757E-006  0.1371691E+03  0.7818608E-02  0.1274337E+00
          2   -1    0    0  502    0  0.00000000000E+00  0.00000000000E+00  0.25662973058E+03  0.25662973058E+03  0.00000000000E+00 0. -1.
          1   -1    0    0  501    0 -0.00000000000E+00 -0.00000000000E+00 -0.14844009350E+04  0.14844009350E+04  0.00000000000E+00 0. -1.
         25    2    1    2    0    0  0.77482334840E+02 -0.11673221408E+03 -0.26879813704E+03  0.32788364977E+03  0.12500130917E+03 0.  0.
          2    1    1    2  501    0 -0.12697423207E+03  0.57516231672E+02 -0.11752631764E+04  0.11835007842E+04  0.00000000000E+00 0. -1.
          1    1    1    2  502    0  0.49491897234E+02  0.59215982407E+02  0.21629010896E+03  0.22964623162E+03  0.00000000000E+00 0. -1.
         22    1    3    3    0    0 -0.47870885468E+01 -0.23511354086E+02 -0.16262972499E+03  0.16439016831E+03  0.00000000000E+00 0.  1.
         22    1    3    3    0    0  0.82269423387E+02 -0.93220859993E+02 -0.10616841205E+03  0.16349348146E+03  0.00000000000E+00 0.  1.
</event>
<event>
 7    1  0.5534285E-006  0.7546616E+02  0.7818608E-02  0.1398559E+00
          2   -1    0    0  502    0  0.00000000000E+00  0.00000000000E+00  0.19533748835E+04  0.19533748835E+04  0.00000000000E+00 0. -1.
          1   -1    0    0  501    0 -0.00000000000E+00 -0.00000000000E+00 -0.47025027481E+03  0.47025027481E+03  0.00000000000E+00 0. -1.
         25    2    1    2    0    0 -0.10311467362E+03 -0.25701898901E+02  0.11733220725E+02  0.16448639668E+03  0.12499953080E+03 0.  0.
          2    1    1    2  501    0  0.59658284771E+02  0.44703427674E+02 -0.39004143887E+03  0.39710178976E+03  0.00000000000E+00 0. -1.
          1    1    1    2  502    0  0.43456388848E+02 -0.19001528774E+02  0.18614328268E+04  0.18620369719E+04  0.00000000000E+00 0. -1.
         22    1    3    3    0    0 -0.11697626782E+03  0.12703432123E+02 -0.10258233694E+02  0.11811035424E+03  0.00000000000E+00 0. -1.
         22    1    3    3    0    0  0.13861594197E+02 -0.38405331023E+02  0.21991454419E+02  0.46376042437E+02  0.00000000000E+00 0. -1.
</event>
<event>
 7    1  0.5452757E-006  0.6575746E+02  0.7818608E-02  0.1394640E+00
          2   -1    0    0  502    0  0.00000000000E+00  0.00000000000E+00  0.49857394710E+03  0.49857394710E+03  0.00000000000E+00 0. -1.
          1   -1    0    0  501    0 -0.00000000000E+00 -0.00000000000E+00 -0.10652604779E+04  0.10652604779E+04  0.00000000000E+00 0. -1.
         25    2    1    2    0    0  0.76500322673E+02 -0.62896290900E+02 -0.41297798939E+01  0.15952444728E+03  0.12499100535E+03 0.  0.
          2    1    1    2  501    0 -0.20348010791E+02  0.62262387295E+02 -0.98046250553E+03  0.98264814209E+03  0.00000000000E+00 0. -1.
          1    1    1    2  502    0 -0.56152311882E+02  0.63390360500E+00  0.41790575458E+03  0.42166183568E+03  0.00000000000E+00 0. -1.
         22    1    3    3    0    0  0.45163971171E+02 -0.12891485469E+01  0.53147574205E+02  0.69757514575E+02  0.00000000000E+00 0.  1.
         22    1    3    3    0    0  0.31336351502E+02 -0.61607142353E+02 -0.57277354099E+02  0.89766932703E+02  0.00000000000E+00 0.  1.
</event>
<event>
 7    1  0.5452757E-006  0.6324239E+02  0.7818608E-02  0.1536019E+00
          2   -1    0    0  502    0  0.00000000000E+00  0.00000000000E+00  0.84766495845E+03  0.84766495845E+03  0.00000000000E+00 0. -1.
          1   -1    0    0  501    0 -0.00000000000E+00 -0.00000000000E+00 -0.33937195769E+03  0.33937195769E+03  0.00000000000E+00 0. -1.
         25    2    1    2    0    0 -0.74190162732E+02  0.35857601966E+02  0.20051314080E+03  0.25023975201E+03  0.12499786392E+03 0.  0.
          2    1    1    2  501    0  0.16465718720E+02 -0.13062335713E+02 -0.31260749087E+03  0.31331324239E+03  0.00000000000E+00 0. -1.
          1    1    1    2  502    0  0.57724444012E+02 -0.22795266252E+02  0.62038735084E+03  0.62348392175E+03  0.00000000000E+00 0. -1.
         22    1    3    3    0    0 -0.95739637581E+02  0.53339760564E+01  0.18763888069E+03  0.21071990663E+03  0.00000000000E+00 0.  1.
         22    1    3    3    0    0  0.21549474849E+02  0.30523625909E+02  0.12874260109E+02  0.39519845373E+02  0.00000000000E+00 0.  1.
</event>
<event>
 7    1  0.5452757E-006  0.9139646E+02  0.7818608E-02  0.1348174E+00
          2   -1    0    0  502    0  0.00000000000E+00  0.00000000000E+00  0.12652735145E+03  0.12652735145E+03  0.00000000000E+00 0. -1.
          1   -1    0    0  501    0 -0.00000000000E+00 -0.00000000000E+00 -0.58185229295E+03  0.58185229295E+03  0.00000000000E+00 0. -1.
         25    2    1    2    0    0 -0.50625032413E+02  0.10142682320E+03 -0.21418455469E+03  0.27267212907E+03  0.12499908852E+03 0.  0.
          2    1    1    2  501    0  0.58288621738E+02 -0.10977720231E+02 -0.31384917582E+03  0.31940472590E+03  0.00000000000E+00 0. -1.
          1    1    1    2  502    0 -0.76635893245E+01 -0.90449102972E+02  0.72708789004E+02  0.11630278943E+03  0.00000000000E+00 0. -1.
         22    1    3    3    0    0 -0.62037824093E+02 -0.13523055411E+01 -0.55412560240E+02  0.83192981560E+02  0.00000000000E+00 0. -1.
         22    1    3    3    0    0  0.11412791680E+02  0.10277912874E+03 -0.15877199445E+03  0.18947914751E+03  0.00000000000E+00 0. -1.
</event>
<event>
 7    1  0.5452757E-006  0.7270303E+02  0.7818608E-02  0.1363989E+00
          2   -1    0    0  502    0  0.00000000000E+00  0.00000000000E+00  0.28450754916E+04  0.28450754916E+04  0.00000000000E+00 0. -1.
          1   -1    0    0  501    0 -0.00000000000E+00 -0.00000000000E+00 -0.21970331121E+03  0.21970331121E+03  0.00000000000E+00 0. -1.
         25    2    1    2    0    0  0.89960731211E+02 -0.95093666467E+01  0.50869818750E+03  0.53158431428E+03  0.12499870402E+03 0.  0.
          2    1    1    2  501    0 -0.44477841603E+02 -0.47719194652E+02 -0.20256192376E+03  0.21280679709E+03  0.00000000000E+00 0. -1.
          1    1    1    2  502    0 -0.45482889608E+02  0.57228561299E+02  0.23192359166E+04  0.23203876914E+04  0.00000000000E+00 0. -1.
         22    1    3    3    0    0  0.72120116609E+02 -0.31504813566E+02  0.13097985107E+03  0.15280571286E+03  0.00000000000E+00 0. -1.
         22    1    3    3    0    0  0.17840614602E+02  0.21995446919E+02  0.37771833643E+03  0.37877860142E+03  0.00000000000E+00 0. -1.
</event>
<event>
 7    1  0.5452757E-006  0.6691927E+02  0.7818608E-02  0.1374741E+00
          2   -1    0    0  502    0  0.00000000000E+00  0.00000000000E+00  0.53116599530E+03  0.53116599530E+03  0.00000000000E+00 0. -1.
          1   -1    0    0  501    0 -0.00000000000E+00 -0.00000000000E+00 -0.10782566282E+04  0.10782566282E+04  0.00000000000E+00 0. -1.
         25    2    1    2    0    0 -0.57057204147E+02 -0.18697359889E+02  0.21976056842E+03  0.25985613634E+03  0.12500155338E+03 0.  0.
          2    1    1    2  501    0  0.42641462653E+02 -0.51574164194E+02 -0.10527148209E+04  0.10548396480E+04  0.00000000000E+00 0. -1.
          1    1    1    2  502    0  0.14415741494E+02  0.70271524083E+02  0.28586361962E+03  0.29472683916E+03  0.00000000000E+00 0. -1.
         22    1    3    3    0    0  0.38947854667E+02 -0.16975001336E+02  0.73398235738E+02  0.84807942216E+02  0.00000000000E+00 0.  1.
         22    1    3    3    0    0 -0.96005058813E+02 -0.17223585528E+01  0.14636233268E+03  0.17504819412E+03  0.00000000000E+00 0.  1.
</event>
<event>
 7    1  0.5452757E-006  0.5687122E+02  0.7818608E-02  0.1428091E+00
          2   -1    0    0  502    0  0.00000000000E+00  0.00000000000E+00  0.17217917529E+04  0.17217917529E+04  0.00000000000E+00 0. -1.
          1   -1    0    0  501    0 -0.00000000000E+00 -0.00000000000E+00 -0.17561104727E+04  0.17561104727E+04  0.00000000000E+00 0. -1.
         25    2    1    2    0    0  0.78943576226E+01  0.86977013208E+02  0.69762915286E+02  0.16768800549E+03  0.12500032451E+03 0.  0.
          2    1    1    2  501    0  0.26233666514E+02 -0.50384219722E+02 -0.17062847021E+04  0.17072299961E+04  0.00000000000E+00 0. -1.
          1    1    1    2  502    0 -0.34128024137E+02 -0.36592793486E+02  0.16022030670E+04  0.16029842240E+04  0.00000000000E+00 0. -1.
         22    1    3    3    0    0 -0.52454997026E+02  0.11330237112E+02  0.12002941253E+02  0.54990649976E+02  0.00000000000E+00 0. -1.
         22    1    3    3    0    0  0.60349354649E+02  0.75646776097E+02  0.57759974032E+02  0.11269735552E+03  0.00000000000E+00 0. -1.
</event>
<event>
 7    1  0.5452757E-006  0.1807127E+03  0.7818608E-02  0.1261158E+00
          2   -1    0    0  502    0  0.00000000000E+00  0.00000000000E+00  0.12395119668E+04  0.12395119668E+04  0.00000000000E+00 0. -1.
          1   -1    0    0  501    0 -0.00000000000E+00 -0.00000000000E+00 -0.28338522092E+04  0.28338522092E+04  0.00000000000E+00 0. -1.
         25    2    1    2    0    0 -0.11946675427E+03  0.13200717329E+03 -0.30404286659E+03  0.37385118622E+03  0.12499778215E+03 0.  0.
          2    1    1    2  501    0  0.55202961741E+02  0.37207745308E+02 -0.24876577463E+04  0.24885483411E+04  0.00000000000E+00 0. -1.
          1    1    1    2  502    0  0.64263792531E+02 -0.16921491860E+03  0.11973603705E+04  0.12109646487E+04  0.00000000000E+00 0. -1.
         22    1    3    3    0    0 -0.12496844292E+03  0.89667766885E+02 -0.15322611930E+03  0.21710749361E+03  0.00000000000E+00 0. -1.
         22    1    3    3    0    0  0.55016886507E+01  0.42339406406E+02 -0.15081674729E+03  0.15674369262E+03  0.00000000000E+00 0. -1.
</event>
<event>
 7    1  0.5452757E-006  0.1002659E+03  0.7818608E-02  0.1375687E+00
          2   -1    0    0  502    0  0.00000000000E+00  0.00000000000E+00  0.30553597670E+04  0.30553597670E+04  0.00000000000E+00 0. -1.
          1   -1    0    0  501    0 -0.00000000000E+00 -0.00000000000E+00 -0.13871606012E+03  0.13871606012E+03  0.00000000000E+00 0. -1.
         25    2    1    2    0    0  0.25858919667E+02  0.99080649564E+02  0.56756606496E+03  0.59012008102E+03  0.12499925234E+03 0.  0.
          2    1    1    2  501    0 -0.63294792311E+02 -0.78059534290E+02 -0.10740980774E+03  0.14709312841E+03  0.00000000000E+00 0. -1.
          1    1    1    2  502    0  0.37435872643E+02 -0.21021115275E+02  0.24564874497E+04  0.24568626177E+04  0.00000000000E+00 0. -1.
         22    1    3    3    0    0  0.32600507342E+01  0.81975973901E+02  0.14496688078E+03  0.16657156045E+03  0.00000000000E+00 0.  1.
         22    1    3    3    0    0  0.22598868933E+02  0.17104675663E+02  0.42259918419E+03  0.42354852058E+03  0.00000000000E+00 0.  1.
</event>
<event>
 7    1  0.5452757E-006  0.6656847E+02  0.7818608E-02  0.1390996E+00
          2   -1    0    0  502    0  0.00000000000E+00  0.00000000000E+00  0.11036339249E+03  0.11036339249E+03  0.00000000000E+00 0. -1.
          1   -1    0    0  501    0 -0.00000000000E+00 -0.00000000000E+00 -0.63443541144E+03  0.63443541144E+03  0.00000000000E+00 0. -1.
         25    2    1    2    0    0 -0.11578714908E+02  0.18275916847E+02 -0.47895921003E+02  0.13558960055E+03  0.12498977860E+03 0.  0.
          2    1    1    2  501    0 -0.42189287654E+02  0.38495691034E+02 -0.51758684874E+03  0.52072833628E+03  0.00000000000E+00 0. -1.
          1    1    1    2  502    0  0.53768002562E+02 -0.56771607881E+02  0.41410750798E+02  0.88480867099E+02  0.00000000000E+00 0. -1.
         22    1    3    3    0    0 -0.58577368109E+02  0.36527474898E+02 -0.46916744931E+01  0.69192313782E+02  0.00000000000E+00 0. -1.
         22    1    3    3    0    0  0.46998653200E+02 -0.18251558051E+02 -0.43204246510E+02  0.66397286770E+02  0.00000000000E+00 0. -1.
</event>
<event>
 7    1  0.5452757E-006  0.1064012E+03  0.7818608E-02  0.1456934E+00
          2   -1    0    0  502    0  0.00000000000E+00  0.00000000000E+00  0.27409276544E+04  0.27409276544E+04  0.00000000000E+00 0. -1.
          1   -1    0    0  501    0 -0.00000000000E+00 -0.00000000000E+00 -0.21736002917E+03  0.21736002917E+03  0.00000000000E+00 0. -1.
         25    2    1    2    0    0  0.14414249110E+02  0.83915530236E+02  0.24724754976E+04  0.24770973204E+04  0.12500584617E+03 0.  0.
          2    1    1    2  501    0 -0.21294816905E+02 -0.10436453086E+03 -0.20137137325E+03  0.22780661644E+03  0.00000000000E+00 0. -1.
          1    1    1    2  502    0  0.68805677951E+01  0.20449000627E+02  0.25246350094E+03  0.25338374680E+03  0.00000000000E+00 0. -1.
         22    1    3    3    0    0 -0.15747032654E+02  0.67500769636E+02  0.55461589713E+03  0.55893033223E+03  0.00000000000E+00 0. -1.
         22    1    3    3    0    0  0.30161281763E+02  0.16414760600E+02  0.19178596004E+04  0.19181669881E+04  0.00000000000E+00 0. -1.
</event>
<event>
 7    1  0.5452757E-006  0.4535058E+02  0.7818608E-02  0.1479990E+00
          2   -1    0    0  502    0  0.00000000000E+00  0.00000000000E+00  0.55303029318E+02  0.55303029318E+02  0.00000000000E+00 0. -1.
          1   -1    0    0  501    0 -0.00000000000E+00 -0.00000000000E+00 -0.59801842484E+03  0.59801842484E+03  0.00000000000E+00 0. -1.
         25    2    1    2    0    0 -0.79973178671E+01  0.23040890657E+02 -0.85730254057E+02  0.15352231035E+03  0.12499833431E+03 0.  0.
          2    1    1    2  501    0  0.46419878099E+02 -0.39616370235E+01 -0.45444320813E+03  0.45682505302E+03  0.00000000000E+00 0. -1.
          1    1    1    2  502    0 -0.38422560232E+02 -0.19079253633E+02 -0.25419333347E+01  0.42974090788E+02  0.00000000000E+00 0. -1.
         22    1    3    3    0    0  0.19244111592E+02  0.55532774521E+02 -0.93478537275E+02  0.11041948111E+03  0.00000000000E+00 0.  1.
         22    1    3    3    0    0 -0.27241429459E+02 -0.32491883864E+02  0.77482832181E+01  0.43102829244E+02  0.00000000000E+00 0.  1.
</event>
<event>
 7    1  0.5452757E-006  0.4487496E+02  0.7818608E-02  0.1476304E+00
          2   -1    0    0  502    0  0.00000000000E+00  0.00000000000E+00  0.26262694493E+03  0.26262694493E+03  0.00000000000E+00 0. -1.
          1   -1    0    0  501    0 -0.00000000000E+00 -0.00000000000E+00 -0.47365381341E+03  0.47365381341E+03  0.00000000000E+00 0. -1.
         25    2    1    2    0    0 -0.25409270480E+02  0.30024546639E+02  0.73924787938E+02  0.15045528866E+03  0.12499926074E+03 0.  0.
          2    1    1    2  501    0 -0.20416502145E+02 -0.39961592306E+02 -0.43053991747E+03  0.43287224785E+03  0.00000000000E+00 0. -1.
          1    1    1    2  502    0  0.45825772625E+02  0.99370456670E+01  0.14558826106E+03  0.15295322184E+03  0.00000000000E+00 0. -1.
         22    1    3    3    0    0  0.20919438628E+02 -0.40529231489E+02  0.35084334719E+02  0.57542610823E+02  0.00000000000E+00 0. -1.
         22    1    3    3    0    0 -0.46328709108E+02  0.70553778128E+02  0.38840453219E+02  0.92912677832E+02  0.00000000000E+00 0. -1.
</event>
<event>
 7    1  0.5452757E-006  0.6262565E+02  0.7818608E-02  0.1455337E+00
          2   -1    0    0  502    0  0.00000000000E+00  0.00000000000E+00  0.10038701621E+04  0.10038701621E+04  0.00000000000E+00 0. -1.
          1   -1    0    0  501    0 -0.00000000000E+00 -0.00000000000E+00 -0.94169771849E+02  0.94169771849E+02  0.00000000000E+00 0. -1.
         25    2    1    2    0    0 -0.32147496068E+02  0.55124973698E+01  0.31306483746E+03  0.33867130307E+03  0.12499923975E+03 0.  0.
          2    1    1    2  501    0 -0.26845733995E+02  0.25588271824E+02 -0.75402527869E+02  0.84029722704E+02  0.00000000000E+00 0. -1.
          1    1    1    2  502    0  0.58993230063E+02 -0.31100769194E+02  0.67203808062E+03  0.67533890813E+03  0.00000000000E+00 0. -1.
         22    1    3    3    0    0  0.21682302320E+02 -0.36314206922E+02  0.43705229789E+02  0.60819330555E+02  0.00000000000E+00 0. -1.
         22    1    3    3    0    0 -0.53829798387E+02  0.41826704291E+02  0.26935960767E+03  0.27785197251E+03  0.00000000000E+00 0. -1.
</event>
<event>
 7    1  0.5452757E-006  0.5071162E+02  0.7818608E-02  0.1452404E+00
          2   -1    0    0  502    0  0.00000000000E+00  0.00000000000E+00  0.88894721015E+03  0.88894721015E+03  0.00000000000E+00 0. -1.
          1   -1    0    0  501    0 -0.00000000000E+00 -0.00000000000E+00 -0.11353009236E+04  0.11353009236E+04  0.00000000000E+00 0. -1.
         25    2    1    2    0    0 -0.63776483723E+02 -0.75045404189E+01  0.69575667817E+02  0.15681017905E+03  0.12499960280E+03 0.  0.
          2    1    1    2  501    0  0.33134577910E+02 -0.33043414822E+02 -0.10903488445E+04  0.10913525417E+04  0.00000000000E+00 0. -1.
          1    1    1    2  502    0  0.30641905812E+02  0.40547955241E+02  0.77441946330E+03  0.77608541296E+03  0.00000000000E+00 0. -1.
         22    1    3    3    0    0 -0.77025530256E+02 -0.37707079523E+02  0.84692175387E+02  0.12053016522E+03  0.00000000000E+00 0.  1.
         22    1    3    3    0    0  0.13249046533E+02  0.30202539104E+02 -0.15116507569E+02  0.36280013829E+02  0.00000000000E+00 0.  1.
</event>
<event>
 7    1  0.5452757E-006  0.6722006E+02  0.7818608E-02  0.1428798E+00
          2   -1    0    0  502    0  0.00000000000E+00  0.00000000000E+00  0.24434992378E+04  0.24434992378E+04  0.00000000000E+00 0. -1.
          1   -1    0    0  501    0 -0.00000000000E+00 -0.00000000000E+00 -0.11302308880E+03  0.11302308880E+03  0.00000000000E+00 0. -1.
         25    2    1    2    0    0  0.37084437169E+02  0.91588668146E+02 -0.13796153931E+02  0.15993528820E+03  0.12500089174E+03 0.  0.
          2    1    1    2  501    0  0.74636211676E+01 -0.41440424315E+02 -0.84182675860E+01  0.42940442912E+02  0.00000000000E+00 0. -1.
          1    1    1    2  502    0 -0.44548058336E+02 -0.50148243831E+02  0.23526905706E+04  0.23536465955E+04  0.00000000000E+00 0. -1.
         22    1    3    3    0    0  0.69900852449E+02  0.95286953174E+02 -0.31721224138E+02  0.12235999624E+03  0.00000000000E+00 0. -1.
         22    1    3    3    0    0 -0.32816415281E+02 -0.36982850275E+01  0.17925070207E+02  0.37575291961E+02  0.00000000000E+00 0. -1.
</event>
<event>
 7    1  0.5452757E-006  0.6562742E+02  0.7818608E-02  0.1386184E+00
          2   -1    0    0  502    0  0.00000000000E+00  0.00000000000E+00  0.18383289763E+04  0.18383289763E+04  0.00000000000E+00 0. -1.
          1   -1    0    0  501    0 -0.00000000000E+00 -0.00000000000E+00 -0.77145937089E+02  0.77145937089E+02  0.00000000000E+00 0. -1.
         25    2    1    2    0    0  0.36930703063E+02  0.43207944657E+02  0.11049190883E+04  0.11134203337E+04  0.12501137735E+03 0.  0.
          2    1    1    2  501    0 -0.65371926261E+02  0.98729843166E+01 -0.56369019445E+02  0.86881706449E+02  0.00000000000E+00 0. -1.
          1    1    1    2  502    0  0.28441223197E+02 -0.53080928973E+02  0.71263297034E+03  0.71517287324E+03  0.00000000000E+00 0. -1.
         22    1    3    3    0    0  0.52543562089E+02  0.22237550273E+02  0.19626052366E+03  0.20438573264E+03  0.00000000000E+00 0. -1.
         22    1    3    3    0    0 -0.15612859025E+02  0.20970394384E+02  0.90865856468E+03  0.90903460109E+03  0.00000000000E+00 0. -1.
</event>
<event>
 7    1  0.5452757E-006  0.8713260E+02  0.7818608E-02  0.1362369E+00
          2   -1    0    0  502    0  0.00000000000E+00  0.00000000000E+00  0.21289625564E+04  0.21289625564E+04  0.00000000000E+00 0. -1.
          1   -1    0    0  501    0 -0.00000000000E+00 -0.00000000000E+00 -0.61584513515E+02  0.61584513515E+02  0.00000000000E+00 0. -1.
         25    2    1    2    0    0  0.31914721350E+02  0.11963018598E+03  0.26795380894E+03  0.32055275501E+03  0.12499957672E+03 0.  0.
          2    1    1    2  501    0 -0.47821927872E+02 -0.66800448689E+02  0.13544787490E+02  0.83262824830E+02  0.00000000000E+00 0. -1.
          1    1    1    2  502    0  0.15907206523E+02 -0.52829737291E+02  0.17858794465E+04  0.17867314901E+04  0.00000000000E+00 0. -1.
         22    1    3    3    0    0  0.72448378525E+02  0.90259466915E+02  0.23086945343E+03  0.25825615859E+03  0.00000000000E+00 0. -1.
         22    1    3    3    0    0 -0.40533657175E+02  0.29370719065E+02  0.37084355506E+02  0.62296596421E+02  0.00000000000E+00 0. -1.
</event>
<event>
 7    1  0.5452757E-006  0.1070429E+03  0.7818608E-02  0.1329737E+00
          2   -1    0    0  502    0  0.00000000000E+00  0.00000000000E+00  0.17399380350E+03  0.17399380350E+03  0.00000000000E+00 0. -1.
          1   -1    0    0  501    0 -0.00000000000E+00 -0.00000000000E+00 -0.13056392451E+04  0.13056392451E+04  0.00000000000E+00 0. -1.
         25    2    1    2    0    0  0.32943874278E+02 -0.66305890396E+02 -0.14416190032E+03  0.20466663299E+03  0.12499602874E+03 0.  0.
          2    1    1    2  501    0 -0.37766491457E+02 -0.45886319061E+02 -0.11083744293E+04  0.11099665480E+04  0.00000000000E+00 0. -1.
          1    1    1    2  502    0  0.48226171792E+01  0.11219220946E+03  0.12089088803E+03  0.16499986760E+03  0.00000000000E+00 0. -1.
         22    1    3    3    0    0  0.63414416671E+02  0.38907865089E+01 -0.92942913909E+02  0.11258291037E+03  0.00000000000E+00 0. -1.
         22    1    3    3    0    0 -0.30470542393E+02 -0.70196676904E+02 -0.51218986411E+02  0.92083722618E+02  0.00000000000E+00 0. -1.
</event>
<event>
 7    1  0.5452757E-006  0.7300117E+02  0.7818608E-02  0.1382181E+00
          2   -1    0    0  502    0  0.00000000000E+00  0.00000000000E+00  0.82760380342E+03  0.82760380342E+03  0.00000000000E+00 0. -1.
          1   -1    0    0  501    0 -0.00000000000E+00 -0.00000000000E+00 -0.37811416514E+03  0.37811416514E+03  0.00000000000E+00 0. -1.
         25    2    1    2    0    0 -0.10098941013E+03 -0.61525307328E+02 -0.19979648595E+03  0.26368131208E+03  0.12499989657E+03 0.  0.
          2    1    1    2  501    0  0.55733790928E+02  0.45952987977E+01 -0.13929892465E+03  0.15010517190E+03  0.00000000000E+00 0. -1.
          1    1    1    2  502    0  0.45255619198E+02  0.56930008530E+02  0.78858504888E+03  0.79193148457E+03  0.00000000000E+00 0. -1.
         22    1    3    3    0    0 -0.10847223843E+03 -0.78163910323E+02 -0.20496715571E+03  0.24471893736E+03  0.00000000000E+00 0.  1.
         22    1    3    3    0    0  0.74828283021E+01  0.16638602995E+02  0.51706697598E+01  0.18962374714E+02  0.00000000000E+00 0.  1.
</event>
<event>
 7    1  0.5452757E-006  0.7783952E+02  0.7818608E-02  0.1349095E+00
          2   -1    0    0  502    0  0.00000000000E+00  0.00000000000E+00  0.76006036499E+03  0.76006036499E+03  0.00000000000E+00 0. -1.
          1   -1    0    0  501    0 -0.00000000000E+00 -0.00000000000E+00 -0.16796911374E+04  0.16796911374E+04  0.00000000000E+00 0. -1.
         25    2    1    2    0    0 -0.77395148137E+02  0.11380181468E+03  0.30573233079E+03  0.35782294408E+03  0.12499655690E+03 0.  0.
          2    1    1    2  501    0  0.20205531215E+02 -0.75022344454E+02 -0.16499387008E+04  0.16517670332E+04  0.00000000000E+00 0. -1.
          1    1    1    2  502    0  0.57189616922E+02 -0.38779470226E+02  0.42457559760E+03  0.43016152509E+03  0.00000000000E+00 0. -1.
         22    1    3    3    0    0 -0.26179469766E+01  0.39036412285E+02  0.54942412706E+01  0.39507996881E+02  0.00000000000E+00 0. -1.
         22    1    3    3    0    0 -0.74777201161E+02  0.74765402396E+02  0.30023808952E+03  0.31831494719E+03  0.00000000000E+00 0. -1.
</event>
<event>
 7    1  0.5452757E-006  0.9933779E+02  0.7818608E-02  0.1394614E+00
          2   -1    0    0  502    0  0.00000000000E+00  0.00000000000E+00  0.15156274475E+03  0.15156274475E+03  0.00000000000E+00 0. -1.
          1   -1    0    0  501    0 -0.00000000000E+00 -0.00000000000E+00 -0.44907297821E+03  0.44907297821E+03  0.00000000000E+00 0. -1.
         25    2    1    2    0    0  0.55756829348E+02 -0.34398903362E+02  0.21674754083E+02  0.14278611709E+03  0.12500388672E+03 0.  0.
          2    1    1    2  501    0 -0.82547218087E+02  0.60179860117E+02 -0.37617759133E+03  0.38980153796E+03  0.00000000000E+00 0. -1.
          1    1    1    2  502    0  0.26790388739E+02 -0.25780956755E+02  0.56992603791E+02  0.68048067914E+02  0.00000000000E+00 0. -1.
         22    1    3    3    0    0  0.70905233575E+01 -0.76179259091E+02  0.17658810075E+02  0.78519988604E+02  0.00000000000E+00 0.  1.
         22    1    3    3    0    0  0.48666305991E+02  0.41780355730E+02  0.40159440082E+01  0.64266128481E+02  0.00000000000E+00 0.  1.
</event>
<event>
 7    1  0.5452757E-006  0.1449511E+03  0.7818608E-02  0.1216942E+00
          2   -1    0    0  502    0  0.00000000000E+00  0.00000000000E+00  0.97837532757E+03  0.97837532757E+03  0.00000000000E+00 0. -1.
          1   -1    0    0  501    0 -0.00000000000E+00 -0.00000000000E+00 -0.24997297385E+03  0.24997297385E+03  0.00000000000E+00 0. -1.
         25    2    1    2    0    0 -0.39116490079E+02 -0.25754320257E+03  0.29466033592E+03  0.41268372571E+03  0.12499817164E+03 0.  0.
          2    1    1    2  501    0  0.28895048291E+02  0.12689600457E+03 -0.16079087264E+03  0.20686039861E+03  0.00000000000E+00 0. -1.
          1    1    1    2  502    0  0.10221441788E+02  0.13064719801E+03  0.59453289044E+03  0.60880417708E+03  0.00000000000E+00 0. -1.
         22    1    3    3    0    0  0.37066335688E+02 -0.44034559415E+02  0.32486401353E+02  0.66093282087E+02  0.00000000000E+00 0.  1.
         22    1    3    3    0    0 -0.76182825767E+02 -0.21350864316E+03  0.26217393457E+03  0.34659044363E+03  0.00000000000E+00 0.  1.
</event>
<event>
 7    1  0.5452757E-006  0.9971915E+02  0.7818608E-02  0.1382648E+00
          2   -1    0    0  502    0  0.00000000000E+00  0.00000000000E+00  0.12469563646E+04  0.12469563646E+04  0.00000000000E+00 0. -1.
          1   -1    0    0  501    0 -0.00000000000E+00 -0.00000000000E+00 -0.29674147565E+03  0.29674147565E+03  0.00000000000E+00 0. -1.
         25    2    1    2    0    0 -0.29872500034E+02  0.13325699149E+03  0.74255096204E+03  0.76528212522E+03  0.12500003165E+03 0.  0.
          2    1    1    2  501    0  0.35281201635E+02 -0.92833044818E+02 -0.27585118950E+03  0.29318358779E+03  0.00000000000E+00 0. -1.
          1    1    1    2  502    0 -0.54087016005E+01 -0.40423946671E+02  0.48351511645E+03  0.48523212729E+03  0.00000000000E+00 0. -1.
         22    1    3    3    0    0 -0.10795983977E+01  0.15109883962E+03  0.61844613386E+03  0.63663776620E+03  0.00000000000E+00 0.  1.
         22    1    3    3    0    0 -0.28792901637E+02 -0.17841848130E+02  0.12410482818E+03  0.12864435901E+03  0.00000000000E+00 0.  1.
</event>
<event>
 7    1  0.5452757E-006  0.1589203E+03  0.7818608E-02  0.1343543E+00
          2   -1    0    0  502    0  0.00000000000E+00  0.00000000000E+00  0.20081870290E+04  0.20081870290E+04  0.00000000000E+00 0. -1.
          1   -1    0    0  501    0 -0.00000000000E+00 -0.00000000000E+00 -0.47233082483E+02  0.47233082483E+02  0.00000000000E+00 0. -1.
         25    2    1    2    0    0 -0.12164433859E+02  0.13290183432E+03  0.10828198887E+04  0.10981506567E+04  0.12500032976E+03 0.  0.
          2    1    1    2  501    0 -0.68012797668E+01 -0.16290553247E+03  0.13062869782E+03  0.20892181937E+03  0.00000000000E+00 0. -1.
          1    1    1    2  502    0  0.18965713625E+02  0.30003698144E+02  0.74750535998E+03  0.74834763539E+03  0.00000000000E+00 0. -1.
         22    1    3    3    0    0  0.16082311332E+01 -0.22095455128E+02  0.24525006751E+03  0.24624863687E+03  0.00000000000E+00 0.  1.
         22    1    3    3    0    0 -0.13772664992E+02  0.15499728945E+03  0.83756982115E+03  0.85190201980E+03  0.00000000000E+00 0.  1.
</event>
<event>
 7    1  0.5452757E-006  0.1240111E+03  0.7818608E-02  0.1357888E+00
          2   -1    0    0  502    0  0.00000000000E+00  0.00000000000E+00  0.89645255898E+03  0.89645255898E+03  0.00000000000E+00 0. -1.
          1   -1    0    0  501    0 -0.00000000000E+00 -0.00000000000E+00 -0.46060347522E+02  0.46060347522E+02  0.00000000000E+00 0. -1.
         25    2    1    2    0    0  0.56628869008E+01 -0.11735266463E+03  0.25791463757E+03  0.30975507798E+03  0.12499812749E+03 0.  0.
          2    1    1    2  501    0 -0.45414057795E+02  0.12368800049E+03  0.20828673716E+03  0.24646403995E+03  0.00000000000E+00 0. -1.
          1    1    1    2  502    0  0.39751170894E+02 -0.63353358616E+01  0.38419083673E+03  0.38629378858E+03  0.00000000000E+00 0. -1.
         22    1    3    3    0    0 -0.19190905346E+02  0.20032220342E+02  0.72705159337E+02  0.77817870018E+02  0.00000000000E+00 0. -1.
         22    1    3    3    0    0  0.24853792246E+02 -0.13738488497E+03  0.18520947824E+03  0.23193720796E+03  0.00000000000E+00 0. -1.
</event>
<event>
 7    1  0.5452757E-006  0.8590222E+02  0.7818608E-02  0.1318069E+00
          2   -1    0    0  502    0  0.00000000000E+00  0.00000000000E+00  0.12462345882E+04  0.12462345882E+04  0.00000000000E+00 0. -1.
          1   -1    0    0  501    0 -0.00000000000E+00 -0.00000000000E+00 -0.53081362307E+03  0.53081362307E+03  0.00000000000E+00 0. -1.
         25    2    1    2    0    0 -0.39970529215E+02 -0.12307863830E+03 -0.36170752572E+02  0.18349631429E+03  0.12496631389E+03 0.  0.
          2    1    1    2  501    0  0.70735468736E+02  0.46918332244E+02 -0.41524299271E+03  0.42382965851E+03  0.00000000000E+00 0. -1.
          1    1    1    2  502    0 -0.30764939522E+02  0.76160306051E+02  0.11668347104E+04  0.11697222385E+04  0.00000000000E+00 0. -1.
         22    1    3    3    0    0 -0.20186781516E+02  0.45134763199E+01  0.31527922038E+02  0.37707923365E+02  0.00000000000E+00 0. -1.
         22    1    3    3    0    0 -0.19783747699E+02 -0.12759211462E+03 -0.67698674611E+02  0.14578839093E+03  0.00000000000E+00 0. -1.
</event>
<event>
 7    1  0.5452757E-006  0.7396203E+02  0.7818608E-02  0.1438771E+00
          2   -1    0    0  502    0  0.00000000000E+00  0.00000000000E+00  0.20260270780E+03  0.20260270780E+03  0.00000000000E+00 0. -1.
          1   -1    0    0  501    0 -0.00000000000E+00 -0.00000000000E+00 -0.15652611102E+04  0.15652611102E+04  0.00000000000E+00 0. -1.
         25    2    1    2    0    0 -0.38432815152E+02 -0.11732093167E+02 -0.93258676167E+00  0.13128353703E+03  0.12497909459E+03 0.  0.
          2    1    1    2  501    0  0.73853470957E+02  0.94052863711E+01 -0.14959195676E+04  0.14977710597E+04  0.00000000000E+00 0. -1.
          1    1    1    2  502    0 -0.35420655805E+02  0.23268067955E+01  0.13419375188E+03  0.13880922135E+03  0.00000000000E+00 0. -1.
         22    1    3    3    0    0 -0.70596383800E+02 -0.37389731060E+02  0.23702267764E+02  0.83328499876E+02  0.00000000000E+00 0. -1.
         22    1    3    3    0    0  0.32163568649E+02  0.25657637894E+02 -0.24634854525E+02  0.47955037149E+02  0.00000000000E+00 0. -1.
</event>
<event>
 7    1  0.5452757E-006  0.4652802E+02  0.7818608E-02  0.1467626E+00
          2   -1    0    0  502    0  0.00000000000E+00  0.00000000000E+00  0.97940931047E+02  0.97940931047E+02  0.00000000000E+00 0. -1.
          1   -1    0    0  501    0 -0.00000000000E+00 -0.00000000000E+00 -0.48995236427E+03  0.48995236427E+03  0.00000000000E+00 0. -1.
         25    2    1    2    0    0 -0.12348373687E+01 -0.14535084938E+02 -0.17714162746E+03  0.21729243842E+03  0.12499621632E+03 0.  0.
          2    1    1    2  501    0  0.46437536368E+02  0.21008095642E+02 -0.28356721755E+03  0.28811135301E+03  0.00000000000E+00 0. -1.
          1    1    1    2  502    0 -0.45202699000E+02 -0.64730107040E+01  0.68697411791E+02  0.82489503885E+02  0.00000000000E+00 0. -1.
         22    1    3    3    0    0 -0.58916348496E+02 -0.20775434662E+02 -0.12290697014E+03  0.13787268807E+03  0.00000000000E+00 0.  1.
         22    1    3    3    0    0  0.57681511127E+02  0.62403497235E+01 -0.54234657320E+02  0.79419750347E+02  0.00000000000E+00 0.  1.
</event>
<event>
 7    1  0.5452757E-006  0.5251800E+02  0.7818608E-02  0.1499929E+00
          2   -1    0    0  502    0  0.00000000000E+00  0.00000000000E+00  0.16084643869E+04  0.16084643869E+04  0.00000000000E+00 0. -1.
          1   -1    0    0  501    0 -0.00000000000E+00 -0.00000000000E+00 -0.27787296652E+02  0.27787296652E+02  0.00000000000E+00 0. -1.
         25    2    1    2    0    0 -0.15193545635E+02 -0.72894288638E+02  0.74732848581E+03  0.76136011044E+03  0.12499972373E+03 0.  0.
          2    1    1    2  501    0 -0.85312152589E+01  0.51064825507E+02  0.12304374707E+02  0.53214618995E+02  0.00000000000E+00 0. -1.
          1    1    1    2  502    0  0.23724760894E+02  0.21829463131E+02  0.82104422978E+03  0.82167695416E+03  0.00000000000E+00 0. -1.
         22    1    3    3    0    0 -0.52252339456E+01 -0.38419309030E+02  0.50791876862E+02  0.63899617615E+02  0.00000000000E+00 0. -1.
         22    1    3    3    0    0 -0.99683116890E+01 -0.34474979608E+02  0.69653660895E+03  0.69746049283E+03  0.00000000000E+00 0. -1.
</event>
<event>
 7    1  0.5452757E-006  0.5018491E+02  0.7818608E-02  0.1513545E+00
          2   -1    0    0  502    0  0.00000000000E+00  0.00000000000E+00  0.18667597132E+03  0.18667597132E+03  0.00000000000E+00 0. -1.
          1   -1    0    0  501    0 -0.00000000000E+00 -0.00000000000E+00 -0.70540356887E+02  0.70540356887E+02  0.00000000000E+00 0. -1.
         25    2    1    2    0    0  0.24746273832E+01 -0.72875341404E+02  0.78809632294E+02  0.16478217226E+03  0.12500106794E+03 0.  0.
          2    1    1    2  501    0  0.10203378302E+02  0.44858808016E+02  0.26414438122E+01  0.46080351678E+02  0.00000000000E+00 0. -1.
          1    1    1    2  502    0 -0.12678005685E+02  0.28016533388E+02  0.34684538322E+02  0.46353804265E+02  0.00000000000E+00 0. -1.
         22    1    3    3    0    0  0.43226031984E+02 -0.34164464175E+02 -0.13481555008E+02  0.56722594959E+02  0.00000000000E+00 0. -1.
         22    1    3    3    0    0 -0.40751404601E+02 -0.38710877228E+02  0.92291187302E+02  0.10805957730E+03  0.00000000000E+00 0. -1.
</event>
<event>
 7    1  0.5452757E-006  0.8930692E+02  0.7818608E-02  0.1343284E+00
          2   -1    0    0  502    0  0.00000000000E+00  0.00000000000E+00  0.73333489630E+03  0.73333489630E+03  0.00000000000E+00 0. -1.
          1   -1    0    0  501    0 -0.00000000000E+00 -0.00000000000E+00 -0.23175905514E+04  0.23175905514E+04  0.00000000000E+00 0. -1.
         25    2    1    2    0    0 -0.15412027511E+02 -0.27817120035E+02 -0.89962427604E+02  0.15725607878E+03  0.12499965270E+03 0.  0.
          2    1    1    2  501    0  0.88086580581E+01 -0.62688342599E+02 -0.21905797959E+04  0.21914942991E+04  0.00000000000E+00 0. -1.
          1    1    1    2  502    0  0.66033694531E+01  0.90505462634E+02  0.69628656844E+03  0.70217506979E+03  0.00000000000E+00 0. -1.
         22    1    3    3    0    0 -0.51937125498E+02 -0.49108392195E+02 -0.17864315354E+02  0.73676542753E+02  0.00000000000E+00 0.  1.
         22    1    3    3    0    0  0.36525097987E+02  0.21291272160E+02 -0.72098112250E+02  0.83579536031E+02  0.00000000000E+00 0.  1.
</event>
<event>
 7    1  0.5452757E-006  0.1038434E+03  0.7818608E-02  0.1294100E+00
          2   -1    0    0  502    0  0.00000000000E+00  0.00000000000E+00  0.82499715715E+03  0.82499715715E+03  0.00000000000E+00 0. -1.
          1   -1    0    0  501    0 -0.00000000000E+00 -0.00000000000E+00 -0.84504135208E+03  0.84504135208E+03  0.00000000000E+00 0. -1.
         25    2    1    2    0    0 -0.64265373793E+02  0.11458086581E+03 -0.89861620092E+02  0.20238357249E+03  0.12500074627E+03 0.  0.
          2    1    1    2  501    0 -0.32943836685E+02 -0.77891718426E+02 -0.69282475909E+03  0.69796745124E+03  0.00000000000E+00 0. -1.
          1    1    1    2  502    0  0.97209210478E+02 -0.36689147388E+02  0.76264218425E+03  0.76968748550E+03  0.00000000000E+00 0. -1.
         22    1    3    3    0    0  0.26530243555E+02  0.79796213997E+02 -0.43088057367E+02  0.94487408045E+02  0.00000000000E+00 0.  1.
         22    1    3    3    0    0 -0.90795617348E+02  0.34784651817E+02 -0.46773562725E+02  0.10789616444E+03  0.00000000000E+00 0.  1.
</event>
<event>
 7    1  0.5452757E-006  0.1086451E+03  0.7818608E-02  0.1288884E+00
          2   -1    0    0  502    0  0.00000000000E+00  0.00000000000E+00  0.32692087393E+03  0.32692087393E+03  0.00000000000E+00 0. -1.
          1   -1    0    0  501    0 -0.00000000000E+00 -0.00000000000E+00 -0.18007413732E+04  0.18007413732E+04  0.00000000000E+00 0. -1.
         25    2    1    2    0    0 -0.13710527205E+03 -0.10142112928E+03 -0.52163211635E+03  0.56286072411E+03  0.12501211478E+03 0.  0.
          2    1    1    2  501    0  0.10034719240E+03  0.24923393808E+02 -0.12504409976E+04  0.12547085012E+04  0.00000000000E+00 0. -1.
          1    1    1    2  502    0  0.36758079653E+02  0.76497735471E+02  0.29825261472E+03  0.31009302175E+03  0.00000000000E+00 0. -1.
         22    1    3    3    0    0 -0.19895978805E+02 -0.51340453108E+02 -0.31723931488E+03  0.32198210354E+03  0.00000000000E+00 0. -1.
         22    1    3    3    0    0 -0.11720929325E+03 -0.50080676171E+02 -0.20439280148E+03  0.24087862056E+03  0.00000000000E+00 0. -1.
</event>
<event>
 7    1  0.5452757E-006  0.5134190E+02  0.7818608E-02  0.1541922E+00
          2   -1    0    0  502    0  0.00000000000E+00  0.00000000000E+00  0.11127696374E+04  0.11127696374E+04  0.00000000000E+00 0. -1.
          1   -1    0    0  501    0 -0.00000000000E+00 -0.00000000000E+00 -0.45610254926E+02  0.45610254926E+02  0.00000000000E+00 0. -1.
         25    2    1    2    0    0  0.11495697052E+02 -0.24600918427E+02  0.70678338100E+03  0.71826509287E+03  0.12499855894E+03 0.  0.
          2    1    1    2  501    0 -0.18587731933E+02  0.48482202313E+02 -0.22385648918E+02  0.56543301964E+02  0.00000000000E+00 0. -1.
          1    1    1    2  502    0  0.70920348809E+01 -0.23881283887E+02  0.38276165042E+03  0.38357149752E+03  0.00000000000E+00 0. -1.
         22    1    3    3    0    0 -0.34022854309E+02 -0.56937343480E+02  0.27496510160E+03  0.28285194501E+03  0.00000000000E+00 0. -1.
         22    1    3    3    0    0  0.45518551361E+02  0.32336425054E+02  0.43181827940E+03  0.43541314786E+03  0.00000000000E+00 0. -1.
</event>
<event>
 7    1  0.5452757E-006  0.2576485E+03  0.7818608E-02  0.1278734E+00
          2   -1    0    0  502    0  0.00000000000E+00  0.00000000000E+00  0.73594321126E+03  0.73594321126E+03  0.00000000000E+00 0. -1.
          1   -1    0    0  501    0 -0.00000000000E+00 -0.00000000000E+00 -0.10185738628E+04  0.10185738628E+04  0.00000000000E+00 0. -1.
         25    2    1    2    0    0  0.17391336091E+03 -0.18071471502E+03  0.11390481724E+03  0.30248988647E+03  0.12498863428E+03 0.  0.
          2    1    1    2  501    0 -0.20534963699E+03  0.15697298057E+03 -0.90543466252E+03  0.94160550027E+03  0.00000000000E+00 0. -1.
          1    1    1    2  502    0  0.31436276079E+02  0.23741734442E+02  0.50889919379E+03  0.51042168728E+03  0.00000000000E+00 0. -1.
         22    1    3    3    0    0  0.94885222090E+02 -0.28990507216E+02  0.42809294406E+01  0.99307508461E+02  0.00000000000E+00 0. -1.
         22    1    3    3    0    0  0.79028138824E+02 -0.15172420780E+03  0.10962388780E+03  0.20318237801E+03  0.00000000000E+00 0. -1.
</event>
<event>
 7    1  0.5452757E-006  0.5958838E+02  0.7818608E-02  0.1437779E+00
          2   -1    0    0  502    0  0.00000000000E+00  0.00000000000E+00  0.25693084610E+04  0.25693084610E+04  0.00000000000E+00 0. -1.
          1   -1    0    0  501    0 -0.00000000000E+00 -0.00000000000E+00 -0.13556448746E+03  0.13556448746E+03  0.00000000000E+00 0. -1.
         25    2    1    2    0    0 -0.10028477406E+02 -0.32821284245E+02  0.30900249016E+03  0.33508970464E+03  0.12499905671E+03 0.  0.
          2    1    1    2  501    0 -0.29702995810E+02  0.52612811546E+02 -0.11483909088E+03  0.12976283248E+03  0.00000000000E+00 0. -1.
          1    1    1    2  502    0  0.39731473216E+02 -0.19791527301E+02  0.22395805743E+04  0.22400204114E+04  0.00000000000E+00 0. -1.
         22    1    3    3    0    0 -0.41602170391E+02 -0.36339227911E+02  0.51137135654E+02  0.75274741509E+02  0.00000000000E+00 0.  1.
         22    1    3    3    0    0  0.31573692984E+02  0.35179436663E+01  0.25786535450E+03  0.25981496313E+03  0.00000000000E+00 0.  1.
</event>
<event>
 7    1  0.5452757E-006  0.1049858E+03  0.7818608E-02  0.1328529E+00
          2   -1    0    0  502    0  0.00000000000E+00  0.00000000000E+00  0.20627876795E+04  0.20627876795E+04  0.00000000000E+00 0. -1.
          1   -1    0    0  501    0 -0.00000000000E+00 -0.00000000000E+00 -0.88339841387E+03  0.88339841387E+03  0.00000000000E+00 0. -1.
         25    2    1    2    0    0  0.40949493890E+02 -0.37098712233E+02  0.27701378505E+03  0.30889209265E+03  0.12499804918E+03 0.  0.
          2    1    1    2  501    0  0.12197810581E+02 -0.60015117906E+02 -0.86464392433E+03  0.86681008118E+03  0.00000000000E+00 0. -1.
          1    1    1    2  502    0 -0.53147304472E+02  0.97113830139E+02  0.17670194049E+04  0.17704839195E+04  0.00000000000E+00 0. -1.
         22    1    3    3    0    0  0.68156840841E+02  0.17207776755E+02  0.10402565959E+03  0.12554999159E+03  0.00000000000E+00 0.  1.
         22    1    3    3    0    0 -0.27207346950E+02 -0.54306488988E+02  0.17298812546E+03  0.18334210107E+03  0.00000000000E+00 0.  1.
</event>
<event>
 7    1  0.5452757E-006  0.1032582E+03  0.7818608E-02  0.1331272E+00
          2   -1    0    0  502    0  0.00000000000E+00  0.00000000000E+00  0.15193784741E+04  0.15193784741E+04  0.00000000000E+00 0. -1.
          1   -1    0    0  501    0 -0.00000000000E+00 -0.00000000000E+00 -0.45570899900E+02  0.45570899900E+02  0.00000000000E+00 0. -1.
         25    2    1    2    0    0  0.30944267735E+02  0.62095223115E+02  0.61542352141E+03  0.63180965493E+03  0.12499585961E+03 0.  0.
          2    1    1    2  501    0 -0.91638290634E+02 -0.58823339272E+02  0.45550055360E+02  0.11803630415E+03  0.00000000000E+00 0. -1.
          1    1    1    2  502    0  0.60694022898E+02 -0.32718838424E+01  0.81283399740E+03  0.81510341489E+03  0.00000000000E+00 0. -1.
         22    1    3    3    0    0  0.13166000082E+02  0.21242408025E+02  0.56063773838E+03  0.56119449138E+03  0.00000000000E+00 0. -1.
         22    1    3    3    0    0  0.17778267653E+02  0.40852815089E+02  0.54785783028E+02  0.70615163552E+02  0.00000000000E+00 0. -1.
</event>
<event>
 7    1  0.5452757E-006  0.3591467E+02  0.7818608E-02  0.1635846E+00
          2   -1    0    0  502    0  0.00000000000E+00  0.00000000000E+00  0.10743523207E+04  0.10743523207E+04  0.00000000000E+00 0. -1.
          1   -1    0    0  501    0 -0.00000000000E+00 -0.00000000000E+00 -0.12393552686E+04  0.12393552686E+04  0.00000000000E+00 0. -1.
         25    2    1    2    0    0  0.20319308744E+02 -0.77633170835E+01 -0.73689651159E+02  0.14672316799E+03  0.12499751972E+03 0.  0.
          2    1    1    2  501    0  0.26784080183E+01 -0.19884693698E+02 -0.11287481357E+04  0.11289264497E+04  0.00000000000E+00 0. -1.
          1    1    1    2  502    0 -0.22997716762E+02  0.27648010782E+02  0.10374348389E+04  0.10380579716E+04  0.00000000000E+00 0. -1.
         22    1    3    3    0    0  0.29074154695E+02  0.38544654197E+02  0.11260207208E+02  0.49576094085E+02  0.00000000000E+00 0.  1.
         22    1    3    3    0    0 -0.87548459516E+01 -0.46307971280E+02 -0.84949858367E+02  0.97147073905E+02  0.00000000000E+00 0.  1.
</event>
<event>
 7    1  0.5452757E-006  0.9759313E+02  0.7818608E-02  0.1369983E+00
          2   -1    0    0  502    0  0.00000000000E+00  0.00000000000E+00  0.19907103058E+04  0.19907103058E+04  0.00000000000E+00 0. -1.
          1   -1    0    0  501    0 -0.00000000000E+00 -0.00000000000E+00 -0.14136151620E+03  0.14136151620E+03  0.00000000000E+00 0. -1.
         25    2    1    2    0    0 -0.11340954205E+03 -0.67736849216E+02  0.15140637861E+02  0.18249255561E+03  0.12499715585E+03 0.  0.
          2    1    1    2  501    0  0.71303426584E+02  0.48641824544E+02 -0.24948499497E+02  0.89847834502E+02  0.00000000000E+00 0. -1.
          1    1    1    2  502    0  0.42106115467E+02  0.19095024672E+02  0.18591566513E+04  0.18597314319E+04  0.00000000000E+00 0. -1.
         22    1    3    3    0    0 -0.74479033598E+02  0.57517660432E+01 -0.37990031345E+02  0.83806036417E+02  0.00000000000E+00 0.  1.
         22    1    3    3    0    0 -0.38930508453E+02 -0.73488615259E+02  0.53130669206E+02  0.98686519198E+02  0.00000000000E+00 0.  1.
</event>
<event>
 7    1  0.5452757E-006  0.9819080E+02  0.7818608E-02  0.1448800E+00
          2   -1    0    0  502    0  0.00000000000E+00  0.00000000000E+00  0.35011794859E+03  0.35011794859E+03  0.00000000000E+00 0. -1.
          1   -1    0    0  501    0 -0.00000000000E+00 -0.00000000000E+00 -0.16506761244E+04  0.16506761244E+04  0.00000000000E+00 0. -1.
         25    2    1    2    0    0  0.65167706917E+02 -0.34759992725E+02 -0.35665108321E+03  0.38507200363E+03  0.12500146280E+03 0.  0.
          2    1    1    2  501    0  0.21509413300E+02 -0.12379513821E+02 -0.12724456329E+04  0.12726876270E+04  0.00000000000E+00 0. -1.
          1    1    1    2  502    0 -0.86677120217E+02  0.47139506545E+02  0.32853854026E+03  0.34303444241E+03  0.00000000000E+00 0. -1.
         22    1    3    3    0    0  0.38061637012E+02 -0.32802593163E+02 -0.35424311642E+03  0.35778888169E+03  0.00000000000E+00 0. -1.
         22    1    3    3    0    0  0.27106069905E+02 -0.19573995617E+01 -0.24079667952E+01  0.27283121940E+02  0.00000000000E+00 0. -1.
</event>
<event>
 7    1  0.5452757E-006  0.9236008E+02  0.7818608E-02  0.1419661E+00
          2   -1    0    0  502    0  0.00000000000E+00  0.00000000000E+00  0.48336178683E+03  0.48336178683E+03  0.00000000000E+00 0. -1.
          1   -1    0    0  501    0 -0.00000000000E+00 -0.00000000000E+00 -0.52903422599E+03  0.52903422599E+03  0.00000000000E+00 0. -1.
         25    2    1    2    0    0  0.65832045615E+02  0.95811702997E+00 -0.36389325807E+03  0.39035610996E+03  0.12499925239E+03 0.  0.
          2    1    1    2  501    0  0.23820460163E+02  0.22639296797E+02 -0.14548878389E+03  0.14915407577E+03  0.00000000000E+00 0. -1.
          1    1    1    2  502    0 -0.89652505777E+02 -0.23597413827E+02  0.46370960279E+03  0.47288582708E+03  0.00000000000E+00 0. -1.
         22    1    3    3    0    0 -0.34703631498E+02 -0.16572655932E+02 -0.11863878712E+03  0.12471630516E+03  0.00000000000E+00 0.  1.
         22    1    3    3    0    0  0.10053567711E+03  0.17530772962E+02 -0.24525447095E+03  0.26563980480E+03  0.00000000000E+00 0.  1.
</event>
<event>
 7    1  0.5452757E-006  0.2323300E+02  0.7818608E-02  0.1694918E+00
          2   -1    0    0  502    0  0.00000000000E+00  0.00000000000E+00  0.10567650944E+02  0.10567650944E+02  0.00000000000E+00 0. -1.
          1   -1    0    0  501    0 -0.00000000000E+00 -0.00000000000E+00 -0.10263098070E+04  0.10263098070E+04  0.00000000000E+00 0. -1.
         25    2    1    2    0    0 -0.13811047407E+02  0.24104936709E+02 -0.53228640860E+03  0.54747101920E+03  0.12499561220E+03 0.  0.
          2    1    1    2  501    0 -0.84359374983E+01 -0.21882162553E+02 -0.43918199589E+03  0.43980770752E+03  0.00000000000E+00 0. -1.
          1    1    1    2  502    0  0.22246984905E+02 -0.22227741558E+01 -0.44273751562E+02  0.49598731230E+02  0.00000000000E+00 0. -1.
         22    1    3    3    0    0 -0.24739214354E+02  0.63183287811E+02 -0.45640562887E+03  0.46142199195E+03  0.00000000000E+00 0.  1.
         22    1    3    3    0    0  0.10928166947E+02 -0.39078351102E+02 -0.75880779731E+02  0.86049027248E+02  0.00000000000E+00 0.  1.
</event>
<event>
 7    1  0.5452757E-006  0.5099663E+02  0.7818608E-02  0.1570565E+00
          2   -1    0    0  502    0  0.00000000000E+00  0.00000000000E+00  0.11023418104E+03  0.11023418104E+03  0.00000000000E+00 0. -1.
          1   -1    0    0  501    0 -0.00000000000E+00 -0.00000000000E+00 -0.10672892115E+04  0.10672892115E+04  0.00000000000E+00 0. -1.
         25    2    1    2    0    0 -0.85643462183E+01 -0.35639644684E+02 -0.57068329555E+03  0.58536136384E+03  0.12499988063E+03 0.  0.
          2    1    1    2  501    0  0.25633039061E+02  0.47696610933E+02 -0.48668863746E+03  0.48969158582E+03  0.00000000000E+00 0. -1.
          1    1    1    2  502    0 -0.17068692842E+02 -0.12056966249E+02  0.10031690259E+03  0.10247044284E+03  0.00000000000E+00 0. -1.
         22    1    3    3    0    0  0.45338174772E+02 -0.39939691010E+02 -0.43697967473E+03  0.44113712736E+03  0.00000000000E+00 0. -1.
         22    1    3    3    0    0 -0.53902520990E+02  0.43000463264E+01 -0.13370362082E+03  0.14422423648E+03  0.00000000000E+00 0. -1.
</event>
<event>
 7    1  0.5452757E-006  0.5131403E+02  0.7818608E-02  0.1447062E+00
          2   -1    0    0  502    0  0.00000000000E+00  0.00000000000E+00  0.10307429144E+04  0.10307429144E+04  0.00000000000E+00 0. -1.
          1   -1    0    0  501    0 -0.00000000000E+00 -0.00000000000E+00 -0.62274925786E+02  0.62274925786E+02  0.00000000000E+00 0. -1.
         25    2    1    2    0    0  0.12269901954E+01  0.52284459568E+02  0.79305448964E+03  0.80454727062E+03  0.12500286761E+03 0.  0.
          2    1    1    2  501    0  0.41665250474E+02 -0.30509735396E+02 -0.41523235169E+02  0.66264742586E+02  0.00000000000E+00 0. -1.
          1    1    1    2  502    0 -0.42892240670E+02 -0.21774724173E+02  0.21693673419E+03  0.22220582703E+03  0.00000000000E+00 0. -1.
         22    1    3    3    0    0 -0.43120230626E+02  0.38106041636E+02  0.67788115518E+03  0.68031925244E+03  0.00000000000E+00 0.  1.
         22    1    3    3    0    0  0.44347220821E+02  0.14178417933E+02  0.11517333446E+03  0.12422801818E+03  0.00000000000E+00 0.  1.
</event>
<event>
 7    1  0.5452757E-006  0.2032104E+03  0.7818608E-02  0.1215231E+00
          2   -1    0    0  502    0  0.00000000000E+00  0.00000000000E+00  0.65637930157E+03  0.65637930157E+03  0.00000000000E+00 0. -1.
          1   -1    0    0  501    0 -0.00000000000E+00 -0.00000000000E+00 -0.29166412102E+03  0.29166412102E+03  0.00000000000E+00 0. -1.
         25    2    1    2    0    0 -0.22104501010E+03  0.26886035871E+02  0.18607628621E+03  0.31596427258E+03  0.12500112737E+03 0.  0.
          2    1    1    2  501    0  0.29739015180E+02 -0.89726665569E+02 -0.18989536115E+03  0.21212150227E+03  0.00000000000E+00 0. -1.
          1    1    1    2  502    0  0.19130599492E+03  0.62840629698E+02  0.36853425549E+03  0.41995764775E+03  0.00000000000E+00 0. -1.
         22    1    3    3    0    0 -0.64031266272E+02 -0.43452511005E+02  0.27915108048E+02  0.82264068890E+02  0.00000000000E+00 0. -1.
         22    1    3    3    0    0 -0.15701374382E+03  0.70338546877E+02  0.15816117816E+03  0.23370020369E+03  0.00000000000E+00 0. -1.
</event>
<event>
 7    1  0.5452757E-006  0.8503728E+02  0.7818608E-02  0.1388496E+00
          2   -1    0    0  502    0  0.00000000000E+00  0.00000000000E+00  0.44289877216E+03  0.44289877216E+03  0.00000000000E+00 0. -1.
          1   -1    0    0  501    0 -0.00000000000E+00 -0.00000000000E+00 -0.17933007163E+04  0.17933007163E+04  0.00000000000E+00 0. -1.
         25    2    1    2    0    0 -0.10892360396E+03  0.12135873816E+02 -0.34861007336E+03  0.38622262681E+03  0.12500921277E+03 0.  0.
          2    1    1    2  501    0  0.27592544293E+02 -0.36324986474E+02 -0.14212705039E+04  0.14220023553E+04  0.00000000000E+00 0. -1.
          1    1    1    2  502    0  0.81331059666E+02  0.24189112658E+02  0.41947863314E+03  0.42797450636E+03  0.00000000000E+00 0. -1.
         22    1    3    3    0    0 -0.10869921794E+03  0.25293462453E+02 -0.14891254260E+03  0.18609197878E+03  0.00000000000E+00 0.  1.
         22    1    3    3    0    0 -0.22438602315E+00 -0.13157588636E+02 -0.19969753076E+03  0.20013064803E+03  0.00000000000E+00 0.  1.
</event>
<event>
 7    1  0.5452757E-006  0.2974721E+02  0.7818608E-02  0.1633010E+00
          2   -1    0    0  502    0  0.00000000000E+00  0.00000000000E+00  0.28632796760E+03  0.28632796760E+03  0.00000000000E+00 0. -1.
          1   -1    0    0  501    0 -0.00000000000E+00 -0.00000000000E+00 -0.42429391257E+02  0.42429391257E+02  0.00000000000E+00 0. -1.
         25    2    1    2    0    0 -0.84273256732E+01  0.51308194373E+01  0.16020415097E+03  0.20344145215E+03  0.12500283731E+03 0.  0.
          2    1    1    2  501    0  0.30925143850E+02  0.48763047005E+01 -0.63678800667E+01  0.31948282681E+02  0.00000000000E+00 0. -1.
          1    1    1    2  502    0 -0.22497818177E+02 -0.10007124138E+02  0.90062305436E+02  0.93367624028E+02  0.00000000000E+00 0. -1.
         22    1    3    3    0    0  0.13983170692E+02 -0.53591070740E+02  0.41798076643E+02  0.69387398976E+02  0.00000000000E+00 0. -1.
         22    1    3    3    0    0 -0.22410496365E+02  0.58721890177E+02  0.11840607433E+03  0.13405405317E+03  0.00000000000E+00 0. -1.
</event>
<event>
 7    1  0.5452757E-006  0.5468934E+02  0.7818608E-02  0.1477899E+00
          2   -1    0    0  502    0  0.00000000000E+00  0.00000000000E+00  0.36446815881E+03  0.36446815881E+03  0.00000000000E+00 0. -1.
          1   -1    0    0  501    0 -0.00000000000E+00 -0.00000000000E+00 -0.99516392370E+03  0.99516392370E+03  0.00000000000E+00 0. -1.
         25    2    1    2    0    0  0.13959462340E+02  0.79732869943E+02 -0.20257275236E+02  0.15029375583E+03  0.12500263479E+03 0.  0.
          2    1    1    2  501    0  0.10702763715E+02 -0.53365474090E+02 -0.90798229284E+03  0.90961215202E+03  0.00000000000E+00 0. -1.
          1    1    1    2  502    0 -0.24662226055E+02 -0.26367395853E+02  0.29754380320E+03  0.29972617466E+03  0.00000000000E+00 0. -1.
         22    1    3    3    0    0 -0.95406660932E+01  0.89144086991E+02 -0.56584342512E+02  0.10601641558E+03  0.00000000000E+00 0.  1.
         22    1    3    3    0    0  0.23500128433E+02 -0.94112170480E+01  0.36327067276E+02  0.44277340250E+02  0.00000000000E+00 0.  1.
</event>
<event>
 7    1  0.5452757E-006  0.3326385E+02  0.7818608E-02  0.1623115E+00
          2   -1    0    0  502    0  0.00000000000E+00  0.00000000000E+00  0.17154742512E+04  0.17154742512E+04  0.00000000000E+00 0. -1.
          1   -1    0    0  501    0 -0.00000000000E+00 -0.00000000000E+00 -0.25628953257E+02  0.25628953257E+02  0.00000000000E+00 0. -1.
         25    2    1    2    0    0 -0.18116829321E+02 -0.13282192382E+02  0.36041502033E+03  0.38213712910E+03  0.12500064966E+03 0.  0.
          2    1    1    2  501    0  0.65301484532E+01  0.33521913735E+02  0.52178952513E+01  0.34548342509E+02  0.00000000000E+00 0. -1.
          1    1    1    2  502    0  0.11586680868E+02 -0.20239721353E+02  0.13242123824E+04  0.13244177329E+04  0.00000000000E+00 0. -1.
         22    1    3    3    0    0  0.26953971439E+02 -0.56106595995E+02  0.14194642844E+03  0.15499437164E+03  0.00000000000E+00 0.  1.
         22    1    3    3    0    0 -0.45070800760E+02  0.42824403613E+02  0.21846859189E+03  0.22714275746E+03  0.00000000000E+00 0.  1.
</event>
<event>
 7    1  0.5452757E-006  0.7184415E+02  0.7818608E-02  0.1358436E+00
          2   -1    0    0  502    0  0.00000000000E+00  0.00000000000E+00  0.19248502703E+04  0.19248502703E+04  0.00000000000E+00 0. -1.
          1   -1    0    0  501    0 -0.00000000000E+00 -0.00000000000E+00 -0.37859346006E+03  0.37859346006E+03  0.00000000000E+00 0. -1.
         25    2    1    2    0    0  0.92078151853E+02 -0.21483586830E+02  0.15664319612E+03  0.22158977568E+03  0.12500002897E+03 0.  0.
          2    1    1    2  501    0 -0.36182830362E+02  0.62213020665E+02 -0.34168104728E+03  0.34917845756E+03  0.00000000000E+00 0. -1.
          1    1    1    2  502    0 -0.55895321492E+02 -0.40729433836E+02  0.17312946614E+04  0.17326754971E+04  0.00000000000E+00 0. -1.
         22    1    3    3    0    0 -0.26613703826E+02 -0.26935885951E+02  0.40255626068E+02  0.55266143465E+02  0.00000000000E+00 0. -1.
         22    1    3    3    0    0  0.11869185568E+03  0.54522991206E+01  0.11638757005E+03  0.16632363221E+03  0.00000000000E+00 0. -1.
</event>
<event>
 7    1  0.5452757E-006  0.1894470E+03  0.7818608E-02  0.1218845E+00
          2   -1    0    0  502    0  0.00000000000E+00  0.00000000000E+00  0.42712808664E+04  0.42712808664E+04  0.00000000000E+00 0. -1.
          1   -1    0    0  501    0 -0.00000000000E+00 -0.00000000000E+00 -0.35880411736E+03  0.35880411736E+03  0.00000000000E+00 0. -1.
         25    2    1    2    0    0  0.90920479250E+02 -0.20310921634E+03 -0.96234851403E+02  0.27277980527E+03  0.12501115242E+03 0.  0.
          2    1    1    2  501    0  0.36453376716E+01  0.17895842072E+03 -0.12761359221E+03  0.21982864634E+03  0.00000000000E+00 0. -1.
          1    1    1    2  502    0 -0.94565816921E+02  0.24150795616E+02  0.41363251926E+04  0.41374765321E+04  0.00000000000E+00 0. -1.
         22    1    3    3    0    0  0.60151772313E+02 -0.16838856209E+03 -0.12502173794E+03  0.21818198485E+03  0.00000000000E+00 0. -1.
         22    1    3    3    0    0  0.30768706937E+02 -0.34720654252E+02  0.28786886538E+02  0.54597820422E+02  0.00000000000E+00 0. -1.
</event>
<event>
 7    1  0.5452757E-006  0.7001257E+02  0.7818608E-02  0.1471797E+00
          2   -1    0    0  502    0  0.00000000000E+00  0.00000000000E+00  0.28802074235E+03  0.28802074235E+03  0.00000000000E+00 0. -1.
          1   -1    0    0  501    0 -0.00000000000E+00 -0.00000000000E+00 -0.36251038305E+03  0.36251038305E+03  0.00000000000E+00 0. -1.
         25    2    1    2    0    0  0.39199033516E+02 -0.14378638476E+02 -0.22342956257E+03  0.25940454961E+03  0.12500656565E+03 0.  0.
          2    1    1    2  501    0  0.23883275648E+02 -0.17235753808E+02 -0.11458952060E+03  0.11831415932E+03  0.00000000000E+00 0. -1.
          1    1    1    2  502    0 -0.63082309164E+02  0.31614392285E+02  0.26352944247E+03  0.27281241647E+03  0.00000000000E+00 0. -1.
         22    1    3    3    0    0  0.32180404030E+02 -0.62657793208E+02 -0.73788129119E+02  0.10201110455E+03  0.00000000000E+00 0.  1.
         22    1    3    3    0    0  0.70186294860E+01  0.48279154732E+02 -0.14964143345E+03  0.15739344506E+03  0.00000000000E+00 0.  1.
</event>
<event>
 7    1  0.5452757E-006  0.7837617E+02  0.7818608E-02  0.1372415E+00
          2   -1    0    0  502    0  0.00000000000E+00  0.00000000000E+00  0.36489810943E+04  0.36489810943E+04  0.00000000000E+00 0. -1.
          1   -1    0    0  501    0 -0.00000000000E+00 -0.00000000000E+00 -0.62355640663E+01  0.62355640663E+01  0.00000000000E+00 0. -1.
         25    2    1    2    0    0 -0.53095017499E+02  0.53990972308E+02  0.23976604964E+04  0.24021105981E+04  0.12500145462E+03 0.  0.
          2    1    1    2  501    0  0.82973677746E+02 -0.61273549558E+01  0.63738197816E+03  0.64278920477E+03  0.00000000000E+00 0. -1.
          1    1    1    2  502    0 -0.29878660247E+02 -0.47863617352E+02  0.60770305569E+03  0.61031685550E+03  0.00000000000E+00 0. -1.
         22    1    3    3    0    0  0.14868151163E+02  0.73505526837E+02  0.11402253692E+04  0.11426889415E+04  0.00000000000E+00 0.  1.
         22    1    3    3    0    0 -0.67963168662E+02 -0.19514554529E+02  0.12574351272E+04  0.12594216566E+04  0.00000000000E+00 0.  1.
</event>
<event>
 7    1  0.5452757E-006  0.2942557E+03  0.7818608E-02  0.1237396E+00
          2   -1    0    0  502    0  0.00000000000E+00  0.00000000000E+00  0.12491674249E+04  0.12491674249E+04  0.00000000000E+00 0. -1.
          1   -1    0    0  501    0 -0.00000000000E+00 -0.00000000000E+00 -0.31162518144E+03  0.31162518144E+03  0.00000000000E+00 0. -1.
         25    2    1    2    0    0  0.25632371730E+03 -0.48898558640E+02  0.40767169226E+03  0.49991457062E+03  0.12500180866E+03 0.  0.
          2    1    1    2  501    0 -0.30008856985E+03  0.21089914276E+02 -0.17903840535E+03  0.35007525595E+03  0.00000000000E+00 0. -1.
          1    1    1    2  502    0  0.43764852553E+02  0.27808644365E+02  0.70890895658E+03  0.71080277978E+03  0.00000000000E+00 0. -1.
         22    1    3    3    0    0 -0.44924467883E+01 -0.26674710778E+01  0.72610398608E+02  0.72798128177E+02  0.00000000000E+00 0. -1.
         22    1    3    3    0    0  0.26081616409E+03 -0.46231087562E+02  0.33506129365E+03  0.42711644245E+03  0.00000000000E+00 0. -1.
</event>
<event>
 7    1  0.5452757E-006  0.3423958E+02  0.7818608E-02  0.1603853E+00
          2   -1    0    0  502    0  0.00000000000E+00  0.00000000000E+00  0.18191010023E+04  0.18191010023E+04  0.00000000000E+00 0. -1.
          1   -1    0    0  501    0 -0.00000000000E+00 -0.00000000000E+00 -0.39010007653E+03  0.39010007653E+03  0.00000000000E+00 0. -1.
         25    2    1    2    0    0  0.93505411980E+01  0.35971109857E+01  0.10382454807E+03  0.16280460602E+03  0.12500172452E+03 0.  0.
          2    1    1    2  501    0 -0.34387429729E+02  0.62605210058E+00 -0.35969411823E+03  0.36133467306E+03  0.00000000000E+00 0. -1.
          1    1    1    2  502    0  0.25036888531E+02 -0.42231630862E+01  0.16848704959E+04  0.16850617997E+04  0.00000000000E+00 0. -1.
         22    1    3    3    0    0 -0.22077288855E+02  0.28826744188E+02  0.11531524483E+03  0.12089662342E+03  0.00000000000E+00 0. -1.
         22    1    3    3    0    0  0.31427830053E+02 -0.25229633202E+02 -0.11490696766E+02  0.41907982599E+02  0.00000000000E+00 0. -1.
</event>
<event>
 7    1  0.5452757E-006  0.5715360E+02  0.7818608E-02  0.1456652E+00
          2   -1    0    0  502    0  0.00000000000E+00  0.00000000000E+00  0.93116298136E+03  0.93116298136E+03  0.00000000000E+00 0. -1.
          1   -1    0    0  501    0 -0.00000000000E+00 -0.00000000000E+00 -0.86209176134E+03  0.86209176134E+03  0.00000000000E+00 0. -1.
         25    2    1    2    0    0  0.83045347215E+02 -0.44588732888E+02  0.33479183683E+03  0.36958694328E+03  0.12499699933E+03 0.  0.
          2    1    1    2  501    0 -0.33126251964E+02  0.22861528754E+02 -0.84293310899E+03  0.84389349109E+03  0.00000000000E+00 0. -1.
          1    1    1    2  502    0 -0.49919095250E+02  0.21727204134E+02  0.57721249218E+03  0.57977430833E+03  0.00000000000E+00 0. -1.
         22    1    3    3    0    0  0.67197847856E+02 -0.73646953174E+02  0.31637050143E+03  0.33170727855E+03  0.00000000000E+00 0. -1.
         22    1    3    3    0    0  0.15847499359E+02  0.29058220286E+02  0.18421335399E+02  0.37879664729E+02  0.00000000000E+00 0. -1.
</event>
<event>
 7    1  0.5452757E-006  0.2062815E+03  0.7818608E-02  0.1303568E+00
          2   -1    0    0  502    0  0.00000000000E+00  0.00000000000E+00  0.84065359343E+02  0.84065359343E+02  0.00000000000E+00 0. -1.
          1   -1    0    0  501    0 -0.00000000000E+00 -0.00000000000E+00 -0.10027613571E+04  0.10027613571E+04  0.00000000000E+00 0. -1.
         25    2    1    2    0    0 -0.47379182023E+02  0.20489121996E+03 -0.26815024523E+03  0.36298067065E+03  0.12500085737E+03 0.  0.
          2    1    1    2  501    0  0.83774185757E+01 -0.20567945392E+03 -0.65308032527E+03  0.68475406546E+03  0.00000000000E+00 0. -1.
          1    1    1    2  502    0  0.39001763448E+02  0.78823396022E+00  0.25345727735E+01  0.39091980302E+02  0.00000000000E+00 0. -1.
         22    1    3    3    0    0  0.26149642851E+02  0.53863296817E+02 -0.19618636709E+02  0.63007535038E+02  0.00000000000E+00 0.  1.
         22    1    3    3    0    0 -0.73528824874E+02  0.15102792314E+03 -0.24853160852E+03  0.29997313561E+03  0.00000000000E+00 0.  1.
</event>
<event>
 7    1  0.5452757E-006  0.1135937E+03  0.7818608E-02  0.1301871E+00
          2   -1    0    0  502    0  0.00000000000E+00  0.00000000000E+00  0.14053805075E+04  0.14053805075E+04  0.00000000000E+00 0. -1.
          1   -1    0    0  501    0 -0.00000000000E+00 -0.00000000000E+00 -0.11048834692E+03  0.11048834692E+03  0.00000000000E+00 0. -1.
         25    2    1    2    0    0  0.68863013781E+02  0.57585412081E+02  0.59890464799E+03  0.61836041421E+03  0.12499852053E+03 0.  0.
          2    1    1    2  501    0 -0.11591881158E+03 -0.31533207352E+01 -0.65128241767E+02  0.13299925634E+03  0.00000000000E+00 0. -1.
          1    1    1    2  502    0  0.47055797803E+02 -0.54432091346E+02  0.76111575441E+03  0.76450918391E+03  0.00000000000E+00 0. -1.
         22    1    3    3    0    0  0.37374294043E+02  0.47719467716E+02  0.57355609102E+03  0.57675001083E+03  0.00000000000E+00 0.  1.
         22    1    3    3    0    0  0.31488719738E+02  0.98659443647E+01  0.25348556972E+02  0.41610403381E+02  0.00000000000E+00 0.  1.
</event>
<event>
 7    1  0.5452757E-006  0.7554723E+02  0.7818608E-02  0.1381251E+00
          2   -1    0    0  502    0  0.00000000000E+00  0.00000000000E+00  0.24744432896E+04  0.24744432896E+04  0.00000000000E+00 0. -1.
          1   -1    0    0  501    0 -0.00000000000E+00 -0.00000000000E+00 -0.27464968386E+03  0.27464968386E+03  0.00000000000E+00 0. -1.
         25    2    1    2    0    0 -0.60009970465E+02 -0.16776010304E+02  0.80413117982E+03  0.81617030737E+03  0.12499754073E+03 0.  0.
          2    1    1    2  501    0  0.36981728788E+02  0.66115306803E+02 -0.26283357493E+03  0.27353312444E+03  0.00000000000E+00 0. -1.
          1    1    1    2  502    0  0.23028241676E+02 -0.49339296499E+02  0.16584960008E+04  0.16593895416E+04  0.00000000000E+00 0. -1.
         22    1    3    3    0    0  0.31129229170E+02 -0.28624405159E+02  0.15909678251E+03  0.16462129778E+03  0.00000000000E+00 0.  1.
         22    1    3    3    0    0 -0.91139199635E+02  0.11848394856E+02  0.64503439731E+03  0.65154900958E+03  0.00000000000E+00 0.  1.
</event>
<event>
 7    1  0.5452757E-006  0.1695963E+03  0.7818608E-02  0.1265697E+00
          2   -1    0    0  502    0  0.00000000000E+00  0.00000000000E+00  0.18560730472E+04  0.18560730472E+04  0.00000000000E+00 0. -1.
          1   -1    0    0  501    0 -0.00000000000E+00 -0.00000000000E+00 -0.31516573037E+03  0.31516573037E+03  0.00000000000E+00 0. -1.
         25    2    1    2    0    0 -0.50132901787E+02  0.16566131728E+03  0.11092506377E+03  0.24059845684E+03  0.12500507102E+03 0.  0.
          2    1    1    2  501    0  0.10891207371E+03 -0.13175539571E+03 -0.22036738547E+03  0.27889623281E+03  0.00000000000E+00 0. -1.
          1    1    1    2  502    0 -0.58779171924E+02 -0.33905921567E+02  0.16503496385E+04  0.16517440879E+04  0.00000000000E+00 0. -1.
         22    1    3    3    0    0 -0.62914342387E+02  0.35250325573E+02  0.53343190113E+01  0.72313587177E+02  0.00000000000E+00 0.  1.
         22    1    3    3    0    0  0.12781440600E+02  0.13041099170E+03  0.10559074476E+03  0.16828486967E+03  0.00000000000E+00 0.  1.
</event>
<event>
 7    1  0.5452757E-006  0.2220039E+03  0.7818608E-02  0.1314507E+00
          2   -1    0    0  502    0  0.00000000000E+00  0.00000000000E+00  0.12513104617E+04  0.12513104617E+04  0.00000000000E+00 0. -1.
          1   -1    0    0  501    0 -0.00000000000E+00 -0.00000000000E+00 -0.16843284878E+04  0.16843284878E+04  0.00000000000E+00 0. -1.
         25    2    1    2    0    0  0.21500469640E+03  0.26690048907E+02  0.87521013910E+03  0.91025123312E+03  0.12500056652E+03 0.  0.
          2    1    1    2  501    0 -0.21395089815E+03 -0.59489930336E+02 -0.16586413980E+04  0.16734411629E+04  0.00000000000E+00 0. -1.
          1    1    1    2  502    0 -0.10537982452E+01  0.32799881429E+02  0.35041323285E+03  0.35194655343E+03  0.00000000000E+00 0. -1.
         22    1    3    3    0    0  0.10073963908E+02 -0.22175930045E+02  0.23520178554E+03  0.23645958755E+03  0.00000000000E+00 0. -1.
         22    1    3    3    0    0  0.20493073249E+03  0.48865978952E+02  0.64000835356E+03  0.67379164557E+03  0.00000000000E+00 0. -1.
</event>
<event>
 7    1  0.5452757E-006  0.5687929E+02  0.7818608E-02  0.1443376E+00
          2   -1    0    0  502    0  0.00000000000E+00  0.00000000000E+00  0.65826838681E+03  0.65826838681E+03  0.00000000000E+00 0. -1.
          1   -1    0    0  501    0 -0.00000000000E+00 -0.00000000000E+00 -0.65332483503E+03  0.65332483503E+03  0.00000000000E+00 0. -1.
         25    2    1    2    0    0  0.40762339831E+02 -0.24554533075E+01  0.14341472269E+03  0.19454214840E+03  0.12494505680E+03 0.  0.
          2    1    1    2  501    0  0.44089422354E+00  0.44596747674E+02 -0.62518904596E+03  0.62677779753E+03  0.00000000000E+00 0. -1.
          1    1    1    2  502    0 -0.41203234054E+02 -0.42141294366E+02  0.48671787504E+03  0.49027327591E+03  0.00000000000E+00 0. -1.
         22    1    3    3    0    0  0.83696832119E+02  0.13705130767E+02  0.10281609194E+03  0.13328217840E+03  0.00000000000E+00 0. -1.
         22    1    3    3    0    0 -0.42934492289E+02 -0.16160584074E+02  0.40598630755E+02  0.61259970004E+02  0.00000000000E+00 0. -1.
</event>
<event>
 7    1  0.5452757E-006  0.8290813E+02  0.7818608E-02  0.1333520E+00
          2   -1    0    0  502    0  0.00000000000E+00  0.00000000000E+00  0.14997185282E+04  0.14997185282E+04  0.00000000000E+00 0. -1.
          1   -1    0    0  501    0 -0.00000000000E+00 -0.00000000000E+00 -0.24995000216E+02  0.24995000216E+02  0.00000000000E+00 0. -1.
         25    2    1    2    0    0  0.10547710723E+03  0.46690193244E+02  0.78134570925E+03  0.79964457425E+03  0.12499973386E+03 0.  0.
          2    1    1    2  501    0 -0.36041833531E+02 -0.72918668924E+02  0.10904168185E+03  0.13603762135E+03  0.00000000000E+00 0. -1.
          1    1    1    2  502    0 -0.69435273701E+02  0.26228475680E+02  0.58433613689E+03  0.58903133282E+03  0.00000000000E+00 0. -1.
         22    1    3    3    0    0  0.60739939273E+02 -0.38896992301E+02  0.28453654508E+03  0.29353596324E+03  0.00000000000E+00 0. -1.
         22    1    3    3    0    0  0.44737167960E+02  0.85587185545E+02  0.49680916418E+03  0.50610861101E+03  0.00000000000E+00 0. -1.
</event>
<event>
 7    1  0.5452757E-006  0.1859742E+03  0.7818608E-02  0.1215674E+00
          2   -1    0    0  502    0  0.00000000000E+00  0.00000000000E+00  0.27154869096E+04  0.27154869096E+04  0.00000000000E+00 0. -1.
          1   -1    0    0  501    0 -0.00000000000E+00 -0.00000000000E+00 -0.96215477569E+03  0.96215477569E+03  0.00000000000E+00 0. -1.
         25    2    1    2    0    0  0.79962275331E+02  0.25316610712E+03  0.68093631596E+03  0.74147630754E+03  0.12500321987E+03 0.  0.
          2    1    1    2  501    0 -0.68108836484E+02 -0.77006044643E+02 -0.92514375056E+03  0.93083817268E+03  0.00000000000E+00 0. -1.
          1    1    1    2  502    0 -0.11853438847E+02 -0.17616006248E+03  0.19975395685E+04  0.20053272050E+04  0.00000000000E+00 0. -1.
         22    1    3    3    0    0  0.83137975400E+02  0.18269908177E+03  0.60682804762E+03  0.63916442080E+03  0.00000000000E+00 0. -1.
         22    1    3    3    0    0 -0.31757000685E+01  0.70467025346E+02  0.74108268336E+02  0.10231188674E+03  0.00000000000E+00 0. -1.
</event>
<event>
 7    1  0.5452757E-006  0.3769239E+03  0.7818608E-02  0.1163161E+00
          2   -1    0    0  502    0  0.00000000000E+00  0.00000000000E+00  0.60948740269E+03  0.60948740269E+03  0.00000000000E+00 0. -1.
          1   -1    0    0  501    0 -0.00000000000E+00 -0.00000000000E+00 -0.11022559795E+04  0.11022559795E+04  0.00000000000E+00 0. -1.
         25    2    1    2    0    0  0.16370587646E+03  0.26912561835E+03 -0.72546004396E+02  0.34657649694E+03  0.12499653210E+03 0.  0.
          2    1    1    2  501    0  0.67674284359E+02  0.60363342883E+02 -0.80390802427E+03  0.80900658428E+03  0.00000000000E+00 0. -1.
          1    1    1    2  502    0 -0.23138016082E+03 -0.32948896123E+03  0.38368545186E+03  0.55616030096E+03  0.00000000000E+00 0. -1.
         22    1    3    3    0    0  0.10113090089E+03  0.22000550681E+03 -0.49530355855E+01  0.24218673519E+03  0.00000000000E+00 0. -1.
         22    1    3    3    0    0  0.62574975571E+02  0.49120111540E+02 -0.67592968811E+02  0.10438976175E+03  0.00000000000E+00 0. -1.
</event>
<event>
 7    1  0.5452757E-006  0.1133553E+03  0.7818608E-02  0.1428164E+00
          2   -1    0    0  502    0  0.00000000000E+00  0.00000000000E+00  0.44364129496E+03  0.44364129496E+03  0.00000000000E+00 0. -1.
          1   -1    0    0  501    0 -0.00000000000E+00 -0.00000000000E+00 -0.22051286705E+03  0.22051286705E+03  0.00000000000E+00 0. -1.
         25    2    1    2    0    0  0.28327283078E+01  0.10721657422E+03  0.39790678495E+02  0.16942633492E+03  0.12497426428E+03 0.  0.
          2    1    1    2  501    0 -0.24521359207E+02  0.53127184916E+01 -0.14490170491E+03  0.14705790057E+03  0.00000000000E+00 0. -1.
          1    1    1    2  502    0  0.21688630900E+02 -0.11252929271E+03  0.32823945432E+03  0.34766992652E+03  0.00000000000E+00 0. -1.
         22    1    3    3    0    0 -0.79603685182E+01  0.10804092243E+03  0.75542687589E+02  0.13207159435E+03  0.00000000000E+00 0. -1.
         22    1    3    3    0    0  0.10793096826E+02 -0.82434820382E+00 -0.35752009094E+02  0.37354740573E+02  0.00000000000E+00 0. -1.
</event>
<event>
 7    1  0.5452757E-006  0.7240336E+02  0.7818608E-02  0.1396010E+00
          2   -1    0    0  502    0  0.00000000000E+00  0.00000000000E+00  0.25838453745E+04  0.25838453745E+04  0.00000000000E+00 0. -1.
          1   -1    0    0  501    0 -0.00000000000E+00 -0.00000000000E+00 -0.10079798698E+03  0.10079798698E+03  0.00000000000E+00 0. -1.
         25    2    1    2    0    0  0.28124963223E+02  0.49772332317E+02  0.13980191353E+03  0.19605438728E+03  0.12499779648E+03 0.  0.
          2    1    1    2  501    0  0.16088809485E+02 -0.74063145992E+02 -0.52572985051E+02  0.92239460873E+02  0.00000000000E+00 0. -1.
          1    1    1    2  502    0 -0.44213772708E+02  0.24290813675E+02  0.23958184591E+04  0.23963495134E+04  0.00000000000E+00 0. -1.
         22    1    3    3    0    0  0.10979347804E+02 -0.42347339521E+02  0.44952681913E+02  0.62726285192E+02  0.00000000000E+00 0. -1.
         22    1    3    3    0    0  0.17145615419E+02  0.92119671838E+02  0.94849231615E+02  0.13332810209E+03  0.00000000000E+00 0. -1.
</event>
<event>
 7    1  0.5452757E-006  0.7255686E+02  0.7818608E-02  0.1371854E+00
          2   -1    0    0  502    0  0.00000000000E+00  0.00000000000E+00  0.26451626031E+03  0.26451626031E+03  0.00000000000E+00 0. -1.
          1   -1    0    0  501    0 -0.00000000000E+00 -0.00000000000E+00 -0.21070099828E+03  0.21070099828E+03  0.00000000000E+00 0. -1.
         25    2    1    2    0    0  0.10474399762E+03 -0.58664369530E+02  0.55698968935E+02  0.18204433407E+03  0.12499980455E+03 0.  0.
          2    1    1    2  501    0 -0.38458648021E+02  0.47647544762E+02 -0.13267900823E+03  0.14612691523E+03  0.00000000000E+00 0. -1.
          1    1    1    2  502    0 -0.66285349594E+02  0.11016824768E+02  0.13079530132E+03  0.14704600929E+03  0.00000000000E+00 0. -1.
         22    1    3    3    0    0  0.53058625572E+02 -0.92386489134E+02  0.13747257010E+02  0.10742191675E+03  0.00000000000E+00 0.  1.
         22    1    3    3    0    0  0.51685372043E+02  0.33722119604E+02  0.41951711925E+02  0.74622417324E+02  0.00000000000E+00 0.  1.
</event>
<event>
 7    1  0.5452757E-006  0.1127645E+03  0.7818608E-02  0.1346625E+00
          2   -1    0    0  502    0  0.00000000000E+00  0.00000000000E+00  0.26009805061E+04  0.26009805061E+04  0.00000000000E+00 0. -1.
          1   -1    0    0  501    0 -0.00000000000E+00 -0.00000000000E+00 -0.65230830117E+03  0.65230830117E+03  0.00000000000E+00 0. -1.
         25    2    1    2    0    0 -0.65035984883E+02  0.13437331192E+03  0.63594120211E+03  0.66507992350E+03  0.12499690323E+03 0.  0.
          2    1    1    2  501    0  0.22741911392E+02 -0.11019783462E+03 -0.63246845844E+03  0.64239949269E+03  0.00000000000E+00 0. -1.
          1    1    1    2  502    0  0.42294073491E+02 -0.24175477303E+02  0.19451994612E+04  0.19458093910E+04  0.00000000000E+00 0. -1.
         22    1    3    3    0    0 -0.94144529459E+02  0.56012008810E+02  0.31831118567E+03  0.33663414633E+03  0.00000000000E+00 0. -1.
         22    1    3    3    0    0  0.29108544576E+02  0.78361303108E+02  0.31763001644E+03  0.32844577716E+03  0.00000000000E+00 0. -1.
</event>
<event>
 7    1  0.5452757E-006  0.2133696E+03  0.7818608E-02  0.1146317E+00
          2   -1    0    0  502    0  0.00000000000E+00  0.00000000000E+00  0.50692298322E+03  0.50692298322E+03  0.00000000000E+00 0. -1.
          1   -1    0    0  501    0 -0.00000000000E+00 -0.00000000000E+00 -0.10494587860E+04  0.10494587860E+04  0.00000000000E+00 0. -1.
         25    2    1    2    0    0 -0.19428972859E+03 -0.14449701190E+03  0.67862012489E+01  0.27258197693E+03  0.12500798589E+03 0.  0.
          2    1    1    2  501    0  0.17871683924E+03 -0.78636018171E+02 -0.87065645707E+03  0.89228134477E+03  0.00000000000E+00 0. -1.
          1    1    1    2  502    0  0.15572889352E+02  0.22313303007E+03  0.32133445308E+03  0.39151844749E+03  0.00000000000E+00 0. -1.
         22    1    3    3    0    0 -0.20968847774E+03 -0.14799328801E+03  0.76466454396E+01  0.25676787607E+03  0.00000000000E+00 0.  1.
         22    1    3    3    0    0  0.15398749148E+02  0.34962761124E+01 -0.86044419072E+00  0.15814100865E+02  0.00000000000E+00 0.  1.
</event>
<event>
 7    1  0.7234938E-006  0.9781744E+02  0.7818608E-02  0.1405621E+00
          2   -1    0    0  502    0  0.00000000000E+00  0.00000000000E+00  0.14823532766E+04  0.14823532766E+04  0.00000000000E+00 0. -1.
          1   -1    0    0  501    0 -0.00000000000E+00 -0.00000000000E+00 -0.87358379223E+03  0.87358379223E+03  0.00000000000E+00 0. -1.
         25    2    1    2    0    0  0.34165965470E+02 -0.11410322801E+03 -0.39127377367E+03  0.42767636311E+03  0.12500018303E+03 0.  0.
          2    1    1    2  501    0 -0.30460971651E+02  0.16425846473E+02 -0.46182915337E+03  0.46312400729E+03  0.00000000000E+00 0. -1.
          1    1    1    2  502    0 -0.37049938186E+01  0.97677381539E+02  0.14618724114E+04  0.14651366985E+04  0.00000000000E+00 0. -1.
         22    1    3    3    0    0 -0.38103858768E+02 -0.51539424754E+02 -0.24260593215E+03  0.25092997962E+03  0.00000000000E+00 0.  1.
         22    1    3    3    0    0  0.72269824238E+02 -0.62563803258E+02 -0.14866784152E+03  0.17674638349E+03  0.00000000000E+00 0.  1.
</event>
<event>
 7    1  0.5452757E-006  0.1796889E+03  0.7818608E-02  0.1289221E+00
          2   -1    0    0  502    0  0.00000000000E+00  0.00000000000E+00  0.55733252870E+03  0.55733252870E+03  0.00000000000E+00 0. -1.
          1   -1    0    0  501    0 -0.00000000000E+00 -0.00000000000E+00 -0.46992071713E+03  0.46992071713E+03  0.00000000000E+00 0. -1.
         25    2    1    2    0    0 -0.35924004038E+02  0.22476717578E+03 -0.27875456139E+03  0.38097324597E+03  0.12500276506E+03 0.  0.
          2    1    1    2  501    0 -0.60561242050E+00 -0.51149899758E+02 -0.11908758050E+03  0.12960914644E+03  0.00000000000E+00 0. -1.
          1    1    1    2  502    0  0.36529616458E+02 -0.17361727602E+03  0.48525395347E+03  0.51667085341E+03  0.00000000000E+00 0. -1.
         22    1    3    3    0    0 -0.67279542774E+02  0.19377070605E+03 -0.18029752600E+03  0.27309489428E+03  0.00000000000E+00 0. -1.
         22    1    3    3    0    0  0.31355538737E+02  0.30996469731E+02 -0.98457035388E+02  0.10787835169E+03  0.00000000000E+00 0. -1.
</event>
<event>
 7    1  0.5452757E-006  0.3264946E+02  0.7818608E-02  0.1586084E+00
          2   -1    0    0  502    0  0.00000000000E+00  0.00000000000E+00  0.14015332924E+04  0.14015332924E+04  0.00000000000E+00 0. -1.
          1   -1    0    0  501    0 -0.00000000000E+00 -0.00000000000E+00 -0.56220135942E+03  0.56220135942E+03  0.00000000000E+00 0. -1.
         25    2    1    2    0    0  0.21935189453E+02 -0.31953322831E+02  0.49288642972E+03  0.50996478626E+03  0.12499953295E+03 0.  0.
          2    1    1    2  501    0 -0.32384321866E+02  0.42033417197E+01 -0.55293610541E+03  0.55389958390E+03  0.00000000000E+00 0. -1.
          1    1    1    2  502    0  0.10449132413E+02  0.27749981112E+02  0.89938160862E+03  0.89987028162E+03  0.00000000000E+00 0. -1.
         22    1    3    3    0    0  0.43928362127E+01 -0.44053129634E+02  0.50877910171E+02  0.67442842347E+02  0.00000000000E+00 0. -1.
         22    1    3    3    0    0  0.17542353240E+02  0.12099806803E+02  0.44200851955E+03  0.44252194391E+03  0.00000000000E+00 0. -1.
</event>
<event>
 7    1  0.5452757E-006  0.1833896E+03  0.7818608E-02  0.1388132E+00
          2   -1    0    0  502    0  0.00000000000E+00  0.00000000000E+00  0.22066506654E+04  0.22066506654E+04  0.00000000000E+00 0. -1.
          1   -1    0    0  501    0 -0.00000000000E+00 -0.00000000000E+00 -0.11601386087E+04  0.11601386087E+04  0.00000000000E+00 0. -1.
         25    2    1    2    0    0 -0.11923254041E+03 -0.11615105245E+03 -0.30004049524E+03  0.36518004416E+03  0.12499880076E+03 0.  0.
          2    1    1    2  501    0 -0.21097033985E+02 -0.22279469053E+01 -0.82351560582E+03  0.82378880887E+03  0.00000000000E+00 0. -1.
          1    1    1    2  502    0  0.14032957440E+03  0.11837899936E+03  0.21700681578E+04  0.21778204211E+04  0.00000000000E+00 0. -1.
         22    1    3    3    0    0 -0.13574308489E+03 -0.12372750443E+03 -0.29276860354E+03  0.34561269604E+03  0.00000000000E+00 0.  1.
         22    1    3    3    0    0  0.16510544476E+02  0.75764519770E+01 -0.72718916953E+01  0.19567348116E+02  0.00000000000E+00 0.  1.
</event>
<event>
 7    1  0.5452757E-006  0.5992214E+02  0.7818608E-02  0.1432642E+00
          2   -1    0    0  502    0  0.00000000000E+00  0.00000000000E+00  0.36026615770E+03  0.36026615770E+03  0.00000000000E+00 0. -1.
          1   -1    0    0  501    0 -0.00000000000E+00 -0.00000000000E+00 -0.14683091952E+03  0.14683091952E+03  0.00000000000E+00 0. -1.
         25    2    1    2    0    0 -0.62237254931E+02  0.52805580605E+02  0.45164195360E+02  0.15597069791E+03  0.12500059528E+03 0.  0.
          2    1    1    2  501    0  0.16516102140E+02 -0.56624481167E+02 -0.79584809483E+02  0.99059857651E+02  0.00000000000E+00 0. -1.
          1    1    1    2  502    0  0.45721152791E+02  0.38189005617E+01  0.24785585231E+03  0.25206652165E+03  0.00000000000E+00 0. -1.
         22    1    3    3    0    0 -0.12240972259E+02  0.80783711671E+02 -0.20485894640E+01  0.81731549551E+02  0.00000000000E+00 0. -1.
         22    1    3    3    0    0 -0.49996282672E+02 -0.27978131065E+02  0.47212784824E+02  0.74239148364E+02  0.00000000000E+00 0. -1.
</event>
<event>
 7    1  0.5452757E-006  0.5398973E+02  0.7818608E-02  0.1439019E+00
          2   -1    0    0  502    0  0.00000000000E+00  0.00000000000E+00  0.17974269352E+03  0.17974269352E+03  0.00000000000E+00 0. -1.
          1   -1    0    0  501    0 -0.00000000000E+00 -0.00000000000E+00 -0.13755050548E+04  0.13755050548E+04  0.00000000000E+00 0. -1.
         25    2    1    2    0    0 -0.11654300290E+02 -0.87135517438E+01 -0.77310451033E+03  0.78328034471E+03  0.12500306323E+03 0.  0.
          2    1    1    2  501    0  0.17713714821E+02 -0.45190455585E+02 -0.59208375852E+03  0.59406997068E+03  0.00000000000E+00 0. -1.
          1    1    1    2  502    0 -0.60594145315E+01  0.53904007329E+02  0.16942590753E+03  0.17789743296E+03  0.00000000000E+00 0. -1.
         22    1    3    3    0    0 -0.59138123355E+02  0.24386232296E+02 -0.50245504615E+03  0.50651069027E+03  0.00000000000E+00 0.  1.
         22    1    3    3    0    0  0.47483823065E+02 -0.33099784039E+02 -0.27064946419E+03  0.27676965444E+03  0.00000000000E+00 0.  1.
</event>
<event>
 7    1  0.5452757E-006  0.7347324E+02  0.7818608E-02  0.1445995E+00
          2   -1    0    0  502    0  0.00000000000E+00  0.00000000000E+00  0.32937677439E+04  0.32937677439E+04  0.00000000000E+00 0. -1.
          1   -1    0    0  501    0 -0.00000000000E+00 -0.00000000000E+00 -0.12391271384E+02  0.12391271384E+02  0.00000000000E+00 0. -1.
         25    2    1    2    0    0  0.14783777471E+02  0.52186235583E+02  0.67770655157E+03  0.69127006466E+03  0.12500467586E+03 0.  0.
          2    1    1    2  501    0  0.33349170078E+02  0.58681135415E+01  0.51681723369E+02  0.61786749646E+02  0.00000000000E+00 0. -1.
          1    1    1    2  502    0 -0.48132947549E+02 -0.58054349125E+02  0.25519881976E+04  0.25531022010E+04  0.00000000000E+00 0. -1.
         22    1    3    3    0    0 -0.55281640032E+02  0.20598338835E+02  0.32124978025E+03  0.32662175769E+03  0.00000000000E+00 0.  1.
         22    1    3    3    0    0  0.70065417504E+02  0.31587896748E+02  0.35645677132E+03  0.36464830697E+03  0.00000000000E+00 0.  1.
</event>
<event>
 7    1  0.5452757E-006  0.1262855E+03  0.7818608E-02  0.1244901E+00
          2   -1    0    0  502    0  0.00000000000E+00  0.00000000000E+00  0.55456360933E+03  0.55456360933E+03  0.00000000000E+00 0. -1.
          1   -1    0    0  501    0 -0.00000000000E+00 -0.00000000000E+00 -0.18053822028E+04  0.18053822028E+04  0.00000000000E+00 0. -1.
         25    2    1    2    0    0  0.82499974325E+02  0.22213018077E+03  0.29347337623E+03  0.39736614846E+03  0.12500068164E+03 0.  0.
          2    1    1    2  501    0 -0.35877362195E+02 -0.12032759019E+03 -0.17360174870E+04  0.17405523919E+04  0.00000000000E+00 0. -1.
          1    1    1    2  502    0 -0.46622612130E+02 -0.10180259058E+03  0.19172551728E+03  0.22202727172E+03  0.00000000000E+00 0. -1.
         22    1    3    3    0    0 -0.67302694621E+00 -0.92024810886E+01  0.51874277654E+02  0.52688512084E+02  0.00000000000E+00 0.  1.
         22    1    3    3    0    0  0.83173001272E+02  0.23133266186E+03  0.24159909857E+03  0.34467763637E+03  0.00000000000E+00 0.  1.
</event>
<event>
 7    1  0.5452757E-006  0.6221637E+02  0.7818608E-02  0.1429363E+00
          2   -1    0    0  502    0  0.00000000000E+00  0.00000000000E+00  0.83346468749E+03  0.83346468749E+03  0.00000000000E+00 0. -1.
          1   -1    0    0  501    0 -0.00000000000E+00 -0.00000000000E+00 -0.62250801441E+03  0.62250801441E+03  0.00000000000E+00 0. -1.
         25    2    1    2    0    0  0.10602503352E+02  0.57862849330E+02 -0.14409024696E+02  0.13890390190E+03  0.12500460616E+03 0.  0.
          2    1    1    2  501    0  0.40044975180E+02 -0.21175907955E+02 -0.54364015221E+03  0.54552418297E+03  0.00000000000E+00 0. -1.
          1    1    1    2  502    0 -0.50647478532E+02 -0.36686941374E+02  0.76900584998E+03  0.77154461702E+03  0.00000000000E+00 0. -1.
         22    1    3    3    0    0 -0.21301490867E+02  0.89381839692E+02 -0.18976830959E+02  0.93824234040E+02  0.00000000000E+00 0. -1.
         22    1    3    3    0    0  0.31903994220E+02 -0.31518990363E+02  0.45678062630E+01  0.45079667864E+02  0.00000000000E+00 0. -1.
</event>
<event>
 7    1  0.5452757E-006  0.5018161E+02  0.7818608E-02  0.1516949E+00
          2   -1    0    0  502    0  0.00000000000E+00  0.00000000000E+00  0.73118297981E+03  0.73118297981E+03  0.00000000000E+00 0. -1.
          1   -1    0    0  501    0 -0.00000000000E+00 -0.00000000000E+00 -0.12571915454E+03  0.12571915454E+03  0.00000000000E+00 0. -1.
         25    2    1    2    0    0 -0.12759930364E+02 -0.25551911988E+02  0.23500795171E+03  0.26771413037E+03  0.12500560869E+03 0.  0.
          2    1    1    2  501    0 -0.37882874793E+01  0.50643272935E+02 -0.10296812480E+03  0.11481083111E+03  0.00000000000E+00 0. -1.
          1    1    1    2  502    0  0.16548217843E+02 -0.25091360947E+02  0.47342399836E+03  0.47437717286E+03  0.00000000000E+00 0. -1.
         22    1    3    3    0    0 -0.32938748835E+02 -0.50318787472E+02  0.45190547016E+02  0.75227169873E+02  0.00000000000E+00 0.  1.
         22    1    3    3    0    0  0.20178818471E+02  0.24766875484E+02  0.18981740470E+03  0.19248696050E+03  0.00000000000E+00 0.  1.
</event>
<event>
 7    1  0.5452757E-006  0.8820012E+02  0.7818608E-02  0.1332559E+00
          2   -1    0    0  502    0  0.00000000000E+00  0.00000000000E+00  0.40135951368E+04  0.40135951368E+04  0.00000000000E+00 0. -1.
          1   -1    0    0  501    0 -0.00000000000E+00 -0.00000000000E+00 -0.82497592195E+03  0.82497592195E+03  0.00000000000E+00 0. -1.
         25    2    1    2    0    0 -0.45436264159E+02 -0.11139654577E+03  0.17812042972E+03  0.24863595022E+03  0.12497721291E+03 0.  0.
          2    1    1    2  501    0  0.74339017528E+02  0.47246616681E+02 -0.78693515142E+03  0.79184939531E+03  0.00000000000E+00 0. -1.
          1    1    1    2  502    0 -0.28902753369E+02  0.64149929087E+02  0.37974339365E+04  0.37980857132E+04  0.00000000000E+00 0. -1.
         22    1    3    3    0    0 -0.25492026430E+02 -0.13231012199E+03  0.10763447450E+03  0.17245576794E+03  0.00000000000E+00 0.  1.
         22    1    3    3    0    0 -0.19944237729E+02  0.20913576224E+02  0.70485955220E+02  0.76180182280E+02  0.00000000000E+00 0.  1.
</event>
<event>
 7    1  0.5452757E-006  0.6225354E+02  0.7818608E-02  0.1439921E+00
          2   -1    0    0  502    0  0.00000000000E+00  0.00000000000E+00  0.29595236151E+03  0.29595236151E+03  0.00000000000E+00 0. -1.
          1   -1    0    0  501    0 -0.00000000000E+00 -0.00000000000E+00 -0.10030818032E+03  0.10030818032E+03  0.00000000000E+00 0. -1.
         25    2    1    2    0    0 -0.89232329704E+02  0.37792943841E+02  0.53509037292E+02  0.16697343527E+03  0.12500478289E+03 0.  0.
          2    1    1    2  501    0  0.48418689475E+02 -0.28710671839E+02 -0.21603585099E+02  0.60294171004E+02  0.00000000000E+00 0. -1.
          1    1    1    2  502    0  0.40813640228E+02 -0.90822720020E+01  0.16373872900E+03  0.16899293555E+03  0.00000000000E+00 0. -1.
         22    1    3    3    0    0 -0.70129794315E+02  0.80563272473E+02  0.18284809027E+02  0.10836495358E+03  0.00000000000E+00 0. -1.
         22    1    3    3    0    0 -0.19102535389E+02 -0.42770328632E+02  0.35224228264E+02  0.58608481693E+02  0.00000000000E+00 0. -1.
</event>
<event>
 7    1  0.5452757E-006  0.1251002E+03  0.7818608E-02  0.1276948E+00
          2   -1    0    0  502    0  0.00000000000E+00  0.00000000000E+00  0.17732839331E+04  0.17732839331E+04  0.00000000000E+00 0. -1.
          1   -1    0    0  501    0 -0.00000000000E+00 -0.00000000000E+00 -0.28126806764E+02  0.28126806764E+02  0.00000000000E+00 0. -1.
         25    2    1    2    0    0 -0.14987263550E+02 -0.78430148177E+02  0.67939001325E+03  0.69539196289E+03  0.12499314277E+03 0.  0.
          2    1    1    2  501    0  0.86279125045E+02  0.12000671775E+03  0.28635775507E+03  0.32225217395E+03  0.00000000000E+00 0. -1.
          1    1    1    2  502    0 -0.71291861494E+02 -0.41576569578E+02  0.77940935801E+03  0.78376660302E+03  0.00000000000E+00 0. -1.
         22    1    3    3    0    0  0.11482391367E+02  0.29415588056E+02  0.84093776169E+02  0.89826974359E+02  0.00000000000E+00 0.  1.
         22    1    3    3    0    0 -0.26469654917E+02 -0.10784573623E+03  0.59529623708E+03  0.60556498853E+03  0.00000000000E+00 0.  1.
</event>
<event>
 7    1  0.5452757E-006  0.5815086E+02  0.7818608E-02  0.1524781E+00
          2   -1    0    0  502    0  0.00000000000E+00  0.00000000000E+00  0.33954933578E+04  0.33954933578E+04  0.00000000000E+00 0. -1.
          1   -1    0    0  501    0 -0.00000000000E+00 -0.00000000000E+00 -0.16025087952E+03  0.16025087952E+03  0.00000000000E+00 0. -1.
         25    2    1    2    0    0 -0.20890582457E+02 -0.48531457922E+02  0.49481235376E+03  0.51308269098E+03  0.12499145373E+03 0.  0.
          2    1    1    2  501    0  0.22527219345E+02 -0.99231563735E+01 -0.14981553414E+03  0.15182436864E+03  0.00000000000E+00 0. -1.
          1    1    1    2  502    0 -0.16366368885E+01  0.58454614295E+02  0.28902456587E+04  0.28908371777E+04  0.00000000000E+00 0. -1.
         22    1    3    3    0    0  0.37061864364E+02  0.10052201277E+02  0.65445946679E+02  0.75880171833E+02  0.00000000000E+00 0.  1.
         22    1    3    3    0    0 -0.57952446821E+02 -0.58583659198E+02  0.42936640708E+03  0.43720251915E+03  0.00000000000E+00 0.  1.
</event>
<event>
 7    1  0.5452757E-006  0.1639672E+03  0.7818608E-02  0.1243729E+00
          2   -1    0    0  502    0  0.00000000000E+00  0.00000000000E+00  0.43515112489E+03  0.43515112489E+03  0.00000000000E+00 0. -1.
          1   -1    0    0  501    0 -0.00000000000E+00 -0.00000000000E+00 -0.56473115675E+03  0.56473115675E+03  0.00000000000E+00 0. -1.
         25    2    1    2    0    0 -0.19369253994E+03 -0.64572845117E+02 -0.31921111580E+02  0.24151191170E+03  0.12499037471E+03 0.  0.
          2    1    1    2  501    0  0.75493007956E+02 -0.43770015215E+02 -0.40361747319E+03  0.41294318392E+03  0.00000000000E+00 0. -1.
          1    1    1    2  502    0  0.11819953198E+03  0.10834286033E+03  0.30595855291E+03  0.34542718603E+03  0.00000000000E+00 0. -1.
         22    1    3    3    0    0 -0.20649118613E+03 -0.63677656534E+02 -0.10252377206E+02  0.21632976015E+03  0.00000000000E+00 0.  1.
         22    1    3    3    0    0  0.12798646187E+02 -0.89518858317E+00 -0.21668734375E+02  0.25182151541E+02  0.00000000000E+00 0.  1.
</event>
<event>
 7    1  0.5452757E-006  0.5574918E+02  0.7818608E-02  0.1479264E+00
          2   -1    0    0  502    0  0.00000000000E+00  0.00000000000E+00  0.28949565653E+04  0.28949565653E+04  0.00000000000E+00 0. -1.
          1   -1    0    0  501    0 -0.00000000000E+00 -0.00000000000E+00 -0.14374873802E+03  0.14374873802E+03  0.00000000000E+00 0. -1.
         25    2    1    2    0    0  0.65522533385E+02  0.38640088057E+02  0.38901709071E+03  0.41562838057E+03  0.12500558022E+03 0.  0.
          2    1    1    2  501    0 -0.10317629392E+02 -0.33524979706E+02 -0.12777085232E+03  0.13249818279E+03  0.00000000000E+00 0. -1.
          1    1    1    2  502    0 -0.55204903993E+02 -0.51151083511E+01  0.24899615889E+04  0.24905787399E+04  0.00000000000E+00 0. -1.
         22    1    3    3    0    0  0.11481105970E+01 -0.23289154134E+02  0.24534848601E+03  0.24645401690E+03  0.00000000000E+00 0.  1.
         22    1    3    3    0    0  0.64374422788E+02  0.61929242191E+02  0.14366860470E+03  0.16917436368E+03  0.00000000000E+00 0.  1.
</event>
<event>
 7    1  0.5452757E-006  0.2218271E+03  0.7818608E-02  0.1334053E+00
          2   -1    0    0  502    0  0.00000000000E+00  0.00000000000E+00  0.14647089227E+03  0.14647089227E+03  0.00000000000E+00 0. -1.
          1   -1    0    0  501    0 -0.00000000000E+00 -0.00000000000E+00 -0.19573375469E+04  0.19573375469E+04  0.00000000000E+00 0. -1.
         25    2    1    2    0    0 -0.10936866384E+03  0.18936513874E+03 -0.38300491475E+03  0.45840852657E+03  0.12499980844E+03 0.  0.
          2    1    1    2  501    0  0.13439575437E+03 -0.17769942572E+03 -0.15266516894E+04  0.15428236080E+04  0.00000000000E+00 0. -1.
          1    1    1    2  502    0 -0.25027090526E+02 -0.11665713019E+02  0.98789949557E+02  0.10257630454E+03  0.00000000000E+00 0. -1.
         22    1    3    3    0    0 -0.43102874902E+02  0.17608695955E+03 -0.30846570345E+03  0.35779262898E+03  0.00000000000E+00 0.  1.
         22    1    3    3    0    0 -0.66265788943E+02  0.13278179193E+02 -0.74539211296E+02  0.10061589759E+03  0.00000000000E+00 0.  1.
</event>
<event>
 7    1  0.5452757E-006  0.1092548E+03  0.7818608E-02  0.1417611E+00
          2   -1    0    0  502    0  0.00000000000E+00  0.00000000000E+00  0.41151852037E+02  0.41151852037E+02  0.00000000000E+00 0. -1.
          1   -1    0    0  501    0 -0.00000000000E+00 -0.00000000000E+00 -0.15198480221E+04  0.15198480221E+04  0.00000000000E+00 0. -1.
         25    2    1    2    0    0  0.99958562129E+02 -0.73852860219E+02 -0.54566519633E+03  0.57342657177E+03  0.12498626972E+03 0.  0.
          2    1    1    2  501    0 -0.35250046520E+01  0.28002211919E+02 -0.85464702011E+03  0.85511290395E+03  0.00000000000E+00 0. -1.
          1    1    1    2  502    0 -0.96433557477E+02  0.45850648300E+02 -0.78383953581E+02  0.13246039837E+03  0.00000000000E+00 0. -1.
         22    1    3    3    0    0  0.46930118612E+02  0.30068850268E+02 -0.23652822735E+03  0.24300653103E+03  0.00000000000E+00 0.  1.
         22    1    3    3    0    0  0.53028443516E+02 -0.10392171049E+03 -0.30913696899E+03  0.33042004075E+03  0.00000000000E+00 0.  1.
</event>
<event>
 7    1  0.5452757E-006  0.5468013E+02  0.7818608E-02  0.1520079E+00
          2   -1    0    0  502    0  0.00000000000E+00  0.00000000000E+00  0.35199702164E+04  0.35199702164E+04  0.00000000000E+00 0. -1.
          1   -1    0    0  501    0 -0.00000000000E+00 -0.00000000000E+00 -0.88426340009E+03  0.88426340009E+03  0.00000000000E+00 0. -1.
         25    2    1    2    0    0 -0.46230050951E+02 -0.58966895101E+02  0.25523893950E+03  0.29391542874E+03  0.12500020274E+03 0.  0.
          2    1    1    2  501    0  0.21771403141E+01  0.26923824861E+02 -0.86448560333E+03  0.86490750410E+03  0.00000000000E+00 0. -1.
          1    1    1    2  502    0  0.44052910636E+02  0.32043070239E+02  0.32449534801E+04  0.32454106836E+04  0.00000000000E+00 0. -1.
         22    1    3    3    0    0  0.90677450305E+01  0.28901882330E+02  0.11802582742E+03  0.12185088732E+03  0.00000000000E+00 0.  1.
         22    1    3    3    0    0 -0.55297795981E+02 -0.87868777431E+02  0.13721311208E+03  0.17206454142E+03  0.00000000000E+00 0.  1.
</event>
<event>
 7    1  0.5452757E-006  0.1318034E+03  0.7818608E-02  0.1384888E+00
          2   -1    0    0  502    0  0.00000000000E+00  0.00000000000E+00  0.10880878196E+03  0.10880878196E+03  0.00000000000E+00 0. -1.
          1   -1    0    0  501    0 -0.00000000000E+00 -0.00000000000E+00 -0.98105322530E+03  0.98105322530E+03  0.00000000000E+00 0. -1.
         25    2    1    2    0    0  0.27927673118E+02 -0.10406441018E+03  0.41322295681E+01  0.16507875484E+03  0.12499825433E+03 0.  0.
          2    1    1    2  501    0 -0.51710045912E+02  0.12284063663E+03 -0.88363098477E+03  0.89362602251E+03  0.00000000000E+00 0. -1.
          1    1    1    2  502    0  0.23782372794E+02 -0.18776226447E+02  0.72543118707E+01  0.31157229915E+02  0.00000000000E+00 0. -1.
         22    1    3    3    0    0 -0.34575971553E+02 -0.32255253938E+01 -0.25153318620E+02  0.42878797331E+02  0.00000000000E+00 0.  1.
         22    1    3    3    0    0  0.62503644671E+02 -0.10083888479E+03  0.29285548188E+02  0.12219995751E+03  0.00000000000E+00 0.  1.
</event>
<event>
 7    1  0.5452757E-006  0.5499155E+02  0.7818608E-02  0.1514764E+00
          2   -1    0    0  502    0  0.00000000000E+00  0.00000000000E+00  0.73173144647E+03  0.73173144647E+03  0.00000000000E+00 0. -1.
          1   -1    0    0  501    0 -0.00000000000E+00 -0.00000000000E+00 -0.24515907427E+04  0.24515907427E+04  0.00000000000E+00 0. -1.
         25    2    1    2    0    0 -0.53764718341E+02  0.61415945869E+02 -0.60799870667E+03  0.62605888426E+03  0.12499894359E+03 0.  0.
          2    1    1    2  501    0  0.34570525330E+02 -0.41258870222E+02 -0.18338989093E+04  0.18346886998E+04  0.00000000000E+00 0. -1.
          1    1    1    2  502    0  0.19194193011E+02 -0.20157075647E+02  0.72203831976E+03  0.72257460511E+03  0.00000000000E+00 0. -1.
         22    1    3    3    0    0  0.30580364202E+02  0.20535180087E+02 -0.34300180423E+03  0.34497404251E+03  0.00000000000E+00 0.  1.
         22    1    3    3    0    0 -0.84345082543E+02  0.40880765782E+02 -0.26499690244E+03  0.28108484175E+03  0.00000000000E+00 0.  1.
</event>
<event>
 7    1  0.5452757E-006  0.6752829E+02  0.7818608E-02  0.1389199E+00
          2   -1    0    0  502    0  0.00000000000E+00  0.00000000000E+00  0.18887995462E+03  0.18887995462E+03  0.00000000000E+00 0. -1.
          1   -1    0    0  501    0 -0.00000000000E+00 -0.00000000000E+00 -0.96716310844E+03  0.96716310844E+03  0.00000000000E+00 0. -1.
         25    2    1    2    0    0 -0.25815638455E+02  0.10586315993E+03 -0.81326902342E+02  0.18469692769E+03  0.12500173692E+03 0.  0.
          2    1    1    2  501    0  0.42683181824E+02 -0.51290563141E+02 -0.82680289075E+03  0.82949116694E+03  0.00000000000E+00 0. -1.
          1    1    1    2  502    0 -0.16867543369E+02 -0.54572596789E+02  0.12984663927E+03  0.14185496843E+03  0.00000000000E+00 0. -1.
         22    1    3    3    0    0 -0.50423930911E+02  0.66497591067E+02  0.81935308306E+01  0.83854853012E+02  0.00000000000E+00 0.  1.
         22    1    3    3    0    0  0.24608292456E+02  0.39365568863E+02 -0.89520433173E+02  0.10084207468E+03  0.00000000000E+00 0.  1.
</event>
<event>
 7    1  0.5452757E-006  0.8348560E+02  0.7818608E-02  0.1385106E+00
          2   -1    0    0  502    0  0.00000000000E+00  0.00000000000E+00  0.17507914742E+04  0.17507914742E+04  0.00000000000E+00 0. -1.
          1   -1    0    0  501    0 -0.00000000000E+00 -0.00000000000E+00 -0.72723573971E+02  0.72723573971E+02  0.00000000000E+00 0. -1.
         25    2    1    2    0    0 -0.74677364141E+02 -0.50845845134E+02  0.10163175235E+04  0.10279535181E+04  0.12500047191E+03 0.  0.
          2    1    1    2  501    0  0.34274019329E+02  0.76300864152E+02 -0.39629254634E+02  0.92558133593E+02  0.00000000000E+00 0. -1.
          1    1    1    2  502    0  0.40403344812E+02 -0.25455019018E+02  0.70137963129E+03  0.70300339647E+03  0.00000000000E+00 0. -1.
         22    1    3    3    0    0 -0.86029778723E+02 -0.53105461428E+02  0.10094382065E+04  0.10144884453E+04  0.00000000000E+00 0. -1.
         22    1    3    3    0    0  0.11352414581E+02  0.22596162943E+01  0.68793170584E+01  0.13465072811E+02  0.00000000000E+00 0. -1.
</event>
<event>
 7    1  0.5452757E-006  0.9919657E+02  0.7818608E-02  0.1312962E+00
          2   -1    0    0  502    0  0.00000000000E+00  0.00000000000E+00  0.22502713815E+04  0.22502713815E+04  0.00000000000E+00 0. -1.
          1   -1    0    0  501    0 -0.00000000000E+00 -0.00000000000E+00 -0.12681531424E+04  0.12681531424E+04  0.00000000000E+00 0. -1.
         25    2    1    2    0    0  0.57708213222E+02  0.25260529634E+02  0.97713100123E+03  0.98710598938E+03  0.12499963388E+03 0.  0.
          2    1    1    2  501    0  0.66846471920E+02 -0.32835149863E+02 -0.12589928782E+04  0.12611937461E+04  0.00000000000E+00 0. -1.
          1    1    1    2  502    0 -0.12455468514E+03  0.75746202288E+01  0.12639801160E+04  0.12701247884E+04  0.00000000000E+00 0. -1.
         22    1    3    3    0    0  0.30001639856E+02  0.73968228827E+02  0.68625107421E+03  0.69087765496E+03  0.00000000000E+00 0. -1.
         22    1    3    3    0    0  0.27706573366E+02 -0.48707699193E+02  0.29087992702E+03  0.29622833442E+03  0.00000000000E+00 0. -1.
</event>
<event>
 7    1  0.5452757E-006  0.1814849E+03  0.7818608E-02  0.1231618E+00
          2   -1    0    0  502    0  0.00000000000E+00  0.00000000000E+00  0.32678370121E+04  0.32678370121E+04  0.00000000000E+00 0. -1.
          1   -1    0    0  501    0 -0.00000000000E+00 -0.00000000000E+00 -0.31427832244E+03  0.31427832244E+03  0.00000000000E+00 0. -1.
         25    2    1    2    0    0 -0.67215991002E+01  0.94694390604E+02 -0.18885100853E+02  0.15809002755E+03  0.12499440896E+03 0.  0.
          2    1    1    2  501    0 -0.10433139327E+02  0.88588340818E+02 -0.21421974199E+03  0.23204922405E+03  0.00000000000E+00 0. -1.
          1    1    1    2  502    0  0.17154738427E+02 -0.18328273142E+03  0.31866635325E+04  0.31919760829E+04  0.00000000000E+00 0. -1.
         22    1    3    3    0    0 -0.21420880389E+02  0.11442613524E+03  0.13745253120E+02  0.11722255127E+03  0.00000000000E+00 0. -1.
         22    1    3    3    0    0  0.14699281289E+02 -0.19731744640E+02 -0.32630353973E+02  0.40867476278E+02  0.00000000000E+00 0. -1.
</event>
<event>
 7    1  0.5452757E-006  0.9266234E+02  0.7818608E-02  0.1328592E+00
          2   -1    0    0  502    0  0.00000000000E+00  0.00000000000E+00  0.11609131541E+04  0.11609131541E+04  0.00000000000E+00 0. -1.
          1   -1    0    0  501    0 -0.00000000000E+00 -0.00000000000E+00 -0.63694552728E+02  0.63694552728E+02  0.00000000000E+00 0. -1.
         25    2    1    2    0    0  0.16113884277E+02 -0.59173784484E+02  0.62117033003E+03  0.63658369664E+03  0.12500011953E+03 0.  0.
          2    1    1    2  501    0  0.49292883605E+02 -0.48778792977E+02 -0.23154268101E+02  0.73111416002E+02  0.00000000000E+00 0. -1.
          1    1    1    2  502    0 -0.65406767882E+02  0.10795257746E+03  0.49920253944E+03  0.51491259418E+03  0.00000000000E+00 0. -1.
         22    1    3    3    0    0  0.43831170355E+02  0.23911614858E+02  0.27561518425E+03  0.28010117209E+03  0.00000000000E+00 0.  1.
         22    1    3    3    0    0 -0.27717286078E+02 -0.83085399341E+02  0.34555514578E+03  0.35648252455E+03  0.00000000000E+00 0.  1.
</event>
<event>
 7    1  0.5452757E-006  0.1139203E+03  0.7818608E-02  0.1405922E+00
          2   -1    0    0  502    0  0.00000000000E+00  0.00000000000E+00  0.84857805298E+03  0.84857805298E+03  0.00000000000E+00 0. -1.
          1   -1    0    0  501    0 -0.00000000000E+00 -0.00000000000E+00 -0.11419028781E+03  0.11419028781E+03  0.00000000000E+00 0. -1.
         25    2    1    2    0    0 -0.63479193431E+02  0.12223529485E+03  0.39190394816E+03  0.43380278472E+03  0.12500030456E+03 0.  0.
          2    1    1    2  501    0  0.39458003355E+02 -0.10486203628E+03 -0.58838227796E+02  0.12655006018E+03  0.00000000000E+00 0. -1.
          1    1    1    2  502    0  0.24021190076E+02 -0.17373258571E+02  0.40132204480E+03  0.40241549588E+03  0.00000000000E+00 0. -1.
         22    1    3    3    0    0 -0.59668260993E+01 -0.11359964736E+02 -0.28164850224E+01  0.13137138211E+02  0.00000000000E+00 0. -1.
         22    1    3    3    0    0 -0.57512367332E+02  0.13359525959E+03  0.39472043318E+03  0.42066564651E+03  0.00000000000E+00 0. -1.
</event>
<event>
 7    1  0.5452757E-006  0.1163752E+03  0.7818608E-02  0.1450137E+00
          2   -1    0    0  502    0  0.00000000000E+00  0.00000000000E+00  0.10440778325E+04  0.10440778325E+04  0.00000000000E+00 0. -1.
          1   -1    0    0  501    0 -0.00000000000E+00 -0.00000000000E+00 -0.22974375650E+03  0.22974375650E+03  0.00000000000E+00 0. -1.
         25    2    1    2    0    0  0.85762692663E+02  0.77785236678E+02  0.11062041411E+03  0.20314595009E+03  0.12500247407E+03 0.  0.
          2    1    1    2  501    0  0.13116939232E+02 -0.16057811396E+02 -0.17905137693E+03  0.18024789315E+03  0.00000000000E+00 0. -1.
          1    1    1    2  502    0 -0.98879631895E+02 -0.61727425282E+02  0.88276503878E+03  0.89042774571E+03  0.00000000000E+00 0. -1.
         22    1    3    3    0    0  0.77681787467E+02 -0.11880948531E+02  0.66208995933E+02  0.10275820252E+03  0.00000000000E+00 0.  1.
         22    1    3    3    0    0  0.80809051960E+01  0.89666185209E+02  0.44411418179E+02  0.10038774758E+03  0.00000000000E+00 0.  1.
</event>
<event>
 7    1  0.5452757E-006  0.3641280E+03  0.7818608E-02  0.1130399E+00
          2   -1    0    0  502    0  0.00000000000E+00  0.00000000000E+00  0.11410044805E+04  0.11410044805E+04  0.00000000000E+00 0. -1.
          1   -1    0    0  501    0 -0.00000000000E+00 -0.00000000000E+00 -0.80051251713E+03  0.80051251713E+03  0.00000000000E+00 0. -1.
         25    2    1    2    0    0 -0.68977325285E+02 -0.45417484264E+03  0.28581789507E+03  0.55529200103E+03  0.12499871268E+03 0.  0.
          2    1    1    2  501    0  0.74589327153E+02  0.11694481626E+03 -0.61819094091E+03  0.63356112349E+03  0.00000000000E+00 0. -1.
          1    1    1    2  502    0 -0.56120018689E+01  0.33723002638E+03  0.67286500917E+03  0.75266387307E+03  0.00000000000E+00 0. -1.
         22    1    3    3    0    0  0.33309603144E+02 -0.16010777131E+03  0.11738324293E+03  0.20130289073E+03  0.00000000000E+00 0. -1.
         22    1    3    3    0    0 -0.10228692843E+03 -0.29406707133E+03  0.16843465214E+03  0.35398911030E+03  0.00000000000E+00 0. -1.
</event>
<event>
 7    1  0.5452757E-006  0.1469100E+03  0.7818608E-02  0.1320337E+00
          2   -1    0    0  502    0  0.00000000000E+00  0.00000000000E+00  0.26047446106E+03  0.26047446106E+03  0.00000000000E+00 0. -1.
          1   -1    0    0  501    0 -0.00000000000E+00 -0.00000000000E+00 -0.76663004989E+03  0.76663004989E+03  0.00000000000E+00 0. -1.
         25    2    1    2    0    0 -0.66828507389E+02  0.92856357214E+02 -0.13168994780E+03  0.21459846055E+03  0.12498761717E+03 0.  0.
          2    1    1    2  501    0  0.59325954055E+01  0.46689077296E+02 -0.56593032360E+03  0.56788396420E+03  0.00000000000E+00 0. -1.
          1    1    1    2  502    0  0.60895911983E+02 -0.13954543451E+03  0.19146468256E+03  0.24462208620E+03  0.00000000000E+00 0. -1.
         22    1    3    3    0    0 -0.79317662041E+02  0.13399898437E+02 -0.99535867438E+02  0.12797748902E+03  0.00000000000E+00 0. -1.
         22    1    3    3    0    0  0.12489154652E+02  0.79456458777E+02 -0.32154080361E+02  0.86620971532E+02  0.00000000000E+00 0. -1.
</event>
<event>
 7    1  0.5452757E-006  0.1327757E+03  0.7818608E-02  0.1273466E+00
          2   -1    0    0  502    0  0.00000000000E+00  0.00000000000E+00  0.46377923466E+03  0.46377923466E+03  0.00000000000E+00 0. -1.
          1   -1    0    0  501    0 -0.00000000000E+00 -0.00000000000E+00 -0.12312456367E+04  0.12312456367E+04  0.00000000000E+00 0. -1.
         25    2    1    2    0    0 -0.12290409163E+02 -0.12894595307E+03 -0.18006431984E+03  0.25461140177E+03  0.12500277461E+03 0.  0.
          2    1    1    2  501    0 -0.75499319342E+02  0.27636266217E+02 -0.10017235646E+04  0.10049447798E+04  0.00000000000E+00 0. -1.
          1    1    1    2  502    0  0.87789728505E+02  0.10130968686E+03  0.41432148239E+03  0.43546868986E+03  0.00000000000E+00 0. -1.
         22    1    3    3    0    0 -0.14669544611E+02 -0.71223190195E+01 -0.11563449216E+03  0.11677867418E+03  0.00000000000E+00 0.  1.
         22    1    3    3    0    0  0.23791354482E+01 -0.12182363405E+03 -0.64429827685E+02  0.13783272759E+03  0.00000000000E+00 0.  1.
</event>
<event>
 7    1  0.5452757E-006  0.3973031E+02  0.7818608E-02  0.1531037E+00
          2   -1    0    0  502    0  0.00000000000E+00  0.00000000000E+00  0.20211227032E+04  0.20211227032E+04  0.00000000000E+00 0. -1.
          1   -1    0    0  501    0 -0.00000000000E+00 -0.00000000000E+00 -0.78942652673E+02  0.78942652673E+02  0.00000000000E+00 0. -1.
         25    2    1    2    0    0  0.33691753351E+01 -0.11150155774E+02  0.12386083469E+03  0.17635747366E+03  0.12499909931E+03 0.  0.
          2    1    1    2  501    0  0.20801828434E+02  0.35863006710E+02 -0.44354154614E+02  0.60713773956E+02  0.00000000000E+00 0. -1.
          1    1    1    2  502    0 -0.24171003769E+02 -0.24712850936E+02  0.18626733704E+04  0.18629941082E+04  0.00000000000E+00 0. -1.
         22    1    3    3    0    0  0.28822413550E+02  0.44677508327E+02  0.22200730705E+02  0.57616696513E+02  0.00000000000E+00 0. -1.
         22    1    3    3    0    0 -0.25453238215E+02 -0.55827664102E+02  0.10166010399E+03  0.11874077715E+03  0.00000000000E+00 0. -1.
</event>
<event>
 7    1  0.5452757E-006  0.5343853E+02  0.7818608E-02  0.1529914E+00
          2   -1    0    0  502    0  0.00000000000E+00  0.00000000000E+00  0.87850030663E+03  0.87850030663E+03  0.00000000000E+00 0. -1.
          1   -1    0    0  501    0 -0.00000000000E+00 -0.00000000000E+00 -0.24262152279E+03  0.24262152279E+03  0.00000000000E+00 0. -1.
         25    2    1    2    0    0 -0.24543555662E+02 -0.47186339926E+02  0.66872519179E+02  0.15141582644E+03  0.12500352745E+03 0.  0.
          2    1    1    2  501    0  0.25090645034E+02 -0.63903168252E+01 -0.19857558009E+03  0.20025642967E+03  0.00000000000E+00 0. -1.
          1    1    1    2  502    0 -0.54708937177E+00  0.53576656751E+02  0.76758184476E+03  0.76944957330E+03  0.00000000000E+00 0. -1.
         22    1    3    3    0    0 -0.93785028898E+01  0.33376449133E+02 -0.12937512236E+02  0.37004363202E+02  0.00000000000E+00 0. -1.
         22    1    3    3    0    0 -0.15165052772E+02 -0.80562789059E+02  0.79810031415E+02  0.11441146324E+03  0.00000000000E+00 0. -1.
</event>
<event>
 7    1  0.5452757E-006  0.6769292E+02  0.7818608E-02  0.1443303E+00
          2   -1    0    0  502    0  0.00000000000E+00  0.00000000000E+00  0.64375692308E+03  0.64375692308E+03  0.00000000000E+00 0. -1.
          1   -1    0    0  501    0 -0.00000000000E+00 -0.00000000000E+00 -0.10235909354E+04  0.10235909354E+04  0.00000000000E+00 0. -1.
         25    2    1    2    0    0  0.91030859658E+02  0.37538182959E+02 -0.37055011426E+02  0.16338812969E+03  0.12500749762E+03 0.  0.
          2    1    1    2  501    0 -0.24502018858E+02 -0.28381804979E+02 -0.92104469105E+03  0.92180757140E+03  0.00000000000E+00 0. -1.
          1    1    1    2  502    0 -0.66528840801E+02 -0.91563779802E+01  0.57826569017E+03  0.58215215738E+03  0.00000000000E+00 0. -1.
         22    1    3    3    0    0  0.31907094558E+02  0.61612896897E+02  0.25584748323E+02  0.73951275133E+02  0.00000000000E+00 0.  1.
         22    1    3    3    0    0  0.59123765101E+02 -0.24074713937E+02 -0.62639759750E+02  0.89436854553E+02  0.00000000000E+00 0.  1.
</event>
<event>
 7    1  0.5452757E-006  0.9818199E+02  0.7818608E-02  0.1291289E+00
          2   -1    0    0  502    0  0.00000000000E+00  0.00000000000E+00  0.35240776811E+03  0.35240776811E+03  0.00000000000E+00 0. -1.
          1   -1    0    0  501    0 -0.00000000000E+00 -0.00000000000E+00 -0.15287715779E+04  0.15287715779E+04  0.00000000000E+00 0. -1.
         25    2    1    2    0    0  0.55854729426E+02  0.79869129952E+02 -0.12768000100E+03  0.20353274423E+03  0.12499826639E+03 0.  0.
          2    1    1    2  501    0 -0.10019225513E+03  0.54148902075E+00 -0.13545724573E+04  0.13582729193E+04  0.00000000000E+00 0. -1.
          1    1    1    2  502    0  0.44337525700E+02 -0.80410618973E+02  0.30588864847E+03  0.31937368253E+03  0.00000000000E+00 0. -1.
         22    1    3    3    0    0  0.42205036251E+02  0.91796065333E+02 -0.14613782900E+03  0.17766273600E+03  0.00000000000E+00 0. -1.
         22    1    3    3    0    0  0.13649693174E+02 -0.11926935381E+02  0.18457828005E+02  0.25870008233E+02  0.00000000000E+00 0. -1.
</event>
<event>
 7    1  0.5452757E-006  0.3204308E+02  0.7818608E-02  0.1578849E+00
          2   -1    0    0  502    0  0.00000000000E+00  0.00000000000E+00  0.59644267710E+02  0.59644267710E+02  0.00000000000E+00 0. -1.
          1   -1    0    0  501    0 -0.00000000000E+00 -0.00000000000E+00 -0.91578914087E+03  0.91578914087E+03  0.00000000000E+00 0. -1.
         25    2    1    2    0    0 -0.28985149324E+02 -0.44251518557E+02 -0.25749455616E+03  0.29107903634E+03  0.12500089267E+03 0.  0.
          2    1    1    2  501    0  0.29019941782E+02  0.12478381868E+02 -0.63516573400E+03  0.63595076592E+03  0.00000000000E+00 0. -1.
          1    1    1    2  502    0 -0.34792458651E-01  0.31773136689E+02  0.36515417000E+02  0.48403606315E+02  0.00000000000E+00 0. -1.
         22    1    3    3    0    0 -0.55339449857E+02 -0.20298688022E+02 -0.41306231554E+02  0.71977053365E+02  0.00000000000E+00 0. -1.
         22    1    3    3    0    0  0.26354300533E+02 -0.23952830535E+02 -0.21618832461E+03  0.21910198297E+03  0.00000000000E+00 0. -1.
</event>
<event>
 7    1  0.5452757E-006  0.4394465E+02  0.7818608E-02  0.1583057E+00
          2   -1    0    0  502    0  0.00000000000E+00  0.00000000000E+00  0.10613790807E+03  0.10613790807E+03  0.00000000000E+00 0. -1.
          1   -1    0    0  501    0 -0.00000000000E+00 -0.00000000000E+00 -0.87826649612E+03  0.87826649612E+03  0.00000000000E+00 0. -1.
         25    2    1    2    0    0 -0.46656092569E+02  0.45582421083E+02 -0.53836269588E+03  0.55651912802E+03  0.12499839779E+03 0.  0.
          2    1    1    2  501    0  0.19326955027E+02 -0.11410040396E+02 -0.32548784607E+03  0.32626072113E+03  0.00000000000E+00 0. -1.
          1    1    1    2  502    0  0.27329137542E+02 -0.34172380687E+02  0.91721953903E+02  0.10162455505E+03  0.00000000000E+00 0. -1.
         22    1    3    3    0    0  0.32301645781E+02  0.28503799159E+02 -0.77850898188E+02  0.88975419275E+02  0.00000000000E+00 0. -1.
         22    1    3    3    0    0 -0.78957738350E+02  0.17078621924E+02 -0.46051179769E+03  0.46754370874E+03  0.00000000000E+00 0. -1.
</event>
<event>
 7    1  0.5452757E-006  0.5538497E+02  0.7818608E-02  0.1461629E+00
          2   -1    0    0  502    0  0.00000000000E+00  0.00000000000E+00  0.10977280696E+04  0.10977280696E+04  0.00000000000E+00 0. -1.
          1   -1    0    0  501    0 -0.00000000000E+00 -0.00000000000E+00 -0.31466186883E+03  0.31466186883E+03  0.00000000000E+00 0. -1.
         25    2    1    2    0    0  0.50823690327E+02 -0.98134833802E+01 -0.11166417021E+03  0.17542186991E+03  0.12499837430E+03 0.  0.
          2    1    1    2  501    0 -0.34479863294E+02  0.46385770141E+02 -0.16584954590E+03  0.17563192341E+03  0.00000000000E+00 0. -1.
          1    1    1    2  502    0 -0.16343827032E+02 -0.36572286761E+02  0.10605799169E+04  0.10613361451E+04  0.00000000000E+00 0. -1.
         22    1    3    3    0    0  0.39969877221E+02 -0.55825151977E+01 -0.13951390099E+03  0.14523389457E+03  0.00000000000E+00 0. -1.
         22    1    3    3    0    0  0.10853813105E+02 -0.42309681825E+01  0.27849730777E+02  0.30187975338E+02  0.00000000000E+00 0. -1.
</event>
<event>
 7    1  0.5452757E-006  0.6437982E+02  0.7818608E-02  0.1403918E+00
          2   -1    0    0  502    0  0.00000000000E+00  0.00000000000E+00  0.44581341329E+03  0.44581341329E+03  0.00000000000E+00 0. -1.
          1   -1    0    0  501    0 -0.00000000000E+00 -0.00000000000E+00 -0.12313259375E+04  0.12313259375E+04  0.00000000000E+00 0. -1.
         25    2    1    2    0    0  0.11699310644E+03  0.88365416286E+01  0.13408230155E+03  0.21764573372E+03  0.12500452150E+03 0.  0.
          2    1    1    2  501    0 -0.64065562018E+02 -0.26281462381E+01 -0.11860397852E+04  0.11877717270E+04  0.00000000000E+00 0. -1.
          1    1    1    2  502    0 -0.52927544421E+02 -0.62083953905E+01  0.26644495944E+03  0.27172189007E+03  0.00000000000E+00 0. -1.
         22    1    3    3    0    0  0.14032863972E+03 -0.11046961314E+02  0.10884426524E+03  0.17793604625E+03  0.00000000000E+00 0.  1.
         22    1    3    3    0    0 -0.23335533277E+02  0.19883502942E+02  0.25238036313E+02  0.39709687476E+02  0.00000000000E+00 0.  1.
</event>
<event>
 7    1  0.5452757E-006  0.8337262E+02  0.7818608E-02  0.1411523E+00
          2   -1    0    0  502    0  0.00000000000E+00  0.00000000000E+00  0.11073475233E+04  0.11073475233E+04  0.00000000000E+00 0. -1.
          1   -1    0    0  501    0 -0.00000000000E+00 -0.00000000000E+00 -0.98369929268E+03  0.98369929268E+03  0.00000000000E+00 0. -1.
         25    2    1    2    0    0  0.11544781021E+03  0.25249037896E+02  0.17844926958E+03  0.24786164706E+03  0.12500217387E+03 0.  0.
          2    1    1    2  501    0 -0.77100525348E+02 -0.30973325795E+02 -0.94675242189E+03  0.95039149106E+03  0.00000000000E+00 0. -1.
          1    1    1    2  502    0 -0.38347284861E+02  0.57242878996E+01  0.89195138290E+03  0.89279367784E+03  0.00000000000E+00 0. -1.
         22    1    3    3    0    0  0.88317497923E+02 -0.23384669212E+02  0.42131950762E+02  0.10060777539E+03  0.00000000000E+00 0.  1.
         22    1    3    3    0    0  0.27130312286E+02  0.48633707107E+02  0.13631731882E+03  0.14725387167E+03  0.00000000000E+00 0.  1.
</event>
<event>
 7    1  0.6088005E-006  0.1150956E+03  0.7818608E-02  0.1271372E+00
          2   -1    0    0  502    0  0.00000000000E+00  0.00000000000E+00  0.63929698327E+03  0.63929698327E+03  0.00000000000E+00 0. -1.
          1   -1    0    0  501    0 -0.00000000000E+00 -0.00000000000E+00 -0.14688150669E+04  0.14688150669E+04  0.00000000000E+00 0. -1.
         25    2    1    2    0    0 -0.24222762795E+02 -0.63394268994E+02 -0.19307550586E+03  0.23980870507E+03  0.12499795392E+03 0.  0.
          2    1    1    2  501    0  0.11660947205E+03  0.42875257086E+02 -0.12456289656E+04  0.12518097206E+04  0.00000000000E+00 0. -1.
          1    1    1    2  502    0 -0.92386709250E+02  0.20519011908E+02  0.60918638784E+03  0.61649362448E+03  0.00000000000E+00 0. -1.
         22    1    3    3    0    0  0.26896738280E+01 -0.29252188688E+01 -0.16950189760E+03  0.16954847254E+03  0.00000000000E+00 0.  1.
         22    1    3    3    0    0 -0.26912436623E+02 -0.60469050125E+02 -0.23573608255E+02  0.70260232523E+02  0.00000000000E+00 0.  1.
</event>
<event>
 7    1  0.5452757E-006  0.5316066E+03  0.7818608E-02  0.1197444E+00
          2   -1    0    0  502    0  0.00000000000E+00  0.00000000000E+00  0.56275376707E+03  0.56275376707E+03  0.00000000000E+00 0. -1.
          1   -1    0    0  501    0 -0.00000000000E+00 -0.00000000000E+00 -0.98917942044E+03  0.98917942044E+03  0.00000000000E+00 0. -1.
         25    2    1    2    0    0  0.38287102454E+03  0.33818145406E+03 -0.31887894448E+03  0.61503344142E+03  0.12500174212E+03 0.  0.
          2    1    1    2  501    0 -0.42346603620E+03 -0.35447371725E+03 -0.37394071241E+03  0.66693834530E+03  0.00000000000E+00 0. -1.
          1    1    1    2  502    0  0.40595011653E+02  0.16292263191E+02  0.26639400351E+03  0.26996140079E+03  0.00000000000E+00 0. -1.
         22    1    3    3    0    0  0.34705068537E+03  0.34478147376E+03 -0.29147603220E+03  0.56945300088E+03  0.00000000000E+00 0. -1.
         22    1    3    3    0    0  0.35820339173E+02 -0.66000197061E+01 -0.27402912279E+02  0.45580440542E+02  0.00000000000E+00 0. -1.
</event>
<event>
 7    1  0.5452757E-006  0.1071750E+03  0.7818608E-02  0.1364148E+00
          2   -1    0    0  502    0  0.00000000000E+00  0.00000000000E+00  0.13631457142E+03  0.13631457142E+03  0.00000000000E+00 0. -1.
          1   -1    0    0  501    0 -0.00000000000E+00 -0.00000000000E+00 -0.10231960001E+04  0.10231960001E+04  0.00000000000E+00 0. -1.
         25    2    1    2    0    0  0.60836864994E+02 -0.11157179119E+03 -0.34239590857E+03  0.38601616595E+03  0.12499653371E+03 0.  0.
          2    1    1    2  501    0 -0.77086051683E+02  0.70474787490E+02 -0.65039843110E+03  0.65873141280E+03  0.00000000000E+00 0. -1.
          1    1    1    2  502    0  0.16249186688E+02  0.41097003704E+02  0.10591291102E+03  0.11476299274E+03  0.00000000000E+00 0. -1.
         22    1    3    3    0    0 -0.38171332216E+01 -0.10181684211E+03 -0.13882547411E+03  0.17220264836E+03  0.00000000000E+00 0.  1.
         22    1    3    3    0    0  0.64653998216E+02 -0.97549490875E+01 -0.20357043446E+03  0.21381351759E+03  0.00000000000E+00 0.  1.
</event>
<event>
 7    1  0.5452757E-006  0.3870062E+02  0.7818608E-02  0.1602340E+00
          2   -1    0    0  502    0  0.00000000000E+00  0.00000000000E+00  0.26130603216E+03  0.26130603216E+03  0.00000000000E+00 0. -1.
          1   -1    0    0  501    0 -0.00000000000E+00 -0.00000000000E+00 -0.66083367357E+03  0.66083367357E+03  0.00000000000E+00 0. -1.
         25    2    1    2    0    0 -0.42211365892E+02 -0.39213843849E+02 -0.26742064518E+03  0.30076330248E+03  0.12500095076E+03 0.  0.
          2    1    1    2  501    0  0.32811431633E+02  0.18586261995E+02 -0.37526957213E+03  0.37715950332E+03  0.00000000000E+00 0. -1.
          1    1    1    2  502    0  0.93999342589E+01  0.20627581855E+02  0.24316257589E+03  0.24421689993E+03  0.00000000000E+00 0. -1.
         22    1    3    3    0    0  0.86245986739E+01  0.61862250528E+01  0.10306847251E+02  0.14794734974E+02  0.00000000000E+00 0. -1.
         22    1    3    3    0    0 -0.50835964566E+02 -0.45400068902E+02 -0.27772749243E+03  0.28596856751E+03  0.00000000000E+00 0. -1.
</event>
<event>
 7    1  0.5452757E-006  0.2113696E+03  0.7818608E-02  0.1294085E+00
          2   -1    0    0  502    0  0.00000000000E+00  0.00000000000E+00  0.99840596050E+03  0.99840596050E+03  0.00000000000E+00 0. -1.
          1   -1    0    0  501    0 -0.00000000000E+00 -0.00000000000E+00 -0.93248087786E+03  0.93248087786E+03  0.00000000000E+00 0. -1.
         25    2    1    2    0    0  0.60923425266E+02  0.23567115633E+03  0.21389389268E+03  0.34731547330E+03  0.12499953199E+03 0.  0.
          2    1    1    2  501    0 -0.22677706283E+02 -0.34821426852E+02 -0.85069311070E+03  0.85170744903E+03  0.00000000000E+00 0. -1.
          1    1    1    2  502    0 -0.38245718983E+02 -0.20084972947E+03  0.70272430066E+03  0.73186391603E+03  0.00000000000E+00 0. -1.
         22    1    3    3    0    0 -0.16861190159E+02  0.16809017171E+03  0.15109048717E+03  0.22664276047E+03  0.00000000000E+00 0. -1.
         22    1    3    3    0    0  0.77784615425E+02  0.67580984614E+02  0.62803405512E+02  0.12067271283E+03  0.00000000000E+00 0. -1.
</event>
<event>
 7    1  0.5452757E-006  0.8027953E+02  0.7818608E-02  0.1350127E+00
          2   -1    0    0  502    0  0.00000000000E+00  0.00000000000E+00  0.32314129821E+03  0.32314129821E+03  0.00000000000E+00 0. -1.
          1   -1    0    0  501    0 -0.00000000000E+00 -0.00000000000E+00 -0.11859850122E+03  0.11859850122E+03  0.00000000000E+00 0. -1.
         25    2    1    2    0    0  0.31559703250E+02 -0.49583931969E+02  0.74305384377E+02  0.15684839262E+03  0.12500218775E+03 0.  0.
          2    1    1    2  501    0 -0.88377140452E+02  0.15203576231E+02 -0.42933692043E+02  0.99423184404E+02  0.00000000000E+00 0. -1.
          1    1    1    2  502    0  0.56817437202E+02  0.34380355738E+02  0.17317110466E+03  0.18546822240E+03  0.00000000000E+00 0. -1.
         22    1    3    3    0    0  0.70983765943E+02 -0.22900416566E+02  0.79439791647E+02  0.10896698859E+03  0.00000000000E+00 0. -1.
         22    1    3    3    0    0 -0.39424062693E+02 -0.26683515403E+02 -0.51344072703E+01  0.47881404026E+02  0.00000000000E+00 0. -1.
</event>
<event>
 7    1  0.5452757E-006  0.6951374E+02  0.7818608E-02  0.1484702E+00
          2   -1    0    0  502    0  0.00000000000E+00  0.00000000000E+00  0.19921146042E+04  0.19921146042E+04  0.00000000000E+00 0. -1.
          1   -1    0    0  501    0 -0.00000000000E+00 -0.00000000000E+00 -0.15174917144E+02  0.15174917144E+02  0.00000000000E+00 0. -1.
         25    2    1    2    0    0 -0.46730334415E+02 -0.74949559007E+01  0.11508403850E+04  0.11585760561E+04  0.12499994997E+03 0.  0.
          2    1    1    2  501    0  0.71791377953E+02 -0.27488673367E+01  0.10569491555E+03  0.12780052188E+03  0.00000000000E+00 0. -1.
          1    1    1    2  502    0 -0.25061043538E+02  0.10243823237E+02  0.72040438652E+03  0.72091294338E+03  0.00000000000E+00 0. -1.
         22    1    3    3    0    0 -0.23550541566E+02 -0.58076557549E+01  0.11184350621E+04  0.11186980580E+04  0.00000000000E+00 0.  1.
         22    1    3    3    0    0 -0.23179792849E+02 -0.16873001458E+01  0.32405322882E+02  0.39877998062E+02  0.00000000000E+00 0.  1.
</event>
<event>
 7    1  0.5452757E-006  0.1021695E+03  0.7818608E-02  0.1326228E+00
          2   -1    0    0  502    0  0.00000000000E+00  0.00000000000E+00  0.66019311113E+03  0.66019311113E+03  0.00000000000E+00 0. -1.
          1   -1    0    0  501    0 -0.00000000000E+00 -0.00000000000E+00 -0.76680420073E+03  0.76680420073E+03  0.00000000000E+00 0. -1.
         25    2    1    2    0    0  0.28303517322E+02  0.16008606246E+03 -0.50294055580E+02  0.21116610188E+03  0.12503197219E+03 0.  0.
          2    1    1    2  501    0 -0.22806129307E+02 -0.60036486926E+02 -0.63010022174E+03  0.63336465700E+03  0.00000000000E+00 0. -1.
          1    1    1    2  502    0 -0.54973880142E+01 -0.10004957554E+03  0.57378318772E+03  0.58246655299E+03  0.00000000000E+00 0. -1.
         22    1    3    3    0    0  0.45623060603E+02  0.16445003170E+03 -0.14639469983E+02  0.17128803421E+03  0.00000000000E+00 0.  1.
         22    1    3    3    0    0 -0.17319543281E+02 -0.43639692321E+01 -0.35654585597E+02  0.39878067669E+02  0.00000000000E+00 0.  1.
</event>
<event>
 7    1  0.5452757E-006  0.1099682E+03  0.7818608E-02  0.1455925E+00
          2   -1    0    0  502    0  0.00000000000E+00  0.00000000000E+00  0.91503502452E+03  0.91503502452E+03  0.00000000000E+00 0. -1.
          1   -1    0    0  501    0 -0.00000000000E+00 -0.00000000000E+00 -0.99135128894E+03  0.99135128894E+03  0.00000000000E+00 0. -1.
         25    2    1    2    0    0 -0.53266265823E+02  0.78893544455E+02  0.16205461310E+02  0.15795423207E+03  0.12500174407E+03 0.  0.
          2    1    1    2  501    0 -0.20726577023E+02  0.35599408405E+01 -0.91664978683E+03  0.91689099454E+03  0.00000000000E+00 0. -1.
          1    1    1    2  502    0  0.73992842846E+02 -0.82453485295E+02  0.82412806110E+03  0.83154108685E+03  0.00000000000E+00 0. -1.
         22    1    3    3    0    0  0.33084324937E+02 -0.37159636446E+01 -0.11608155648E+02  0.35258051845E+02  0.00000000000E+00 0. -1.
         22    1    3    3    0    0 -0.86350590760E+02  0.82609508100E+02  0.27813616958E+02  0.12269618022E+03  0.00000000000E+00 0. -1.
</event>
<event>
 7    1  0.5452757E-006  0.4283602E+02  0.7818608E-02  0.1497135E+00
          2   -1    0    0  502    0  0.00000000000E+00  0.00000000000E+00  0.64422329740E+03  0.64422329740E+03  0.00000000000E+00 0. -1.
          1   -1    0    0  501    0 -0.00000000000E+00 -0.00000000000E+00 -0.24376708762E+04  0.24376708762E+04  0.00000000000E+00 0. -1.
         25    2    1    2    0    0  0.49365499006E+02  0.35193283121E+02  0.37624559437E+03  0.40107205955E+03  0.12499011961E+03 0.  0.
          2    1    1    2  501    0 -0.96071164309E+01 -0.41743520984E+02 -0.24234789233E+04  0.24238574442E+04  0.00000000000E+00 0. -1.
          1    1    1    2  502    0 -0.39758382575E+02  0.65502378624E+01  0.25378575010E+03  0.25696466986E+03  0.00000000000E+00 0. -1.
         22    1    3    3    0    0  0.13118956908E+02 -0.38712390816E+01 -0.61384916927E+01  0.14992484873E+02  0.00000000000E+00 0.  1.
         22    1    3    3    0    0  0.36246542098E+02  0.39064522203E+02  0.38238408606E+03  0.38607957468E+03  0.00000000000E+00 0.  1.
</event>
<event>
 7    1  0.5452757E-006  0.2636791E+02  0.7818608E-02  0.1665566E+00
          2   -1    0    0  502    0  0.00000000000E+00  0.00000000000E+00  0.75202078960E+02  0.75202078960E+02  0.00000000000E+00 0. -1.
          1   -1    0    0  501    0 -0.00000000000E+00 -0.00000000000E+00 -0.19086885482E+04  0.19086885482E+04  0.00000000000E+00 0. -1.
         25    2    1    2    0    0 -0.31785894039E+01  0.35309319309E+02 -0.15210215535E+04  0.15265609292E+04  0.12499941238E+03 0.  0.
          2    1    1    2  501    0 -0.15728468362E+02 -0.16931482300E+02 -0.38213706138E+03  0.38283520409E+03  0.00000000000E+00 0. -1.
          1    1    1    2  502    0  0.18907057766E+02 -0.18377837009E+02  0.69672145648E+02  0.74494493795E+02  0.00000000000E+00 0. -1.
         22    1    3    3    0    0 -0.10400611565E+02 -0.12865325445E+02 -0.26462509545E+02  0.31208231785E+02  0.00000000000E+00 0. -1.
         22    1    3    3    0    0  0.72220221609E+01  0.48174644754E+02 -0.14945590439E+04  0.14953526974E+04  0.00000000000E+00 0. -1.
</event>
<event>
 7    1  0.5452757E-006  0.9911212E+02  0.7818608E-02  0.1411177E+00
          2   -1    0    0  502    0  0.00000000000E+00  0.00000000000E+00  0.18294299442E+04  0.18294299442E+04  0.00000000000E+00 0. -1.
          1   -1    0    0  501    0 -0.00000000000E+00 -0.00000000000E+00 -0.51507218532E+02  0.51507218532E+02  0.00000000000E+00 0. -1.
         25    2    1    2    0    0 -0.75188539680E+02  0.76855725778E+02  0.13102002856E+04  0.13205339090E+04  0.12499958915E+03 0.  0.
          2    1    1    2  501    0 -0.74101084988E+01 -0.31852338735E+02 -0.35615076707E+02  0.48351989408E+02  0.00000000000E+00 0. -1.
          1    1    1    2  502    0  0.82598648179E+02 -0.45003387042E+02  0.50333751679E+03  0.51205126436E+03  0.00000000000E+00 0. -1.
         22    1    3    3    0    0  0.67898148244E+01  0.84894225802E+01  0.75982155682E+03  0.75989931576E+03  0.00000000000E+00 0.  1.
         22    1    3    3    0    0 -0.81978354505E+02  0.68366303198E+02  0.55037872881E+03  0.56063459325E+03  0.00000000000E+00 0.  1.
</event>
<event>
 7    1  0.5452757E-006  0.4571671E+02  0.7818608E-02  0.1562047E+00
          2   -1    0    0  502    0  0.00000000000E+00  0.00000000000E+00  0.10063095489E+04  0.10063095489E+04  0.00000000000E+00 0. -1.
          1   -1    0    0  501    0 -0.00000000000E+00 -0.00000000000E+00 -0.61420428220E+03  0.61420428220E+03  0.00000000000E+00 0. -1.
         25    2    1    2    0    0  0.49481982352E+02  0.41959223968E+02  0.48697160921E+03  0.50692540984E+03  0.12499191941E+03 0.  0.
          2    1    1    2  501    0 -0.23807964463E+02 -0.61651480814E+01 -0.60302391371E+03  0.60352520140E+03  0.00000000000E+00 0. -1.
          1    1    1    2  502    0 -0.25674017889E+02 -0.35794075887E+02  0.50815757121E+03  0.51006321984E+03  0.00000000000E+00 0. -1.
         22    1    3    3    0    0  0.59693834304E+02  0.80766548273E+02  0.33348721420E+03  0.34828194212E+03  0.00000000000E+00 0.  1.
         22    1    3    3    0    0 -0.10211851952E+02 -0.38807324305E+02  0.15348439501E+03  0.15864346772E+03  0.00000000000E+00 0.  1.
</event>
<event>
 7    1  0.5452757E-006  0.5152775E+02  0.7818608E-02  0.1570839E+00
          2   -1    0    0  502    0  0.00000000000E+00  0.00000000000E+00  0.62151706129E+03  0.62151706129E+03  0.00000000000E+00 0. -1.
          1   -1    0    0  501    0 -0.00000000000E+00 -0.00000000000E+00 -0.10118542582E+04  0.10118542582E+04  0.00000000000E+00 0. -1.
         25    2    1    2    0    0 -0.31997827199E+02  0.52242663745E+02 -0.16604941004E+03  0.21667788484E+03  0.12499496928E+03 0.  0.
          2    1    1    2  501    0  0.20545492471E+02 -0.20427046269E+01 -0.81924860438E+03  0.81950873436E+03  0.00000000000E+00 0. -1.
          1    1    1    2  502    0  0.11452334729E+02 -0.50199959119E+02  0.59496081752E+03  0.59718470028E+03  0.00000000000E+00 0. -1.
         22    1    3    3    0    0  0.43119777942E+02 -0.22730391365E+01 -0.32503003967E+02  0.54045603184E+02  0.00000000000E+00 0.  1.
         22    1    3    3    0    0 -0.75117605142E+02  0.54515702882E+02 -0.13354640607E+03  0.16263228166E+03  0.00000000000E+00 0.  1.
</event>
<event>
 7    1  0.5452757E-006  0.9787515E+02  0.7818608E-02  0.1389891E+00
          2   -1    0    0  502    0  0.00000000000E+00  0.00000000000E+00  0.17880690268E+04  0.17880690268E+04  0.00000000000E+00 0. -1.
          1   -1    0    0  501    0 -0.00000000000E+00 -0.00000000000E+00 -0.14696774352E+03  0.14696774352E+03  0.00000000000E+00 0. -1.
         25    2    1    2    0    0  0.18951985509E+02 -0.11750759948E+03  0.11929971417E+03  0.20981038252E+03  0.12498304335E+03 0.  0.
          2    1    1    2  501    0 -0.42044837654E+02  0.85843028109E+02 -0.78962070099E+02  0.12398307289E+03  0.00000000000E+00 0. -1.
          1    1    1    2  502    0  0.23092852145E+02  0.31664571371E+02  0.16007636392E+04  0.16012433149E+04  0.00000000000E+00 0. -1.
         22    1    3    3    0    0  0.17032742771E+02 -0.82849444996E+02 -0.10153133788E+01  0.84588271786E+02  0.00000000000E+00 0. -1.
         22    1    3    3    0    0  0.19192427379E+01 -0.34658154484E+02  0.12031502754E+03  0.12522211074E+03  0.00000000000E+00 0. -1.
</event>
<event>
 7    1  0.5452757E-006  0.2824095E+02  0.7818608E-02  0.1623246E+00
          2   -1    0    0  502    0  0.00000000000E+00  0.00000000000E+00  0.23730104497E+04  0.23730104497E+04  0.00000000000E+00 0. -1.
          1   -1    0    0  501    0 -0.00000000000E+00 -0.00000000000E+00 -0.28881894398E+03  0.28881894398E+03  0.00000000000E+00 0. -1.
         25    2    1    2    0    0 -0.31031771876E+02  0.46179650001E+02  0.59387554980E+03  0.60943323157E+03  0.12500065661E+03 0.  0.
          2    1    1    2  501    0  0.16343929115E+02 -0.22991480045E+02 -0.28022561244E+03  0.28164184000E+03  0.00000000000E+00 0. -1.
          1    1    1    2  502    0  0.14687842762E+02 -0.23188169957E+02  0.17705415684E+04  0.17707543221E+04  0.00000000000E+00 0. -1.
         22    1    3    3    0    0 -0.42959195675E+02  0.83931791605E+02  0.47072376096E+03  0.48007384564E+03  0.00000000000E+00 0. -1.
         22    1    3    3    0    0  0.11927423798E+02 -0.37752141603E+02  0.12315178884E+03  0.12935938593E+03  0.00000000000E+00 0. -1.
</event>
<event>
 7    1  0.5452757E-006  0.3592871E+02  0.7818608E-02  0.1547967E+00
          2   -1    0    0  502    0  0.00000000000E+00  0.00000000000E+00  0.76620027196E+02  0.76620027196E+02  0.00000000000E+00 0. -1.
          1   -1    0    0  501    0 -0.00000000000E+00 -0.00000000000E+00 -0.91584734642E+03  0.91584734642E+03  0.00000000000E+00 0. -1.
         25    2    1    2    0    0 -0.14711971398E+02  0.11043779814E+02 -0.11805402696E+02  0.12689599049E+03  0.12499927078E+03 0.  0.
          2    1    1    2  501    0 -0.24940313409E+02 -0.25862185399E+02 -0.82212596943E+03  0.82291067649E+03  0.00000000000E+00 0. -1.
          1    1    1    2  502    0  0.39652284807E+02  0.14818405585E+02 -0.52959470905E+01  0.42660706629E+02  0.00000000000E+00 0. -1.
         22    1    3    3    0    0  0.48515523437E+02  0.26239976533E+02 -0.24974950715E+02  0.60547836840E+02  0.00000000000E+00 0. -1.
         22    1    3    3    0    0 -0.63227494835E+02 -0.15196196719E+02  0.13169548019E+02  0.66348153651E+02  0.00000000000E+00 0. -1.
</event>
<event>
 7    1  0.5452757E-006  0.1492773E+03  0.7818608E-02  0.1207666E+00
          2   -1    0    0  502    0  0.00000000000E+00  0.00000000000E+00  0.14030118817E+04  0.14030118817E+04  0.00000000000E+00 0. -1.
          1   -1    0    0  501    0 -0.00000000000E+00 -0.00000000000E+00 -0.48593290463E+03  0.48593290463E+03  0.00000000000E+00 0. -1.
         25    2    1    2    0    0  0.41470758419E+02 -0.62469480272E+02  0.10235158964E+03  0.17810606111E+03  0.12499464522E+03 0.  0.
          2    1    1    2  501    0 -0.14252302018E+03 -0.47403819890E+02 -0.43088503120E+03  0.45631331729E+03  0.00000000000E+00 0. -1.
          1    1    1    2  502    0  0.10105226177E+03  0.10987330016E+03  0.12456124187E+04  0.12545254080E+04  0.00000000000E+00 0. -1.
         22    1    3    3    0    0 -0.12112214913E+02 -0.85434382093E+02  0.49853339366E+02  0.99654878654E+02  0.00000000000E+00 0.  1.
         22    1    3    3    0    0  0.53582973332E+02  0.22964901820E+02  0.52498250277E+02  0.78451182457E+02  0.00000000000E+00 0.  1.
</event>
<event>
 7    1  0.5452757E-006  0.7813336E+02  0.7818608E-02  0.1415043E+00
          2   -1    0    0  502    0  0.00000000000E+00  0.00000000000E+00  0.65001608121E+03  0.65001608121E+03  0.00000000000E+00 0. -1.
          1   -1    0    0  501    0 -0.00000000000E+00 -0.00000000000E+00 -0.25466616650E+03  0.25466616650E+03  0.00000000000E+00 0. -1.
         25    2    1    2    0    0 -0.49581966572E+02  0.99114649198E+02 -0.59520675958E+02  0.17734131912E+03  0.12500059003E+03 0.  0.
          2    1    1    2  501    0  0.41923625588E+02 -0.59593580562E+02 -0.12574581466E+03  0.14533064071E+03  0.00000000000E+00 0. -1.
          1    1    1    2  502    0  0.76583409842E+01 -0.39521068636E+02  0.58061640533E+03  0.58201028787E+03  0.00000000000E+00 0. -1.
         22    1    3    3    0    0 -0.88462901360E+02  0.91164271648E+02 -0.50102962051E+02  0.13655371159E+03  0.00000000000E+00 0.  1.
         22    1    3    3    0    0  0.38880934788E+02  0.79503775494E+01 -0.94177139067E+01  0.40787607534E+02  0.00000000000E+00 0.  1.
</event>
<event>
 7    1  0.6004286E-006  0.7703786E+02  0.7818608E-02  0.1429397E+00
          2   -1    0    0  502    0  0.00000000000E+00  0.00000000000E+00  0.15411688710E+04  0.15411688710E+04  0.00000000000E+00 0. -1.
          1   -1    0    0  501    0 -0.00000000000E+00 -0.00000000000E+00 -0.15155774461E+04  0.15155774461E+04  0.00000000000E+00 0. -1.
         25    2    1    2    0    0  0.33715751826E+02 -0.46290321298E+02 -0.48568897672E+02  0.14581587766E+03  0.12499514627E+03 0.  0.
          2    1    1    2  501    0  0.34949325365E+02  0.10780787665E+02 -0.14171480140E+04  0.14176198976E+04  0.00000000000E+00 0. -1.
          1    1    1    2  502    0 -0.68665077191E+02  0.35509533633E+02  0.14913083365E+04  0.14933105418E+04  0.00000000000E+00 0. -1.
         22    1    3    3    0    0 -0.24418617363E+02 -0.37284094073E+02  0.25405905218E+02  0.51301389501E+02  0.00000000000E+00 0.  1.
         22    1    3    3    0    0  0.58134369189E+02 -0.90062272248E+01 -0.73974802889E+02  0.94514488161E+02  0.00000000000E+00 0.  1.
</event>
<event>
 7    1  0.5452757E-006  0.1258190E+03  0.7818608E-02  0.1255058E+00
          2   -1    0    0  502    0  0.00000000000E+00  0.00000000000E+00  0.11065245480E+04  0.11065245480E+04  0.00000000000E+00 0. -1.
          1   -1    0    0  501    0 -0.00000000000E+00 -0.00000000000E+00 -0.57193231340E+02  0.57193231340E+02  0.00000000000E+00 0. -1.
         25    2    1    2    0    0  0.25671827154E+02  0.19294255106E+02  0.20873963020E+03  0.24543239736E+03  0.12503406523E+03 0.  0.
          2    1    1    2  501    0 -0.77004632469E+02  0.99502267492E+02  0.85350035746E+02  0.15203632217E+03  0.00000000000E+00 0. -1.
          1    1    1    2  502    0  0.51332805315E+02 -0.11879652260E+03  0.75524165067E+03  0.76624905976E+03  0.00000000000E+00 0. -1.
         22    1    3    3    0    0  0.68037243122E+02  0.22018105739E+02  0.68946213090E+02  0.99335007582E+02  0.00000000000E+00 0.  1.
         22    1    3    3    0    0 -0.42365415968E+02 -0.27238506327E+01  0.13979341711E+03  0.14609738978E+03  0.00000000000E+00 0.  1.
</event>
<event>
 7    1  0.5452757E-006  0.1027100E+03  0.7818608E-02  0.1368002E+00
          2   -1    0    0  502    0  0.00000000000E+00  0.00000000000E+00  0.16459383169E+03  0.16459383169E+03  0.00000000000E+00 0. -1.
          1   -1    0    0  501    0 -0.00000000000E+00 -0.00000000000E+00 -0.59505565451E+03  0.59505565451E+03  0.00000000000E+00 0. -1.
         25    2    1    2    0    0 -0.11441158272E+03  0.67153483026E+02 -0.16226867057E+03  0.24404027663E+03  0.12499973852E+03 0.  0.
          2    1    1    2  501    0  0.17792186307E+02 -0.40960225962E+02 -0.37008458496E+03  0.37276923429E+03  0.00000000000E+00 0. -1.
          1    1    1    2  502    0  0.96619396411E+02 -0.26193257064E+02  0.10189143271E+03  0.14283997528E+03  0.00000000000E+00 0. -1.
         22    1    3    3    0    0 -0.52171067362E+02  0.65249752466E+02 -0.15989586046E+02  0.85058905051E+02  0.00000000000E+00 0.  1.
         22    1    3    3    0    0 -0.62240515356E+02  0.19037305595E+01 -0.14627908452E+03  0.15898137158E+03  0.00000000000E+00 0.  1.
</event>
<event>
 7    1  0.5452757E-006  0.1037420E+03  0.7818608E-02  0.1315459E+00
          2   -1    0    0  502    0  0.00000000000E+00  0.00000000000E+00  0.82859661927E+03  0.82859661927E+03  0.00000000000E+00 0. -1.
          1   -1    0    0  501    0 -0.00000000000E+00 -0.00000000000E+00 -0.89640282935E+02  0.89640282935E+02  0.00000000000E+00 0. -1.
         25    2    1    2    0    0 -0.91379256661E+02 -0.12113219092E+03  0.12671345821E+03  0.23388749668E+03  0.12499553748E+03 0.  0.
          2    1    1    2  501    0  0.33222491557E+02  0.82846913215E+02  0.24588794993E+02  0.92584846566E+02  0.00000000000E+00 0. -1.
          1    1    1    2  502    0  0.58156765104E+02  0.38285277701E+02  0.58765408313E+03  0.59176455895E+03  0.00000000000E+00 0. -1.
         22    1    3    3    0    0 -0.58923545021E+02 -0.11355669587E+03  0.14699699750E+03  0.19487232900E+03  0.00000000000E+00 0.  1.
         22    1    3    3    0    0 -0.32455711640E+02 -0.75754950409E+01 -0.20283539290E+02  0.39015167683E+02  0.00000000000E+00 0.  1.
</event>
<event>
 7    1  0.5452757E-006  0.8655759E+02  0.7818608E-02  0.1356096E+00
          2   -1    0    0  502    0  0.00000000000E+00  0.00000000000E+00  0.26094989769E+04  0.26094989769E+04  0.00000000000E+00 0. -1.
          1   -1    0    0  501    0 -0.00000000000E+00 -0.00000000000E+00 -0.29912413193E+03  0.29912413193E+03  0.00000000000E+00 0. -1.
         25    2    1    2    0    0  0.20416576110E+01  0.46644506749E+02 -0.92971491275E+02  0.16262661419E+03  0.12499535622E+03 0.  0.
          2    1    1    2  501    0  0.20461229331E+01 -0.10505080775E+03 -0.15484904368E+03  0.18713119771E+03  0.00000000000E+00 0. -1.
          1    1    1    2  502    0 -0.40877805440E+01  0.58406301006E+02  0.25581953799E+04  0.25588652969E+04  0.00000000000E+00 0. -1.
         22    1    3    3    0    0 -0.29255798407E+02  0.36556805280E+02  0.15468155294E+02  0.49310907322E+02  0.00000000000E+00 0. -1.
         22    1    3    3    0    0  0.31297456018E+02  0.10087701469E+02 -0.10843964657E+03  0.11331570686E+03  0.00000000000E+00 0. -1.
</event>
<event>
 7    1  0.5452757E-006  0.6467454E+02  0.7818608E-02  0.1446882E+00
          2   -1    0    0  502    0  0.00000000000E+00  0.00000000000E+00  0.15628972685E+04  0.15628972685E+04  0.00000000000E+00 0. -1.
          1   -1    0    0  501    0 -0.00000000000E+00 -0.00000000000E+00 -0.11706878730E+03  0.11706878730E+03  0.00000000000E+00 0. -1.
         25    2    1    2    0    0 -0.37663086743E+02 -0.13781084199E+01  0.54846426347E+03  0.56378934273E+03  0.12499986957E+03 0.  0.
          2    1    1    2  501    0  0.54672171141E+02  0.35600724554E+02 -0.99281094917E+02  0.11879896335E+03  0.00000000000E+00 0. -1.
          1    1    1    2  502    0 -0.17009084398E+02 -0.34222616134E+02  0.99664531266E+03  0.99737774972E+03  0.00000000000E+00 0. -1.
         22    1    3    3    0    0  0.98713898815E+01  0.53182285122E+02  0.30649697050E+03  0.31123334127E+03  0.00000000000E+00 0.  1.
         22    1    3    3    0    0 -0.47534476624E+02 -0.54560393542E+02  0.24196729297E+03  0.25255600147E+03  0.00000000000E+00 0.  1.
</event>
<event>
 7    1  0.5452757E-006  0.1719070E+03  0.7818608E-02  0.1365184E+00
          2   -1    0    0  502    0  0.00000000000E+00  0.00000000000E+00  0.14457986112E+04  0.14457986112E+04  0.00000000000E+00 0. -1.
          1   -1    0    0  501    0 -0.00000000000E+00 -0.00000000000E+00 -0.75429133562E+03  0.75429133562E+03  0.00000000000E+00 0. -1.
         25    2    1    2    0    0 -0.94005059160E+02  0.17040745485E+03  0.26350381885E+03  0.35062095655E+03  0.12500056322E+03 0.  0.
          2    1    1    2  501    0  0.56488274175E+01 -0.26724177330E+02 -0.70422021529E+03  0.70474974461E+03  0.00000000000E+00 0. -1.
          1    1    1    2  502    0  0.88356231742E+02 -0.14368327752E+03  0.11322236720E+04  0.11447192456E+04  0.00000000000E+00 0. -1.
         22    1    3    3    0    0 -0.34051526138E+02  0.14254342436E+03  0.23851839817E+03  0.27994492409E+03  0.00000000000E+00 0. -1.
         22    1    3    3    0    0 -0.59953533022E+02  0.27864030493E+02  0.24985420685E+02  0.70676032457E+02  0.00000000000E+00 0. -1.
</event>
<event>
 7    1  0.5452757E-006  0.1327735E+03  0.7818608E-02  0.1287495E+00
          2   -1    0    0  502    0  0.00000000000E+00  0.00000000000E+00  0.24409230871E+04  0.24409230871E+04  0.00000000000E+00 0. -1.
          1   -1    0    0  501    0 -0.00000000000E+00 -0.00000000000E+00 -0.17064227488E+03  0.17064227488E+03  0.00000000000E+00 0. -1.
         25    2    1    2    0    0  0.34517981902E+02  0.62456652181E+02  0.36757205411E+03  0.39474907315E+03  0.12500116524E+03 0.  0.
          2    1    1    2  501    0 -0.36915656866E+02 -0.13277555132E+03 -0.12609420855E+03  0.18679363527E+03  0.00000000000E+00 0. -1.
          1    1    1    2  502    0  0.23976749635E+01  0.70318899137E+02  0.20288029667E+04  0.20300226536E+04  0.00000000000E+00 0. -1.
         22    1    3    3    0    0  0.16019816689E+02 -0.37880988357E+02  0.87871672520E+02  0.97020794870E+02  0.00000000000E+00 0. -1.
         22    1    3    3    0    0  0.18498165213E+02  0.10033764054E+03  0.27970038159E+03  0.29772827828E+03  0.00000000000E+00 0. -1.
</event>
<event>
 7    1  0.5452757E-006  0.1110540E+03  0.7818608E-02  0.1337360E+00
          2   -1    0    0  502    0  0.00000000000E+00  0.00000000000E+00  0.20427947937E+02  0.20427947937E+02  0.00000000000E+00 0. -1.
          1   -1    0    0  501    0 -0.00000000000E+00 -0.00000000000E+00 -0.27320709652E+04  0.27320709652E+04  0.00000000000E+00 0. -1.
         25    2    1    2    0    0 -0.46901352663E+02 -0.10121970606E+03 -0.13753304628E+04  0.13854974702E+04  0.12499676868E+03 0.  0.
          2    1    1    2  501    0  0.52369429585E+02 -0.11358630701E+02 -0.11351559839E+04  0.11364201175E+04  0.00000000000E+00 0. -1.
          1    1    1    2  502    0 -0.54680769223E+01  0.11257833676E+03 -0.20115657048E+03  0.23058132539E+03  0.00000000000E+00 0. -1.
         22    1    3    3    0    0 -0.43870501447E+02 -0.11006034556E+03 -0.13692082729E+04  0.13743249962E+04  0.00000000000E+00 0.  1.
         22    1    3    3    0    0 -0.30308512161E+01  0.88406395027E+01 -0.61221899025E+01  0.11172473993E+02  0.00000000000E+00 0.  1.
</event>
<event>
 7    1  0.5452757E-006  0.7493222E+02  0.7818608E-02  0.1438310E+00
          2   -1    0    0  502    0  0.00000000000E+00  0.00000000000E+00  0.13800588183E+04  0.13800588183E+04  0.00000000000E+00 0. -1.
          1   -1    0    0  501    0 -0.00000000000E+00 -0.00000000000E+00 -0.53268522003E+03  0.53268522003E+03  0.00000000000E+00 0. -1.
         25    2    1    2    0    0 -0.88709702871E+02  0.30715659812E+02 -0.58303338218E+02  0.16684900018E+03  0.12500578575E+03 0.  0.
          2    1    1    2  501    0  0.57452971567E+02 -0.46813951237E+02 -0.41660512901E+03  0.42314562917E+03  0.00000000000E+00 0. -1.
          1    1    1    2  502    0  0.31256731304E+02  0.16098291425E+02  0.13222820655E+04  0.13227494089E+04  0.00000000000E+00 0. -1.
         22    1    3    3    0    0 -0.39150880592E+02  0.59874663077E+02  0.15591556191E+02  0.73217916893E+02  0.00000000000E+00 0.  1.
         22    1    3    3    0    0 -0.49558822279E+02 -0.29159003265E+02 -0.73894894409E+02  0.93631083283E+02  0.00000000000E+00 0.  1.
</event>
<event>
 7    1  0.5452757E-006  0.9577653E+02  0.7818608E-02  0.1401189E+00
          2   -1    0    0  502    0  0.00000000000E+00  0.00000000000E+00  0.27666861028E+03  0.27666861028E+03  0.00000000000E+00 0. -1.
          1   -1    0    0  501    0 -0.00000000000E+00 -0.00000000000E+00 -0.28072506847E+03  0.28072506847E+03  0.00000000000E+00 0. -1.
         25    2    1    2    0    0  0.66852131648E+02  0.74766426887E+02 -0.63923401485E+02  0.17251415175E+03  0.12496281527E+03 0.  0.
          2    1    1    2  501    0 -0.85662797881E+02 -0.43369386812E+02 -0.14657210483E+03  0.17522100493E+03  0.00000000000E+00 0. -1.
          1    1    1    2  502    0  0.18810666233E+02 -0.31397040075E+02  0.20643904813E+03  0.20965852208E+03  0.00000000000E+00 0. -1.
         22    1    3    3    0    0 -0.19893651230E+02  0.63612233765E+02 -0.45512525715E+01  0.66805595153E+02  0.00000000000E+00 0. -1.
         22    1    3    3    0    0  0.86745782878E+02  0.11154193123E+02 -0.59372148913E+02  0.10570855660E+03  0.00000000000E+00 0. -1.
</event>
<event>
 7    1  0.5452757E-006  0.7265524E+02  0.7818608E-02  0.1369138E+00
          2   -1    0    0  502    0  0.00000000000E+00  0.00000000000E+00  0.67377299094E+03  0.67377299094E+03  0.00000000000E+00 0. -1.
          1   -1    0    0  501    0 -0.00000000000E+00 -0.00000000000E+00 -0.99619763785E+03  0.99619763785E+03  0.00000000000E+00 0. -1.
         25    2    1    2    0    0 -0.15501321615E+02 -0.18283021278E+02  0.84145436966E+02  0.15257878506E+03  0.12500108500E+03 0.  0.
          2    1    1    2  501    0  0.22318265554E+02 -0.58420643646E+02 -0.95828765075E+03  0.96032614156E+03  0.00000000000E+00 0. -1.
          1    1    1    2  502    0 -0.68169439396E+01  0.76703664924E+02  0.55171756687E+03  0.55706570217E+03  0.00000000000E+00 0. -1.
         22    1    3    3    0    0 -0.17068231614E+02 -0.44310086753E+02 -0.15208909604E+02  0.49859996488E+02  0.00000000000E+00 0.  1.
         22    1    3    3    0    0  0.15669099996E+01  0.26027065475E+02  0.99354346569E+02  0.10271878858E+03  0.00000000000E+00 0.  1.
</event>
<event>
 7    1  0.5452757E-006  0.1243485E+03  0.7818608E-02  0.1312618E+00
          2   -1    0    0  502    0  0.00000000000E+00  0.00000000000E+00  0.29172192968E+03  0.29172192968E+03  0.00000000000E+00 0. -1.
          1   -1    0    0  501    0 -0.00000000000E+00 -0.00000000000E+00 -0.56829499883E+03  0.56829499883E+03  0.00000000000E+00 0. -1.
         25    2    1    2    0    0 -0.61636868988E+02  0.96125843838E+02 -0.15312827319E+03  0.22829424639E+03  0.12502285157E+03 0.  0.
          2    1    1    2  501    0  0.12511463541E+02 -0.12986664908E+03 -0.36254552702E+03  0.38530655643E+03  0.00000000000E+00 0. -1.
          1    1    1    2  502    0  0.49125405448E+02  0.33740805246E+02  0.23910073106E+03  0.24641612568E+03  0.00000000000E+00 0. -1.
         22    1    3    3    0    0 -0.35341247357E+02  0.12142261161E+03 -0.89437636909E+02  0.15489204393E+03  0.00000000000E+00 0.  1.
         22    1    3    3    0    0 -0.26295621632E+02 -0.25296767777E+02 -0.63690636283E+02  0.73402202468E+02  0.00000000000E+00 0.  1.
</event>
<event>
 7    1  0.5452757E-006  0.1559512E+03  0.7818608E-02  0.1352484E+00
          2   -1    0    0  502    0  0.00000000000E+00  0.00000000000E+00  0.87319442818E+03  0.87319442818E+03  0.00000000000E+00 0. -1.
          1   -1    0    0  501    0 -0.00000000000E+00 -0.00000000000E+00 -0.99728855291E+03  0.99728855291E+03  0.00000000000E+00 0. -1.
         25    2    1    2    0    0  0.53700934576E+02  0.14891030536E+03 -0.65297550907E+02  0.21200725348E+03  0.12500094383E+03 0.  0.
          2    1    1    2  501    0 -0.33014765203E+02  0.57208637799E+01 -0.85069582949E+03  0.85135544710E+03  0.00000000000E+00 0. -1.
          1    1    1    2  502    0 -0.20686169372E+02 -0.15463116914E+03  0.79189925567E+03  0.80712028051E+03  0.00000000000E+00 0. -1.
         22    1    3    3    0    0  0.85146831657E+02  0.14665194948E+03 -0.48992353761E+02  0.17651353476E+03  0.00000000000E+00 0. -1.
         22    1    3    3    0    0 -0.31445897082E+02  0.22583558827E+01 -0.16305197146E+02  0.35493718719E+02  0.00000000000E+00 0. -1.
</event>
<event>
 7    1  0.5452757E-006  0.8225984E+02  0.7818608E-02  0.1383074E+00
          2   -1    0    0  502    0  0.00000000000E+00  0.00000000000E+00  0.92060768175E+02  0.92060768175E+02  0.00000000000E+00 0. -1.
          1   -1    0    0  501    0 -0.00000000000E+00 -0.00000000000E+00 -0.17644895197E+04  0.17644895197E+04  0.00000000000E+00 0. -1.
         25    2    1    2    0    0 -0.25363615356E+02  0.25179960716E+02 -0.84608477663E+03  0.85601486751E+03  0.12499864295E+03 0.  0.
          2    1    1    2  501    0 -0.45670916808E+02  0.18484152812E+02 -0.89264709850E+03  0.89400578242E+03  0.00000000000E+00 0. -1.
          1    1    1    2  502    0  0.71034532164E+02 -0.43664113528E+02  0.66303123579E+02  0.10652963797E+03  0.00000000000E+00 0. -1.
         22    1    3    3    0    0  0.14771857668E+02  0.30760691418E+01 -0.74360735052E+03  0.74376041958E+03  0.00000000000E+00 0. -1.
         22    1    3    3    0    0 -0.40135473024E+02  0.22103891574E+02 -0.10247742611E+03  0.11225444793E+03  0.00000000000E+00 0. -1.
</event>
<event>
 7    1  0.5452757E-006  0.6419350E+02  0.7818608E-02  0.1497826E+00
          2   -1    0    0  502    0  0.00000000000E+00  0.00000000000E+00  0.50592925412E+03  0.50592925412E+03  0.00000000000E+00 0. -1.
          1   -1    0    0  501    0 -0.00000000000E+00 -0.00000000000E+00 -0.87451717601E+03  0.87451717601E+03  0.00000000000E+00 0. -1.
         25    2    1    2    0    0  0.46527388050E+02  0.16781464918E+02 -0.12014333425E+03  0.18029400193E+03  0.12500036386E+03 0.  0.
          2    1    1    2  501    0 -0.48429814334E+02 -0.43474155675E+02 -0.72245844322E+03  0.72538379587E+03  0.00000000000E+00 0. -1.
          1    1    1    2  502    0  0.19024262846E+01  0.26692690757E+02  0.47401385558E+03  0.47476863233E+03  0.00000000000E+00 0. -1.
         22    1    3    3    0    0 -0.20416368070E+01  0.19112325791E+01  0.25703454356E+02  0.25855147585E+02  0.00000000000E+00 0.  1.
         22    1    3    3    0    0  0.48569024857E+02  0.14870232339E+02 -0.14584678861E+03  0.15443885435E+03  0.00000000000E+00 0.  1.
</event>
<event>
 7    1  0.5452757E-006  0.1281400E+03  0.7818608E-02  0.1303519E+00
          2   -1    0    0  502    0  0.00000000000E+00  0.00000000000E+00  0.29127261448E+04  0.29127261448E+04  0.00000000000E+00 0. -1.
          1   -1    0    0  501    0 -0.00000000000E+00 -0.00000000000E+00 -0.19173687352E+02  0.19173687352E+02  0.00000000000E+00 0. -1.
         25    2    1    2    0    0 -0.97002012811E+02 -0.45544570204E+02  0.71128182048E+03  0.73008918401E+03  0.12499876041E+03 0.  0.
          2    1    1    2  501    0 -0.38368361403E+02  0.49749423346E+02  0.12323607697E+03  0.13832666752E+03  0.00000000000E+00 0. -1.
          1    1    1    2  502    0  0.13537037421E+03 -0.42048531425E+01  0.20590345600E+04  0.20634839806E+04  0.00000000000E+00 0. -1.
         22    1    3    3    0    0 -0.79543231845E+02 -0.76500893804E+02  0.34816909131E+03  0.36524132930E+03  0.00000000000E+00 0.  1.
         22    1    3    3    0    0 -0.17458780966E+02  0.30956323600E+02  0.36311272916E+03  0.36484785471E+03  0.00000000000E+00 0.  1.
</event>
<event>
 7    1  0.5452757E-006  0.5277132E+02  0.7818608E-02  0.1543122E+00
          2   -1    0    0  502    0  0.00000000000E+00  0.00000000000E+00  0.11530613242E+03  0.11530613242E+03  0.00000000000E+00 0. -1.
          1   -1    0    0  501    0 -0.00000000000E+00 -0.00000000000E+00 -0.12128209907E+04  0.12128209907E+04  0.00000000000E+00 0. -1.
         25    2    1    2    0    0  0.49093063429E+02 -0.19099948585E+02 -0.28130637781E+02  0.13852950863E+03  0.12499662022E+03 0.  0.
          2    1    1    2  501    0  0.41757357455E+01  0.23684070209E+02 -0.11174462854E+04  0.11177050473E+04  0.00000000000E+00 0. -1.
          1    1    1    2  502    0 -0.53268799175E+02 -0.45841216242E+01  0.48062064902E+02  0.71892567204E+02  0.00000000000E+00 0. -1.
         22    1    3    3    0    0  0.84344265391E+02 -0.37864670053E+02 -0.54740013321E+01  0.92615619812E+02  0.00000000000E+00 0.  1.
         22    1    3    3    0    0 -0.35251201962E+02  0.18764721469E+02 -0.22656636449E+02  0.45913888821E+02  0.00000000000E+00 0.  1.
</event>
<event>
 7    1  0.5452757E-006  0.5215587E+02  0.7818608E-02  0.1484740E+00
          2   -1    0    0  502    0  0.00000000000E+00  0.00000000000E+00  0.13170504405E+04  0.13170504405E+04  0.00000000000E+00 0. -1.
          1   -1    0    0  501    0 -0.00000000000E+00 -0.00000000000E+00 -0.44809816885E+02  0.44809816885E+02  0.00000000000E+00 0. -1.
         25    2    1    2    0    0 -0.78156897254E+02  0.14740680259E+02  0.14508964823E+03  0.20736896307E+03  0.12500037030E+03 0.  0.
          2    1    1    2  501    0  0.46235660697E+02  0.20644384108E+01  0.26663938801E+02  0.53413143125E+02  0.00000000000E+00 0. -1.
          1    1    1    2  502    0  0.31921236557E+02 -0.16805118670E+02  0.11004870365E+04  0.11010781512E+04  0.00000000000E+00 0. -1.
         22    1    3    3    0    0 -0.34076999194E+01  0.52962490561E+02  0.97124155073E+02  0.11067854048E+03  0.00000000000E+00 0. -1.
         22    1    3    3    0    0 -0.74749197335E+02 -0.38221810302E+02  0.47965493161E+02  0.96690422582E+02  0.00000000000E+00 0. -1.
</event>
<event>
 7    1  0.5452757E-006  0.1825550E+03  0.7818608E-02  0.1324972E+00
          2   -1    0    0  502    0  0.00000000000E+00  0.00000000000E+00  0.16256157877E+04  0.16256157877E+04  0.00000000000E+00 0. -1.
          1   -1    0    0  501    0 -0.00000000000E+00 -0.00000000000E+00 -0.12046168963E+04  0.12046168963E+04  0.00000000000E+00 0. -1.
         25    2    1    2    0    0 -0.26753963070E+01 -0.17790615332E+03  0.38229833842E+03  0.43981468950E+03  0.12500873732E+03 0.  0.
          2    1    1    2  501    0  0.39015886381E+02  0.17848055069E+03 -0.11684871507E+04  0.11826832914E+04  0.00000000000E+00 0. -1.
          1    1    1    2  502    0 -0.36340490074E+02 -0.57439737078E+00  0.12071877037E+04  0.12077347031E+04  0.00000000000E+00 0. -1.
         22    1    3    3    0    0 -0.61141288283E+02 -0.97170390723E+02  0.24035494274E+03  0.26636598970E+03  0.00000000000E+00 0.  1.
         22    1    3    3    0    0  0.58465891976E+02 -0.80735762598E+02  0.14194339568E+03  0.17344869981E+03  0.00000000000E+00 0.  1.
</event>
<event>
 7    1  0.5452757E-006  0.8266867E+02  0.7818608E-02  0.1401745E+00
          2   -1    0    0  502    0  0.00000000000E+00  0.00000000000E+00  0.32910400876E+03  0.32910400876E+03  0.00000000000E+00 0. -1.
          1   -1    0    0  501    0 -0.00000000000E+00 -0.00000000000E+00 -0.11661118366E+03  0.11661118366E+03  0.00000000000E+00 0. -1.
         25    2    1    2    0    0  0.62975383850E+02 -0.76977465896E+02  0.17404462274E+03  0.23623526730E+03  0.12499656628E+03 0.  0.
          2    1    1    2  501    0 -0.20810309078E+02  0.79099405160E+02 -0.60609751635E+02  0.10180042659E+03  0.00000000000E+00 0. -1.
          1    1    1    2  502    0 -0.42165074772E+02 -0.21219392639E+01  0.99057953993E+02  0.10767949854E+03  0.00000000000E+00 0. -1.
         22    1    3    3    0    0  0.18165387083E+02 -0.46760500224E+02  0.17513506822E+03  0.18217798383E+03  0.00000000000E+00 0.  1.
         22    1    3    3    0    0  0.44809996767E+02 -0.30216965672E+02 -0.10904454846E+01  0.54057283469E+02  0.00000000000E+00 0.  1.
</event>
<event>
 7    1  0.5452757E-006  0.1236528E+03  0.7818608E-02  0.1267435E+00
          2   -1    0    0  502    0  0.00000000000E+00  0.00000000000E+00  0.38676900148E+04  0.38676900148E+04  0.00000000000E+00 0. -1.
          1   -1    0    0  501    0 -0.00000000000E+00 -0.00000000000E+00 -0.33684412813E+03  0.33684412813E+03  0.00000000000E+00 0. -1.
         25    2    1    2    0    0 -0.95867772199E+02  0.63973930794E+02  0.21020408728E+04  0.21089058991E+04  0.12499986784E+03 0.  0.
          2    1    1    2  501    0  0.53416685026E+02  0.74302310581E+02 -0.32409694460E+03  0.33676847402E+03  0.00000000000E+00 0. -1.
          1    1    1    2  502    0  0.42451087173E+02 -0.13827624137E+03  0.17529019584E+04  0.17588597698E+04  0.00000000000E+00 0. -1.
         22    1    3    3    0    0 -0.70263388308E+02 -0.26446803468E+02  0.82293721801E+03  0.82635467079E+03  0.00000000000E+00 0. -1.
         22    1    3    3    0    0 -0.25604383891E+02  0.90420734262E+02  0.12791036548E+04  0.12825512283E+04  0.00000000000E+00 0. -1.
</event>
<event>
 7    1  0.5452757E-006  0.7634949E+02  0.7818608E-02  0.1433042E+00
          2   -1    0    0  502    0  0.00000000000E+00  0.00000000000E+00  0.22296691122E+04  0.22296691122E+04  0.00000000000E+00 0. -1.
          1   -1    0    0  501    0 -0.00000000000E+00 -0.00000000000E+00 -0.54331440680E+03  0.54331440680E+03  0.00000000000E+00 0. -1.
         25    2    1    2    0    0 -0.89396366084E+02 -0.47370014463E+01  0.67647117287E+03  0.69372339172E+03  0.12499898814E+03 0.  0.
          2    1    1    2  501    0  0.18408779642E+02  0.30821205676E+02 -0.53315851988E+03  0.53436582713E+03  0.00000000000E+00 0. -1.
          1    1    1    2  502    0  0.70987586442E+02 -0.26084204229E+02  0.15430420524E+04  0.15448943002E+04  0.00000000000E+00 0. -1.
         22    1    3    3    0    0 -0.26514455447E+02 -0.52829282223E+02  0.44892247044E+03  0.45279723263E+03  0.00000000000E+00 0.  1.
         22    1    3    3    0    0 -0.62881910637E+02  0.48092280776E+02  0.22754870243E+03  0.24092615909E+03  0.00000000000E+00 0.  1.
</event>
<event>
 7    1  0.5452757E-006  0.8424659E+02  0.7818608E-02  0.1388348E+00
          2   -1    0    0  502    0  0.00000000000E+00  0.00000000000E+00  0.94935246543E+03  0.94935246543E+03  0.00000000000E+00 0. -1.
          1   -1    0    0  501    0 -0.00000000000E+00 -0.00000000000E+00 -0.45785849296E+03  0.45785849296E+03  0.00000000000E+00 0. -1.
         25    2    1    2    0    0 -0.10450670302E+03 -0.48735201930E+02  0.78715283521E+03  0.80531472077E+03  0.12500177050E+03 0.  0.
          2    1    1    2  501    0  0.59641160731E+02  0.59329873151E+02 -0.44124132129E+03  0.44918927582E+03  0.00000000000E+00 0. -1.
          1    1    1    2  502    0  0.44865542293E+02 -0.10594671221E+02  0.14558245854E+03  0.15270696179E+03  0.00000000000E+00 0. -1.
         22    1    3    3    0    0 -0.87295532050E+02 -0.72763097868E+01  0.71494158860E+03  0.72028808799E+03  0.00000000000E+00 0. -1.
         22    1    3    3    0    0 -0.17211170974E+02 -0.41458892143E+02  0.72211246614E+02  0.85026632778E+02  0.00000000000E+00 0. -1.
</event>
<event>
 7    1  0.5452757E-006  0.8309429E+02  0.7818608E-02  0.1434459E+00
          2   -1    0    0  502    0  0.00000000000E+00  0.00000000000E+00  0.13873888709E+04  0.13873888709E+04  0.00000000000E+00 0. -1.
          1   -1    0    0  501    0 -0.00000000000E+00 -0.00000000000E+00 -0.22393395272E+04  0.22393395272E+04  0.00000000000E+00 0. -1.
         25    2    1    2    0    0 -0.29565220331E+02 -0.50895716466E+02  0.42360116860E+03  0.44556528190E+03  0.12500397671E+03 0.  0.
          2    1    1    2  501    0 -0.29443417921E+02 -0.14077102724E+02 -0.22262163528E+04  0.22264555529E+04  0.00000000000E+00 0. -1.
          1    1    1    2  502    0  0.59008638252E+02  0.64972819191E+02  0.95066452789E+03  0.95470756319E+03  0.00000000000E+00 0. -1.
         22    1    3    3    0    0 -0.21715710331E+02 -0.75744764891E+02  0.13905606965E+03  0.15982938400E+03  0.00000000000E+00 0.  1.
         22    1    3    3    0    0 -0.78495100001E+01  0.24849048424E+02  0.28454509895E+03  0.28573589790E+03  0.00000000000E+00 0.  1.
</event>
<event>
 7    1  0.5452757E-006  0.1366646E+03  0.7818608E-02  0.1271446E+00
          2   -1    0    0  502    0  0.00000000000E+00  0.00000000000E+00  0.30109195759E+04  0.30109195759E+04  0.00000000000E+00 0. -1.
          1   -1    0    0  501    0 -0.00000000000E+00 -0.00000000000E+00 -0.22268148496E+04  0.22268148496E+04  0.00000000000E+00 0. -1.
         25    2    1    2    0    0  0.16029492971E+03  0.70694986560E+02  0.14570057651E+04  0.14728146721E+04  0.12500005282E+03 0.  0.
          2    1    1    2  501    0 -0.75706441702E+02  0.24735496680E+02 -0.22155639383E+04  0.22169950101E+04  0.00000000000E+00 0. -1.
          1    1    1    2  502    0 -0.84588488004E+02 -0.95430483239E+02  0.15426628994E+04  0.15479247432E+04  0.00000000000E+00 0. -1.
         22    1    3    3    0    0 -0.67055293519E+01 -0.73298455906E+01  0.38136237072E+03  0.38149174115E+03  0.00000000000E+00 0. -1.
         22    1    3    3    0    0  0.16700045906E+03  0.78024832150E+02  0.10756433944E+04  0.10913229310E+04  0.00000000000E+00 0. -1.
</event>
<event>
 7    1  0.6683004E-006  0.8093136E+02  0.7818608E-02  0.1372464E+00
          2   -1    0    0  502    0  0.00000000000E+00  0.00000000000E+00  0.18653039434E+04  0.18653039434E+04  0.00000000000E+00 0. -1.
          1   -1    0    0  501    0 -0.00000000000E+00 -0.00000000000E+00 -0.46010673309E+03  0.46010673309E+03  0.00000000000E+00 0. -1.
         25    2    1    2    0    0  0.30762332814E+02  0.20911051284E+02 -0.20987810637E+03  0.24709786825E+03  0.12499977511E+03 0.  0.
          2    1    1    2  501    0  0.50364877637E+02 -0.21136605177E+02 -0.22749358073E+03  0.23395877041E+03  0.00000000000E+00 0. -1.
          1    1    1    2  502    0 -0.81127210451E+02  0.22555389302E+00  0.18425688974E+04  0.18443540379E+04  0.00000000000E+00 0. -1.
         22    1    3    3    0    0 -0.44946338547E+02 -0.36088287299E+01 -0.43434030336E+02  0.62607603251E+02  0.00000000000E+00 0.  1.
         22    1    3    3    0    0  0.75708671361E+02  0.24519880014E+02 -0.16644407603E+03  0.18449026500E+03  0.00000000000E+00 0.  1.
</event>
<event>
 7    1  0.5452757E-006  0.7629302E+02  0.7818608E-02  0.1451823E+00
          2   -1    0    0  502    0  0.00000000000E+00  0.00000000000E+00  0.11367666513E+04  0.11367666513E+04  0.00000000000E+00 0. -1.
          1   -1    0    0  501    0 -0.00000000000E+00 -0.00000000000E+00 -0.12250861569E+04  0.12250861569E+04  0.00000000000E+00 0. -1.
         25    2    1    2    0    0 -0.40985139958E+02  0.30076078125E+02  0.34444297754E+03  0.36993290378E+03  0.12500014540E+03 0.  0.
          2    1    1    2  501    0 -0.30390398327E+02  0.72249814212E+01 -0.12100591754E+04  0.12104623020E+04  0.00000000000E+00 0. -1.
          1    1    1    2  502    0  0.71375538285E+02 -0.37301059546E+02  0.77729669227E+03  0.78145760238E+03  0.00000000000E+00 0. -1.
         22    1    3    3    0    0 -0.52255514692E+02  0.72481500930E+02  0.25716373377E+03  0.27224509685E+03  0.00000000000E+00 0.  1.
         22    1    3    3    0    0  0.11270374734E+02 -0.42405422804E+02  0.87279243767E+02  0.97687806928E+02  0.00000000000E+00 0.  1.
</event>
<event>
 7    1  0.5452757E-006  0.1117813E+03  0.7818608E-02  0.1366463E+00
          2   -1    0    0  502    0  0.00000000000E+00  0.00000000000E+00  0.15354322855E+04  0.15354322855E+04  0.00000000000E+00 0. -1.
          1   -1    0    0  501    0 -0.00000000000E+00 -0.00000000000E+00 -0.48318179071E+03  0.48318179071E+03  0.00000000000E+00 0. -1.
         25    2    1    2    0    0  0.96635936218E+02  0.11149158600E+03  0.51339528735E+03  0.54860622749E+03  0.12500077538E+03 0.  0.
          2    1    1    2  501    0 -0.29107439569E+02 -0.29667174023E+02 -0.46183912524E+03  0.46370546886E+03  0.00000000000E+00 0. -1.
          1    1    1    2  502    0 -0.67528496649E+02 -0.81824411978E+02  0.10006943327E+04  0.10063023799E+04  0.00000000000E+00 0. -1.
         22    1    3    3    0    0  0.82448430154E+02  0.15461898533E+01  0.22551890924E+03  0.24012270355E+03  0.00000000000E+00 0. -1.
         22    1    3    3    0    0  0.14187506064E+02  0.10994539615E+03  0.28787637811E+03  0.30848352393E+03  0.00000000000E+00 0. -1.
</event>
<event>
 7    1  0.5452757E-006  0.5356121E+02  0.7818608E-02  0.1538453E+00
          2   -1    0    0  502    0  0.00000000000E+00  0.00000000000E+00  0.10184754441E+04  0.10184754441E+04  0.00000000000E+00 0. -1.
          1   -1    0    0  501    0 -0.00000000000E+00 -0.00000000000E+00 -0.83608640571E+02  0.83608640571E+02  0.00000000000E+00 0. -1.
         25    2    1    2    0    0 -0.10623455582E+02  0.54741806564E+02  0.96741621990E+03  0.97704525107E+03  0.12495501960E+03 0.  0.
          2    1    1    2  501    0 -0.13627725878E+02 -0.51831919944E+02 -0.65113263796E+02  0.84332674332E+02  0.00000000000E+00 0. -1.
          1    1    1    2  502    0  0.24251181460E+02 -0.29098866195E+01  0.32563847377E+02  0.40706159219E+02  0.00000000000E+00 0. -1.
         22    1    3    3    0    0 -0.59357788978E+02  0.25536241741E+01  0.58588538357E+03  0.58889010077E+03  0.00000000000E+00 0.  1.
         22    1    3    3    0    0  0.48734333396E+02  0.52188182390E+02  0.38153083633E+03  0.38815515030E+03  0.00000000000E+00 0.  1.
</event>
<event>
 7    1  0.5452757E-006  0.5748677E+02  0.7818608E-02  0.1416892E+00
          2   -1    0    0  502    0  0.00000000000E+00  0.00000000000E+00  0.72214874670E+03  0.72214874670E+03  0.00000000000E+00 0. -1.
          1   -1    0    0  501    0 -0.00000000000E+00 -0.00000000000E+00 -0.25532376645E+02  0.25532376645E+02  0.00000000000E+00 0. -1.
         25    2    1    2    0    0 -0.42809582778E+02  0.19631159308E+02  0.38608868052E+03  0.40854441424E+03  0.12500410549E+03 0.  0.
          2    1    1    2  501    0  0.46961397315E+02  0.37705484907E+02  0.72430542457E+02  0.94197982518E+02  0.00000000000E+00 0. -1.
          1    1    1    2  502    0 -0.41518145377E+01 -0.57336644215E+02  0.23809714708E+03  0.24493872658E+03  0.00000000000E+00 0. -1.
         22    1    3    3    0    0 -0.23950269933E+02  0.69533210184E+02  0.28387971598E+03  0.29325104585E+03  0.00000000000E+00 0.  1.
         22    1    3    3    0    0 -0.18859312845E+02 -0.49902050876E+02  0.10220896454E+03  0.11529336839E+03  0.00000000000E+00 0.  1.
</event>
<event>
 7    1  0.5452757E-006  0.6899980E+02  0.7818608E-02  0.1495406E+00
          2   -1    0    0  502    0  0.00000000000E+00  0.00000000000E+00  0.51313634416E+03  0.51313634416E+03  0.00000000000E+00 0. -1.
          1   -1    0    0  501    0 -0.00000000000E+00 -0.00000000000E+00 -0.75441076228E+03  0.75441076228E+03  0.00000000000E+00 0. -1.
         25    2    1    2    0    0 -0.89112552273E+02  0.18975772533E+02 -0.11538623808E+03  0.19297583888E+03  0.12499825414E+03 0.  0.
          2    1    1    2  501    0  0.20584526985E+02 -0.14736512904E+02 -0.59747574545E+03  0.59801183430E+03  0.00000000000E+00 0. -1.
          1    1    1    2  502    0  0.68528025288E+02 -0.42392596287E+01  0.47158756541E+03  0.47655943325E+03  0.00000000000E+00 0. -1.
         22    1    3    3    0    0 -0.11427280121E+03  0.20477479164E+02 -0.56895164593E+02  0.12928518865E+03  0.00000000000E+00 0.  1.
         22    1    3    3    0    0  0.25160248938E+02 -0.15017066309E+01 -0.58491073490E+02  0.63690650236E+02  0.00000000000E+00 0.  1.
</event>
<event>
 7    1  0.5452757E-006  0.8234977E+02  0.7818608E-02  0.1351251E+00
          2   -1    0    0  502    0  0.00000000000E+00  0.00000000000E+00  0.27783704749E+03  0.27783704749E+03  0.00000000000E+00 0. -1.
          1   -1    0    0  501    0 -0.00000000000E+00 -0.00000000000E+00 -0.45669280330E+03  0.45669280330E+03  0.00000000000E+00 0. -1.
         25    2    1    2    0    0 -0.21185942659E+02 -0.10589712716E+02 -0.52406991267E+02  0.13759862482E+03  0.12500361049E+03 0.  0.
          2    1    1    2  501    0 -0.61953424292E+02 -0.16539200381E+02 -0.35055205834E+03  0.35636851367E+03  0.00000000000E+00 0. -1.
          1    1    1    2  502    0  0.83139366951E+02  0.27128913097E+02  0.22410329379E+03  0.24056271230E+03  0.00000000000E+00 0. -1.
         22    1    3    3    0    0  0.72753219045E+01  0.42352130606E+02  0.16615399983E+02  0.46072820537E+02  0.00000000000E+00 0. -1.
         22    1    3    3    0    0 -0.28461264563E+02 -0.52941843321E+02 -0.69022391251E+02  0.91525804278E+02  0.00000000000E+00 0. -1.
</event>
<event>
 7    1  0.5452757E-006  0.2475951E+03  0.7818608E-02  0.1214931E+00
          2   -1    0    0  502    0  0.00000000000E+00  0.00000000000E+00  0.16771543585E+04  0.16771543585E+04  0.00000000000E+00 0. -1.
          1   -1    0    0  501    0 -0.00000000000E+00 -0.00000000000E+00 -0.11066872817E+04  0.11066872817E+04  0.00000000000E+00 0. -1.
         25    2    1    2    0    0 -0.93907636229E+02 -0.16317049093E+03 -0.66399006300E+02  0.23555878235E+03  0.12504342707E+03 0.  0.
          2    1    1    2  501    0 -0.73853791356E+02 -0.24553430955E+02 -0.94414724020E+03  0.94734960001E+03  0.00000000000E+00 0. -1.
          1    1    1    2  502    0  0.16776142758E+03  0.18772392189E+03  0.15810133233E+04  0.16009332578E+04  0.00000000000E+00 0. -1.
         22    1    3    3    0    0 -0.19629869688E+02 -0.68109848174E+02 -0.88004772457E+02  0.11300054503E+03  0.00000000000E+00 0. -1.
         22    1    3    3    0    0 -0.74277766541E+02 -0.95060642756E+02  0.21605766157E+02  0.12255823732E+03  0.00000000000E+00 0. -1.
</event>
<event>
 7    1  0.5452757E-006  0.7059105E+02  0.7818608E-02  0.1405246E+00
          2   -1    0    0  502    0  0.00000000000E+00  0.00000000000E+00  0.41446863745E+03  0.41446863745E+03  0.00000000000E+00 0. -1.
          1   -1    0    0  501    0 -0.00000000000E+00 -0.00000000000E+00 -0.27107307840E+04  0.27107307840E+04  0.00000000000E+00 0. -1.
         25    2    1    2    0    0 -0.42615510650E+02  0.73288431349E+02 -0.81074417881E+02  0.17142223315E+03  0.12500097946E+03 0.  0.
          2    1    1    2  501    0  0.63844783210E+02 -0.30130451430E+02 -0.25824319883E+04  0.25833967900E+04  0.00000000000E+00 0. -1.
          1    1    1    2  502    0 -0.21229272561E+02 -0.43157979919E+02  0.36724425960E+03  0.37038039832E+03  0.00000000000E+00 0. -1.
         22    1    3    3    0    0  0.25585460337E+02  0.66456575809E+01 -0.70728937434E+02  0.75507371401E+02  0.00000000000E+00 0. -1.
         22    1    3    3    0    0 -0.68200970986E+02  0.66642773768E+02 -0.10345480447E+02  0.95914861751E+02  0.00000000000E+00 0. -1.
</event>
<event>
 7    1  0.5452757E-006  0.2949471E+03  0.7818608E-02  0.1275710E+00
          2   -1    0    0  502    0  0.00000000000E+00  0.00000000000E+00  0.39467903168E+03  0.39467903168E+03  0.00000000000E+00 0. -1.
          1   -1    0    0  501    0 -0.00000000000E+00 -0.00000000000E+00 -0.30628399786E+04  0.30628399786E+04  0.00000000000E+00 0. -1.
         25    2    1    2    0    0  0.31687841676E+03  0.24113796357E+02 -0.33010771981E+03  0.47495941455E+03  0.12498772984E+03 0.  0.
          2    1    1    2  501    0 -0.28958403019E+02  0.20398624880E+02 -0.25943125007E+04  0.25945543055E+04  0.00000000000E+00 0. -1.
          1    1    1    2  502    0 -0.28792001374E+03 -0.44512421236E+02  0.25625927357E+03  0.38800529023E+03  0.00000000000E+00 0. -1.
         22    1    3    3    0    0  0.30464954503E+03  0.50752716504E+02 -0.27984292907E+03  0.41677241807E+03  0.00000000000E+00 0. -1.
         22    1    3    3    0    0  0.12228871727E+02 -0.26638920147E+02 -0.50264790741E+02  0.58186996473E+02  0.00000000000E+00 0. -1.
</event>
<event>
 7    1  0.5452757E-006  0.1165363E+03  0.7818608E-02  0.1289326E+00
          2   -1    0    0  502    0  0.00000000000E+00  0.00000000000E+00  0.17310628034E+04  0.17310628034E+04  0.00000000000E+00 0. -1.
          1   -1    0    0  501    0 -0.00000000000E+00 -0.00000000000E+00 -0.12744194669E+03  0.12744194669E+03  0.00000000000E+00 0. -1.
         25    2    1    2    0    0 -0.96253985245E+02 -0.14913539116E+03  0.34440090830E+03  0.40711798373E+03  0.12500748966E+03 0.  0.
          2    1    1    2  501    0  0.86461174459E+02  0.70949635321E+02 -0.61958770035E+02  0.12786037160E+03  0.00000000000E+00 0. -1.
          1    1    1    2  502    0  0.97928107860E+01  0.78185755838E+02  0.13211787184E+04  0.13235263947E+04  0.00000000000E+00 0. -1.
         22    1    3    3    0    0 -0.30523005838E+02 -0.13243822756E+03  0.15609289581E+03  0.20696987734E+03  0.00000000000E+00 0.  1.
         22    1    3    3    0    0 -0.65730979407E+02 -0.16697163604E+02  0.18830801249E+03  0.20014810639E+03  0.00000000000E+00 0.  1.
</event>
<event>
 7    1  0.5452757E-006  0.5794899E+02  0.7818608E-02  0.1501840E+00
          2   -1    0    0  502    0  0.00000000000E+00  0.00000000000E+00  0.32901204717E+03  0.32901204717E+03  0.00000000000E+00 0. -1.
          1   -1    0    0  501    0 -0.00000000000E+00 -0.00000000000E+00 -0.53993303929E+03  0.53993303929E+03  0.00000000000E+00 0. -1.
         25    2    1    2    0    0  0.43344959348E+02 -0.33603157999E+02 -0.77791364542E+02  0.15711295036E+03  0.12500010018E+03 0.  0.
          2    1    1    2  501    0 -0.57805547806E+02  0.86533161851E+01 -0.41973223584E+03  0.42378238642E+03  0.00000000000E+00 0. -1.
          1    1    1    2  502    0  0.14460588458E+02  0.24949841814E+02  0.28660260826E+03  0.28804974967E+03  0.00000000000E+00 0. -1.
         22    1    3    3    0    0 -0.85122568636E+01 -0.55810347584E+02  0.52754045506E+01  0.56701704626E+02  0.00000000000E+00 0.  1.
         22    1    3    3    0    0  0.51857216212E+02  0.22207189585E+02 -0.83066769093E+02  0.10041124573E+03  0.00000000000E+00 0.  1.
</event>
<event>
 7    1  0.5452757E-006  0.1871001E+03  0.7818608E-02  0.1259578E+00
          2   -1    0    0  502    0  0.00000000000E+00  0.00000000000E+00  0.14420854623E+04  0.14420854623E+04  0.00000000000E+00 0. -1.
          1   -1    0    0  501    0 -0.00000000000E+00 -0.00000000000E+00 -0.10793231361E+04  0.10793231361E+04  0.00000000000E+00 0. -1.
         25    2    1    2    0    0  0.24821639908E+03  0.29388306829E+02  0.21429147790E+03  0.35216619653E+03  0.12500055650E+03 0.  0.
          2    1    1    2  501    0 -0.18466242869E+03 -0.14368312084E+02 -0.10009626577E+04  0.10179552560E+04  0.00000000000E+00 0. -1.
          1    1    1    2  502    0 -0.63553970389E+02 -0.15019994745E+02  0.11494335061E+04  0.11512871459E+04  0.00000000000E+00 0. -1.
         22    1    3    3    0    0  0.23531341167E+02  0.47741001336E+02  0.51833736472E+02  0.74294437627E+02  0.00000000000E+00 0.  1.
         22    1    3    3    0    0  0.22468505791E+03 -0.18352694507E+02  0.16245774143E+03  0.27787175890E+03  0.00000000000E+00 0.  1.
</event>
<event>
 7    1  0.5452757E-006  0.5074726E+02  0.7818608E-02  0.1512826E+00
          2   -1    0    0  502    0  0.00000000000E+00  0.00000000000E+00  0.31071839318E+03  0.31071839318E+03  0.00000000000E+00 0. -1.
          1   -1    0    0  501    0 -0.00000000000E+00 -0.00000000000E+00 -0.17105314067E+04  0.17105314067E+04  0.00000000000E+00 0. -1.
         25    2    1    2    0    0  0.26663972126E+02 -0.62030164571E+02  0.46172844753E+02  0.14938436121E+03  0.12500018822E+03 0.  0.
          2    1    1    2  501    0 -0.28134316254E+02  0.11928250330E+02 -0.16558330990E+04  0.16561150548E+04  0.00000000000E+00 0. -1.
          1    1    1    2  502    0  0.14703441280E+01  0.50101914241E+02  0.20984724071E+03  0.21575038391E+03  0.00000000000E+00 0. -1.
         22    1    3    3    0    0  0.70492202077E+01  0.29894586472E+02 -0.17974403195E+02  0.35587314820E+02  0.00000000000E+00 0.  1.
         22    1    3    3    0    0  0.19614751918E+02 -0.91924751043E+02  0.64147247948E+02  0.11379704639E+03  0.00000000000E+00 0.  1.
</event>
<event>
 7    1  0.5452757E-006  0.3650669E+03  0.7818608E-02  0.1104276E+00
          2   -1    0    0  502    0  0.00000000000E+00  0.00000000000E+00  0.16925071936E+04  0.16925071936E+04  0.00000000000E+00 0. -1.
          1   -1    0    0  501    0 -0.00000000000E+00 -0.00000000000E+00 -0.56930300975E+03  0.56930300975E+03  0.00000000000E+00 0. -1.
         25    2    1    2    0    0  0.39013564876E+03  0.32484071643E+03  0.94093037647E+02  0.53122962832E+03  0.12499641111E+03 0.  0.
          2    1    1    2  501    0 -0.28777032026E+03 -0.16226893196E+03 -0.26423714714E+03  0.42304164503E+03  0.00000000000E+00 0. -1.
          1    1    1    2  502    0 -0.10236532849E+03 -0.16257178447E+03  0.12933482934E+04  0.13075389300E+04  0.00000000000E+00 0. -1.
         22    1    3    3    0    0  0.82987124757E+02  0.84728991933E+02  0.76172059923E+02  0.14095406224E+03  0.00000000000E+00 0. -1.
         22    1    3    3    0    0  0.30714852400E+03  0.24011172450E+03  0.17920977725E+02  0.39027556608E+03  0.00000000000E+00 0. -1.
</event>
<event>
 7    1  0.5452757E-006  0.3155690E+03  0.7818608E-02  0.1250793E+00
          2   -1    0    0  502    0  0.00000000000E+00  0.00000000000E+00  0.72878242033E+03  0.72878242033E+03  0.00000000000E+00 0. -1.
          1   -1    0    0  501    0 -0.00000000000E+00 -0.00000000000E+00 -0.21969590140E+03  0.21969590140E+03  0.00000000000E+00 0. -1.
         25    2    1    2    0    0 -0.11825701151E+03  0.27926300515E+03  0.18413314738E+03  0.37616726381E+03  0.12499699029E+03 0.  0.
          2    1    1    2  501    0  0.27754977530E+02  0.31840154209E+02 -0.57321031692E+02  0.71202772924E+02  0.00000000000E+00 0. -1.
          1    1    1    2  502    0  0.90502033976E+02 -0.31110315936E+03  0.38227440325E+03  0.50110828500E+03  0.00000000000E+00 0. -1.
         22    1    3    3    0    0  0.26182268994E+02  0.29169673223E+02  0.20806231159E+02  0.44376573783E+02  0.00000000000E+00 0. -1.
         22    1    3    3    0    0 -0.14443928050E+03  0.25009333193E+03  0.16332691622E+03  0.33179069003E+03  0.00000000000E+00 0. -1.
</event>
<event>
 7    1  0.5452757E-006  0.3538097E+02  0.7818608E-02  0.1607777E+00
          2   -1    0    0  502    0  0.00000000000E+00  0.00000000000E+00  0.72090658531E+03  0.72090658531E+03  0.00000000000E+00 0. -1.
          1   -1    0    0  501    0 -0.00000000000E+00 -0.00000000000E+00 -0.17515362913E+02  0.17515362913E+02  0.00000000000E+00 0. -1.
         25    2    1    2    0    0  0.65900428030E+01  0.24589710905E+02  0.52328595216E+03  0.53861105026E+03  0.12500237274E+03 0.  0.
          2    1    1    2  501    0 -0.20535628305E+02  0.12425734591E+02  0.11476333163E+02  0.26604832885E+02  0.00000000000E+00 0. -1.
          1    1    1    2  502    0  0.13945585502E+02 -0.37015445496E+02  0.16862893707E+03  0.17320606508E+03  0.00000000000E+00 0. -1.
         22    1    3    3    0    0 -0.40984619119E+02 -0.67057284426E+01  0.40717886471E+03  0.40929125774E+03  0.00000000000E+00 0. -1.
         22    1    3    3    0    0  0.47574661922E+02  0.31295439348E+02  0.11610708745E+03  0.12931979252E+03  0.00000000000E+00 0. -1.
</event>
<event>
 7    1  0.5452757E-006  0.8923854E+02  0.7818608E-02  0.1355567E+00
          2   -1    0    0  502    0  0.00000000000E+00  0.00000000000E+00  0.80329189081E+03  0.80329189081E+03  0.00000000000E+00 0. -1.
          1   -1    0    0  501    0 -0.00000000000E+00 -0.00000000000E+00 -0.71296598238E+02  0.71296598238E+02  0.00000000000E+00 0. -1.
         25    2    1    2    0    0 -0.98535202750E+02  0.45151829706E+02  0.82895220188E+02  0.18504879040E+03  0.12499425344E+03 0.  0.
          2    1    1    2  501    0  0.46200695711E+02 -0.67850374794E+02  0.70707320644E+02  0.10834067951E+03  0.00000000000E+00 0. -1.
          1    1    1    2  502    0  0.52334507039E+02  0.22698545088E+02  0.57839275174E+03  0.58119901913E+03  0.00000000000E+00 0. -1.
         22    1    3    3    0    0 -0.14161620367E+02 -0.41825147344E+02  0.25129010005E+02  0.50807101724E+02  0.00000000000E+00 0. -1.
         22    1    3    3    0    0 -0.84373582384E+02  0.86976977050E+02  0.57766210183E+02  0.13424168868E+03  0.00000000000E+00 0. -1.
</event>
<event>
 7    1  0.5452757E-006  0.4380524E+02  0.7818608E-02  0.1587438E+00
          2   -1    0    0  502    0  0.00000000000E+00  0.00000000000E+00  0.28157321493E+02  0.28157321493E+02  0.00000000000E+00 0. -1.
          1   -1    0    0  501    0 -0.00000000000E+00 -0.00000000000E+00 -0.56584578060E+03  0.56584578060E+03  0.00000000000E+00 0. -1.
         25    2    1    2    0    0 -0.33179217349E+02 -0.21085745208E+02 -0.26613132031E+03  0.29664113914E+03  0.12499846666E+03 0.  0.
          2    1    1    2  501    0  0.44826351011E+02  0.25181202741E+01 -0.27175899237E+03  0.27544272110E+03  0.00000000000E+00 0. -1.
          1    1    1    2  502    0 -0.11647133663E+02  0.18567624934E+02  0.20185357656E+00  0.21919241846E+02  0.00000000000E+00 0. -1.
         22    1    3    3    0    0 -0.70408873415E+02 -0.29076110846E+02 -0.23628376419E+03  0.24825963607E+03  0.00000000000E+00 0. -1.
         22    1    3    3    0    0  0.37229656066E+02  0.79903656380E+01 -0.29847556118E+02  0.48381503078E+02  0.00000000000E+00 0. -1.
</event>
<event>
 7    1  0.5452757E-006  0.9842904E+02  0.7818608E-02  0.1406295E+00
          2   -1    0    0  502    0  0.00000000000E+00  0.00000000000E+00  0.10379163309E+04  0.10379163309E+04  0.00000000000E+00 0. -1.
          1   -1    0    0  501    0 -0.00000000000E+00 -0.00000000000E+00 -0.14932728301E+03  0.14932728301E+03  0.00000000000E+00 0. -1.
         25    2    1    2    0    0  0.64739371714E+01  0.12479592513E+03  0.69902016091E+03  0.72102028155E+03  0.12500050506E+03 0.  0.
          2    1    1    2  501    0 -0.23308681392E+02 -0.95013689527E+02 -0.11996860047E+03  0.15480103658E+03  0.00000000000E+00 0. -1.
          1    1    1    2  502    0  0.16834744221E+02 -0.29782235607E+02  0.30953748749E+03  0.31142229582E+03  0.00000000000E+00 0. -1.
         22    1    3    3    0    0 -0.47983130804E+02  0.33143477881E+02  0.13569285545E+03  0.14769367620E+03  0.00000000000E+00 0.  1.
         22    1    3    3    0    0  0.54457067975E+02  0.91652447252E+02  0.56332730545E+03  0.57332660535E+03  0.00000000000E+00 0.  1.
</event>
<event>
 7    1  0.5452757E-006  0.7674771E+02  0.7818608E-02  0.1511724E+00
          2   -1    0    0  502    0  0.00000000000E+00  0.00000000000E+00  0.87493569253E+02  0.87493569253E+02  0.00000000000E+00 0. -1.
          1   -1    0    0  501    0 -0.00000000000E+00 -0.00000000000E+00 -0.24104451188E+03  0.24104451188E+03  0.00000000000E+00 0. -1.
         25    2    1    2    0    0 -0.62594392005E+02 -0.53682954687E+01 -0.77853230540E+02  0.16010605827E+03  0.12500379147E+03 0.  0.
          2    1    1    2  501    0  0.81566021342E+02 -0.20130927656E+01 -0.10486243705E+03  0.13286534192E+03  0.00000000000E+00 0. -1.
          1    1    1    2  502    0 -0.18971629337E+02  0.73813882343E+01  0.29164724957E+02  0.35566680950E+02  0.00000000000E+00 0. -1.
         22    1    3    3    0    0 -0.49724214663E+02 -0.50130904076E+02 -0.87607336751E+02  0.11251955617E+03  0.00000000000E+00 0.  1.
         22    1    3    3    0    0 -0.12870177343E+02  0.44762608608E+02  0.97541062112E+01  0.47586502101E+02  0.00000000000E+00 0.  1.
</event>
<event>
 7    1  0.5452757E-006  0.7639054E+02  0.7818608E-02  0.1371258E+00
          2   -1    0    0  502    0  0.00000000000E+00  0.00000000000E+00  0.14222009177E+04  0.14222009177E+04  0.00000000000E+00 0. -1.
          1   -1    0    0  501    0 -0.00000000000E+00 -0.00000000000E+00 -0.20237174290E+03  0.20237174290E+03  0.00000000000E+00 0. -1.
         25    2    1    2    0    0 -0.22407638363E+02 -0.22820260633E+02  0.10864958747E+03  0.16871143403E+03  0.12504378659E+03 0.  0.
          2    1    1    2  501    0  0.18163042585E+02 -0.55552380141E+02 -0.16614613356E+03  0.17612637722E+03  0.00000000000E+00 0. -1.
          1    1    1    2  502    0  0.42445957773E+01  0.78372640775E+02  0.12773257209E+04  0.12797348494E+04  0.00000000000E+00 0. -1.
         22    1    3    3    0    0  0.15663538371E+02  0.44617800531E+02  0.63148724675E+02  0.78891418967E+02  0.00000000000E+00 0. -1.
         22    1    3    3    0    0 -0.38071176734E+02 -0.67438061164E+02  0.45500862795E+02  0.89820015067E+02  0.00000000000E+00 0. -1.
</event>
<event>
 7    1  0.5452757E-006  0.1037077E+03  0.7818608E-02  0.1350785E+00
          2   -1    0    0  502    0  0.00000000000E+00  0.00000000000E+00  0.17646246587E+04  0.17646246587E+04  0.00000000000E+00 0. -1.
          1   -1    0    0  501    0 -0.00000000000E+00 -0.00000000000E+00 -0.36378387812E+03  0.36378387812E+03  0.00000000000E+00 0. -1.
         25    2    1    2    0    0 -0.10794470027E+03  0.70171429603E+01  0.24617589945E+02  0.16713031120E+03  0.12500086630E+03 0.  0.
          2    1    1    2  501    0  0.13105118132E+02 -0.49411683524E+02 -0.28866281086E+03  0.29315435689E+03  0.00000000000E+00 0. -1.
          1    1    1    2  502    0  0.94839582138E+02  0.42394540564E+02  0.16648860015E+04  0.16681238687E+04  0.00000000000E+00 0. -1.
         22    1    3    3    0    0 -0.11196982527E+03  0.17198576332E+02 -0.25260177860E+02  0.11606510839E+03  0.00000000000E+00 0.  1.
         22    1    3    3    0    0  0.40251250035E+01 -0.10181433371E+02  0.49877767805E+02  0.51065202809E+02  0.00000000000E+00 0.  1.
</event>
<event>
 7    1  0.5452757E-006  0.1476064E+03  0.7818608E-02  0.1282817E+00
          2   -1    0    0  502    0  0.00000000000E+00  0.00000000000E+00  0.11332279283E+04  0.11332279283E+04  0.00000000000E+00 0. -1.
          1   -1    0    0  501    0 -0.00000000000E+00 -0.00000000000E+00 -0.56119277151E+03  0.56119277151E+03  0.00000000000E+00 0. -1.
         25    2    1    2    0    0 -0.10810460867E+03  0.82661237052E+02 -0.60772793582E+01  0.18488325749E+03  0.12500159618E+03 0.  0.
          2    1    1    2  501    0 -0.38124625349E+02 -0.54053795359E+02 -0.45800715789E+03  0.46275896159E+03  0.00000000000E+00 0. -1.
          1    1    1    2  502    0  0.14622923401E+03 -0.28607441693E+02  0.10361195941E+04  0.10467784808E+04  0.00000000000E+00 0. -1.
         22    1    3    3    0    0 -0.14620283443E+02 -0.25636402925E+02 -0.27359908319E+02  0.40243538936E+02  0.00000000000E+00 0.  1.
         22    1    3    3    0    0 -0.93484325222E+02  0.10829763998E+03  0.21282628960E+02  0.14463971855E+03  0.00000000000E+00 0.  1.
</event>
<event>
 7    1  0.5452757E-006  0.8127380E+02  0.7818608E-02  0.1415343E+00
          2   -1    0    0  502    0  0.00000000000E+00  0.00000000000E+00  0.21130386029E+03  0.21130386029E+03  0.00000000000E+00 0. -1.
          1   -1    0    0  501    0 -0.00000000000E+00 -0.00000000000E+00 -0.33411838729E+03  0.33411838729E+03  0.00000000000E+00 0. -1.
         25    2    1    2    0    0  0.10650478873E+03  0.26565538866E+02  0.15883561763E+02  0.16711610847E+03  0.12500603305E+03 0.  0.
          2    1    1    2  501    0 -0.37777611145E+02  0.79792392842E+01 -0.24448213836E+03  0.24751228685E+03  0.00000000000E+00 0. -1.
          1    1    1    2  502    0 -0.68727177587E+02 -0.34544778150E+02  0.10578404960E+03  0.13079385225E+03  0.00000000000E+00 0. -1.
         22    1    3    3    0    0 -0.46658637201E+01  0.50828444777E+02 -0.54970315473E+01  0.51337300655E+02  0.00000000000E+00 0.  1.
         22    1    3    3    0    0  0.11117065245E+03 -0.24262905911E+02  0.21380593311E+02  0.11577880782E+03  0.00000000000E+00 0.  1.
</event>
<event>
 7    1  0.5452757E-006  0.3591531E+02  0.7818608E-02  0.1604867E+00
          2   -1    0    0  502    0  0.00000000000E+00  0.00000000000E+00  0.14502385721E+04  0.14502385721E+04  0.00000000000E+00 0. -1.
          1   -1    0    0  501    0 -0.00000000000E+00 -0.00000000000E+00 -0.19808108147E+03  0.19808108147E+03  0.00000000000E+00 0. -1.
         25    2    1    2    0    0 -0.44530425154E+02  0.20424719949E+02  0.55695112765E+03  0.57290435782E+03  0.12499886669E+03 0.  0.
          2    1    1    2  501    0  0.21856378604E+02 -0.28471174463E+02 -0.18824501814E+03  0.19163636377E+03  0.00000000000E+00 0. -1.
          1    1    1    2  502    0  0.22674046551E+02  0.80464545134E+01  0.88345138110E+03  0.88377893196E+03  0.00000000000E+00 0. -1.
         22    1    3    3    0    0  0.25666827783E+02  0.30760642660E+02  0.38225619325E+03  0.38434984124E+03  0.00000000000E+00 0.  1.
         22    1    3    3    0    0 -0.70197252938E+02 -0.10335922710E+02  0.17469493440E+03  0.18855451658E+03  0.00000000000E+00 0.  1.
</event>
<event>
 7    1  0.5452757E-006  0.1014843E+03  0.7818608E-02  0.1428932E+00
          2   -1    0    0  502    0  0.00000000000E+00  0.00000000000E+00  0.16288237600E+04  0.16288237600E+04  0.00000000000E+00 0. -1.
          1   -1    0    0  501    0 -0.00000000000E+00 -0.00000000000E+00 -0.50488923542E+03  0.50488923542E+03  0.00000000000E+00 0. -1.
         25    2    1    2    0    0  0.41816887319E+02 -0.11253126114E+03  0.29840030365E+03  0.34507723668E+03  0.12499448492E+03 0.  0.
          2    1    1    2  501    0  0.90856433957E+01  0.26339165209E+02 -0.47922903739E+03  0.48003830141E+03  0.00000000000E+00 0. -1.
          1    1    1    2  502    0 -0.50902530715E+02  0.86192095929E+02  0.13047632583E+04  0.13085974573E+04  0.00000000000E+00 0. -1.
         22    1    3    3    0    0 -0.14738861921E+02 -0.56004139733E+02  0.23779050307E+03  0.24474072213E+03  0.00000000000E+00 0. -1.
         22    1    3    3    0    0  0.56555749240E+02 -0.56527121405E+02  0.60609800572E+02  0.10033651455E+03  0.00000000000E+00 0. -1.
</event>
<event>
 7    1  0.5452757E-006  0.5271211E+02  0.7818608E-02  0.1559735E+00
          2   -1    0    0  502    0  0.00000000000E+00  0.00000000000E+00  0.70074573655E+03  0.70074573655E+03  0.00000000000E+00 0. -1.
          1   -1    0    0  501    0 -0.00000000000E+00 -0.00000000000E+00 -0.49629082057E+02  0.49629082057E+02  0.00000000000E+00 0. -1.
         25    2    1    2    0    0 -0.69079216947E+02  0.16787399171E+02  0.35244553232E+03  0.38065280247E+03  0.12499979116E+03 0.  0.
          2    1    1    2  501    0  0.21643293454E+02 -0.16860581702E+00 -0.30131723598E+02  0.37099613831E+02  0.00000000000E+00 0. -1.
          1    1    1    2  502    0  0.47435923492E+02 -0.16618793354E+02  0.32880284577E+03  0.33262240230E+03  0.00000000000E+00 0. -1.
         22    1    3    3    0    0 -0.10159935995E+03 -0.64053573134E+01  0.22198862134E+03  0.24421794887E+03  0.00000000000E+00 0. -1.
         22    1    3    3    0    0  0.32520143006E+02  0.23192756484E+02  0.13045691098E+03  0.13643485360E+03  0.00000000000E+00 0. -1.
</event>
<event>
 7    1  0.5452757E-006  0.7289219E+02  0.7818608E-02  0.1384566E+00
          2   -1    0    0  502    0  0.00000000000E+00  0.00000000000E+00  0.85590445970E+03  0.85590445970E+03  0.00000000000E+00 0. -1.
          1   -1    0    0  501    0 -0.00000000000E+00 -0.00000000000E+00 -0.42700550296E+03  0.42700550296E+03  0.00000000000E+00 0. -1.
         25    2    1    2    0    0  0.83647076222E+01  0.16383441426E+02  0.43777376598E+03  0.45564173876E+03  0.12500055374E+03 0.  0.
          2    1    1    2  501    0 -0.37090408919E+02 -0.63207096682E+02 -0.41298722976E+03  0.41943925359E+03  0.00000000000E+00 0. -1.
          1    1    1    2  502    0  0.28725701297E+02  0.46823655256E+02  0.40411242052E+03  0.40782897031E+03  0.00000000000E+00 0. -1.
         22    1    3    3    0    0 -0.36938953654E+02  0.41077532344E+02  0.10266928081E+03  0.11658829779E+03  0.00000000000E+00 0.  1.
         22    1    3    3    0    0  0.45303661276E+02 -0.24694090919E+02  0.33510448517E+03  0.33905344096E+03  0.00000000000E+00 0.  1.
</event>
<event>
 7    1  0.5452757E-006  0.1147493E+03  0.7818608E-02  0.1259148E+00
          2   -1    0    0  502    0  0.00000000000E+00  0.00000000000E+00  0.35721700130E+02  0.35721700130E+02  0.00000000000E+00 0. -1.
          1   -1    0    0  501    0 -0.00000000000E+00 -0.00000000000E+00 -0.18377187583E+04  0.18377187583E+04  0.00000000000E+00 0. -1.
         25    2    1    2    0    0  0.31361828107E+02 -0.15433092836E+02 -0.27912540613E+03  0.30782704685E+03  0.12499901524E+03 0.  0.
          2    1    1    2  501    0 -0.13277538098E+03 -0.18473240377E+02 -0.13833376309E+04  0.13898178167E+04  0.00000000000E+00 0. -1.
          1    1    1    2  502    0  0.10141355287E+03  0.33906333212E+02 -0.13953402108E+03  0.17579559487E+03  0.00000000000E+00 0. -1.
         22    1    3    3    0    0  0.55027866590E+02 -0.40890993974E+02 -0.78542813173E+02  0.10425503820E+03  0.00000000000E+00 0.  1.
         22    1    3    3    0    0 -0.23666038483E+02  0.25457901138E+02 -0.20058259296E+03  0.20357200865E+03  0.00000000000E+00 0.  1.
</event>
<event>
 7    1  0.5452757E-006  0.1706981E+03  0.7818608E-02  0.1232613E+00
          2   -1    0    0  502    0  0.00000000000E+00  0.00000000000E+00  0.16475996624E+04  0.16475996624E+04  0.00000000000E+00 0. -1.
          1   -1    0    0  501    0 -0.00000000000E+00 -0.00000000000E+00 -0.55595008302E+03  0.55595008302E+03  0.00000000000E+00 0. -1.
         25    2    1    2    0    0  0.48189103621E+02  0.70216918162E+02  0.12452022839E+03  0.19591597076E+03  0.12500070006E+03 0.  0.
          2    1    1    2  501    0 -0.10619589244E+03 -0.14402174841E+03 -0.50332448984E+03  0.53418664684E+03  0.00000000000E+00 0. -1.
          1    1    1    2  502    0  0.58006788822E+02  0.73804830250E+02  0.14704538408E+04  0.14734471278E+04  0.00000000000E+00 0. -1.
         22    1    3    3    0    0 -0.14941247904E+02 -0.29153623733E+02  0.19314051630E+02  0.38029031753E+02  0.00000000000E+00 0. -1.
         22    1    3    3    0    0  0.63130351525E+02  0.99370541895E+02  0.10520617676E+03  0.15788693901E+03  0.00000000000E+00 0. -1.
</event>
<event>
 7    1  0.5452757E-006  0.4510469E+02  0.7818608E-02  0.1505719E+00
          2   -1    0    0  502    0  0.00000000000E+00  0.00000000000E+00  0.27160706756E+02  0.27160706756E+02  0.00000000000E+00 0. -1.
          1   -1    0    0  501    0 -0.00000000000E+00 -0.00000000000E+00 -0.12342682124E+04  0.12342682124E+04  0.00000000000E+00 0. -1.
         25    2    1    2    0    0  0.29100714618E+02 -0.73775240055E+02 -0.52614006815E+03  0.54656898147E+03  0.12499857022E+03 0.  0.
          2    1    1    2  501    0 -0.11741765220E+02  0.34115811989E+02 -0.66896173312E+03  0.66993399530E+03  0.00000000000E+00 0. -1.
          1    1    1    2  502    0 -0.17358949398E+02  0.39659428067E+02 -0.12005704329E+02  0.44925942341E+02  0.00000000000E+00 0. -1.
         22    1    3    3    0    0  0.32464964517E+02  0.26640918719E+02 -0.23125452648E+03  0.23503695133E+03  0.00000000000E+00 0. -1.
         22    1    3    3    0    0 -0.33642498989E+01 -0.10041615877E+03 -0.29488554167E+03  0.31153203014E+03  0.00000000000E+00 0. -1.
</event>
<event>
 7    1  0.5452757E-006  0.1453931E+03  0.7818608E-02  0.1286711E+00
          2   -1    0    0  502    0  0.00000000000E+00  0.00000000000E+00  0.14881579885E+04  0.14881579885E+04  0.00000000000E+00 0. -1.
          1   -1    0    0  501    0 -0.00000000000E+00 -0.00000000000E+00 -0.33665239956E+03  0.33665239956E+03  0.00000000000E+00 0. -1.
         25    2    1    2    0    0  0.74082119963E+02 -0.87886352887E+02  0.21622534215E+03  0.27493792111E+03  0.12500116141E+03 0.  0.
          2    1    1    2  501    0 -0.30322362202E+02 -0.57186708063E+02 -0.29920280534E+03  0.30612429494E+03  0.00000000000E+00 0. -1.
          1    1    1    2  502    0 -0.43759757761E+02  0.14507306095E+03  0.12344830522E+04  0.12437481721E+04  0.00000000000E+00 0. -1.
         22    1    3    3    0    0  0.19182946543E+02 -0.30239811236E+02 -0.82638611423E+01  0.36752183916E+02  0.00000000000E+00 0.  1.
         22    1    3    3    0    0  0.54899173420E+02 -0.57646541651E+02  0.22448920329E+03  0.23818573719E+03  0.00000000000E+00 0.  1.
</event>
<event>
 7    1  0.5452757E-006  0.8026692E+02  0.7818608E-02  0.1464163E+00
          2   -1    0    0  502    0  0.00000000000E+00  0.00000000000E+00  0.59570315932E+02  0.59570315932E+02  0.00000000000E+00 0. -1.
          1   -1    0    0  501    0 -0.00000000000E+00 -0.00000000000E+00 -0.20330881641E+04  0.20330881641E+04  0.00000000000E+00 0. -1.
         25    2    1    2    0    0 -0.10615578268E+03 -0.40006781105E+01 -0.12236151741E+04  0.12345621688E+04  0.12499839552E+03 0.  0.
          2    1    1    2  501    0  0.26881890770E+02 -0.37224743729E+01 -0.77431458666E+03  0.77479001799E+03  0.00000000000E+00 0. -1.
          1    1    1    2  502    0  0.79273891912E+02  0.77231524834E+01  0.24411912512E+02  0.83306293253E+02  0.00000000000E+00 0. -1.
         22    1    3    3    0    0 -0.98819062909E+02 -0.39261725280E+02 -0.11165430405E+04  0.11215948697E+04  0.00000000000E+00 0. -1.
         22    1    3    3    0    0 -0.73367197726E+01  0.35261047169E+02 -0.10707213351E+03  0.11296729916E+03  0.00000000000E+00 0. -1.
</event>
<event>
 7    1  0.5452757E-006  0.8556984E+02  0.7818608E-02  0.1376549E+00
          2   -1    0    0  502    0  0.00000000000E+00  0.00000000000E+00  0.87771759864E+03  0.87771759864E+03  0.00000000000E+00 0. -1.
          1   -1    0    0  501    0 -0.00000000000E+00 -0.00000000000E+00 -0.56685931469E+03  0.56685931469E+03  0.00000000000E+00 0. -1.
         25    2    1    2    0    0 -0.98801387415E+02 -0.82894956141E+02  0.35186050224E+03  0.39504933999E+03  0.12499952032E+03 0.  0.
          2    1    1    2  501    0  0.35407902969E+02  0.35236869765E+02 -0.54098863671E+03  0.54329003455E+03  0.00000000000E+00 0. -1.
          1    1    1    2  502    0  0.63393484447E+02  0.47658086376E+02  0.49998641843E+03  0.50623753879E+03  0.00000000000E+00 0. -1.
         22    1    3    3    0    0 -0.36343142595E+02 -0.70268985287E+02  0.30723159475E+03  0.31725353760E+03  0.00000000000E+00 0.  1.
         22    1    3    3    0    0 -0.62458244820E+02 -0.12625970855E+02  0.44628907494E+02  0.77795802394E+02  0.00000000000E+00 0.  1.
</event>
<event>
 7    1  0.5452757E-006  0.5043356E+02  0.7818608E-02  0.1511945E+00
          2   -1    0    0  502    0  0.00000000000E+00  0.00000000000E+00  0.47185584031E+03  0.47185584031E+03  0.00000000000E+00 0. -1.
          1   -1    0    0  501    0 -0.00000000000E+00 -0.00000000000E+00 -0.45150241146E+03  0.45150241146E+03  0.00000000000E+00 0. -1.
         25    2    1    2    0    0 -0.10138613196E+02  0.19451804291E+02 -0.85802753167E+02  0.15315043429E+03  0.12494710443E+03 0.  0.
          2    1    1    2  501    0  0.32422787974E+02 -0.40904496260E+02 -0.32942260057E+03  0.33353210454E+03  0.00000000000E+00 0. -1.
          1    1    1    2  502    0 -0.22284174778E+02  0.21452691969E+02  0.43557878258E+03  0.43667571294E+03  0.00000000000E+00 0. -1.
         22    1    3    3    0    0  0.27415549836E+02  0.63073704659E+02 -0.39756582402E+02  0.79438595383E+02  0.00000000000E+00 0. -1.
         22    1    3    3    0    0 -0.37554163032E+02 -0.43621900368E+02 -0.46046170765E+02  0.73711838906E+02  0.00000000000E+00 0. -1.
</event>
<event>
 7    1  0.5452757E-006  0.1379318E+03  0.7818608E-02  0.1295309E+00
          2   -1    0    0  502    0  0.00000000000E+00  0.00000000000E+00  0.51024934894E+03  0.51024934894E+03  0.00000000000E+00 0. -1.
          1   -1    0    0  501    0 -0.00000000000E+00 -0.00000000000E+00 -0.13166702960E+03  0.13166702960E+03  0.00000000000E+00 0. -1.
         25    2    1    2    0    0  0.10960728356E+03 -0.10986301401E+03  0.74860471713E+02  0.21286712211E+03  0.12499873197E+03 0.  0.
          2    1    1    2  501    0 -0.48294180164E+02  0.12416523766E+03  0.15609300067E+02  0.13413793024E+03  0.00000000000E+00 0. -1.
          1    1    1    2  502    0 -0.61313103391E+02 -0.14302223654E+02  0.28811254756E+03  0.29491132618E+03  0.00000000000E+00 0. -1.
         22    1    3    3    0    0  0.32323604392E+02 -0.11625175603E+03  0.34780352121E+02  0.12557451603E+03  0.00000000000E+00 0.  1.
         22    1    3    3    0    0  0.77283679163E+02  0.63887420252E+01  0.40080119591E+02  0.87292606079E+02  0.00000000000E+00 0.  1.
</event>
<event>
 7    1  0.5452757E-006  0.5562508E+02  0.7818608E-02  0.1527119E+00
          2   -1    0    0  502    0  0.00000000000E+00  0.00000000000E+00  0.19743112050E+03  0.19743112050E+03  0.00000000000E+00 0. -1.
          1   -1    0    0  501    0 -0.00000000000E+00 -0.00000000000E+00 -0.60303322264E+03  0.60303322264E+03  0.00000000000E+00 0. -1.
         25    2    1    2    0    0 -0.41852278764E+02 -0.23533141813E+02 -0.11445762649E+03  0.17615546427E+03  0.12499910932E+03 0.  0.
          2    1    1    2  501    0  0.31532509878E+02  0.46674028402E+02 -0.45501645543E+03  0.45848962782E+03  0.00000000000E+00 0. -1.
          1    1    1    2  502    0  0.10319768886E+02 -0.23140886589E+02  0.16387197978E+03  0.16581925105E+03  0.00000000000E+00 0. -1.
         22    1    3    3    0    0 -0.76447202408E+02  0.27959542907E+00 -0.30553663954E+02  0.82327269544E+02  0.00000000000E+00 0.  1.
         22    1    3    3    0    0  0.34594923644E+02 -0.23812737242E+02 -0.83903962534E+02  0.93828194727E+02  0.00000000000E+00 0.  1.
</event>
<event>
 7    1  0.5452757E-006  0.8654898E+02  0.7818608E-02  0.1428219E+00
          2   -1    0    0  502    0  0.00000000000E+00  0.00000000000E+00  0.38937034289E+04  0.38937034289E+04  0.00000000000E+00 0. -1.
          1   -1    0    0  501    0 -0.00000000000E+00 -0.00000000000E+00 -0.12817296733E+02  0.12817296733E+02  0.00000000000E+00 0. -1.
         25    2    1    2    0    0 -0.21333370373E+02  0.56731567180E+02  0.13890481243E+04  0.13959773775E+04  0.12499825323E+03 0.  0.
          2    1    1    2  501    0 -0.61849580435E+01  0.32260159402E+02  0.23356755115E+02  0.40305205621E+02  0.00000000000E+00 0. -1.
          1    1    1    2  502    0  0.27518328416E+02 -0.88991726583E+02  0.24684812528E+04  0.24702381426E+04  0.00000000000E+00 0. -1.
         22    1    3    3    0    0  0.12943612949E+02 -0.24115395601E+02  0.79529569905E+03  0.79576650994E+03  0.00000000000E+00 0.  1.
         22    1    3    3    0    0 -0.34276983322E+02  0.80846962781E+02  0.59375242528E+03  0.60021086753E+03  0.00000000000E+00 0.  1.
</event>
<event>
 7    1  0.5452757E-006  0.1495803E+03  0.7818608E-02  0.1318738E+00
          2   -1    0    0  502    0  0.00000000000E+00  0.00000000000E+00  0.11170561718E+04  0.11170561718E+04  0.00000000000E+00 0. -1.
          1   -1    0    0  501    0 -0.00000000000E+00 -0.00000000000E+00 -0.21888625036E+03  0.21888625036E+03  0.00000000000E+00 0. -1.
         25    2    1    2    0    0 -0.10184999443E+03 -0.34049446141E+02  0.29836699742E+03  0.34085349555E+03  0.12500181651E+03 0.  0.
          2    1    1    2  501    0  0.14845140676E+03  0.39243741657E+02 -0.16699453520E+03  0.22685913298E+03  0.00000000000E+00 0. -1.
          1    1    1    2  502    0 -0.46601412331E+02 -0.51942955161E+01  0.76679745920E+03  0.76822979360E+03  0.00000000000E+00 0. -1.
         22    1    3    3    0    0 -0.12124624219E+03 -0.17400336763E+02  0.16747037870E+03  0.20748433846E+03  0.00000000000E+00 0. -1.
         22    1    3    3    0    0  0.19396247759E+02 -0.16649109379E+02  0.13089661872E+03  0.13336915708E+03  0.00000000000E+00 0. -1.
</event>
<event>
 7    1  0.5452757E-006  0.1566045E+03  0.7818608E-02  0.1317179E+00
          2   -1    0    0  502    0  0.00000000000E+00  0.00000000000E+00  0.25998742345E+04  0.25998742345E+04  0.00000000000E+00 0. -1.
          1   -1    0    0  501    0 -0.00000000000E+00 -0.00000000000E+00 -0.69058177832E+03  0.69058177832E+03  0.00000000000E+00 0. -1.
         25    2    1    2    0    0  0.19343104930E+03 -0.54819323369E+02 -0.50301225883E+02  0.24202356467E+03  0.12499785392E+03 0.  0.
          2    1    1    2  501    0 -0.44630021797E+02  0.84187670803E+01 -0.54104142984E+03  0.54294432799E+03  0.00000000000E+00 0. -1.
          1    1    1    2  502    0 -0.14880102750E+03  0.46400556289E+02  0.25006351119E+04  0.25054881202E+04  0.00000000000E+00 0. -1.
         22    1    3    3    0    0 -0.15389851877E+01  0.20921029360E+02  0.11495701491E+02  0.23920892492E+02  0.00000000000E+00 0.  1.
         22    1    3    3    0    0  0.19497003448E+03 -0.75740352729E+02 -0.61796927374E+02  0.21810267218E+03  0.00000000000E+00 0.  1.
</event>
<event>
 7    1  0.5452757E-006  0.1123920E+03  0.7818608E-02  0.1328833E+00
          2   -1    0    0  502    0  0.00000000000E+00  0.00000000000E+00  0.87368706398E+03  0.87368706398E+03  0.00000000000E+00 0. -1.
          1   -1    0    0  501    0 -0.00000000000E+00 -0.00000000000E+00 -0.27773787836E+03  0.27773787836E+03  0.00000000000E+00 0. -1.
         25    2    1    2    0    0 -0.44114160216E+02  0.76714410232E+02  0.26127238484E+01  0.15317479978E+03  0.12499813236E+03 0.  0.
          2    1    1    2  501    0 -0.54071919176E+02 -0.18202474899E+02 -0.19422833150E+03  0.20243455064E+03  0.00000000000E+00 0. -1.
          1    1    1    2  502    0  0.98186079392E+02 -0.58511935333E+02  0.78756479327E+03  0.79581559193E+03  0.00000000000E+00 0. -1.
         22    1    3    3    0    0  0.17353857693E+02  0.39448308053E+02  0.50813033136E+02  0.66627995028E+02  0.00000000000E+00 0.  1.
         22    1    3    3    0    0 -0.61468017909E+02  0.37266102179E+02 -0.48200309287E+02  0.86546804751E+02  0.00000000000E+00 0.  1.
</event>
<event>
 7    1  0.5452757E-006  0.1021000E+03  0.7818608E-02  0.1421862E+00
          2   -1    0    0  502    0  0.00000000000E+00  0.00000000000E+00  0.41429638436E+03  0.41429638436E+03  0.00000000000E+00 0. -1.
          1   -1    0    0  501    0 -0.00000000000E+00 -0.00000000000E+00 -0.98220876490E+02  0.98220876490E+02  0.00000000000E+00 0. -1.
         25    2    1    2    0    0 -0.82924706752E+02 -0.79828985304E+02  0.30811586149E+02  0.17269534165E+03  0.12500061321E+03 0.  0.
          2    1    1    2  501    0  0.77003194321E+02  0.51205820406E+02  0.54759220114E+02  0.10747139232E+03  0.00000000000E+00 0. -1.
          1    1    1    2  502    0  0.59215124307E+01  0.28623164899E+02  0.23050470161E+03  0.23235052688E+03  0.00000000000E+00 0. -1.
         22    1    3    3    0    0 -0.20322158722E+02 -0.84476161650E+02 -0.23147764996E+02  0.89916800691E+02  0.00000000000E+00 0.  1.
         22    1    3    3    0    0 -0.62602548030E+02  0.46471763453E+01  0.53959351145E+02  0.82778540962E+02  0.00000000000E+00 0.  1.
</event>
<event>
 7    1  0.5452757E-006  0.7492514E+02  0.7818608E-02  0.1428111E+00
          2   -1    0    0  502    0  0.00000000000E+00  0.00000000000E+00  0.24150913414E+03  0.24150913414E+03  0.00000000000E+00 0. -1.
          1   -1    0    0  501    0 -0.00000000000E+00 -0.00000000000E+00 -0.74449578625E+02  0.74449578625E+02  0.00000000000E+00 0. -1.
         25    2    1    2    0    0  0.49252835468E+02 -0.15156259445E+01  0.13208713262E+03  0.18840993660E+03  0.12499261850E+03 0.  0.
          2    1    1    2  501    0 -0.81156183147E+02 -0.19081925786E+02  0.15231166301E+02  0.84749244135E+02  0.00000000000E+00 0. -1.
          1    1    1    2  502    0  0.31903347678E+02  0.20597551730E+02  0.19741256587E+02  0.42799532030E+02  0.00000000000E+00 0. -1.
         22    1    3    3    0    0  0.69670034356E+02  0.20529865275E+01  0.17365475792E+02  0.71830969577E+02  0.00000000000E+00 0. -1.
         22    1    3    3    0    0 -0.20417198888E+02 -0.35686124720E+01  0.11472165683E+03  0.11657896702E+03  0.00000000000E+00 0. -1.
</event>
<event>
 7    1  0.5452757E-006  0.1415220E+03  0.7818608E-02  0.1281316E+00
          2   -1    0    0  502    0  0.00000000000E+00  0.00000000000E+00  0.25847419483E+04  0.25847419483E+04  0.00000000000E+00 0. -1.
          1   -1    0    0  501    0 -0.00000000000E+00 -0.00000000000E+00 -0.18539721304E+04  0.18539721304E+04  0.00000000000E+00 0. -1.
         25    2    1    2    0    0  0.16681699967E+03 -0.24678668995E+01  0.52848366741E+03  0.56811438178E+03  0.12499984927E+03 0.  0.
          2    1    1    2  501    0 -0.12784011957E+03  0.60587108055E+02 -0.18308259527E+04  0.18362836282E+04  0.00000000000E+00 0. -1.
          1    1    1    2  502    0 -0.38976880101E+02 -0.58119241155E+02  0.20331121033E+04  0.20343160688E+04  0.00000000000E+00 0. -1.
         22    1    3    3    0    0  0.12942429941E+03 -0.48914017660E+02  0.27666915591E+03  0.30933647091E+03  0.00000000000E+00 0.  1.
         22    1    3    3    0    0  0.37392700263E+02  0.46446150761E+02  0.25181451149E+03  0.25877791087E+03  0.00000000000E+00 0.  1.
</event>
<event>
 7    1  0.5452757E-006  0.9041653E+02  0.7818608E-02  0.1436020E+00
          2   -1    0    0  502    0  0.00000000000E+00  0.00000000000E+00  0.16423083174E+04  0.16423083174E+04  0.00000000000E+00 0. -1.
          1   -1    0    0  501    0 -0.00000000000E+00 -0.00000000000E+00 -0.89557295853E+02  0.89557295853E+02  0.00000000000E+00 0. -1.
         25    2    1    2    0    0 -0.54816997936E+02  0.87201571527E+02  0.25012004961E+02  0.16388728327E+03  0.12499769553E+03 0.  0.
          2    1    1    2  501    0  0.27491155187E+02 -0.75713545488E+02  0.61256259829E+02  0.10119601747E+03  0.00000000000E+00 0. -1.
          1    1    1    2  502    0  0.27325842748E+02 -0.11488026039E+02  0.14664827568E+04  0.14667823125E+04  0.00000000000E+00 0. -1.
         22    1    3    3    0    0  0.63189110468E+01  0.10130889015E+01  0.53948993916E+02  0.54327239305E+02  0.00000000000E+00 0.  1.
         22    1    3    3    0    0 -0.61135908983E+02  0.86188482625E+02 -0.28936988955E+02  0.10956004397E+03  0.00000000000E+00 0.  1.
</event>
<event>
 7    1  0.5452757E-006  0.7969177E+02  0.7818608E-02  0.1479910E+00
          2   -1    0    0  502    0  0.00000000000E+00  0.00000000000E+00  0.67905533308E+03  0.67905533308E+03  0.00000000000E+00 0. -1.
          1   -1    0    0  501    0 -0.00000000000E+00 -0.00000000000E+00 -0.53597849117E+02  0.53597849117E+02  0.00000000000E+00 0. -1.
         25    2    1    2    0    0  0.61560846460E+02 -0.10193360522E+02  0.11103070307E+03  0.17845728292E+03  0.12500216953E+03 0.  0.
          2    1    1    2  501    0  0.19769279858E+02  0.14346703610E+02 -0.78124301736E+01  0.25645397166E+02  0.00000000000E+00 0. -1.
          1    1    1    2  502    0 -0.81330126318E+02 -0.41533430879E+01  0.52223921107E+03  0.52855050212E+03  0.00000000000E+00 0. -1.
         22    1    3    3    0    0  0.24584335944E+02 -0.75315766386E+00  0.13243662892E+03  0.13470121566E+03  0.00000000000E+00 0. -1.
         22    1    3    3    0    0  0.36976510516E+02 -0.94402028582E+01 -0.21405925856E+02  0.43756067256E+02  0.00000000000E+00 0. -1.
</event>
<event>
 7    1  0.5452757E-006  0.1226145E+03  0.7818608E-02  0.1264525E+00
          2   -1    0    0  502    0  0.00000000000E+00  0.00000000000E+00  0.19870506613E+04  0.19870506613E+04  0.00000000000E+00 0. -1.
          1   -1    0    0  501    0 -0.00000000000E+00 -0.00000000000E+00 -0.22690586816E+04  0.22690586816E+04  0.00000000000E+00 0. -1.
         25    2    1    2    0    0 -0.73499277209E+02 -0.99512152960E+01  0.47291025797E+03  0.49474285263E+03  0.12500083079E+03 0.  0.
          2    1    1    2  501    0 -0.48760574019E+02  0.81457882048E+02 -0.22538045815E+04  0.22558031988E+04  0.00000000000E+00 0. -1.
          1    1    1    2  502    0  0.12225985123E+03 -0.71506666752E+02  0.14988863032E+04  0.15055632915E+04  0.00000000000E+00 0. -1.
         22    1    3    3    0    0 -0.65732092554E+02 -0.29187456684E+02  0.46790798605E+03  0.47340310416E+03  0.00000000000E+00 0.  1.
         22    1    3    3    0    0 -0.77671846555E+01  0.19236241388E+02  0.50022719155E+01  0.21339748464E+02  0.00000000000E+00 0.  1.
</event>
<event>
 7    1  0.5452757E-006  0.8509688E+02  0.7818608E-02  0.1399945E+00
          2   -1    0    0  502    0  0.00000000000E+00  0.00000000000E+00  0.16348705948E+03  0.16348705948E+03  0.00000000000E+00 0. -1.
          1   -1    0    0  501    0 -0.00000000000E+00 -0.00000000000E+00 -0.61700128449E+03  0.61700128449E+03  0.00000000000E+00 0. -1.
         25    2    1    2    0    0  0.76103284496E+02 -0.47095068192E+02 -0.57443912170E+02  0.16411925599E+03  0.12500268710E+03 0.  0.
          2    1    1    2  501    0 -0.32077717936E+02 -0.26489911763E+02 -0.48851187077E+03  0.49028006618E+03  0.00000000000E+00 0. -1.
          1    1    1    2  502    0 -0.44025566560E+02  0.73584979955E+02  0.92441557922E+02  0.12608902179E+03  0.00000000000E+00 0. -1.
         22    1    3    3    0    0  0.59810763331E+02 -0.79098724341E+02 -0.74818856191E+02  0.12422478354E+03  0.00000000000E+00 0.  1.
         22    1    3    3    0    0  0.16292521165E+02  0.32003656149E+02  0.17374944021E+02  0.39894472457E+02  0.00000000000E+00 0.  1.
</event>
<event>
 7    1  0.5452757E-006  0.2880109E+02  0.7818608E-02  0.1665084E+00
          2   -1    0    0  502    0  0.00000000000E+00  0.00000000000E+00  0.34897441550E+02  0.34897441550E+02  0.00000000000E+00 0. -1.
          1   -1    0    0  501    0 -0.00000000000E+00 -0.00000000000E+00 -0.41297336829E+03  0.41297336829E+03  0.00000000000E+00 0. -1.
         25    2    1    2    0    0  0.34109560873E+00  0.10358116231E+02 -0.33648112585E+03  0.35909882460E+03  0.12500004345E+03 0.  0.
          2    1    1    2  501    0 -0.14767212417E+02  0.15230260163E+02 -0.53133748024E+02  0.57212119050E+02  0.00000000000E+00 0. -1.
          1    1    1    2  502    0  0.14426116808E+02 -0.25588376394E+02  0.11538947134E+02  0.31559866185E+02  0.00000000000E+00 0. -1.
         22    1    3    3    0    0 -0.10060888664E+02  0.64992593825E+02 -0.13632752433E+03  0.15136199200E+03  0.00000000000E+00 0.  1.
         22    1    3    3    0    0  0.10401984273E+02 -0.54634477594E+02 -0.20015360152E+03  0.20773683260E+03  0.00000000000E+00 0.  1.
</event>
<event>
 7    1  0.5452757E-006  0.6872686E+02  0.7818608E-02  0.1410976E+00
          2   -1    0    0  502    0  0.00000000000E+00  0.00000000000E+00  0.14317258003E+03  0.14317258003E+03  0.00000000000E+00 0. -1.
          1   -1    0    0  501    0 -0.00000000000E+00 -0.00000000000E+00 -0.39245002361E+03  0.39245002361E+03  0.00000000000E+00 0. -1.
         25    2    1    2    0    0 -0.90831152113E+02  0.20212624341E+02 -0.14452645361E+03  0.21253735381E+03  0.12500153037E+03 0.  0.
          2    1    1    2  501    0  0.25744892781E+02 -0.39602903646E+02 -0.20033661658E+03  0.20582990411E+03  0.00000000000E+00 0. -1.
          1    1    1    2  502    0  0.65086259331E+02  0.19390279305E+02  0.95585626608E+02  0.11725534572E+03  0.00000000000E+00 0. -1.
         22    1    3    3    0    0  0.26897545820E+02  0.23527362564E+02 -0.19243766810E+02  0.40587403482E+02  0.00000000000E+00 0.  1.
         22    1    3    3    0    0 -0.11772869793E+03 -0.33147382231E+01 -0.12528268680E+03  0.17194995033E+03  0.00000000000E+00 0.  1.
</event>
<event>
 7    1  0.5452757E-006  0.7968357E+02  0.7818608E-02  0.1431054E+00
          2   -1    0    0  502    0  0.00000000000E+00  0.00000000000E+00  0.64616044797E+03  0.64616044797E+03  0.00000000000E+00 0. -1.
          1   -1    0    0  501    0 -0.00000000000E+00 -0.00000000000E+00 -0.28634342702E+03  0.28634342702E+03  0.00000000000E+00 0. -1.
         25    2    1    2    0    0  0.81218763237E+02 -0.18895883523E+02 -0.81657264317E+02  0.17101412094E+03  0.12499751529E+03 0.  0.
          2    1    1    2  501    0 -0.78638460224E+02 -0.15927467810E+02 -0.14940137335E+03  0.16958320087E+03  0.00000000000E+00 0. -1.
          1    1    1    2  502    0 -0.25803030130E+01  0.34823351332E+02  0.59087565862E+03  0.59190655319E+03  0.00000000000E+00 0. -1.
         22    1    3    3    0    0 -0.13037211583E+01  0.46083490268E+01 -0.85009384659E+02  0.85144183887E+02  0.00000000000E+00 0. -1.
         22    1    3    3    0    0  0.82522484396E+02 -0.23504232549E+02  0.33521203418E+01  0.85869937052E+02  0.00000000000E+00 0. -1.
</event>
<event>
 7    1  0.5452757E-006  0.1293849E+03  0.7818608E-02  0.1358827E+00
          2   -1    0    0  502    0  0.00000000000E+00  0.00000000000E+00  0.10144235934E+04  0.10144235934E+04  0.00000000000E+00 0. -1.
          1   -1    0    0  501    0 -0.00000000000E+00 -0.00000000000E+00 -0.17558891639E+03  0.17558891639E+03  0.00000000000E+00 0. -1.
         25    2    1    2    0    0  0.31177476510E+02 -0.12206042582E+03  0.27960525064E+03  0.33117246956E+03  0.12500130325E+03 0.  0.
          2    1    1    2  501    0 -0.67850092347E+02  0.11109562693E+03 -0.12088540089E+03  0.17764896144E+03  0.00000000000E+00 0. -1.
          1    1    1    2  502    0  0.36672615838E+02  0.10964798897E+02  0.68011482727E+03  0.68119107880E+03  0.00000000000E+00 0. -1.
         22    1    3    3    0    0 -0.10942786380E+02 -0.76635855452E+02  0.25150522791E+03  0.26314953654E+03  0.00000000000E+00 0. -1.
         22    1    3    3    0    0  0.42120262890E+02 -0.45424570371E+02  0.28100022732E+02  0.68022933021E+02  0.00000000000E+00 0. -1.
</event>
<event>
 7    1  0.6548315E-006  0.1408481E+03  0.7818608E-02  0.1268131E+00
          2   -1    0    0  502    0  0.00000000000E+00  0.00000000000E+00  0.11116787185E+04  0.11116787185E+04  0.00000000000E+00 0. -1.
          1   -1    0    0  501    0 -0.00000000000E+00 -0.00000000000E+00 -0.19806722042E+04  0.19806722042E+04  0.00000000000E+00 0. -1.
         25    2    1    2    0    0 -0.20635001550E+03  0.31819577963E+02 -0.68061006279E+03  0.72280551824E+03  0.12499978075E+03 0.  0.
          2    1    1    2  501    0  0.12655912685E+03 -0.30798754125E+02 -0.12741801573E+04  0.12808203812E+04  0.00000000000E+00 0. -1.
          1    1    1    2  502    0  0.79790888645E+02 -0.10208238382E+01  0.10857967343E+04  0.10887250233E+04  0.00000000000E+00 0. -1.
         22    1    3    3    0    0  0.17324440456E+02 -0.14039302322E+00 -0.44010614267E+02  0.47297887009E+02  0.00000000000E+00 0.  1.
         22    1    3    3    0    0 -0.22367445596E+03  0.31959970986E+02 -0.63659944852E+03  0.67550763123E+03  0.00000000000E+00 0.  1.
</event>
<event>
 7    1  0.5452757E-006  0.2252358E+03  0.7818608E-02  0.1183695E+00
          2   -1    0    0  502    0  0.00000000000E+00  0.00000000000E+00  0.37545090531E+03  0.37545090531E+03  0.00000000000E+00 0. -1.
          1   -1    0    0  501    0 -0.00000000000E+00 -0.00000000000E+00 -0.15924453433E+04  0.15924453433E+04  0.00000000000E+00 0. -1.
         25    2    1    2    0    0  0.76122220380E+02  0.24160124227E+03 -0.10915408631E+03  0.30282539357E+03  0.12499140663E+03 0.  0.
          2    1    1    2  501    0  0.42287724545E+02 -0.22117583127E+03 -0.13638238431E+04  0.13822888537E+04  0.00000000000E+00 0. -1.
          1    1    1    2  502    0 -0.11840994493E+03 -0.20425410991E+02  0.25598349137E+03  0.28278200142E+03  0.00000000000E+00 0. -1.
         22    1    3    3    0    0  0.81616012387E+02  0.13748950671E+03 -0.12034286734E+02  0.16034139201E+03  0.00000000000E+00 0.  1.
         22    1    3    3    0    0 -0.54937920068E+01  0.10411173556E+03 -0.97119799574E+02  0.14248400156E+03  0.00000000000E+00 0.  1.
</event>
<event>
 7    1  0.5452757E-006  0.5961131E+02  0.7818608E-02  0.1508339E+00
          2   -1    0    0  502    0  0.00000000000E+00  0.00000000000E+00  0.73542100580E+02  0.73542100580E+02  0.00000000000E+00 0. -1.
          1   -1    0    0  501    0 -0.00000000000E+00 -0.00000000000E+00 -0.54012777068E+03  0.54012777068E+03  0.00000000000E+00 0. -1.
         25    2    1    2    0    0 -0.72180066298E+02 -0.32139871205E+02 -0.23372932529E+03  0.27659041489E+03  0.12501970573E+03 0.  0.
          2    1    1    2  501    0  0.56235513675E+02  0.10577337500E+02 -0.27840385914E+03  0.28422354205E+03  0.00000000000E+00 0. -1.
          1    1    1    2  502    0  0.15944552623E+02  0.21562533706E+02  0.45547514324E+02  0.52855914326E+02  0.00000000000E+00 0. -1.
         22    1    3    3    0    0 -0.57326262252E+02  0.38663398235E+02 -0.74200334179E+02  0.10142410117E+03  0.00000000000E+00 0.  1.
         22    1    3    3    0    0 -0.14853804046E+02 -0.70803269441E+02 -0.15952899111E+03  0.17516631372E+03  0.00000000000E+00 0.  1.
</event>
<event>
 7    1  0.5452757E-006  0.1622855E+03  0.7818608E-02  0.1282098E+00
          2   -1    0    0  502    0  0.00000000000E+00  0.00000000000E+00  0.79156453069E+03  0.79156453069E+03  0.00000000000E+00 0. -1.
          1   -1    0    0  501    0 -0.00000000000E+00 -0.00000000000E+00 -0.48796787345E+03  0.48796787345E+03  0.00000000000E+00 0. -1.
         25    2    1    2    0    0  0.81641865895E+01 -0.13237833789E+03 -0.20049466402E+03  0.27094789380E+03  0.12499589019E+03 0.  0.
          2    1    1    2  501    0  0.58037100513E+02 -0.17347538976E+02 -0.23957398885E+03  0.24711320944E+03  0.00000000000E+00 0. -1.
          1    1    1    2  502    0 -0.66201287103E+02  0.14972587686E+03  0.74366531012E+03  0.76147130090E+03  0.00000000000E+00 0. -1.
         22    1    3    3    0    0  0.32536474874E+02  0.10169121730E+02 -0.19493145284E+02  0.39268510884E+02  0.00000000000E+00 0.  1.
         22    1    3    3    0    0 -0.24372288284E+02 -0.14254745962E+03 -0.18100151874E+03  0.23167938291E+03  0.00000000000E+00 0.  1.
</event>
<event>
 7    1  0.5452757E-006  0.5891150E+02  0.7818608E-02  0.1405537E+00
          2   -1    0    0  502    0  0.00000000000E+00  0.00000000000E+00  0.48295863716E+03  0.48295863716E+03  0.00000000000E+00 0. -1.
          1   -1    0    0  501    0 -0.00000000000E+00 -0.00000000000E+00 -0.53110632571E+02  0.53110632571E+02  0.00000000000E+00 0. -1.
         25    2    1    2    0    0 -0.28506490432E+02 -0.20255531742E+02  0.30442788504E+03  0.33093965794E+03  0.12498725314E+03 0.  0.
          2    1    1    2  501    0 -0.56343105526E+02  0.17205204782E+02  0.68687216674E+01  0.59310571986E+02  0.00000000000E+00 0. -1.
          1    1    1    2  502    0  0.84849595958E+02  0.30503269602E+01  0.11855139789E+03  0.14581903981E+03  0.00000000000E+00 0. -1.
         22    1    3    3    0    0  0.23122258366E+02  0.41479483583E+02  0.87358324645E+02  0.99431701560E+02  0.00000000000E+00 0. -1.
         22    1    3    3    0    0 -0.51628748797E+02 -0.61735015326E+02  0.21706956039E+03  0.23150795638E+03  0.00000000000E+00 0. -1.
</event>
<event>
 7    1  0.5452757E-006  0.1059853E+03  0.7818608E-02  0.1353461E+00
          2   -1    0    0  502    0  0.00000000000E+00  0.00000000000E+00  0.23743951293E+04  0.23743951293E+04  0.00000000000E+00 0. -1.
          1   -1    0    0  501    0 -0.00000000000E+00 -0.00000000000E+00 -0.66804708814E+02  0.66804708814E+02  0.00000000000E+00 0. -1.
         25    2    1    2    0    0  0.33564398898E+02 -0.82911720268E+02  0.48625461241E+03  0.50998352554E+03  0.12505489195E+03 0.  0.
          2    1    1    2  501    0  0.47871035979E+02  0.99588795702E+01 -0.42131936791E+02  0.64543903398E+02  0.00000000000E+00 0. -1.
          1    1    1    2  502    0 -0.81435434877E+02  0.72952840698E+02  0.18634677448E+04  0.18666724091E+04  0.00000000000E+00 0. -1.
         22    1    3    3    0    0  0.87718182094E+01 -0.10775137142E+03  0.26897189104E+03  0.28988477195E+03  0.00000000000E+00 0.  1.
         22    1    3    3    0    0  0.24792580688E+02  0.24839651155E+02  0.21728272136E+03  0.22009875359E+03  0.00000000000E+00 0.  1.
</event>
<event>
 7    1  0.5452757E-006  0.8557097E+02  0.7818608E-02  0.1351766E+00
          2   -1    0    0  502    0  0.00000000000E+00  0.00000000000E+00  0.99836437311E+03  0.99836437311E+03  0.00000000000E+00 0. -1.
          1   -1    0    0  501    0 -0.00000000000E+00 -0.00000000000E+00 -0.44529209406E+03  0.44529209406E+03  0.00000000000E+00 0. -1.
         25    2    1    2    0    0  0.35025990975E+02 -0.13296854366E+03  0.18542131909E+02  0.18675223907E+03  0.12500053798E+03 0.  0.
          2    1    1    2  501    0 -0.37663244859E+02  0.48541724078E+02 -0.35656249008E+03  0.36181712000E+03  0.00000000000E+00 0. -1.
          1    1    1    2  502    0  0.26372538835E+01  0.84426819582E+02  0.89109263723E+03  0.89508710810E+03  0.00000000000E+00 0. -1.
         22    1    3    3    0    0  0.48391860508E+02 -0.31113021937E+02 -0.38523492785E+02  0.69237647229E+02  0.00000000000E+00 0.  1.
         22    1    3    3    0    0 -0.13365869533E+02 -0.10185552172E+03  0.57065624693E+02  0.11751459184E+03  0.00000000000E+00 0.  1.
</event>
<event>
 7    1  0.5452757E-006  0.2241622E+03  0.7818608E-02  0.1195844E+00
          2   -1    0    0  502    0  0.00000000000E+00  0.00000000000E+00  0.81882336927E+03  0.81882336927E+03  0.00000000000E+00 0. -1.
          1   -1    0    0  501    0 -0.00000000000E+00 -0.00000000000E+00 -0.14212764469E+04  0.14212764469E+04  0.00000000000E+00 0. -1.
         25    2    1    2    0    0  0.10806944890E+03 -0.67380791046E+02  0.14717899889E+03  0.23131429162E+03  0.12500186801E+03 0.  0.
          2    1    1    2  501    0 -0.21164169556E+03  0.87798051436E+02 -0.13651678747E+04  0.13842629921E+04  0.00000000000E+00 0. -1.
          1    1    1    2  502    0  0.10357224666E+03 -0.20417260389E+02  0.61553579815E+03  0.62452253250E+03  0.00000000000E+00 0. -1.
         22    1    3    3    0    0  0.28698039232E+02 -0.87697953209E+02  0.10279108850E+03  0.13813224217E+03  0.00000000000E+00 0. -1.
         22    1    3    3    0    0  0.79371409665E+02  0.20317162162E+02  0.44387910389E+02  0.93182049447E+02  0.00000000000E+00 0. -1.
</event>
<event>
 7    1  0.6189233E-006  0.6052508E+02  0.7818608E-02  0.1401977E+00
          2   -1    0    0  502    0  0.00000000000E+00  0.00000000000E+00  0.15814941466E+04  0.15814941466E+04  0.00000000000E+00 0. -1.
          1   -1    0    0  501    0 -0.00000000000E+00 -0.00000000000E+00 -0.43853229194E+03  0.43853229194E+03  0.00000000000E+00 0. -1.
         25    2    1    2    0    0  0.76348909451E+01 -0.67041373623E+02 -0.20914575683E+03  0.25282410329E+03  0.12500096908E+03 0.  0.
          2    1    1    2  501    0  0.46179303011E+02  0.39340873548E+02 -0.20251287198E+03  0.21140410515E+03  0.00000000000E+00 0. -1.
          1    1    1    2  502    0 -0.53814193956E+02  0.27700500075E+02  0.15546204835E+04  0.15557982301E+04  0.00000000000E+00 0. -1.
         22    1    3    3    0    0  0.27828985596E+02 -0.64568763318E+02 -0.36945873547E+02  0.79426539694E+02  0.00000000000E+00 0. -1.
         22    1    3    3    0    0 -0.20194094651E+02 -0.24726103051E+01 -0.17219988328E+03  0.17339756360E+03  0.00000000000E+00 0. -1.
</event>
<event>
 7    1  0.5452757E-006  0.3075020E+03  0.7818608E-02  0.1271286E+00
          2   -1    0    0  502    0  0.00000000000E+00  0.00000000000E+00  0.31284251290E+04  0.31284251290E+04  0.00000000000E+00 0. -1.
          1   -1    0    0  501    0 -0.00000000000E+00 -0.00000000000E+00 -0.22649541936E+03  0.22649541936E+03  0.00000000000E+00 0. -1.
         25    2    1    2    0    0 -0.15908320407E+03  0.23422911066E+03  0.13518502667E+03  0.33774361031E+03  0.12500005109E+03 0.  0.
          2    1    1    2  501    0  0.61408124803E+01  0.34916043845E+02 -0.11423691270E+03  0.11961150412E+03  0.00000000000E+00 0. -1.
          1    1    1    2  502    0  0.15294239158E+03 -0.26914515450E+03  0.28809815957E+04  0.28975654339E+04  0.00000000000E+00 0. -1.
         22    1    3    3    0    0 -0.12606414578E+03  0.24135021510E+03  0.10309980930E+03  0.29115574158E+03  0.00000000000E+00 0.  1.
         22    1    3    3    0    0 -0.33019058282E+02 -0.71211044398E+01  0.32085217372E+02  0.46587868723E+02  0.00000000000E+00 0.  1.
</event>
<event>
 7    1  0.5452757E-006  0.7364462E+02  0.7818608E-02  0.1394565E+00
          2   -1    0    0  502    0  0.00000000000E+00  0.00000000000E+00  0.77574090391E+02  0.77574090391E+02  0.00000000000E+00 0. -1.
          1   -1    0    0  501    0 -0.00000000000E+00 -0.00000000000E+00 -0.10453602716E+04  0.10453602716E+04  0.00000000000E+00 0. -1.
         25    2    1    2    0    0 -0.97836175327E+02  0.66087347144E+02 -0.27042096553E+03  0.32045626595E+03  0.12500106052E+03 0.  0.
          2    1    1    2  501    0  0.46904217356E+02 -0.17810064279E+02 -0.72523613202E+03  0.72696949811E+03  0.00000000000E+00 0. -1.
          1    1    1    2  502    0  0.50931957972E+02 -0.48277282865E+02  0.27870916344E+02  0.75508597931E+02  0.00000000000E+00 0. -1.
         22    1    3    3    0    0  0.15680682732E+02  0.51003419250E+02 -0.12064737222E+03  0.13192051019E+03  0.00000000000E+00 0.  1.
         22    1    3    3    0    0 -0.11351685806E+03  0.15083927894E+02 -0.14977359331E+03  0.18853575575E+03  0.00000000000E+00 0.  1.
</event>
<event>
 7    1  0.5452757E-006  0.1325854E+03  0.7818608E-02  0.1251083E+00
          2   -1    0    0  502    0  0.00000000000E+00  0.00000000000E+00  0.65438304223E+02  0.65438304223E+02  0.00000000000E+00 0. -1.
          1   -1    0    0  501    0 -0.00000000000E+00 -0.00000000000E+00 -0.91678116029E+03  0.91678116029E+03  0.00000000000E+00 0. -1.
         25    2    1    2    0    0 -0.12066507650E+02  0.73055946070E+02 -0.16474817965E+03  0.21966772679E+03  0.12501670141E+03 0.  0.
          2    1    1    2  501    0  0.12987106518E+03  0.26690620131E+02 -0.51478341555E+03  0.53158334031E+03  0.00000000000E+00 0. -1.
          1    1    1    2  502    0 -0.11780455753E+03 -0.99746566201E+02 -0.17181126087E+03  0.23096839742E+03  0.00000000000E+00 0. -1.
         22    1    3    3    0    0  0.35862437161E+02  0.55931593510E+02 -0.25083975073E+02  0.71018753560E+02  0.00000000000E+00 0. -1.
         22    1    3    3    0    0 -0.47928944811E+02  0.17124352560E+02 -0.13966420458E+03  0.14864897323E+03  0.00000000000E+00 0. -1.
</event>
<event>
 7    1  0.5452757E-006  0.5990431E+02  0.7818608E-02  0.1421788E+00
          2   -1    0    0  502    0  0.00000000000E+00  0.00000000000E+00  0.11772349340E+04  0.11772349340E+04  0.00000000000E+00 0. -1.
          1   -1    0    0  501    0 -0.00000000000E+00 -0.00000000000E+00 -0.57022293654E+03  0.57022293654E+03  0.00000000000E+00 0. -1.
         25    2    1    2    0    0 -0.98502177004E+02  0.31867974119E+02  0.90037033768E+03  0.91488254492E+03  0.12500031752E+03 0.  0.
          2    1    1    2  501    0  0.48737091806E+02 -0.34713739155E+02 -0.55905263581E+03  0.56224567354E+03  0.00000000000E+00 0. -1.
          1    1    1    2  502    0  0.49765085198E+02  0.28457650361E+01  0.26569429555E+03  0.27032965204E+03  0.00000000000E+00 0. -1.
         22    1    3    3    0    0 -0.10939835858E+03  0.50409367666E+01  0.43364493837E+03  0.44725981764E+03  0.00000000000E+00 0.  1.
         22    1    3    3    0    0  0.10896181581E+02  0.26827037353E+02  0.46672539931E+03  0.46762272728E+03  0.00000000000E+00 0.  1.
</event>
<event>
 7    1  0.5452757E-006  0.5260056E+02  0.7818608E-02  0.1473660E+00
          2   -1    0    0  502    0  0.00000000000E+00  0.00000000000E+00  0.60450106491E+03  0.60450106491E+03  0.00000000000E+00 0. -1.
          1   -1    0    0  501    0 -0.00000000000E+00 -0.00000000000E+00 -0.59425022977E+03  0.59425022977E+03  0.00000000000E+00 0. -1.
         25    2    1    2    0    0 -0.34645193708E+02  0.45343839385E+02  0.10846402406E+03  0.17506413479E+03  0.12500661405E+03 0.  0.
          2    1    1    2  501    0  0.51610331337E+02 -0.10577264490E+02 -0.55890072687E+03  0.56137823909E+03  0.00000000000E+00 0. -1.
          1    1    1    2  502    0 -0.16965137630E+02 -0.34766574895E+02  0.46068753796E+03  0.46230892080E+03  0.00000000000E+00 0. -1.
         22    1    3    3    0    0 -0.92772936918E+01 -0.62247380315E+01 -0.26290734940E+02  0.28566033773E+02  0.00000000000E+00 0.  1.
         22    1    3    3    0    0 -0.25367900016E+02  0.51568577417E+02  0.13475475900E+03  0.14649810101E+03  0.00000000000E+00 0.  1.
</event>
<event>
 7    1  0.5452757E-006  0.1854374E+03  0.7818608E-02  0.1289085E+00
          2   -1    0    0  502    0  0.00000000000E+00  0.00000000000E+00  0.15091648151E+04  0.15091648151E+04  0.00000000000E+00 0. -1.
          1   -1    0    0  501    0 -0.00000000000E+00 -0.00000000000E+00 -0.93303988593E+03  0.93303988593E+03  0.00000000000E+00 0. -1.
         25    2    1    2    0    0  0.88983097288E+02 -0.20488989302E+03 -0.23767686246E+03  0.34930430584E+03  0.12500138905E+03 0.  0.
          2    1    1    2  501    0 -0.42155436678E+02  0.26194344781E+02 -0.63270353121E+03  0.63464713262E+03  0.00000000000E+00 0. -1.
          1    1    1    2  502    0 -0.46827660609E+02  0.17869554824E+03  0.14465053229E+04  0.14582532626E+04  0.00000000000E+00 0. -1.
         22    1    3    3    0    0 -0.41458783061E+01 -0.14537258013E+03 -0.13722830492E+03  0.19995495250E+03  0.00000000000E+00 0. -1.
         22    1    3    3    0    0  0.93128975594E+02 -0.59517312893E+02 -0.10044855754E+03  0.14934935334E+03  0.00000000000E+00 0. -1.
</event>
<event>
 7    1  0.5452757E-006  0.1882631E+03  0.7818608E-02  0.1247624E+00
          2   -1    0    0  502    0  0.00000000000E+00  0.00000000000E+00  0.22809598007E+04  0.22809598007E+04  0.00000000000E+00 0. -1.
          1   -1    0    0  501    0 -0.00000000000E+00 -0.00000000000E+00 -0.11832454091E+04  0.11832454091E+04  0.00000000000E+00 0. -1.
         25    2    1    2    0    0  0.19746299707E+03  0.13217705150E+03 -0.54272959283E+02  0.27392219343E+03  0.12500162315E+03 0.  0.
          2    1    1    2  501    0 -0.20845822357E+02 -0.70045620184E+02 -0.10137936644E+04  0.10164243854E+04  0.00000000000E+00 0. -1.
          1    1    1    2  502    0 -0.17661717472E+03 -0.62131431319E+02  0.21657810153E+04  0.21738586309E+04  0.00000000000E+00 0. -1.
         22    1    3    3    0    0 -0.94658935773E+01  0.18938592528E+02  0.17380723110E+02  0.27392753860E+02  0.00000000000E+00 0. -1.
         22    1    3    3    0    0  0.20692889065E+03  0.11323845897E+03 -0.71653682393E+02  0.24652943957E+03  0.00000000000E+00 0. -1.
</event>
<event>
 7    1  0.1103348E-005  0.7746604E+02  0.7818608E-02  0.1410684E+00
          2   -1    0    0  502    0  0.00000000000E+00  0.00000000000E+00  0.21745681114E+04  0.21745681114E+04  0.00000000000E+00 0. -1.
          1   -1    0    0  501    0 -0.00000000000E+00 -0.00000000000E+00 -0.60131544658E+03  0.60131544658E+03  0.00000000000E+00 0. -1.
         25    2    1    2    0    0  0.10445775496E+02  0.77163108221E+02 -0.14857786193E+03  0.20919436732E+03  0.12499457095E+03 0.  0.
          2    1    1    2  501    0  0.31256799698E+02 -0.72156945654E+02 -0.41856195527E+03  0.42588463547E+03  0.00000000000E+00 0. -1.
          1    1    1    2  502    0 -0.41702575195E+02 -0.50061625662E+01  0.21403924820E+04  0.21408045552E+04  0.00000000000E+00 0. -1.
         22    1    3    3    0    0  0.64693074790E+02  0.36363627877E+02 -0.10483053401E+03  0.12844044619E+03  0.00000000000E+00 0.  1.
         22    1    3    3    0    0 -0.54247299294E+02  0.40799480344E+02 -0.43747327919E+02  0.80753921125E+02  0.00000000000E+00 0.  1.
</event>
<event>
 7    1  0.5452757E-006  0.2513757E+02  0.7818608E-02  0.1665827E+00
          2   -1    0    0  502    0  0.00000000000E+00  0.00000000000E+00  0.19501324039E+02  0.19501324039E+02  0.00000000000E+00 0. -1.
          1   -1    0    0  501    0 -0.00000000000E+00 -0.00000000000E+00 -0.47423364173E+03  0.47423364173E+03  0.00000000000E+00 0. -1.
         25    2    1    2    0    0  0.66370707909E+01  0.67028192073E+01 -0.33105507184E+03  0.35399162803E+03  0.12499453438E+03 0.  0.
          2    1    1    2  501    0  0.18719045836E+02 -0.15346552060E+02 -0.10326455047E+03  0.10606359753E+03  0.00000000000E+00 0. -1.
          1    1    1    2  502    0 -0.25356116627E+02  0.86437328523E+01 -0.20412695373E+02  0.33679740207E+02  0.00000000000E+00 0. -1.
         22    1    3    3    0    0 -0.56515644339E+02  0.13173416053E+01 -0.20835877104E+03  0.21589147948E+03  0.00000000000E+00 0. -1.
         22    1    3    3    0    0  0.63152715130E+02  0.53854776020E+01 -0.12269630081E+03  0.13810014855E+03  0.00000000000E+00 0. -1.
</event>
<event>
 7    1  0.5452757E-006  0.1449116E+03  0.7818608E-02  0.1219162E+00
          2   -1    0    0  502    0  0.00000000000E+00  0.00000000000E+00  0.24651245985E+04  0.24651245985E+04  0.00000000000E+00 0. -1.
          1   -1    0    0  501    0 -0.00000000000E+00 -0.00000000000E+00 -0.52077481963E+03  0.52077481963E+03  0.00000000000E+00 0. -1.
         25    2    1    2    0    0 -0.21874243964E+03 -0.67396061717E+02  0.97711534148E+03  0.10113218360E+04  0.12500792489E+03 0.  0.
          2    1    1    2  501    0  0.97667671773E+02  0.10629886302E+03 -0.49050284008E+03  0.51130368522E+03  0.00000000000E+00 0. -1.
          1    1    1    2  502    0  0.12107476787E+03 -0.38902801308E+02  0.14577372775E+04  0.14632738970E+04  0.00000000000E+00 0. -1.
         22    1    3    3    0    0 -0.45074458521E+01  0.26150766861E+02  0.82149750733E+02  0.86329376351E+02  0.00000000000E+00 0.  1.
         22    1    3    3    0    0 -0.21423499379E+03 -0.93546828578E+02  0.89496559075E+03  0.92499245960E+03  0.00000000000E+00 0.  1.
</event>
<event>
 7    1  0.5452757E-006  0.6954689E+02  0.7818608E-02  0.1510099E+00
          2   -1    0    0  502    0  0.00000000000E+00  0.00000000000E+00  0.18784596967E+04  0.18784596967E+04  0.00000000000E+00 0. -1.
          1   -1    0    0  501    0 -0.00000000000E+00 -0.00000000000E+00 -0.10016838759E+04  0.10016838759E+04  0.00000000000E+00 0. -1.
         25    2    1    2    0    0  0.38027087866E+02  0.38011682388E+02  0.59412091356E+03  0.60950393968E+03  0.12499778059E+03 0.  0.
          2    1    1    2  501    0  0.22712034676E+02  0.23234829170E+00 -0.99285351360E+03  0.99311328154E+03  0.00000000000E+00 0. -1.
          1    1    1    2  502    0 -0.60739122541E+02 -0.38244030680E+02  0.12755084208E+04  0.12775263514E+04  0.00000000000E+00 0. -1.
         22    1    3    3    0    0 -0.17368992082E+02 -0.16571872564E+02  0.23452650534E+02  0.33560924649E+02  0.00000000000E+00 0. -1.
         22    1    3    3    0    0  0.55396079948E+02  0.54583554951E+02  0.57066826302E+03  0.57594301504E+03  0.00000000000E+00 0. -1.
</event>
<event>
 7    1  0.5452757E-006  0.1154449E+03  0.7818608E-02  0.1411368E+00
          2   -1    0    0  502    0  0.00000000000E+00  0.00000000000E+00  0.49709705027E+03  0.49709705027E+03  0.00000000000E+00 0. -1.
          1   -1    0    0  501    0 -0.00000000000E+00 -0.00000000000E+00 -0.20216649273E+04  0.20216649273E+04  0.00000000000E+00 0. -1.
         25    2    1    2    0    0 -0.86735975704E+02 -0.42868851810E+02  0.15963638607E+03  0.22465329970E+03  0.12499784547E+03 0.  0.
          2    1    1    2  501    0  0.11165717123E+03  0.30028624037E+02 -0.19868278001E+04  0.19901893752E+04  0.00000000000E+00 0. -1.
          1    1    1    2  502    0 -0.24921195526E+02  0.12840227773E+02  0.30262353693E+03  0.30391930268E+03  0.00000000000E+00 0. -1.
         22    1    3    3    0    0 -0.39737520874E+02  0.26488565596E+02  0.12532943760E+03  0.13412003057E+03  0.00000000000E+00 0.  1.
         22    1    3    3    0    0 -0.46998454831E+02 -0.69357417406E+02  0.34306948473E+02  0.90533269129E+02  0.00000000000E+00 0.  1.
</event>
<event>
 7    1  0.5452757E-006  0.1100435E+03  0.7818608E-02  0.1343401E+00
          2   -1    0    0  502    0  0.00000000000E+00  0.00000000000E+00  0.10494540585E+04  0.10494540585E+04  0.00000000000E+00 0. -1.
          1   -1    0    0  501    0 -0.00000000000E+00 -0.00000000000E+00 -0.23827575000E+03  0.23827575000E+03  0.00000000000E+00 0. -1.
         25    2    1    2    0    0 -0.13591345098E+03 -0.82439766201E+02 -0.40799935579E+02  0.20629590579E+03  0.12499833917E+03 0.  0.
          2    1    1    2  501    0  0.47911974863E+02  0.18399648241E+02 -0.10574732690E+03  0.11754404084E+03  0.00000000000E+00 0. -1.
          1    1    1    2  502    0  0.88001476121E+02  0.64040117960E+02  0.95772557098E+03  0.96388986187E+03  0.00000000000E+00 0. -1.
         22    1    3    3    0    0 -0.47964805708E+02  0.40091163482E+01 -0.64739513353E+02  0.80671557501E+02  0.00000000000E+00 0.  1.
         22    1    3    3    0    0 -0.87948645275E+02 -0.86448882549E+02  0.23939577773E+02  0.12562434829E+03  0.00000000000E+00 0.  1.
</event>
<event>
 7    1  0.5452757E-006  0.8679007E+02  0.7818608E-02  0.1451691E+00
          2   -1    0    0  502    0  0.00000000000E+00  0.00000000000E+00  0.73317018652E+03  0.73317018652E+03  0.00000000000E+00 0. -1.
          1   -1    0    0  501    0 -0.00000000000E+00 -0.00000000000E+00 -0.17535633328E+03  0.17535633328E+03  0.00000000000E+00 0. -1.
         25    2    1    2    0    0  0.50185580632E+02  0.38812037074E+02  0.14253189866E+03  0.19991207619E+03  0.12499811737E+03 0.  0.
          2    1    1    2  501    0  0.26195697860E+02  0.83225084940E+01 -0.14175386569E+03  0.14439403441E+03  0.00000000000E+00 0. -1.
          1    1    1    2  502    0 -0.76381278491E+02 -0.47134545568E+02  0.55703582028E+03  0.56422040920E+03  0.00000000000E+00 0. -1.
         22    1    3    3    0    0  0.89128183770E+02  0.46121982417E+02  0.97297311753E+02  0.13977781397E+03  0.00000000000E+00 0.  1.
         22    1    3    3    0    0 -0.38942603139E+02 -0.73099453431E+01  0.45234586908E+02  0.60134262221E+02  0.00000000000E+00 0.  1.
</event>
<event>
 7    1  0.5452757E-006  0.7479697E+02  0.7818608E-02  0.1346549E+00
          2   -1    0    0  502    0  0.00000000000E+00  0.00000000000E+00  0.29564282319E+03  0.29564282319E+03  0.00000000000E+00 0. -1.
          1   -1    0    0  501    0 -0.00000000000E+00 -0.00000000000E+00 -0.45691774107E+03  0.45691774107E+03  0.00000000000E+00 0. -1.
         25    2    1    2    0    0  0.77480344338E+02  0.36487585455E+01 -0.55212347909E+02  0.15712521867E+03  0.12499365497E+03 0.  0.
          2    1    1    2  501    0 -0.36862545643E+02 -0.66456251091E+02 -0.34074759941E+03  0.34911918750E+03  0.00000000000E+00 0. -1.
          1    1    1    2  502    0 -0.40617798695E+02  0.62807492546E+02  0.23468502943E+03  0.24631615808E+03  0.00000000000E+00 0. -1.
         22    1    3    3    0    0  0.59806703246E+02  0.20544796984E+02 -0.92792243962E+02  0.11229127738E+03  0.00000000000E+00 0. -1.
         22    1    3    3    0    0  0.17673641092E+02 -0.16896038439E+02  0.37579896053E+02  0.44833941292E+02  0.00000000000E+00 0. -1.
</event>
<event>
 7    1  0.5452757E-006  0.9461378E+02  0.7818608E-02  0.1364110E+00
          2   -1    0    0  502    0  0.00000000000E+00  0.00000000000E+00  0.10518908148E+03  0.10518908148E+03  0.00000000000E+00 0. -1.
          1   -1    0    0  501    0 -0.00000000000E+00 -0.00000000000E+00 -0.16043607894E+04  0.16043607894E+04  0.00000000000E+00 0. -1.
         25    2    1    2    0    0 -0.45035768429E+02  0.77738611781E+02 -0.15408399934E+03  0.21780482004E+03  0.12500219430E+03 0.  0.
          2    1    1    2  501    0 -0.17960331999E+01 -0.95469009109E+02 -0.14080575243E+04  0.14112914473E+04  0.00000000000E+00 0. -1.
          1    1    1    2  502    0  0.46831801629E+02  0.17730397328E+02  0.62969815726E+02  0.80453603560E+02  0.00000000000E+00 0. -1.
         22    1    3    3    0    0 -0.24861327760E+02  0.78198226017E+02 -0.23057108185E+02  0.85233082826E+02  0.00000000000E+00 0. -1.
         22    1    3    3    0    0 -0.20174440669E+02 -0.45961423614E+00 -0.13102689116E+03  0.13257173721E+03  0.00000000000E+00 0. -1.
</event>
<event>
 7    1  0.5452757E-006  0.1158128E+03  0.7818608E-02  0.1271742E+00
          2   -1    0    0  502    0  0.00000000000E+00  0.00000000000E+00  0.21838346815E+03  0.21838346815E+03  0.00000000000E+00 0. -1.
          1   -1    0    0  501    0 -0.00000000000E+00 -0.00000000000E+00 -0.75650857475E+03  0.75650857475E+03  0.00000000000E+00 0. -1.
         25    2    1    2    0    0 -0.50678602649E+02 -0.82182944199E+02 -0.95397493548E+02  0.18452112420E+03  0.12500002566E+03 0.  0.
          2    1    1    2  501    0  0.86463763718E+02 -0.36150751923E+02 -0.59039429830E+03  0.59778615471E+03  0.00000000000E+00 0. -1.
          1    1    1    2  502    0 -0.35785161069E+02  0.11833369612E+03  0.14766668525E+03  0.19258476399E+03  0.00000000000E+00 0. -1.
         22    1    3    3    0    0  0.32594269809E+02 -0.48938797024E+02 -0.80559595199E+01  0.59348890152E+02  0.00000000000E+00 0. -1.
         22    1    3    3    0    0 -0.83272872459E+02 -0.33244147175E+02 -0.87341534028E+02  0.12517223404E+03  0.00000000000E+00 0. -1.
</event>
<event>
 7    1  0.5452757E-006  0.4048723E+02  0.7818608E-02  0.1577936E+00
          2   -1    0    0  502    0  0.00000000000E+00  0.00000000000E+00  0.45213994497E+04  0.45213994497E+04  0.00000000000E+00 0. -1.
          1   -1    0    0  501    0 -0.00000000000E+00 -0.00000000000E+00 -0.49548353644E+01  0.49548353644E+01  0.00000000000E+00 0. -1.
         25    2    1    2    0    0  0.10568505350E+02  0.41269387764E+02  0.33859303597E+04  0.33885046951E+04  0.12499924778E+03 0.  0.
          2    1    1    2  501    0 -0.30888214465E+02 -0.26462528038E+02  0.11424540500E+03  0.12126978085E+03  0.00000000000E+00 0. -1.
          1    1    1    2  502    0  0.20319709115E+02 -0.14806859725E+02  0.10162688496E+04  0.10165798092E+04  0.00000000000E+00 0. -1.
         22    1    3    3    0    0 -0.20574843458E+02  0.56052150978E+02  0.30894320261E+04  0.30900089663E+04  0.00000000000E+00 0. -1.
         22    1    3    3    0    0  0.31143348807E+02 -0.14782763215E+02  0.29649833360E+03  0.29849572876E+03  0.00000000000E+00 0. -1.
</event>
<event>
 7    1  0.5452757E-006  0.4958915E+02  0.7818608E-02  0.1502869E+00
          2   -1    0    0  502    0  0.00000000000E+00  0.00000000000E+00  0.96237002589E+02  0.96237002589E+02  0.00000000000E+00 0. -1.
          1   -1    0    0  501    0 -0.00000000000E+00 -0.00000000000E+00 -0.10997756839E+04  0.10997756839E+04  0.00000000000E+00 0. -1.
         25    2    1    2    0    0  0.27169034592E+02 -0.63528083061E+02 -0.28715991105E+03  0.32071996237E+03  0.12500602372E+03 0.  0.
          2    1    1    2  501    0  0.29416583181E+01  0.48930953413E+02 -0.79152051246E+03  0.79303695576E+03  0.00000000000E+00 0. -1.
          1    1    1    2  502    0 -0.30110692910E+02  0.14597129648E+02  0.75141742157E+02  0.82255768405E+02  0.00000000000E+00 0. -1.
         22    1    3    3    0    0  0.41676749645E+02  0.27951918897E+02 -0.98074527816E+02  0.11016748267E+03  0.00000000000E+00 0.  1.
         22    1    3    3    0    0 -0.14507715053E+02 -0.91480001958E+02 -0.18908538324E+03  0.21055247970E+03  0.00000000000E+00 0.  1.
</event>
<event>
 7    1  0.5452757E-006  0.9261823E+02  0.7818608E-02  0.1332021E+00
          2   -1    0    0  502    0  0.00000000000E+00  0.00000000000E+00  0.16273201233E+04  0.16273201233E+04  0.00000000000E+00 0. -1.
          1   -1    0    0  501    0 -0.00000000000E+00 -0.00000000000E+00 -0.24989626358E+03  0.24989626358E+03  0.00000000000E+00 0. -1.
         25    2    1    2    0    0 -0.86477213264E+02 -0.11166350161E+03 -0.13990368972E+03  0.23483136739E+03  0.12500273080E+03 0.  0.
          2    1    1    2  501    0  0.56004577038E+01  0.67087480175E+02 -0.42638630005E+02  0.79687815200E+02  0.00000000000E+00 0. -1.
          1    1    1    2  502    0  0.80876755560E+02  0.44576021435E+02  0.15599661795E+04  0.15626972043E+04  0.00000000000E+00 0. -1.
         22    1    3    3    0    0 -0.10910969057E+02 -0.27310065498E+02 -0.11523023638E+03  0.11892390970E+03  0.00000000000E+00 0.  1.
         22    1    3    3    0    0 -0.75566244207E+02 -0.84353436111E+02 -0.24673453344E+02  0.11590745769E+03  0.00000000000E+00 0.  1.
</event>
<event>
 7    1  0.5452757E-006  0.1829484E+03  0.7818608E-02  0.1264347E+00
          2   -1    0    0  502    0  0.00000000000E+00  0.00000000000E+00  0.23959222727E+04  0.23959222727E+04  0.00000000000E+00 0. -1.
          1   -1    0    0  501    0 -0.00000000000E+00 -0.00000000000E+00 -0.13456094998E+04  0.13456094998E+04  0.00000000000E+00 0. -1.
         25    2    1    2    0    0 -0.17082450652E+03  0.94681655833E+02 -0.13787220768E+03  0.26977710148E+03  0.12500124340E+03 0.  0.
          2    1    1    2  501    0 -0.93352817018E+01 -0.63050785019E+02 -0.11373011788E+04  0.11390858265E+04  0.00000000000E+00 0. -1.
          1    1    1    2  502    0  0.18015978822E+03 -0.31630870814E+02  0.23254861593E+04  0.23326688445E+04  0.00000000000E+00 0. -1.
         22    1    3    3    0    0 -0.11398647244E+02  0.29253161614E+02  0.19035852124E+02  0.36715668175E+02  0.00000000000E+00 0.  1.
         22    1    3    3    0    0 -0.15942585927E+03  0.65428494219E+02 -0.15690805981E+03  0.23306143330E+03  0.00000000000E+00 0.  1.
</event>
<event>
 7    1  0.5452757E-006  0.1589302E+03  0.7818608E-02  0.1247717E+00
          2   -1    0    0  502    0  0.00000000000E+00  0.00000000000E+00  0.67499241852E+03  0.67499241852E+03  0.00000000000E+00 0. -1.
          1   -1    0    0  501    0 -0.00000000000E+00 -0.00000000000E+00 -0.38106314707E+03  0.38106314707E+03  0.00000000000E+00 0. -1.
         25    2    1    2    0    0 -0.17385502336E+03  0.30255892840E+02  0.23751107241E+03  0.32121381300E+03  0.12500326376E+03 0.  0.
          2    1    1    2  501    0  0.24524627380E+02 -0.82939021759E+02 -0.31734413873E+03  0.32891889739E+03  0.00000000000E+00 0. -1.
          1    1    1    2  502    0  0.14933039598E+03  0.52683128920E+02  0.37376233777E+03  0.40592285520E+03  0.00000000000E+00 0. -1.
         22    1    3    3    0    0 -0.48820596165E+02  0.47131397541E+02  0.15832536172E+03  0.17225486759E+03  0.00000000000E+00 0.  1.
         22    1    3    3    0    0 -0.12503442719E+03 -0.16875504701E+02  0.79185710687E+02  0.14895894541E+03  0.00000000000E+00 0.  1.
</event>
<event>
 7    1  0.5452757E-006  0.7092840E+02  0.7818608E-02  0.1444846E+00
          2   -1    0    0  502    0  0.00000000000E+00  0.00000000000E+00  0.16054807445E+04  0.16054807445E+04  0.00000000000E+00 0. -1.
          1   -1    0    0  501    0 -0.00000000000E+00 -0.00000000000E+00 -0.18957603768E+02  0.18957603768E+02  0.00000000000E+00 0. -1.
         25    2    1    2    0    0  0.23157944417E+02  0.56461036623E+02  0.41598526463E+03  0.43862579694E+03  0.12499884120E+03 0.  0.
          2    1    1    2  501    0 -0.31692009244E+02  0.15719868442E+02  0.41901703070E+02  0.54838402912E+02  0.00000000000E+00 0. -1.
          1    1    1    2  502    0  0.85340648269E+01 -0.72180905066E+02  0.11286361730E+04  0.11309741484E+04  0.00000000000E+00 0. -1.
         22    1    3    3    0    0 -0.22268666707E+02  0.80596185431E+02  0.20363142377E+03  0.22013040537E+03  0.00000000000E+00 0. -1.
         22    1    3    3    0    0  0.45426611124E+02 -0.24135148807E+02  0.21235384086E+03  0.21849539157E+03  0.00000000000E+00 0. -1.
</event>
<event>
 7    1  0.5452757E-006  0.1283032E+03  0.7818608E-02  0.1339564E+00
          2   -1    0    0  502    0  0.00000000000E+00  0.00000000000E+00  0.43176265185E+03  0.43176265185E+03  0.00000000000E+00 0. -1.
          1   -1    0    0  501    0 -0.00000000000E+00 -0.00000000000E+00 -0.34173073365E+03  0.34173073365E+03  0.00000000000E+00 0. -1.
         25    2    1    2    0    0  0.52521386503E+02 -0.77244622016E+02 -0.28263808646E+02  0.15859759234E+03  0.12501650189E+03 0.  0.
          2    1    1    2  501    0 -0.74213633794E+02  0.11724484761E+03 -0.22730568575E+03  0.26631164546E+03  0.00000000000E+00 0. -1.
          1    1    1    2  502    0  0.21692247291E+02 -0.40000225598E+02  0.34560141260E+03  0.34858414770E+03  0.00000000000E+00 0. -1.
         22    1    3    3    0    0  0.81919527001E+02 -0.10556275043E+02 -0.81836420879E+01  0.83001300259E+02  0.00000000000E+00 0.  1.
         22    1    3    3    0    0 -0.29398140499E+02 -0.66688346973E+02 -0.20080166558E+02  0.75596292077E+02  0.00000000000E+00 0.  1.
</event>
<event>
 7    1  0.5452757E-006  0.1283835E+03  0.7818608E-02  0.1395082E+00
          2   -1    0    0  502    0  0.00000000000E+00  0.00000000000E+00  0.39995543673E+03  0.39995543673E+03  0.00000000000E+00 0. -1.
          1   -1    0    0  501    0 -0.00000000000E+00 -0.00000000000E+00 -0.22298288095E+03  0.22298288095E+03  0.00000000000E+00 0. -1.
         25    2    1    2    0    0 -0.12807221753E+03 -0.30485129853E+02 -0.10518271117E+02  0.18184258015E+03  0.12499701550E+03 0.  0.
          2    1    1    2  501    0 -0.23059078339E+00  0.28660488709E+02 -0.11182255875E+03  0.11543726188E+03  0.00000000000E+00 0. -1.
          1    1    1    2  502    0  0.12830280831E+03  0.18246411439E+01  0.29931338564E+03  0.32565847565E+03  0.00000000000E+00 0. -1.
         22    1    3    3    0    0 -0.78833222453E+02  0.11464778482E+02  0.49344779923E+02  0.93707125735E+02  0.00000000000E+00 0.  1.
         22    1    3    3    0    0 -0.49238995075E+02 -0.41949908335E+02 -0.59863051040E+02  0.88135454416E+02  0.00000000000E+00 0.  1.
</event>
<event>
 7    1  0.5452757E-006  0.1100799E+03  0.7818608E-02  0.1293265E+00
          2   -1    0    0  502    0  0.00000000000E+00  0.00000000000E+00  0.18060535915E+04  0.18060535915E+04  0.00000000000E+00 0. -1.
          1   -1    0    0  501    0 -0.00000000000E+00 -0.00000000000E+00 -0.62686836392E+03  0.62686836392E+03  0.00000000000E+00 0. -1.
         25    2    1    2    0    0  0.78872761010E+02  0.58184620392E+02  0.38446161685E+02  0.16342701243E+03  0.12499567419E+03 0.  0.
          2    1    1    2  501    0 -0.18049553147E+02 -0.11077011710E+03 -0.55783805856E+03  0.56901590908E+03  0.00000000000E+00 0. -1.
          1    1    1    2  502    0 -0.60823207864E+02  0.52585496706E+02  0.16985771244E+04  0.17004790339E+04  0.00000000000E+00 0. -1.
         22    1    3    3    0    0  0.53511307390E+02  0.97728044330E+02  0.21421232412E+02  0.11345968388E+03  0.00000000000E+00 0. -1.
         22    1    3    3    0    0  0.25361453620E+02 -0.39543423938E+02  0.17024929274E+02  0.49967328558E+02  0.00000000000E+00 0. -1.
</event>
<event>
 7    1  0.5452757E-006  0.1004821E+03  0.7818608E-02  0.1440321E+00
          2   -1    0    0  502    0  0.00000000000E+00  0.00000000000E+00  0.28900756961E+03  0.28900756961E+03  0.00000000000E+00 0. -1.
          1   -1    0    0  501    0 -0.00000000000E+00 -0.00000000000E+00 -0.28742922927E+03  0.28742922927E+03  0.00000000000E+00 0. -1.
         25    2    1    2    0    0 -0.88752798885E+02  0.18813287472E+02 -0.62809128397E+02  0.16673571544E+03  0.12499925238E+03 0.  0.
          2    1    1    2  501    0  0.94209127176E+02 -0.44057613604E+02 -0.15617289546E+03  0.18763370229E+03  0.00000000000E+00 0. -1.
          1    1    1    2  502    0 -0.54563282914E+01  0.25244326132E+02  0.22056036419E+03  0.22206738116E+03  0.00000000000E+00 0. -1.
         22    1    3    3    0    0  0.93222384348E+00 -0.29976040444E+02 -0.57078727238E+02  0.64478005127E+02  0.00000000000E+00 0. -1.
         22    1    3    3    0    0 -0.89685022728E+02  0.48789327916E+02 -0.57304011582E+01  0.10225771031E+03  0.00000000000E+00 0. -1.
</event>
